<event>
 9    1  0.1504846E-005  0.1913338E+03  0.7546771E-02  0.1157382E+00
          2   -1    0    0  502    0 -0.00000000000E+00  0.00000000000E+00  0.81477614895E+03  0.81477614895E+03  0.00000000000E+00 0. -1.
         21   -1    0    0  501  502  0.00000000000E+00 -0.00000000000E+00 -0.64477270060E+02  0.64477270060E+02  0.00000000000E+00 0. -1.
         23    2    1    2    0    0 -0.67473983888E+00  0.15798620515E+03  0.42970743457E+03  0.46689099752E+03  0.91534845535E+02 0.  0.
         23    2    1    2    0    0  0.10677545349E+02 -0.18387558087E+03  0.32490875278E+03  0.38427407791E+03  0.90424720645E+02 0.  0.
        -11    1    4    4    0    0 -0.18789685902E+02 -0.11311734476E+03  0.12228346955E+03  0.16763601315E+03  0.00000000000E+00 0.  1.
         11    1    4    4    0    0  0.29467231251E+02 -0.70758236111E+02  0.20262528323E+03  0.21663806475E+03  0.00000000000E+00 0. -1.
        -13    1    3    3    0    0 -0.32129312919E+02  0.14386569852E+02  0.71646745574E+02  0.79828079596E+02  0.00000000000E+00 0.  1.
         13    1    3    3    0    0  0.31454573080E+02  0.14359963530E+03  0.35806068899E+03  0.38706291792E+03  0.00000000000E+00 0. -1.
          2    1    1    2  501    0 -0.10002805510E+02  0.25889375715E+02 -0.43173084592E+01  0.28088343584E+02  0.00000000000E+00 0. -1.
<scales pt_clust_5="13000.00000" pt_clust_6="13000.00000" pt_clust_7="13000.00000" pt_clust_8="13000.00000" pt_clust_9="27.75457"></scales>
<clustering>
<clus scale="   27.755">  2  9  1 -1</clus>
<clus scale="   90.425">  5  6 -1 -1</clus>
<clus scale="   91.535">  7  8 -1 -1</clus>
<clus scale="  190.805">  2  5  1 -1</clus>
<clus scale="   27.755">  2  5  1 -1</clus>
</clustering>
</event>
<event>
 9    1  0.1504846E-005  0.1773129E+03  0.7546771E-02  0.1170640E+00
          3   -1    0    0  502    0 -0.00000000000E+00  0.00000000000E+00  0.84912676808E+02  0.84912676808E+02  0.00000000000E+00 0. -1.
         21   -1    0    0  501  502  0.00000000000E+00 -0.00000000000E+00 -0.72957234032E+03  0.72957234032E+03  0.00000000000E+00 0.  1.
         23    2    1    2    0    0  0.28784172785E+02 -0.13745525519E+03 -0.75027366334E+02  0.18329530599E+03  0.90805218556E+02 0.  0.
         23    2    1    2    0    0 -0.41649336994E+02  0.17648982712E+03 -0.32754284761E+03  0.38563623051E+03  0.92453550019E+02 0.  0.
        -11    1    3    3    0    0  0.47878377256E+02 -0.80318481228E+02 -0.90359709079E+01  0.93941717068E+02  0.00000000000E+00 0.  1.
         11    1    3    3    0    0 -0.19094204471E+02 -0.57136773965E+02 -0.65991395426E+02  0.89353588925E+02  0.00000000000E+00 0. -1.
        -13    1    4    4    0    0 -0.13370137801E+02  0.85333104786E+02 -0.24385298562E+03  0.25869823725E+03  0.00000000000E+00 0.  1.
         13    1    4    4    0    0 -0.28279199193E+02  0.91156722335E+02 -0.83689861985E+02  0.12693799326E+03  0.00000000000E+00 0. -1.
          3    1    1    2  501    0  0.12865164209E+02 -0.39034571927E+02 -0.24208944956E+03  0.24555348062E+03  0.00000000000E+00 0. -1.
<scales pt_clust_5="13000.00000" pt_clust_6="13000.00000" pt_clust_7="13000.00000" pt_clust_8="13000.00000" pt_clust_9="41.10000"></scales>
<clustering>
<clus scale="   41.100">  2  9  1 -1</clus>
<clus scale="   90.805">  5  6 -1 -1</clus>
<clus scale="   92.454">  7  8 -1 -1</clus>
<clus scale="  176.459">  1  5  2 -1</clus>
<clus scale="   41.100">  2  5  1 -1</clus>
</clustering>
</event>
<event>
 9    1  0.1504846E-005  0.1083605E+03  0.7546771E-02  0.1263953E+00
          3   -1    0    0  502    0 -0.00000000000E+00  0.00000000000E+00  0.22068055503E+03  0.22068055503E+03  0.00000000000E+00 0. -1.
         21   -1    0    0  501  502  0.00000000000E+00 -0.00000000000E+00 -0.70926605428E+02  0.70926605428E+02  0.00000000000E+00 0.  1.
         23    2    1    2    0    0  0.10191885423E+02 -0.63396213178E+02  0.81718518855E+02  0.14157992092E+03  0.96145739942E+02 0.  0.
         23    2    1    2    0    0 -0.16532848721E+02  0.32550030351E+02  0.54210355179E+02  0.11563497987E+03  0.95393115050E+02 0.  0.
        -11    1    3    3    0    0 -0.20170346906E+02  0.18066254209E+02  0.99551985129E+01  0.28850275785E+02  0.00000000000E+00 0.  1.
         11    1    3    3    0    0  0.30362232329E+02 -0.81462467388E+02  0.71763320342E+02  0.11272964513E+03  0.00000000000E+00 0. -1.
        -13    1    4    4    0    0 -0.25141228155E+02  0.56888225767E+02  0.80080213766E+01  0.62709488838E+02  0.00000000000E+00 0.  1.
         13    1    4    4    0    0  0.86083794331E+01 -0.24338195415E+02  0.46202333803E+02  0.52925491035E+02  0.00000000000E+00 0. -1.
          3    1    1    2  501    0  0.63409632983E+01  0.30846182827E+02  0.13825075566E+02  0.34392259666E+02  0.00000000000E+00 0. -1.
<scales pt_clust_5="13000.00000" pt_clust_6="13000.00000" pt_clust_7="13000.00000" pt_clust_8="13000.00000" pt_clust_9="31.49119"></scales>
<clustering>
<clus scale="   31.491">  2  9  1 -1</clus>
<clus scale="   95.393">  7  8 -1 -1</clus>
<clus scale="   96.146">  5  6 -1 -1</clus>
<clus scale="  107.693">  2  7  1 -1</clus>
<clus scale="   31.491">  2  5  1 -1</clus>
</clustering>
</event>
<event>
 9    1  0.1504846E-005  0.1304105E+03  0.7546771E-02  0.1227230E+00
          1   -1    0    0  502    0 -0.00000000000E+00  0.00000000000E+00  0.42232372113E+03  0.42232372113E+03  0.00000000000E+00 0. -1.
         21   -1    0    0  501  502  0.00000000000E+00 -0.00000000000E+00 -0.10224932501E+03  0.10224932501E+03  0.00000000000E+00 0. -1.
         23    2    1    2    0    0 -0.32462123699E+02  0.92931740564E+02  0.27820442016E+03  0.30999309340E+03  0.94910066284E+02 0.  0.
         23    2    1    2    0    0  0.10290052251E+02 -0.73523256158E+02  0.95838768954E+02  0.15309076153E+03  0.93488808208E+02 0.  0.
        -11    1    4    4    0    0 -0.37325843789E+02 -0.53309375263E+02  0.68872337088E+02  0.94754983623E+02  0.00000000000E+00 0.  1.
         11    1    4    4    0    0  0.47615896040E+02 -0.20213880894E+02  0.26966431866E+02  0.58335777908E+02  0.00000000000E+00 0. -1.
        -13    1    3    3    0    0  0.26225292329E+02  0.13259669062E+02  0.11872968992E+03  0.12231240350E+03  0.00000000000E+00 0. -1.
         13    1    3    3    0    0 -0.58687416028E+02  0.79672071502E+02  0.15947473023E+03  0.18768068990E+03  0.00000000000E+00 0.  1.
          1    1    1    2  501    0  0.22172071448E+02 -0.19408484406E+02 -0.53968792988E+02  0.61489191211E+02  0.00000000000E+00 0. -1.
<scales pt_clust_5="13000.00000" pt_clust_6="13000.00000" pt_clust_7="13000.00000" pt_clust_8="13000.00000" pt_clust_9="29.46676"></scales>
<clustering>
<clus scale="   29.467">  2  9  1 -1</clus>
<clus scale="   93.489">  5  6 -1 -1</clus>
<clus scale="   94.910">  7  8 -1 -1</clus>
<clus scale="  129.380">  2  5  1 -1</clus>
<clus scale="   29.467">  2  5  1 -1</clus>
</clustering>
</event>
<event>
 9    1  0.1504846E-005  0.9295806E+02  0.7546771E-02  0.1299427E+00
          1   -1    0    0  502    0 -0.00000000000E+00  0.00000000000E+00  0.42226915499E+03  0.42226915499E+03  0.00000000000E+00 0. -1.
         21   -1    0    0  501  502  0.00000000000E+00 -0.00000000000E+00 -0.48715382904E+02  0.48715382904E+02  0.00000000000E+00 0. -1.
         23    2    1    2    0    0  0.21681925918E+02 -0.95577897250E+01  0.21247536655E+03  0.23310729695E+03  0.92907336879E+02 0.  0.
         23    2    1    2    0    0  0.38018793949E+02 -0.12524397183E+02  0.14233426042E+03  0.17152106634E+03  0.86937594245E+02 0.  0.
        -11    1    3    3    0    0  0.12863754764E+02  0.23007602593E+02  0.10565620362E+02  0.28398209404E+02  0.00000000000E+00 0.  1.
         11    1    3    3    0    0  0.88181711544E+01 -0.32565392318E+02  0.20190974619E+03  0.20470908755E+03  0.00000000000E+00 0. -1.
        -13    1    4    4    0    0  0.13519354579E+02 -0.45717426187E+02  0.10723508873E+03  0.11735510326E+03  0.00000000000E+00 0. -1.
         13    1    4    4    0    0  0.24499439370E+02  0.33193029004E+02  0.35099171682E+02  0.54165963083E+02  0.00000000000E+00 0.  1.
          1    1    1    2  501    0 -0.59700719867E+02  0.22082186908E+02  0.18744145124E+02  0.66356174601E+02  0.00000000000E+00 0. -1.
<scales pt_clust_5="13000.00000" pt_clust_6="13000.00000" pt_clust_7="13000.00000" pt_clust_8="13000.00000" pt_clust_9="63.65374"></scales>
<clustering>
<clus scale="   63.654">  2  9  1 -1</clus>
<clus scale="   86.938">  7  8 -1 -1</clus>
<clus scale="   86.992">  2  7  1 -1</clus>
<clus scale="   92.907">  5  6 -1 -1</clus>
<clus scale="   63.654">  2  5  1 -1</clus>
</clustering>
</event>
<event>
 9    1  0.1504846E-005  0.9645968E+02  0.7546771E-02  0.1288054E+00
          1   -1    0    0  502    0 -0.00000000000E+00  0.00000000000E+00  0.20965229095E+03  0.20965229095E+03  0.00000000000E+00 0. -1.
         21   -1    0    0  501  502  0.00000000000E+00 -0.00000000000E+00 -0.88374692339E+02  0.88374692339E+02  0.00000000000E+00 0.  1.
         23    2    1    2    0    0  0.16031099417E+02 -0.21755060155E+02  0.12445960218E+03  0.15683542440E+03  0.91525291493E+02 0.  0.
         23    2    1    2    0    0  0.65074902382E+01  0.49190457712E+02  0.73733440206E+01  0.10414963095E+03  0.91272837498E+02 0.  0.
        -11    1    3    3    0    0  0.95803252321E+01 -0.54894008593E+02  0.10217652912E+03  0.11638375279E+03  0.00000000000E+00 0. -1.
         11    1    3    3    0    0  0.64507741849E+01  0.33138948438E+02  0.22283073053E+02  0.40451671607E+02  0.00000000000E+00 0.  1.
        -11    1    4    4    0    0  0.44878410060E+02  0.13753340775E+02 -0.11988064943E+02  0.48445224461E+02  0.00000000000E+00 0.  1.
         11    1    4    4    0    0 -0.38370919822E+02  0.35437116937E+02  0.19361408963E+02  0.55704406485E+02  0.00000000000E+00 0. -1.
          1    1    1    2  501    0 -0.22538589655E+02 -0.27435397557E+02 -0.10555347588E+02  0.37041927939E+02  0.00000000000E+00 0. -1.
<scales pt_clust_5="13000.00000" pt_clust_6="13000.00000" pt_clust_7="13000.00000" pt_clust_8="13000.00000" pt_clust_9="35.50618"></scales>
<clustering>
<clus scale="   35.506">  2  9  1 -1</clus>
<clus scale="   91.273">  7  8 -1 -1</clus>
<clus scale="   91.525">  5  6 -1 -1</clus>
<clus scale="   96.220">  2  7  1 -1</clus>
<clus scale="   35.506">  2  5  1 -1</clus>
</clustering>
</event>
<event>
 9    1  0.1504846E-005  0.1095350E+03  0.7546771E-02  0.1263457E+00
         21   -1    0    0  501  502  0.00000000000E+00  0.00000000000E+00  0.18001697428E+03  0.18001697428E+03  0.00000000000E+00 0. -1.
          3   -1    0    0  502    0 -0.00000000000E+00 -0.00000000000E+00 -0.51252546115E+03  0.51252546115E+03  0.00000000000E+00 0. -1.
         23    2    1    2    0    0  0.48996123155E+02 -0.13601405375E+02 -0.42434552631E+03  0.43805046052E+03  0.96090904621E+02 0.  0.
         23    2    1    2    0    0 -0.53163077953E+02  0.39516601346E+02 -0.40344623827E+02  0.11972939478E+03  0.91211647634E+02 0.  0.
        -13    1    3    3    0    0  0.65735476115E+01 -0.47293866031E+02 -0.12434192682E+03  0.13319472984E+03  0.00000000000E+00 0.  1.
         13    1    3    3    0    0  0.42422575543E+02  0.33692460656E+02 -0.30000359950E+03  0.30485573069E+03  0.00000000000E+00 0. -1.
        -13    1    4    4    0    0 -0.42380158611E+02  0.53456722186E+01  0.21828314833E+02  0.47970088428E+02  0.00000000000E+00 0.  1.
         13    1    4    4    0    0 -0.10782919342E+02  0.34170929127E+02 -0.62172938660E+02  0.71759306355E+02  0.00000000000E+00 0. -1.
          3    1    1    2  501    0  0.41669547982E+01 -0.25915195971E+02  0.13218166328E+03  0.13476258012E+03  0.00000000000E+00 0. -1.
<scales pt_clust_5="13000.00000" pt_clust_6="13000.00000" pt_clust_7="13000.00000" pt_clust_8="13000.00000" pt_clust_9="26.24806"></scales>
<clustering>
<clus scale="   26.248">  1  9  2 -1</clus>
<clus scale="   91.212">  7  8 -1 -1</clus>
<clus scale="   96.091">  5  6 -1 -1</clus>
<clus scale="  105.281">  1  7  2 -1</clus>
<clus scale="   26.248">  1  5  2 -1</clus>
</clustering>
</event>
<event>
 9    1  0.1504846E-005  0.1223048E+03  0.7546771E-02  0.1239686E+00
         21   -1    0    0  501  502  0.00000000000E+00  0.00000000000E+00  0.22139575176E+03  0.22139575176E+03  0.00000000000E+00 0.  1.
          2   -1    0    0  502    0 -0.00000000000E+00 -0.00000000000E+00 -0.93107392185E+02  0.93107392185E+02  0.00000000000E+00 0. -1.
         23    2    1    2    0    0 -0.47381754514E+02 -0.73913256045E+02 -0.48033854236E+01  0.12555720325E+03  0.89628894322E+02 0.  0.
         23    2    1    2    0    0  0.32693776092E+02  0.60217490355E+02  0.11740979336E+03  0.16346586386E+03  0.90779953360E+02 0.  0.
        -11    1    4    4    0    0  0.31707858897E+01  0.30839208546E+02  0.11780337379E+03  0.12181438972E+03  0.00000000000E+00 0.  1.
         11    1    4    4    0    0  0.29522990202E+02  0.29378281809E+02 -0.39358043126E+00  0.41651474141E+02  0.00000000000E+00 0. -1.
        -11    1    3    3    0    0  0.65865536988E+01 -0.70572679510E+02 -0.83494373883E+01  0.71369453462E+02  0.00000000000E+00 0. -1.
         11    1    3    3    0    0 -0.53968308212E+02 -0.33405765355E+01  0.35460519647E+01  0.54187749791E+02  0.00000000000E+00 0.  1.
          2    1    1    2  501    0  0.14687978422E+02  0.13695765690E+02  0.15681951636E+02  0.25480076826E+02  0.00000000000E+00 0. -1.
<scales pt_clust_5="13000.00000" pt_clust_6="13000.00000" pt_clust_7="13000.00000" pt_clust_8="13000.00000" pt_clust_9="20.08260"></scales>
<clustering>
<clus scale="   20.083">  1  9  2 -1</clus>
<clus scale="   89.629">  7  8 -1 -1</clus>
<clus scale="   90.780">  5  6 -1 -1</clus>
<clus scale="  121.453">  2  7  1 -1</clus>
<clus scale="   20.083">  1  5  2 -1</clus>
</clustering>
</event>
<event>
 9    1  0.1504846E-005  0.3738961E+03  0.7546771E-02  0.1091516E+00
         -4   -1    0    0    0  501 -0.00000000000E+00  0.00000000000E+00  0.77635633056E+03  0.77635633056E+03  0.00000000000E+00 0.  1.
         21   -1    0    0  501  502  0.00000000000E+00 -0.00000000000E+00 -0.25216930764E+03  0.25216930764E+03  0.00000000000E+00 0.  1.
         23    2    1    2    0    0  0.76676929285E+02 -0.53960438113E+02  0.85137170897E+02  0.15641021747E+03  0.91786370963E+02 0.  0.
         23    2    1    2    0    0 -0.36757205691E+03  0.19856032663E+03  0.27188968450E+03  0.50677773496E+03  0.91456283473E+02 0.  0.
        -11    1    3    3    0    0  0.54016560183E+02 -0.62688267973E+02  0.98537616438E+02  0.12867505418E+03  0.00000000000E+00 0. -1.
         11    1    3    3    0    0  0.22660369102E+02  0.87278298600E+01 -0.13400445541E+02  0.27735163288E+02  0.00000000000E+00 0.  1.
        -13    1    4    4    0    0 -0.11200116941E+03  0.35233879213E+02  0.11879913449E+03  0.16702970558E+03  0.00000000000E+00 0. -1.
         13    1    4    4    0    0 -0.25557088750E+03  0.16332644742E+03  0.15309055001E+03  0.33974802938E+03  0.00000000000E+00 0.  1.
         -4    1    1    2    0  502  0.29089512762E+03 -0.14459988852E+03  0.16716016753E+03  0.36533768577E+03  0.00000000000E+00 0.  1.
<scales pt_clust_5="13000.00000" pt_clust_6="13000.00000" pt_clust_7="13000.00000" pt_clust_8="13000.00000" pt_clust_9="362.53833"></scales>
<clustering>
<clus scale="   91.456">  7  8 -1 -1</clus>
<clus scale="   91.786">  5  6 -1 -1</clus>
<clus scale="  131.209">  1  5  2 -1</clus>
<clus scale="  362.538">  2  9  1 -1</clus>
<clus scale="  362.538">  2  5  1 -1</clus>
</clustering>
</event>
<event>
 9    1  0.1504846E-005  0.1244099E+03  0.7546771E-02  0.1237583E+00
          2   -1    0    0  502    0 -0.00000000000E+00  0.00000000000E+00  0.64324596529E+03  0.64324596529E+03  0.00000000000E+00 0.  1.
         21   -1    0    0  501  502  0.00000000000E+00 -0.00000000000E+00 -0.63964904687E+02  0.63964904687E+02  0.00000000000E+00 0. -1.
         23    2    1    2    0    0  0.69830079696E+02  0.43435617277E+02  0.53343273496E+03  0.54752548011E+03  0.92036817460E+02 0.  0.
         23    2    1    2    0    0 -0.68895413081E+02 -0.66749504052E+02  0.34603111443E+02  0.13378431342E+03  0.86595571259E+02 0.  0.
        -11    1    3    3    0    0  0.20850047415E+01  0.52871893527E+02  0.18378741809E+03  0.19125271088E+03  0.00000000000E+00 0. -1.
         11    1    3    3    0    0  0.67745074955E+02 -0.94362762492E+01  0.34964531687E+03  0.35627276924E+03  0.00000000000E+00 0.  1.
        -13    1    4    4    0    0 -0.88558736584E+02 -0.43589984618E+02  0.23745321647E+02  0.10152131246E+03  0.00000000000E+00 0. -1.
         13    1    4    4    0    0  0.19663323503E+02 -0.23159519434E+02  0.10857789796E+02  0.32263000959E+02  0.00000000000E+00 0.  1.
          2    1    1    2  501    0 -0.93466661470E+00  0.23313886775E+02  0.11245214196E+02  0.25901076436E+02  0.00000000000E+00 0.  1.
<scales pt_clust_5="13000.00000" pt_clust_6="13000.00000" pt_clust_7="13000.00000" pt_clust_8="13000.00000" pt_clust_9="23.33261"></scales>
<clustering>
<clus scale="   23.333">  2  9  1 -1</clus>
<clus scale="   86.596">  7  8 -1 -1</clus>
<clus scale="   92.037">  5  6 -1 -1</clus>
<clus scale="  120.440">  2  7  1 -1</clus>
<clus scale="   23.333">  2  5  1 -1</clus>
</clustering>
</event>
<event>
 9    1  0.1504846E-005  0.1312032E+03  0.7546771E-02  0.1231345E+00
         21   -1    0    0  501  502  0.00000000000E+00  0.00000000000E+00  0.41492867479E+02  0.41492867479E+02  0.00000000000E+00 0. -1.
          3   -1    0    0  502    0 -0.00000000000E+00 -0.00000000000E+00 -0.55673819724E+03  0.55673819724E+03  0.00000000000E+00 0. -1.
         23    2    1    2    0    0 -0.58607597150E+01 -0.92000049664E+02 -0.32116762030E+03  0.35179780203E+03  0.11006677766E+03 0.  0.
         23    2    1    2    0    0  0.60792058401E+01  0.44476813106E+02 -0.11462829226E+03  0.15385510314E+03  0.92285446997E+02 0.  0.
        -13    1    4    4    0    0  0.22340223749E+02 -0.23651942805E+02 -0.38548410564E+02  0.50442838467E+02  0.00000000000E+00 0. -1.
         13    1    4    4    0    0 -0.16261017908E+02  0.68128755911E+02 -0.76079881692E+02  0.10341226467E+03  0.00000000000E+00 0.  1.
        -13    1    3    3    0    0 -0.27610693775E+02  0.16265691488E+02 -0.55392712190E+02  0.63994341110E+02  0.00000000000E+00 0.  1.
         13    1    3    3    0    0  0.21749934060E+02 -0.10826574115E+03 -0.26577490811E+03  0.28780346092E+03  0.00000000000E+00 0. -1.
          3    1    1    2  501    0 -0.21844612506E+00  0.47523236558E+02 -0.79449417206E+02  0.92578159551E+02  0.00000000000E+00 0. -1.
<scales pt_clust_5="13000.00000" pt_clust_6="13000.00000" pt_clust_7="13000.00000" pt_clust_8="13000.00000" pt_clust_9="47.52374"></scales>
<clustering>
<clus scale="   47.524">  1  9  2 -1</clus>
<clus scale="   92.285">  5  6 -1 -1</clus>
<clus scale="  110.067">  7  8 -1 -1</clus>
<clus scale="  116.688">  1  5  2 -1</clus>
<clus scale="   47.524">  1  5  2 -1</clus>
</clustering>
</event>
<event>
 9    1  0.1504846E-005  0.9586043E+02  0.7546771E-02  0.1289782E+00
         21   -1    0    0  501  502  0.00000000000E+00  0.00000000000E+00  0.17785463734E+03  0.17785463734E+03  0.00000000000E+00 0.  1.
          1   -1    0    0  502    0 -0.00000000000E+00 -0.00000000000E+00 -0.87343878664E+02  0.87343878664E+02  0.00000000000E+00 0. -1.
         23    2    1    2    0    0 -0.89488663790E+01 -0.92319401057E+00  0.96508672289E+00  0.93553891938E+02  0.93115330681E+02 0.  0.
         23    2    1    2    0    0  0.30772970060E+02 -0.65468031133E+00  0.23048958309E+02  0.10164038052E+03  0.94085642799E+02 0.  0.
        -11    1    3    3    0    0 -0.10554340873E+02  0.20679374875E+02  0.41523307976E+02  0.47573267301E+02  0.00000000000E+00 0.  1.
         11    1    3    3    0    0  0.16054744938E+01 -0.21602568886E+02 -0.40558221253E+02  0.45980624637E+02  0.00000000000E+00 0. -1.
        -13    1    4    4    0    0  0.24180504094E+02  0.45479029692E+02  0.18852779570E+02  0.54849486939E+02  0.00000000000E+00 0.  1.
         13    1    4    4    0    0  0.65924659662E+01 -0.46133710004E+02  0.41961787396E+01  0.46790893582E+02  0.00000000000E+00 0. -1.
          1    1    1    2  501    0 -0.21824103681E+02  0.15778743219E+01  0.66496713645E+02  0.70004243546E+02  0.00000000000E+00 0. -1.
<scales pt_clust_5="13000.00000" pt_clust_6="13000.00000" pt_clust_7="13000.00000" pt_clust_8="13000.00000" pt_clust_9="21.88107"></scales>
<clustering>
<clus scale="   21.881">  1  9  2 -1</clus>
<clus scale="   93.115">  5  6 -1 -1</clus>
<clus scale="   94.086">  7  8 -1 -1</clus>
<clus scale="   94.908">  2  5  1 -1</clus>
<clus scale="   21.881">  1  5  2 -1</clus>
</clustering>
</event>
<event>
 9    1  0.1504846E-005  0.1224345E+03  0.7546771E-02  0.1239814E+00
         21   -1    0    0  501  502  0.00000000000E+00  0.00000000000E+00  0.50885952905E+02  0.50885952905E+02  0.00000000000E+00 0. -1.
         -2   -1    0    0    0  501 -0.00000000000E+00 -0.00000000000E+00 -0.62928089275E+03  0.62928089275E+03  0.00000000000E+00 0.  1.
         23    2    1    2    0    0 -0.50374356540E+02  0.39097920710E+02 -0.30460154632E+03  0.32395131142E+03  0.89978480485E+02 0.  0.
         23    2    1    2    0    0  0.10692976137E+03 -0.47945453157E+02 -0.25600810175E+03  0.29627298466E+03  0.92221434230E+02 0.  0.
        -11    1    3    3    0    0 -0.56998259471E+02  0.98809697471E+00 -0.94850812662E+02  0.11066370038E+03  0.00000000000E+00 0.  1.
         11    1    3    3    0    0  0.66239029308E+01  0.38109823735E+02 -0.20975073366E+03  0.21328761104E+03  0.00000000000E+00 0. -1.
        -11    1    4    4    0    0  0.20029865668E+02 -0.95014199257E+01  0.10701173500E+01  0.22194991562E+02  0.00000000000E+00 0.  1.
         11    1    4    4    0    0  0.86899895706E+02 -0.38444033231E+02 -0.25707821910E+03  0.27407799309E+03  0.00000000000E+00 0. -1.
         -2    1    1    2    0  502 -0.56555404835E+02  0.88475324468E+01 -0.17785291782E+02  0.59942549580E+02  0.00000000000E+00 0.  1.
<scales pt_clust_5="13000.00000" pt_clust_6="13000.00000" pt_clust_7="13000.00000" pt_clust_8="13000.00000" pt_clust_9="57.24328"></scales>
<clustering>
<clus scale="   57.243">  1  9  2 -1</clus>
<clus scale="   89.978">  5  6 -1 -1</clus>
<clus scale="   92.221">  7  8 -1 -1</clus>
<clus scale="  120.754">  2  5  1 -1</clus>
<clus scale="   57.243">  1  5  2 -1</clus>
</clustering>
</event>
<event>
 9    1  0.1504846E-005  0.9872488E+02  0.7546771E-02  0.1284099E+00
         21   -1    0    0  501  502  0.00000000000E+00  0.00000000000E+00  0.20634351243E+03  0.20634351243E+03  0.00000000000E+00 0. -1.
          2   -1    0    0  502    0 -0.00000000000E+00 -0.00000000000E+00 -0.12672189054E+03  0.12672189054E+03  0.00000000000E+00 0. -1.
         23    2    1    2    0    0 -0.20655580608E+02  0.45427720666E+02 -0.43397675899E+02  0.11157392691E+03  0.89861293547E+02 0.  0.
         23    2    1    2    0    0 -0.38472859234E+01 -0.18478070593E+02  0.80224502536E+00  0.93962333926E+02  0.92043662997E+02 0.  0.
        -11    1    4    4    0    0  0.15391470460E+02 -0.52589299610E+02  0.68068060577E+00  0.54799590532E+02  0.00000000000E+00 0.  1.
         11    1    4    4    0    0 -0.19238756383E+02  0.34111229017E+02  0.12156441959E+00  0.39162743394E+02  0.00000000000E+00 0. -1.
        -11    1    3    3    0    0  0.27178140820E+02 -0.32878774824E+01  0.50753150429E+01  0.27842778230E+02  0.00000000000E+00 0.  1.
         11    1    3    3    0    0 -0.47833721428E+02  0.48715598148E+02 -0.48472990942E+02  0.83731148681E+02  0.00000000000E+00 0. -1.
          2    1    1    2  501    0  0.24502866531E+02 -0.26949650073E+02  0.12221705277E+03  0.12752914214E+03  0.00000000000E+00 0. -1.
<scales pt_clust_5="13000.00000" pt_clust_6="13000.00000" pt_clust_7="13000.00000" pt_clust_8="13000.00000" pt_clust_9="36.42354"></scales>
<clustering>
<clus scale="   36.424">  1  9  2 -1</clus>
<clus scale="   89.861">  7  8 -1 -1</clus>
<clus scale="   92.044">  5  6 -1 -1</clus>
<clus scale="   96.693">  2  7  1 -1</clus>
<clus scale="   36.424">  1  5  2 -1</clus>
</clustering>
</event>
<event>
 9    1  0.1504846E-005  0.1296692E+03  0.7546771E-02  0.1228216E+00
          2   -1    0    0  502    0 -0.00000000000E+00  0.00000000000E+00  0.35032933222E+03  0.35032933222E+03  0.00000000000E+00 0. -1.
         21   -1    0    0  501  502  0.00000000000E+00 -0.00000000000E+00 -0.10956928699E+03  0.10956928699E+03  0.00000000000E+00 0. -1.
         23    2    1    2    0    0  0.10099960818E+03  0.20986362428E+02  0.20200285592E+03  0.24462228242E+03  0.91616368581E+02 0.  0.
         23    2    1    2    0    0 -0.72897583011E+02 -0.24320746384E+02  0.95133493375E+02  0.15219599442E+03  0.90596262841E+02 0.  0.
        -11    1    4    4    0    0 -0.92643170741E+02 -0.18198145178E+02  0.61370565784E+02  0.11260673123E+03  0.00000000000E+00 0. -1.
         11    1    4    4    0    0  0.19745587730E+02 -0.61226012070E+01  0.33762927591E+02  0.39589263189E+02  0.00000000000E+00 0.  1.
        -13    1    3    3    0    0  0.66105044766E+02 -0.21939765742E+02  0.58960913105E+02  0.91255791808E+02  0.00000000000E+00 0.  1.
         13    1    3    3    0    0  0.34894563414E+02  0.42926128170E+02  0.14304194282E+03  0.15336649061E+03  0.00000000000E+00 0. -1.
          2    1    1    2  501    0 -0.28102025169E+02  0.33343839568E+01 -0.56376304069E+02  0.63080342386E+02  0.00000000000E+00 0. -1.
<scales pt_clust_5="13000.00000" pt_clust_6="13000.00000" pt_clust_7="13000.00000" pt_clust_8="13000.00000" pt_clust_9="28.29915"></scales>
<clustering>
<clus scale="   28.299">  2  9  1 -1</clus>
<clus scale="   90.596">  5  6 -1 -1</clus>
<clus scale="   91.616">  7  8 -1 -1</clus>
<clus scale="  128.950">  2  5  1 -1</clus>
<clus scale="   28.299">  2  5  1 -1</clus>
</clustering>
</event>
<event>
 9    1  0.1504846E-005  0.8965579E+02  0.7546771E-02  0.1304669E+00
         -3   -1    0    0    0  501 -0.00000000000E+00  0.00000000000E+00  0.14901533258E+03  0.14901533258E+03  0.00000000000E+00 0.  1.
         21   -1    0    0  501  502  0.00000000000E+00 -0.00000000000E+00 -0.14174536468E+03  0.14174536468E+03  0.00000000000E+00 0.  1.
         23    2    1    2    0    0  0.85167878121E+01 -0.14680580729E+02  0.52773420092E+02  0.10363263404E+03  0.87559316146E+02 0.  0.
         23    2    1    2    0    0 -0.20109675261E+01 -0.41847937115E+02  0.19824615681E+02  0.10049345421E+03  0.89166277940E+02 0.  0.
        -11    1    4    4    0    0 -0.74378889561E+01 -0.68286609402E+02  0.24835470326E+02  0.73042342528E+02  0.00000000000E+00 0.  1.
         11    1    4    4    0    0  0.54269214300E+01  0.26438672286E+02 -0.50108546454E+01  0.27451111685E+02  0.00000000000E+00 0. -1.
        -13    1    3    3    0    0 -0.35886567432E+02 -0.19247895864E+02  0.40282954932E+02  0.57280395209E+02  0.00000000000E+00 0.  1.
         13    1    3    3    0    0  0.44403355244E+02  0.45673151346E+01  0.12490465160E+02  0.46352238828E+02  0.00000000000E+00 0. -1.
         -3    1    1    2    0  502 -0.65058202860E+01  0.56528517844E+02 -0.65328067867E+02  0.86634609011E+02  0.00000000000E+00 0.  1.
<scales pt_clust_5="13000.00000" pt_clust_6="13000.00000" pt_clust_7="13000.00000" pt_clust_8="13000.00000" pt_clust_9="56.90166"></scales>
<clustering>
<clus scale="   56.902">  2  9  1 -1</clus>
<clus scale="   87.559">  7  8 -1 -1</clus>
<clus scale="   88.058">  1  7  2 -1</clus>
<clus scale="   89.166">  5  6 -1 -1</clus>
<clus scale="   56.902">  2  5  1 -1</clus>
</clustering>
</event>
<event>
 9    1  0.1504846E-005  0.1396001E+03  0.7546771E-02  0.1214012E+00
         -3   -1    0    0    0  501 -0.00000000000E+00  0.00000000000E+00  0.13842198510E+03  0.13842198510E+03  0.00000000000E+00 0.  1.
         21   -1    0    0  501  502  0.00000000000E+00 -0.00000000000E+00 -0.29612787166E+03  0.29612787166E+03  0.00000000000E+00 0. -1.
         23    2    1    2    0    0  0.59772063574E+01 -0.98398818153E+02  0.34006239206E+02  0.13895456185E+03  0.91836221316E+02 0.  0.
         23    2    1    2    0    0  0.17594376683E+02  0.11989192285E+03 -0.65116928141E+02  0.16504294088E+03  0.91188391520E+02 0.  0.
        -13    1    4    4    0    0  0.39160798375E+02  0.76651980149E+02 -0.27133312647E+01  0.86118850183E+02  0.00000000000E+00 0.  1.
         13    1    4    4    0    0 -0.21566421692E+02  0.43239942705E+02 -0.62403596876E+02  0.78924090700E+02  0.00000000000E+00 0. -1.
        -13    1    3    3    0    0  0.43832659157E+02 -0.68166209014E+02  0.39574834653E+02  0.90189254337E+02  0.00000000000E+00 0. -1.
         13    1    3    3    0    0 -0.37855452799E+02 -0.30232609139E+02 -0.55685954479E+01  0.48765307517E+02  0.00000000000E+00 0.  1.
         -3    1    1    2    0  502 -0.23571583040E+02 -0.21493104702E+02 -0.12659519763E+03  0.13055235402E+03  0.00000000000E+00 0.  1.
<scales pt_clust_5="13000.00000" pt_clust_6="13000.00000" pt_clust_7="13000.00000" pt_clust_8="13000.00000" pt_clust_9="31.89942"></scales>
<clustering>
<clus scale="   31.899">  2  9  1 -1</clus>
<clus scale="   91.188">  5  6 -1 -1</clus>
<clus scale="   91.836">  7  8 -1 -1</clus>
<clus scale="  139.175">  2  5  1 -1</clus>
<clus scale="   31.899">  2  5  1 -1</clus>
</clustering>
</event>
<event>
 9    1  0.1504846E-005  0.1211784E+03  0.7546771E-02  0.1243046E+00
         21   -1    0    0  501  502  0.00000000000E+00  0.00000000000E+00  0.12631235329E+04  0.12631235329E+04  0.00000000000E+00 0. -1.
         -1   -1    0    0    0  501 -0.00000000000E+00 -0.00000000000E+00 -0.27233815186E+02  0.27233815186E+02  0.00000000000E+00 0.  1.
         23    2    1    2    0    0 -0.17640411723E+02 -0.51778098375E+02  0.18358261224E+03  0.21370110550E+03  0.94728197368E+02 0.  0.
         23    2    1    2    0    0  0.13444892136E+02  0.12107369230E+03  0.76257763768E+03  0.77872563619E+03  0.10024649060E+03 0.  0.
        -11    1    4    4    0    0  0.29814417529E+02  0.35645692288E+01  0.71680570777E+02  0.77715570340E+02  0.00000000000E+00 0.  1.
         11    1    4    4    0    0 -0.16369525394E+02  0.11750912307E+03  0.69089706690E+03  0.70101006585E+03  0.00000000000E+00 0. -1.
        -11    1    3    3    0    0 -0.24297859304E+02 -0.15872102199E+02  0.26761794964E+01  0.29145694908E+02  0.00000000000E+00 0. -1.
         11    1    3    3    0    0  0.66574475804E+01 -0.35905996176E+02  0.18090643274E+03  0.18455541059E+03  0.00000000000E+00 0.  1.
         -1    1    1    2    0  502  0.41955195875E+01 -0.69295593925E+02  0.28972946783E+03  0.29793060643E+03  0.00000000000E+00 0.  1.
<scales pt_clust_5="13000.00000" pt_clust_6="13000.00000" pt_clust_7="13000.00000" pt_clust_8="13000.00000" pt_clust_9="69.42249"></scales>
<clustering>
<clus scale="   69.422">  1  9  2 -1</clus>
<clus scale="   94.728">  7  8 -1 -1</clus>
<clus scale="  100.246">  5  6 -1 -1</clus>
<clus scale="  116.654">  2  7  1 -1</clus>
<clus scale="   69.422">  1  5  2 -1</clus>
</clustering>
</event>
<event>
 9    1  0.1504846E-005  0.1111369E+03  0.7546771E-02  0.1259506E+00
         21   -1    0    0  501  502  0.00000000000E+00  0.00000000000E+00  0.36915017932E+03  0.36915017932E+03  0.00000000000E+00 0. -1.
         -4   -1    0    0    0  501 -0.00000000000E+00 -0.00000000000E+00 -0.65907735343E+02  0.65907735343E+02  0.00000000000E+00 0.  1.
         23    2    1    2    0    0  0.93569852546E+01  0.52524779419E+02  0.65121665453E+02  0.12373024191E+03  0.90674890823E+02 0.  0.
         23    2    1    2    0    0  0.31823193919E+01 -0.75886822664E+02  0.59114889317E+02  0.13036876140E+03  0.87934673481E+02 0.  0.
        -11    1    3    3    0    0  0.16994686781E+02  0.72413883248E+02  0.25298096006E+02  0.78565791076E+02  0.00000000000E+00 0.  1.
         11    1    3    3    0    0 -0.76377015262E+01 -0.19889103829E+02  0.39823569447E+02  0.45164450835E+02  0.00000000000E+00 0. -1.
        -13    1    4    4    0    0 -0.23213571980E+02  0.59776736953E+01 -0.31581783095E+01  0.24178018883E+02  0.00000000000E+00 0.  1.
         13    1    4    4    0    0  0.26395891372E+02 -0.81864496360E+02  0.62273067626E+02  0.10619074252E+03  0.00000000000E+00 0. -1.
         -4    1    1    2    0  502 -0.12539304647E+02  0.23362043245E+02  0.17900588921E+03  0.18095891135E+03  0.00000000000E+00 0.  1.
<scales pt_clust_5="13000.00000" pt_clust_6="13000.00000" pt_clust_7="13000.00000" pt_clust_8="13000.00000" pt_clust_9="26.51451"></scales>
<clustering>
<clus scale="   26.515">  1  9  2 -1</clus>
<clus scale="   87.935">  7  8 -1 -1</clus>
<clus scale="   90.675">  5  6 -1 -1</clus>
<clus scale="  108.913">  1  7  2 -1</clus>
<clus scale="   26.515">  1  5  2 -1</clus>
</clustering>
</event>
<event>
 9    1  0.1504846E-005  0.1243697E+03  0.7546771E-02  0.1246171E+00
         21   -1    0    0  501  502  0.00000000000E+00  0.00000000000E+00  0.40687481784E+03  0.40687481784E+03  0.00000000000E+00 0. -1.
         -3   -1    0    0    0  501 -0.00000000000E+00 -0.00000000000E+00 -0.46885083284E+02  0.46885083284E+02  0.00000000000E+00 0.  1.
         23    2    1    2    0    0 -0.38877268412E+02 -0.52413912318E+00  0.87228939795E+02  0.13201909969E+03  0.91150633702E+02 0.  0.
         23    2    1    2    0    0  0.51552104752E+02 -0.17705181628E+02  0.15203813774E+03  0.19899342049E+03  0.11623980862E+03 0.  0.
        -13    1    4    4    0    0  0.33703200362E+02  0.74514348522E+01  0.16272773422E+03  0.16634826444E+03  0.00000000000E+00 0. -1.
         13    1    4    4    0    0  0.17848904390E+02 -0.25156616480E+02 -0.10689596481E+02  0.32645156051E+02  0.00000000000E+00 0.  1.
        -13    1    3    3    0    0 -0.55643997143E+02  0.20748670176E+02  0.25539888254E+02  0.64645553785E+02  0.00000000000E+00 0.  1.
         13    1    3    3    0    0  0.16766728732E+02 -0.21272809299E+02  0.61689051542E+02  0.67373545906E+02  0.00000000000E+00 0. -1.
         -3    1    1    2    0  502 -0.12674836340E+02  0.18229320751E+02  0.12072265702E+03  0.12274738095E+03  0.00000000000E+00 0.  1.
<scales pt_clust_5="13000.00000" pt_clust_6="13000.00000" pt_clust_7="13000.00000" pt_clust_8="13000.00000" pt_clust_9="22.20269"></scales>
<clustering>
<clus scale="   22.203">  1  9  2 -1</clus>
<clus scale="   91.151">  7  8 -1 -1</clus>
<clus scale="  101.314">  2  7  1 -1</clus>
<clus scale="  116.240">  5  6 -1 -1</clus>
<clus scale="   22.203">  1  5  2 -1</clus>
</clustering>
</event>
<event>
 9    1  0.1504846E-005  0.1103085E+03  0.7546771E-02  0.1260388E+00
         21   -1    0    0  501  502  0.00000000000E+00  0.00000000000E+00  0.47764149095E+02  0.47764149095E+02  0.00000000000E+00 0.  1.
          2   -1    0    0  502    0 -0.00000000000E+00 -0.00000000000E+00 -0.48705457499E+03  0.48705457499E+03  0.00000000000E+00 0. -1.
         23    2    1    2    0    0 -0.46444028685E+02 -0.16828703088E+02 -0.23449853033E+03  0.25706337667E+03  0.93014868968E+02 0.  0.
         23    2    1    2    0    0  0.69605545899E+02  0.19049898672E+02 -0.22056284492E+03  0.24964640875E+03  0.92019183777E+02 0.  0.
        -13    1    3    3    0    0 -0.12902438209E+02  0.29439654377E+02 -0.15986079746E+03  0.16306023650E+03  0.00000000000E+00 0.  1.
         13    1    3    3    0    0 -0.33541590477E+02 -0.46268357465E+02 -0.74637732867E+02  0.94003140170E+02  0.00000000000E+00 0. -1.
        -13    1    4    4    0    0  0.23056999525E+02  0.53973106590E+02 -0.10684861481E+03  0.12190712838E+03  0.00000000000E+00 0. -1.
         13    1    4    4    0    0  0.46548546373E+02 -0.34923207918E+02 -0.11371423011E+03  0.12773928037E+03  0.00000000000E+00 0.  1.
          2    1    1    2  501    0 -0.23161517213E+02 -0.22211955837E+01  0.15770949355E+02  0.28108938667E+02  0.00000000000E+00 0. -1.
<scales pt_clust_5="13000.00000" pt_clust_6="13000.00000" pt_clust_7="13000.00000" pt_clust_8="13000.00000" pt_clust_9="23.26778"></scales>
<clustering>
<clus scale="   23.268">  1  9  2 -1</clus>
<clus scale="   92.019">  7  8 -1 -1</clus>
<clus scale="   93.015">  5  6 -1 -1</clus>
<clus scale="  109.470">  1  7  2 -1</clus>
<clus scale="   23.268">  1  5  2 -1</clus>
</clustering>
</event>
<event>
 9    1  0.1504846E-005  0.1100475E+03  0.7546771E-02  0.1262430E+00
         21   -1    0    0  501  502  0.00000000000E+00  0.00000000000E+00  0.67026992771E+02  0.67026992771E+02  0.00000000000E+00 0.  1.
          3   -1    0    0  502    0 -0.00000000000E+00 -0.00000000000E+00 -0.53527006282E+03  0.53527006282E+03  0.00000000000E+00 0. -1.
         23    2    1    2    0    0 -0.36764462707E+02  0.34171587411E+02 -0.38482869883E+03  0.39922773000E+03  0.93650039247E+02 0.  0.
         23    2    1    2    0    0  0.59602447097E+02 -0.72191960443E+02 -0.91263601879E+02  0.15802787003E+03  0.88767290291E+02 0.  0.
        -11    1    4    4    0    0  0.30629242942E+02 -0.20528203118E+02 -0.91654479814E+02  0.98793225053E+02  0.00000000000E+00 0. -1.
         11    1    4    4    0    0  0.28973204154E+02 -0.51663757325E+02  0.39087793460E+00  0.59234644976E+02  0.00000000000E+00 0.  1.
        -13    1    3    3    0    0  0.30890064852E+02  0.76995991511E+01 -0.86249222196E+02  0.91936979845E+02  0.00000000000E+00 0.  1.
         13    1    3    3    0    0 -0.67654527559E+02  0.26471988260E+02 -0.29857947664E+03  0.30729075016E+03  0.00000000000E+00 0. -1.
          3    1    1    2  501    0 -0.22837984390E+02  0.38020373032E+02  0.78492306687E+01  0.45041455556E+02  0.00000000000E+00 0. -1.
<scales pt_clust_5="13000.00000" pt_clust_6="13000.00000" pt_clust_7="13000.00000" pt_clust_8="13000.00000" pt_clust_9="44.35225"></scales>
<clustering>
<clus scale="   44.352">  1  9  2 -1</clus>
<clus scale="   88.767">  5  6 -1 -1</clus>
<clus scale="   93.650">  7  8 -1 -1</clus>
<clus scale="  105.923">  1  5  2 -1</clus>
<clus scale="   44.352">  1  5  2 -1</clus>
</clustering>
</event>
<event>
 9    1  0.1708297E-005  0.2122911E+03  0.7546771E-02  0.1140043E+00
         21   -1    0    0  501  502  0.00000000000E+00  0.00000000000E+00  0.27543048454E+03  0.27543048454E+03  0.00000000000E+00 0. -1.
          1   -1    0    0  502    0 -0.00000000000E+00 -0.00000000000E+00 -0.88884214026E+03  0.88884214026E+03  0.00000000000E+00 0. -1.
         23    2    1    2    0    0  0.11035527667E+03 -0.16558078219E+03 -0.80125839536E+03  0.83036784338E+03  0.88884513084E+02 0.  0.
         23    2    1    2    0    0 -0.24277412140E+02  0.87969305753E+02  0.17420554397E+03  0.21720421476E+03  0.92206875365E+02 0.  0.
        -11    1    4    4    0    0 -0.39683342692E+02  0.40924781827E+02  0.15313964579E+03  0.16340549736E+03  0.00000000000E+00 0. -1.
         11    1    4    4    0    0  0.15405930552E+02  0.47044523926E+02  0.21065898178E+02  0.53798717398E+02  0.00000000000E+00 0.  1.
        -11    1    3    3    0    0  0.18978362313E+02  0.86676742956E+01 -0.64546957135E+02  0.67835215701E+02  0.00000000000E+00 0.  1.
         11    1    3    3    0    0  0.91376914360E+02 -0.17424845648E+03 -0.73671143823E+03  0.76253262768E+03  0.00000000000E+00 0. -1.
          1    1    1    2  501    0 -0.86077864533E+02  0.77611476434E+02  0.13641195678E+02  0.11670056665E+03  0.00000000000E+00 0. -1.
<scales pt_clust_5="13000.00000" pt_clust_6="13000.00000" pt_clust_7="13000.00000" pt_clust_8="13000.00000" pt_clust_9="115.90056"></scales>
<clustering>
<clus scale="   88.885">  7  8 -1 -1</clus>
<clus scale="   92.207">  5  6 -1 -1</clus>
<clus scale="  115.901">  1  9  2 -1</clus>
<clus scale="  210.869">  2  7  1 -1</clus>
<clus scale="  115.901">  1  5  2 -1</clus>
</clustering>
</event>
<event>
 9    1  0.1504846E-005  0.1094267E+03  0.7546771E-02  0.1264315E+00
         -1   -1    0    0    0  501 -0.00000000000E+00  0.00000000000E+00  0.29167784611E+03  0.29167784611E+03  0.00000000000E+00 0.  1.
         21   -1    0    0  501  502  0.00000000000E+00 -0.00000000000E+00 -0.96826179776E+02  0.96826179776E+02  0.00000000000E+00 0.  1.
         23    2    1    2    0    0  0.38372109221E+02  0.16824788557E+02  0.10812664929E+03  0.14756427671E+03  0.91259800555E+02 0.  0.
         23    2    1    2    0    0 -0.10578146078E+03  0.29548993267E+02  0.77066571397E+02  0.15855143756E+03  0.84477461359E+02 0.  0.
        -11    1    4    4    0    0 -0.84117253406E+02 -0.22718326784E+01  0.84602783391E+02  0.11932520481E+03  0.00000000000E+00 0.  1.
         11    1    4    4    0    0 -0.21664207376E+02  0.31820825946E+02 -0.75362119932E+01  0.39226232757E+02  0.00000000000E+00 0. -1.
        -13    1    3    3    0    0 -0.89167838262E+01  0.44465925731E+02  0.43402593549E+02  0.62773503262E+02  0.00000000000E+00 0.  1.
         13    1    3    3    0    0  0.47288893047E+02 -0.27641137175E+02  0.64724055739E+02  0.84790773444E+02  0.00000000000E+00 0. -1.
         -1    1    1    2    0  502  0.67409351562E+02 -0.46373781824E+02  0.96584456465E+01  0.82388311616E+02  0.00000000000E+00 0.  1.
<scales pt_clust_5="13000.00000" pt_clust_6="13000.00000" pt_clust_7="13000.00000" pt_clust_8="13000.00000" pt_clust_9="81.82022"></scales>
<clustering>
<clus scale="   81.820">  2  9  1 -1</clus>
<clus scale="   84.477">  5  6 -1 -1</clus>
<clus scale="   91.260">  7  8 -1 -1</clus>
<clus scale="  103.838">  2  5  1 -1</clus>
<clus scale="   81.820">  2  5  1 -1</clus>
</clustering>
</event>
<event>
 9    1  0.1504846E-005  0.2015686E+03  0.7546771E-02  0.1175416E+00
         21   -1    0    0  501  502  0.00000000000E+00  0.00000000000E+00  0.69672510527E+02  0.69672510527E+02  0.00000000000E+00 0.  1.
          2   -1    0    0  502    0 -0.00000000000E+00 -0.00000000000E+00 -0.90027157216E+03  0.90027157216E+03  0.00000000000E+00 0. -1.
         23    2    1    2    0    0 -0.38013936229E+01 -0.56229748082E+02 -0.19374680251E+03  0.22169253509E+03  0.91834206428E+02 0.  0.
         23    2    1    2    0    0  0.27408324257E+02  0.21295915680E+03 -0.40267213940E+03  0.46547650767E+03  0.91764419247E+02 0.  0.
        -11    1    3    3    0    0 -0.31378381301E+02  0.12403029834E+02 -0.63592377915E+02  0.71989085916E+02  0.00000000000E+00 0.  1.
         11    1    3    3    0    0  0.27576987678E+02 -0.68632777916E+02 -0.13015442460E+03  0.14970344918E+03  0.00000000000E+00 0. -1.
        -11    1    4    4    0    0 -0.54206431957E+01  0.19315026410E+03 -0.35614817791E+03  0.40518876159E+03  0.00000000000E+00 0.  1.
         11    1    4    4    0    0  0.32828967453E+02  0.19808892696E+02 -0.46523961497E+02  0.60287746078E+02  0.00000000000E+00 0. -1.
          2    1    1    2  501    0 -0.23606930634E+02 -0.15672940872E+03 -0.23418011972E+03  0.28277503992E+03  0.00000000000E+00 0. -1.
<scales pt_clust_5="13000.00000" pt_clust_6="13000.00000" pt_clust_7="13000.00000" pt_clust_8="13000.00000" pt_clust_9="179.46914"></scales>
<clustering>
<clus scale="   91.764">  7  8 -1 -1</clus>
<clus scale="   91.834">  5  6 -1 -1</clus>
<clus scale="  107.749">  2  5  1 -1</clus>
<clus scale="  179.469">  1  9  2 -1</clus>
<clus scale="  179.469">  1  5  2 -1</clus>
</clustering>
</event>
<event>
 9    1  0.1504846E-005  0.1007926E+03  0.7546771E-02  0.1279510E+00
          2   -1    0    0  502    0 -0.00000000000E+00  0.00000000000E+00  0.58980581726E+03  0.58980581726E+03  0.00000000000E+00 0. -1.
         21   -1    0    0  501  502  0.00000000000E+00 -0.00000000000E+00 -0.39553281571E+02  0.39553281571E+02  0.00000000000E+00 0. -1.
         23    2    1    2    0    0  0.45928650775E+02  0.31961399876E+02  0.26631258108E+03  0.28719442633E+03  0.91800194059E+02 0.  0.
         23    2    1    2    0    0 -0.14076860354E+02  0.11683247394E+02  0.55200277921E+02  0.10713013998E+03  0.89972995624E+02 0.  0.
        -11    1    4    4    0    0 -0.30835912213E+02  0.35273203841E+02  0.23909030432E+01  0.46912352409E+02  0.00000000000E+00 0. -1.
         11    1    4    4    0    0  0.16759051859E+02 -0.23589956447E+02  0.52809374878E+02  0.60217787567E+02  0.00000000000E+00 0.  1.
        -13    1    3    3    0    0 -0.26958973386E+02  0.16550711359E+02  0.59741166697E+02  0.67599698896E+02  0.00000000000E+00 0. -1.
         13    1    3    3    0    0  0.72887624161E+02  0.15410688517E+02  0.20657141438E+03  0.21959472743E+03  0.00000000000E+00 0.  1.
          2    1    1    2  501    0 -0.31851790421E+02 -0.43644647270E+02  0.22873967669E+03  0.23503453252E+03  0.00000000000E+00 0. -1.
<scales pt_clust_5="13000.00000" pt_clust_6="13000.00000" pt_clust_7="13000.00000" pt_clust_8="13000.00000" pt_clust_9="54.03142"></scales>
<clustering>
<clus scale="   54.031">  2  9  1 -1</clus>
<clus scale="   89.973">  5  6 -1 -1</clus>
<clus scale="   91.800">  7  8 -1 -1</clus>
<clus scale="   99.131">  2  5  1 -1</clus>
<clus scale="   54.031">  2  5  1 -1</clus>
</clustering>
</event>
<event>
 9    1  0.1504846E-005  0.1400165E+03  0.7546771E-02  0.1232510E+00
         -3   -1    0    0    0  501 -0.00000000000E+00  0.00000000000E+00  0.41513874033E+02  0.41513874033E+02  0.00000000000E+00 0.  1.
         21   -1    0    0  501  502  0.00000000000E+00 -0.00000000000E+00 -0.79429923515E+03  0.79429923515E+03  0.00000000000E+00 0.  1.
         23    2    1    2    0    0  0.18475615846E+02 -0.19846807822E+01 -0.18056150903E+03  0.20344314927E+03  0.91876923659E+02 0.  0.
         23    2    1    2    0    0  0.85445027449E+01 -0.99044255379E+02 -0.17967276229E+03  0.22612706355E+03  0.94701501091E+02 0.  0.
        -11    1    3    3    0    0 -0.37154490607E+02 -0.43274742428E+01 -0.84551055831E+02  0.92455742102E+02  0.00000000000E+00 0.  1.
         11    1    3    3    0    0  0.55630106453E+02  0.23427934605E+01 -0.96010453204E+02  0.11098740717E+03  0.00000000000E+00 0. -1.
        -11    1    4    4    0    0  0.47151380765E+02 -0.66066063048E+02 -0.78443106698E+02  0.11287735992E+03  0.00000000000E+00 0.  1.
         11    1    4    4    0    0 -0.38606878020E+02 -0.32978192331E+02 -0.10122965559E+03  0.11324970362E+03  0.00000000000E+00 0. -1.
         -3    1    1    2    0  502 -0.27020118591E+02  0.10102893616E+03 -0.39255108980E+03  0.40624289637E+03  0.00000000000E+00 0.  1.
<scales pt_clust_5="13000.00000" pt_clust_6="13000.00000" pt_clust_7="13000.00000" pt_clust_8="13000.00000" pt_clust_9="103.13221"></scales>
<clustering>
<clus scale="   91.877">  5  6 -1 -1</clus>
<clus scale="   93.737">  1  5  2 -1</clus>
<clus scale="   94.702">  7  8 -1 -1</clus>
<clus scale="  103.132">  2  9  1 -1</clus>
<clus scale="  103.132">  2  5  1 -1</clus>
</clustering>
</event>
<event>
 9    1  0.1585429E-005  0.9979467E+02  0.7546771E-02  0.1282995E+00
          4   -1    0    0  502    0 -0.00000000000E+00  0.00000000000E+00  0.18361388919E+03  0.18361388919E+03  0.00000000000E+00 0. -1.
         21   -1    0    0  501  502  0.00000000000E+00 -0.00000000000E+00 -0.16656074008E+03  0.16656074008E+03  0.00000000000E+00 0.  1.
         23    2    1    2    0    0  0.38995088552E+01 -0.10770947648E+02  0.12579983601E+03  0.16003320115E+03  0.98253789991E+02 0.  0.
         23    2    1    2    0    0  0.51490579211E+01  0.56131374306E+02 -0.72915091501E+02  0.13163204343E+03  0.93984787655E+02 0.  0.
        -11    1    3    3    0    0  0.28421678900E+02  0.18181394164E+02  0.58720644000E+01  0.34246694228E+02  0.00000000000E+00 0.  1.
         11    1    3    3    0    0 -0.24522170044E+02 -0.28952341813E+02  0.11992777161E+03  0.12578650692E+03  0.00000000000E+00 0. -1.
        -13    1    4    4    0    0  0.11359507088E+02 -0.16808520109E+02 -0.51512925791E+02  0.55363763177E+02  0.00000000000E+00 0. -1.
         13    1    4    4    0    0 -0.62104491667E+01  0.72939894414E+02 -0.21402165710E+02  0.76268280255E+02  0.00000000000E+00 0.  1.
          4    1    1    2  501    0 -0.90485667763E+01 -0.45360426658E+02 -0.35831595399E+02  0.58509384684E+02  0.00000000000E+00 0. -1.
<scales pt_clust_5="13000.00000" pt_clust_6="13000.00000" pt_clust_7="13000.00000" pt_clust_8="13000.00000" pt_clust_9="46.25413"></scales>
<clustering>
<clus scale="   46.254">  2  9  1 -1</clus>
<clus scale="   93.985">  7  8 -1 -1</clus>
<clus scale="   95.595">  2  7  1 -1</clus>
<clus scale="   98.254">  5  6 -1 -1</clus>
<clus scale="   46.254">  2  5  1 -1</clus>
</clustering>
</event>
<event>
 9    1  0.2055416E-005  0.9056195E+02  0.7546771E-02  0.1311429E+00
         21   -1    0    0  501  502  0.00000000000E+00  0.00000000000E+00  0.28382138540E+03  0.28382138540E+03  0.00000000000E+00 0.  1.
          1   -1    0    0  502    0 -0.00000000000E+00 -0.00000000000E+00 -0.14054308653E+03  0.14054308653E+03  0.00000000000E+00 0. -1.
         23    2    1    2    0    0  0.13757819059E+02 -0.14653246463E+02 -0.10513075847E+03  0.13924621700E+03  0.89067599914E+02 0.  0.
         23    2    1    2    0    0 -0.15357718895E+02 -0.35018586840E+02  0.10854494209E+03  0.13668705390E+03  0.73750832501E+02 0.  0.
        -11    1    4    4    0    0 -0.27836899088E+02 -0.51023980176E+02  0.97683785561E+02  0.11366820780E+03  0.00000000000E+00 0.  1.
         11    1    4    4    0    0  0.12479180194E+02  0.16005393336E+02  0.10861156533E+02  0.23018846091E+02  0.00000000000E+00 0. -1.
        -11    1    3    3    0    0 -0.35929583207E+02 -0.20223014796E+02 -0.44642313408E+02  0.60768753676E+02  0.00000000000E+00 0.  1.
         11    1    3    3    0    0  0.49687402267E+02  0.55697683335E+01 -0.60488445066E+02  0.78477463324E+02  0.00000000000E+00 0. -1.
          1    1    1    2  501    0  0.15998998355E+01  0.49671833303E+02  0.13986411525E+03  0.14843120103E+03  0.00000000000E+00 0. -1.
<scales pt_clust_5="13000.00000" pt_clust_6="13000.00000" pt_clust_7="13000.00000" pt_clust_8="13000.00000" pt_clust_9="49.69759"></scales>
<clustering>
<clus scale="   49.698">  1  9  2 -1</clus>
<clus scale="   73.751">  5  6 -1 -1</clus>
<clus scale="   75.549">  1  5  2 -1</clus>
<clus scale="   89.068">  7  8 -1 -1</clus>
<clus scale="   49.698">  1  5  2 -1</clus>
</clustering>
</event>
<event>
 9    1  0.1504846E-005  0.1826106E+03  0.7546771E-02  0.1165768E+00
          2   -1    0    0  502    0 -0.00000000000E+00  0.00000000000E+00  0.12151051625E+04  0.12151051625E+04  0.00000000000E+00 0.  1.
         21   -1    0    0  501  502  0.00000000000E+00 -0.00000000000E+00 -0.85804751833E+02  0.85804751833E+02  0.00000000000E+00 0. -1.
         23    2    1    2    0    0 -0.41824110587E+02  0.14414884804E+03  0.76633970850E+03  0.78656042019E+03  0.94194475178E+02 0.  0.
         23    2    1    2    0    0 -0.53595339616E+02 -0.19008551731E+03  0.34391855929E+03  0.40674999475E+03  0.90336141623E+02 0.  0.
        -11    1    4    4    0    0  0.11237093410E+02 -0.76631923022E+02  0.18791447181E+03  0.20325002487E+03  0.00000000000E+00 0.  1.
         11    1    4    4    0    0 -0.64832433026E+02 -0.11345359429E+03  0.15600408748E+03  0.20349996987E+03  0.00000000000E+00 0. -1.
        -13    1    3    3    0    0 -0.67473793873E+02  0.81726282496E+02  0.54305400685E+03  0.55329879131E+03  0.00000000000E+00 0.  1.
         13    1    3    3    0    0  0.25649683286E+02  0.62422565549E+02  0.22328570165E+03  0.23326162887E+03  0.00000000000E+00 0. -1.
          2    1    1    2  501    0  0.95419450204E+02  0.45936669269E+02  0.19042142845E+02  0.10759949937E+03  0.00000000000E+00 0.  1.
<scales pt_clust_5="13000.00000" pt_clust_6="13000.00000" pt_clust_7="13000.00000" pt_clust_8="13000.00000" pt_clust_9="105.90113"></scales>
<clustering>
<clus scale="   90.336">  5  6 -1 -1</clus>
<clus scale="   94.194">  7  8 -1 -1</clus>
<clus scale="  105.901">  2  9  1 -1</clus>
<clus scale="  180.651">  2  5  1 -1</clus>
<clus scale="  105.901">  2  5  1 -1</clus>
</clustering>
</event>
<event>
 9    1  0.1504846E-005  0.1240718E+03  0.7546771E-02  0.1236844E+00
         21   -1    0    0  501  502  0.00000000000E+00  0.00000000000E+00  0.62489361173E+02  0.62489361173E+02  0.00000000000E+00 0.  1.
         -3   -1    0    0    0  501 -0.00000000000E+00 -0.00000000000E+00 -0.49403740742E+03  0.49403740742E+03  0.00000000000E+00 0.  1.
         23    2    1    2    0    0  0.92283954783E+02 -0.14544990552E+02 -0.31123519416E+03  0.33770744440E+03  0.91929793119E+02 0.  0.
         23    2    1    2    0    0 -0.67811823300E+02  0.84222878697E+01 -0.14451045568E+03  0.18386368477E+03  0.90847148919E+02 0.  0.
        -11    1    3    3    0    0  0.13847979492E+02 -0.44725887088E+02 -0.10242549436E+03  0.11261950722E+03  0.00000000000E+00 0. -1.
         11    1    3    3    0    0  0.78435975291E+02  0.30180896537E+02 -0.20880969980E+03  0.22508793718E+03  0.00000000000E+00 0.  1.
        -13    1    4    4    0    0 -0.60872162008E+02 -0.18839878125E+02 -0.14197394894E+03  0.15561800440E+03  0.00000000000E+00 0.  1.
         13    1    4    4    0    0 -0.69396612920E+01  0.27262165994E+02 -0.25365067382E+01  0.28245680377E+02  0.00000000000E+00 0. -1.
         -3    1    1    2    0  502 -0.24472131483E+02  0.61227026819E+01  0.24197603588E+02  0.34955639414E+02  0.00000000000E+00 0.  1.
<scales pt_clust_5="13000.00000" pt_clust_6="13000.00000" pt_clust_7="13000.00000" pt_clust_8="13000.00000" pt_clust_9="25.22643"></scales>
<clustering>
<clus scale="   25.226">  1  9  2 -1</clus>
<clus scale="   90.847">  7  8 -1 -1</clus>
<clus scale="   91.930">  5  6 -1 -1</clus>
<clus scale="  123.272">  1  7  2 -1</clus>
<clus scale="   25.226">  1  5  2 -1</clus>
</clustering>
</event>
<event>
 9    1  0.1504846E-005  0.1897591E+03  0.7546771E-02  0.1160374E+00
         -1   -1    0    0    0  501 -0.00000000000E+00  0.00000000000E+00  0.46571379713E+03  0.46571379713E+03  0.00000000000E+00 0.  1.
         21   -1    0    0  501  502  0.00000000000E+00 -0.00000000000E+00 -0.11970746824E+03  0.11970746824E+03  0.00000000000E+00 0.  1.
         23    2    1    2    0    0 -0.80517044038E+02  0.14869333558E+03  0.31309818026E+03  0.37103470992E+03  0.10508845348E+03 0.  0.
         23    2    1    2    0    0  0.53763651847E+02 -0.12473459114E+03  0.54575737914E+02  0.17244314292E+03  0.91153046497E+02 0.  0.
        -11    1    4    4    0    0  0.37165357313E+02 -0.13924997725E+02  0.44981127691E+02  0.59987258598E+02  0.00000000000E+00 0. -1.
         11    1    4    4    0    0  0.16598294535E+02 -0.11080959341E+03  0.95946102229E+01  0.11245588432E+03  0.00000000000E+00 0.  1.
        -13    1    3    3    0    0 -0.50898280496E+02  0.36517884518E+01  0.82829768067E+02  0.97286900425E+02  0.00000000000E+00 0. -1.
         13    1    3    3    0    0 -0.29618763543E+02  0.14504154713E+03  0.23026841220E+03  0.27374780950E+03  0.00000000000E+00 0.  1.
         -1    1    1    2    0  502  0.26753392191E+02 -0.23958744449E+02 -0.21667589282E+02  0.41943412529E+02  0.00000000000E+00 0.  1.
<scales pt_clust_5="13000.00000" pt_clust_6="13000.00000" pt_clust_7="13000.00000" pt_clust_8="13000.00000" pt_clust_9="35.91330"></scales>
<clustering>
<clus scale="   35.913">  2  9  1 -1</clus>
<clus scale="   91.153">  5  6 -1 -1</clus>
<clus scale="  105.088">  7  8 -1 -1</clus>
<clus scale="  182.411">  2  5  1 -1</clus>
<clus scale="   35.913">  2  5  1 -1</clus>
</clustering>
</event>
<event>
 9    1  0.1504846E-005  0.1005501E+03  0.7546771E-02  0.1284321E+00
         21   -1    0    0  501  502  0.00000000000E+00  0.00000000000E+00  0.54896529637E+03  0.54896529637E+03  0.00000000000E+00 0. -1.
          1   -1    0    0  502    0 -0.00000000000E+00 -0.00000000000E+00 -0.89460393692E+02  0.89460393692E+02  0.00000000000E+00 0. -1.
         23    2    1    2    0    0 -0.74989221568E+00 -0.34656395815E+02 -0.55476928689E+02  0.10678958120E+03  0.84407919817E+02 0.  0.
         23    2    1    2    0    0  0.29119752152E+02  0.28368593137E+02  0.40994696875E+03  0.42265579972E+03  0.94491644099E+02 0.  0.
        -11    1    4    4    0    0  0.12763738947E+02  0.61743132257E+02  0.30134677855E+03  0.30787174010E+03  0.00000000000E+00 0.  1.
         11    1    4    4    0    0  0.16356013205E+02 -0.33374539120E+02  0.10860019020E+03  0.11478405962E+03  0.00000000000E+00 0. -1.
        -13    1    3    3    0    0  0.22207173034E+02  0.15319987655E+02 -0.42406131781E+02  0.50260725905E+02  0.00000000000E+00 0.  1.
         13    1    3    3    0    0 -0.22957065249E+02 -0.49976383471E+02 -0.13070796909E+02  0.56528855300E+02  0.00000000000E+00 0. -1.
          1    1    1    2  501    0 -0.28369859936E+02  0.62878026783E+01  0.10503486262E+03  0.10898030914E+03  0.00000000000E+00 0. -1.
<scales pt_clust_5="13000.00000" pt_clust_6="13000.00000" pt_clust_7="13000.00000" pt_clust_8="13000.00000" pt_clust_9="29.05831"></scales>
<clustering>
<clus scale="   29.058">  1  9  2 -1</clus>
<clus scale="   84.408">  7  8 -1 -1</clus>
<clus scale="   91.139">  2  7  1 -1</clus>
<clus scale="   94.492">  5  6 -1 -1</clus>
<clus scale="   29.058">  1  5  2 -1</clus>
</clustering>
</event>
<event>
 9    1  0.1504846E-005  0.1134429E+03  0.7546771E-02  0.1255658E+00
         21   -1    0    0  501  502  0.00000000000E+00  0.00000000000E+00  0.26988798114E+03  0.26988798114E+03  0.00000000000E+00 0.  1.
         -3   -1    0    0    0  501 -0.00000000000E+00 -0.00000000000E+00 -0.87428614047E+02  0.87428614047E+02  0.00000000000E+00 0.  1.
         23    2    1    2    0    0  0.18330959699E+02  0.28876188802E+02  0.57255142936E+02  0.11163971389E+03  0.89528855471E+02 0.  0.
         23    2    1    2    0    0 -0.55491243111E+02 -0.85549334707E+02  0.56662514720E+02  0.14928861405E+03  0.93158375791E+02 0.  0.
        -11    1    3    3    0    0 -0.18514668949E+02  0.32589979265E+02  0.63836609218E+02  0.74027105787E+02  0.00000000000E+00 0. -1.
         11    1    3    3    0    0  0.36845628648E+02 -0.37137904625E+01 -0.65814662816E+01  0.37612608105E+02  0.00000000000E+00 0.  1.
        -13    1    4    4    0    0 -0.56852521212E+02 -0.28343327840E+02  0.65662971469E+02  0.91362898506E+02  0.00000000000E+00 0.  1.
         13    1    4    4    0    0  0.13612781009E+01 -0.57206006867E+02 -0.90004567490E+01  0.57925715545E+02  0.00000000000E+00 0. -1.
         -3    1    1    2    0  502  0.37160283413E+02  0.56673145904E+02  0.68541709441E+02  0.96388267248E+02  0.00000000000E+00 0.  1.
<scales pt_clust_5="13000.00000" pt_clust_6="13000.00000" pt_clust_7="13000.00000" pt_clust_8="13000.00000" pt_clust_9="67.76970"></scales>
<clustering>
<clus scale="   67.770">  1  9  2 -1</clus>
<clus scale="   89.529">  5  6 -1 -1</clus>
<clus scale="   93.158">  7  8 -1 -1</clus>
<clus scale="  110.482">  2  5  1 -1</clus>
<clus scale="   67.770">  1  5  2 -1</clus>
</clustering>
</event>
<event>
 9    1  0.1504846E-005  0.1266708E+03  0.7546771E-02  0.1233222E+00
         21   -1    0    0  501  502  0.00000000000E+00  0.00000000000E+00  0.32276149882E+03  0.32276149882E+03  0.00000000000E+00 0. -1.
          3   -1    0    0  502    0 -0.00000000000E+00 -0.00000000000E+00 -0.12425682064E+03  0.12425682064E+03  0.00000000000E+00 0. -1.
         23    2    1    2    0    0  0.27275249800E+02  0.87850266046E+02 -0.44189040047E+02  0.13724173168E+03  0.91766078473E+02 0.  0.
         23    2    1    2    0    0  0.37492058189E+02 -0.69190224043E+02  0.13328943124E+03  0.18127639570E+03  0.94351034059E+02 0.  0.
        -11    1    3    3    0    0 -0.22056897706E+02  0.47670743214E+02  0.10236994073E+02  0.53514507777E+02  0.00000000000E+00 0. -1.
         11    1    3    3    0    0  0.49332147505E+02  0.40179522833E+02 -0.54426034120E+02  0.83727223903E+02  0.00000000000E+00 0.  1.
        -13    1    4    4    0    0  0.23666452265E+02 -0.43624445024E+02  0.14241304477E+03  0.15081335646E+03  0.00000000000E+00 0.  1.
         13    1    4    4    0    0  0.13825605924E+02 -0.25565779019E+02 -0.91236135288E+01  0.30463039241E+02  0.00000000000E+00 0. -1.
          3    1    1    2  501    0 -0.64767307989E+02 -0.18660042003E+02  0.10940428699E+03  0.12850019208E+03  0.00000000000E+00 0. -1.
<scales pt_clust_5="13000.00000" pt_clust_6="13000.00000" pt_clust_7="13000.00000" pt_clust_8="13000.00000" pt_clust_9="67.40179"></scales>
<clustering>
<clus scale="   67.402">  1  9  2 -1</clus>
<clus scale="   91.766">  5  6 -1 -1</clus>
<clus scale="   94.351">  7  8 -1 -1</clus>
<clus scale="  124.757">  2  5  1 -1</clus>
<clus scale="   67.402">  1  5  2 -1</clus>
</clustering>
</event>
<event>
 9    1  0.1504846E-005  0.9932923E+02  0.7546771E-02  0.1289252E+00
         21   -1    0    0  501  502  0.00000000000E+00  0.00000000000E+00  0.40210560443E+02  0.40210560443E+02  0.00000000000E+00 0. -1.
         -1   -1    0    0    0  501 -0.00000000000E+00 -0.00000000000E+00 -0.51250795123E+03  0.51250795123E+03  0.00000000000E+00 0.  1.
         23    2    1    2    0    0 -0.25276883895E+02 -0.31888550651E+02 -0.32250412000E+03  0.33749300781E+03  0.90756941248E+02 0.  0.
         23    2    1    2    0    0  0.59388385783E+02 -0.63128892311E+01 -0.66344324111E+02  0.11731395566E+03  0.76119392493E+02 0.  0.
        -13    1    4    4    0    0 -0.10448036153E+02 -0.17329492885E+02 -0.34001294325E+02  0.39567168194E+02  0.00000000000E+00 0.  1.
         13    1    4    4    0    0  0.69836421936E+02  0.11016603654E+02 -0.32343029786E+02  0.77746787462E+02  0.00000000000E+00 0. -1.
        -13    1    3    3    0    0  0.33694215342E+02 -0.18216091993E+02 -0.14381797118E+03  0.14883122988E+03  0.00000000000E+00 0.  1.
         13    1    3    3    0    0 -0.58971099237E+02 -0.13672458657E+02 -0.17868614882E+03  0.18866177793E+03  0.00000000000E+00 0. -1.
         -1    1    1    2    0  502 -0.34111501888E+02  0.38201439882E+02 -0.83448946673E+02  0.97911548200E+02  0.00000000000E+00 0.  1.
<scales pt_clust_5="13000.00000" pt_clust_6="13000.00000" pt_clust_7="13000.00000" pt_clust_8="13000.00000" pt_clust_9="51.21469"></scales>
<clustering>
<clus scale="   51.215">  1  9  2 -1</clus>
<clus scale="   76.119">  5  6 -1 -1</clus>
<clus scale="   86.161">  1  5  2 -1</clus>
<clus scale="   90.757">  7  8 -1 -1</clus>
<clus scale="   51.215">  1  5  2 -1</clus>
</clustering>
</event>
<event>
 9    1  0.1504846E-005  0.9797497E+02  0.7546771E-02  0.1285152E+00
         21   -1    0    0  501  502  0.00000000000E+00  0.00000000000E+00  0.14063632358E+03  0.14063632358E+03  0.00000000000E+00 0. -1.
         -4   -1    0    0    0  501 -0.00000000000E+00 -0.00000000000E+00 -0.97736388015E+02  0.97736388015E+02  0.00000000000E+00 0.  1.
         23    2    1    2    0    0 -0.38473897836E+02 -0.64421948454E+00 -0.71312821269E+00  0.99789389779E+02  0.92069310452E+02 0.  0.
         23    2    1    2    0    0  0.23391782695E+02  0.24155209296E+02  0.14267101563E+02  0.98068851102E+02  0.91012635033E+02 0.  0.
        -11    1    4    4    0    0  0.38374617259E+02  0.44924082063E+02 -0.13174505538E+02  0.60533891293E+02  0.00000000000E+00 0.  1.
         11    1    4    4    0    0 -0.14982834563E+02 -0.20768872767E+02  0.27441607101E+02  0.37534959809E+02  0.00000000000E+00 0. -1.
        -13    1    3    3    0    0 -0.65410420609E+02 -0.10136346648E+02 -0.14978620626E+02  0.67864775278E+02  0.00000000000E+00 0. -1.
         13    1    3    3    0    0  0.26936522774E+02  0.94921271634E+01  0.14265492413E+02  0.31924614501E+02  0.00000000000E+00 0.  1.
         -4    1    1    2    0  502  0.15082115141E+02 -0.23510989811E+02  0.29345962215E+02  0.40514470716E+02  0.00000000000E+00 0.  1.
<scales pt_clust_5="13000.00000" pt_clust_6="13000.00000" pt_clust_7="13000.00000" pt_clust_8="13000.00000" pt_clust_9="27.93272"></scales>
<clustering>
<clus scale="   27.933">  1  9  2 -1</clus>
<clus scale="   91.013">  5  6 -1 -1</clus>
<clus scale="   92.069">  7  8 -1 -1</clus>
<clus scale="   96.983">  1  5  2 -1</clus>
<clus scale="   27.933">  1  5  2 -1</clus>
</clustering>
</event>
<event>
 9    1  0.1504846E-005  0.2360041E+03  0.7546771E-02  0.1160124E+00
         -1   -1    0    0    0  501 -0.00000000000E+00  0.00000000000E+00  0.30914231519E+03  0.30914231519E+03  0.00000000000E+00 0.  1.
         21   -1    0    0  501  502  0.00000000000E+00 -0.00000000000E+00 -0.34219076104E+03  0.34219076104E+03  0.00000000000E+00 0. -1.
         23    2    1    2    0    0 -0.67943316345E+01 -0.34763919371E+02  0.10061683172E+03  0.13863527722E+03  0.88551116500E+02 0.  0.
         23    2    1    2    0    0  0.20603221365E+03 -0.64744675172E+02 -0.16639774593E+03  0.28759980146E+03  0.91565768305E+02 0.  0.
        -13    1    3    3    0    0  0.33674304904E+02 -0.30671258451E+02  0.82219217816E+02  0.93993003378E+02  0.00000000000E+00 0. -1.
         13    1    3    3    0    0 -0.40468636539E+02 -0.40926609202E+01  0.18397613899E+02  0.44642273844E+02  0.00000000000E+00 0.  1.
        -13    1    4    4    0    0  0.86661934129E+02 -0.54232247051E+02 -0.12349296023E+03  0.16031824186E+03  0.00000000000E+00 0. -1.
         13    1    4    4    0    0  0.11937027952E+03 -0.10512428120E+02 -0.42904785698E+02  0.12728155960E+03  0.00000000000E+00 0.  1.
         -1    1    1    2    0  502 -0.19923788202E+03  0.99508594543E+02  0.32732468360E+02  0.22509799755E+03  0.00000000000E+00 0.  1.
<scales pt_clust_5="13000.00000" pt_clust_6="13000.00000" pt_clust_7="13000.00000" pt_clust_8="13000.00000" pt_clust_9="217.51709"></scales>
<clustering>
<clus scale="   88.551">  5  6 -1 -1</clus>
<clus scale="   91.566">  7  8 -1 -1</clus>
<clus scale="   95.373">  1  5  2 -1</clus>
<clus scale="  217.517">  2  9  1 -1</clus>
<clus scale="  217.517">  2  5  1 -1</clus>
</clustering>
</event>
<event>
 9    1  0.1504846E-005  0.9435870E+02  0.7546771E-02  0.1293729E+00
         21   -1    0    0  501  502  0.00000000000E+00  0.00000000000E+00  0.79715097732E+02  0.79715097732E+02  0.00000000000E+00 0. -1.
          1   -1    0    0  502    0 -0.00000000000E+00 -0.00000000000E+00 -0.16665605198E+03  0.16665605198E+03  0.00000000000E+00 0. -1.
         23    2    1    2    0    0  0.63242877372E+01  0.26709440509E+02 -0.79709212840E+02  0.12270009145E+03  0.89153592201E+02 0.  0.
         23    2    1    2    0    0  0.19941991076E+02 -0.19139339270E+02  0.57902458253E+00  0.95241638628E+02  0.91140754568E+02 0.  0.
        -11    1    3    3    0    0 -0.37864487504E+02  0.30839190086E+02 -0.44089923662E+02  0.65792829606E+02  0.00000000000E+00 0. -1.
         11    1    3    3    0    0  0.44188775241E+02 -0.41297495774E+01 -0.35619289178E+02  0.56907261843E+02  0.00000000000E+00 0.  1.
        -13    1    4    4    0    0  0.18174654840E+02  0.21957742977E+02 -0.31937098164E+02  0.42806994689E+02  0.00000000000E+00 0.  1.
         13    1    4    4    0    0  0.17673362367E+01 -0.41097082246E+02  0.32516122747E+02  0.52434643939E+02  0.00000000000E+00 0. -1.
          1    1    1    2  501    0 -0.26266278814E+02 -0.75701012391E+01 -0.78107659908E+01  0.28429419636E+02  0.00000000000E+00 0. -1.
<scales pt_clust_5="13000.00000" pt_clust_6="13000.00000" pt_clust_7="13000.00000" pt_clust_8="13000.00000" pt_clust_9="27.33540"></scales>
<clustering>
<clus scale="   27.335">  1  9  2 -1</clus>
<clus scale="   89.154">  5  6 -1 -1</clus>
<clus scale="   91.141">  7  8 -1 -1</clus>
<clus scale="   92.441">  2  5  1 -1</clus>
<clus scale="   27.335">  1  5  2 -1</clus>
</clustering>
</event>
<event>
 9    1  0.1504846E-005  0.9487491E+02  0.7546771E-02  0.1291729E+00
          1   -1    0    0  502    0 -0.00000000000E+00  0.00000000000E+00  0.46063672109E+03  0.46063672109E+03  0.00000000000E+00 0. -1.
         21   -1    0    0  501  502  0.00000000000E+00 -0.00000000000E+00 -0.25229195945E+03  0.25229195945E+03  0.00000000000E+00 0. -1.
         23    2    1    2    0    0  0.18063810814E+02  0.22279488053E+02  0.40030332597E+03  0.41168863103E+03  0.91771996232E+02 0.  0.
         23    2    1    2    0    0  0.47373002584E+02  0.37526643669E+02 -0.26354478517E+02  0.11340112069E+03  0.92264864807E+02 0.  0.
        -11    1    3    3    0    0 -0.51773556843E+01 -0.31072259315E+02  0.77079809940E+02  0.83268165653E+02  0.00000000000E+00 0.  1.
         11    1    3    3    0    0  0.23241166498E+02  0.53351747368E+02  0.32322351603E+03  0.32842046538E+03  0.00000000000E+00 0. -1.
        -13    1    4    4    0    0  0.66663690612E+02  0.47759233921E+02 -0.35961652603E+02  0.89544584027E+02  0.00000000000E+00 0. -1.
         13    1    4    4    0    0 -0.19290688027E+02 -0.10232590252E+02  0.96071740858E+01  0.23856536667E+02  0.00000000000E+00 0.  1.
          1    1    1    2  501    0 -0.65436813398E+02 -0.59806131721E+02 -0.16560408581E+03  0.18783892881E+03  0.00000000000E+00 0. -1.
<scales pt_clust_5="13000.00000" pt_clust_6="13000.00000" pt_clust_7="13000.00000" pt_clust_8="13000.00000" pt_clust_9="88.64959"></scales>
<clustering>
<clus scale="   88.650">  2  9  1 -1</clus>
<clus scale="   91.772">  5  6 -1 -1</clus>
<clus scale="   92.265">  7  8 -1 -1</clus>
<clus scale="   94.396">  1  5  2 -1</clus>
<clus scale="   88.650">  2  5  1 -1</clus>
</clustering>
</event>
<event>
 9    1  0.1504846E-005  0.1157585E+03  0.7546771E-02  0.1251515E+00
         21   -1    0    0  501  502  0.00000000000E+00  0.00000000000E+00  0.23602226437E+03  0.23602226437E+03  0.00000000000E+00 0. -1.
         -2   -1    0    0    0  501 -0.00000000000E+00 -0.00000000000E+00 -0.94167388233E+02  0.94167388233E+02  0.00000000000E+00 0.  1.
         23    2    1    2    0    0 -0.64040683099E+02 -0.67070426248E+02  0.23655751805E+02  0.13078598983E+03  0.89138820803E+02 0.  0.
         23    2    1    2    0    0  0.30893300565E+02  0.18682291755E+02  0.90629674780E+02  0.13459444215E+03  0.92728107188E+02 0.  0.
        -11    1    3    3    0    0 -0.83160669905E+02 -0.51919452511E+02  0.18331995843E+01  0.98054511313E+02  0.00000000000E+00 0.  1.
         11    1    3    3    0    0  0.19119986806E+02 -0.15150973736E+02  0.21822552221E+02  0.32731478519E+02  0.00000000000E+00 0. -1.
        -13    1    4    4    0    0  0.74533720432E+00 -0.26840551820E+02 -0.21542544838E+01  0.26937178062E+02  0.00000000000E+00 0. -1.
         13    1    4    4    0    0  0.30147963361E+02  0.45522843575E+02  0.92783929264E+02  0.10765726409E+03  0.00000000000E+00 0.  1.
         -2    1    1    2    0  502  0.33147382533E+02  0.48388134492E+02  0.27569449553E+02  0.64809220618E+02  0.00000000000E+00 0.  1.
<scales pt_clust_5="13000.00000" pt_clust_6="13000.00000" pt_clust_7="13000.00000" pt_clust_8="13000.00000" pt_clust_9="58.65291"></scales>
<clustering>
<clus scale="   58.653">  1  9  2 -1</clus>
<clus scale="   89.139">  5  6 -1 -1</clus>
<clus scale="   92.728">  7  8 -1 -1</clus>
<clus scale="  112.904">  2  5  1 -1</clus>
<clus scale="   58.653">  1  5  2 -1</clus>
</clustering>
</event>
<event>
 9    1  0.1504846E-005  0.1149741E+03  0.7546771E-02  0.1253959E+00
         21   -1    0    0  501  502  0.00000000000E+00  0.00000000000E+00  0.56907884440E+03  0.56907884440E+03  0.00000000000E+00 0.  1.
         -2   -1    0    0    0  501 -0.00000000000E+00 -0.00000000000E+00 -0.82406031946E+02  0.82406031946E+02  0.00000000000E+00 0.  1.
         23    2    1    2    0    0 -0.33383607325E+02  0.18977139689E+02  0.24944266750E+02  0.10110552777E+03  0.90141634291E+02 0.  0.
         23    2    1    2    0    0  0.10585517394E+03 -0.84060700970E+02  0.14990334838E+03  0.22369455922E+03  0.96419513949E+02 0.  0.
        -11    1    3    3    0    0 -0.58899186702E+02  0.20869113504E+02  0.37214995193E+02  0.72729567301E+02  0.00000000000E+00 0.  1.
         11    1    3    3    0    0  0.25515579377E+02 -0.18919738148E+01 -0.12270728444E+02  0.28375960466E+02  0.00000000000E+00 0. -1.
        -13    1    4    4    0    0  0.75702758666E+02 -0.38952610685E+02  0.14636074728E+03  0.16932123875E+03  0.00000000000E+00 0. -1.
         13    1    4    4    0    0  0.30152415269E+02 -0.45108090285E+02  0.35426011055E+01  0.54373320464E+02  0.00000000000E+00 0.  1.
         -2    1    1    2    0  502 -0.72471566610E+02  0.65083561281E+02  0.31182519732E+03  0.32668478936E+03  0.00000000000E+00 0.  1.
<scales pt_clust_5="13000.00000" pt_clust_6="13000.00000" pt_clust_7="13000.00000" pt_clust_8="13000.00000" pt_clust_9="97.40635"></scales>
<clustering>
<clus scale="   90.142">  5  6 -1 -1</clus>
<clus scale="   96.420">  7  8 -1 -1</clus>
<clus scale="   97.406">  1  9  2 -1</clus>
<clus scale="  109.763">  2  5  1 -1</clus>
<clus scale="   97.406">  1  5  2 -1</clus>
</clustering>
</event>
<event>
 9    1  0.1504846E-005  0.1800820E+03  0.7546771E-02  0.1168108E+00
          1   -1    0    0  502    0 -0.00000000000E+00  0.00000000000E+00  0.78497266579E+03  0.78497266579E+03  0.00000000000E+00 0. -1.
         21   -1    0    0  501  502  0.00000000000E+00 -0.00000000000E+00 -0.19607598160E+03  0.19607598160E+03  0.00000000000E+00 0. -1.
         23    2    1    2    0    0 -0.96358909599E+02  0.36399137204E+01  0.18366565709E+03  0.22813241122E+03  0.94937005550E+02 0.  0.
         23    2    1    2    0    0  0.21708839256E+03  0.23880003394E+02  0.52788648023E+03  0.57862534692E+03  0.91899572029E+02 0.  0.
        -11    1    3    3    0    0 -0.15468826791E+02 -0.32390689466E+02  0.17702087361E+02  0.40022559430E+02  0.00000000000E+00 0.  1.
         11    1    3    3    0    0 -0.80890082807E+02  0.36030603186E+02  0.16596356973E+03  0.18810985179E+03  0.00000000000E+00 0. -1.
        -13    1    4    4    0    0  0.11461196638E+03 -0.32359967423E+02  0.24039117916E+03  0.26827409369E+03  0.00000000000E+00 0.  1.
         13    1    4    4    0    0  0.10247642618E+03  0.56239970817E+02  0.28749530107E+03  0.31035125323E+03  0.00000000000E+00 0. -1.
          1    1    1    2  501    0 -0.12072948296E+03 -0.27519917114E+02 -0.12265545314E+03  0.17429088926E+03  0.00000000000E+00 0. -1.
<scales pt_clust_5="13000.00000" pt_clust_6="13000.00000" pt_clust_7="13000.00000" pt_clust_8="13000.00000" pt_clust_9="123.82631"></scales>
<clustering>
<clus scale="   91.900">  7  8 -1 -1</clus>
<clus scale="   94.937">  5  6 -1 -1</clus>
<clus scale="  123.826">  2  9  1 -1</clus>
<clus scale="  178.499">  2  7  1 -1</clus>
<clus scale="  123.826">  2  5  1 -1</clus>
</clustering>
</event>
<event>
 9    1  0.1504846E-005  0.1031647E+03  0.7546771E-02  0.1276082E+00
         21   -1    0    0  501  502  0.00000000000E+00  0.00000000000E+00  0.40734937649E+03  0.40734937649E+03  0.00000000000E+00 0. -1.
          2   -1    0    0  502    0 -0.00000000000E+00 -0.00000000000E+00 -0.52266816010E+02  0.52266816010E+02  0.00000000000E+00 0. -1.
         23    2    1    2    0    0 -0.21754463513E+02  0.53555934625E+02  0.53637192101E+02  0.11972435418E+03  0.90085946695E+02 0.  0.
         23    2    1    2    0    0 -0.65144226506E+00 -0.41906966870E+02  0.10333111712E+03  0.14017458915E+03  0.84941023239E+02 0.  0.
        -13    1    3    3    0    0 -0.49324997326E+02  0.51045780345E+02  0.58040905306E+02  0.91691732129E+02  0.00000000000E+00 0. -1.
         13    1    3    3    0    0  0.27570533813E+02  0.25101542804E+01 -0.44037132045E+01  0.28032622054E+02  0.00000000000E+00 0.  1.
        -13    1    4    4    0    0 -0.20223171232E+02  0.14406706254E+02  0.52241588581E+01  0.25373641354E+02  0.00000000000E+00 0.  1.
         13    1    4    4    0    0  0.19571728967E+02 -0.56313673124E+02  0.98106958266E+02  0.11480094780E+03  0.00000000000E+00 0. -1.
          2    1    1    2  501    0  0.22405905778E+02 -0.11648967755E+02  0.19811425125E+03  0.19971724916E+03  0.00000000000E+00 0. -1.
<scales pt_clust_5="13000.00000" pt_clust_6="13000.00000" pt_clust_7="13000.00000" pt_clust_8="13000.00000" pt_clust_9="25.25318"></scales>
<clustering>
<clus scale="   25.253">  1  9  2 -1</clus>
<clus scale="   84.941">  7  8 -1 -1</clus>
<clus scale="   90.086">  5  6 -1 -1</clus>
<clus scale="   98.704">  1  7  2 -1</clus>
<clus scale="   25.253">  1  5  2 -1</clus>
</clustering>
</event>
<event>
 9    1  0.1504846E-005  0.1533017E+03  0.7546771E-02  0.1197877E+00
         21   -1    0    0  501  502  0.00000000000E+00  0.00000000000E+00  0.18140127685E+03  0.18140127685E+03  0.00000000000E+00 0. -1.
          1   -1    0    0  502    0 -0.00000000000E+00 -0.00000000000E+00 -0.28795565513E+03  0.28795565513E+03  0.00000000000E+00 0. -1.
         23    2    1    2    0    0 -0.12050894468E+03 -0.45986713176E+02 -0.19309202614E+03  0.24978886818E+03  0.92047621215E+02 0.  0.
         23    2    1    2    0    0  0.99545042801E+02  0.38119237713E+02  0.59392933073E+01  0.13591713967E+03  0.84118379810E+02 0.  0.
        -13    1    4    4    0    0  0.15186071580E+01  0.27796351478E+02  0.22717499132E+02  0.35930879338E+02  0.00000000000E+00 0. -1.
         13    1    4    4    0    0  0.98026435643E+02  0.10322886236E+02 -0.16778205825E+02  0.99986260335E+02  0.00000000000E+00 0.  1.
        -13    1    3    3    0    0 -0.37825818931E+02 -0.30854338044E+02 -0.14489141307E+03  0.15289311409E+03  0.00000000000E+00 0.  1.
         13    1    3    3    0    0 -0.82683125746E+02 -0.15132375131E+02 -0.48200613064E+02  0.96895754086E+02  0.00000000000E+00 0. -1.
          1    1    1    2  501    0  0.20963901876E+02  0.78674754623E+01  0.80598354548E+02  0.83650924131E+02  0.00000000000E+00 0. -1.
<scales pt_clust_5="13000.00000" pt_clust_6="13000.00000" pt_clust_7="13000.00000" pt_clust_8="13000.00000" pt_clust_9="22.39157"></scales>
<clustering>
<clus scale="   22.392">  1  9  2 -1</clus>
<clus scale="   84.118">  5  6 -1 -1</clus>
<clus scale="   92.048">  7  8 -1 -1</clus>
<clus scale="  148.676">  1  5  2 -1</clus>
<clus scale="   22.392">  1  5  2 -1</clus>
</clustering>
</event>
<event>
 9    1  0.1504846E-005  0.1057775E+03  0.7546771E-02  0.1272152E+00
         21   -1    0    0  501  502  0.00000000000E+00  0.00000000000E+00  0.16620693647E+03  0.16620693647E+03  0.00000000000E+00 0. -1.
         -2   -1    0    0    0  501 -0.00000000000E+00 -0.00000000000E+00 -0.19649627315E+03  0.19649627315E+03  0.00000000000E+00 0.  1.
         23    2    1    2    0    0 -0.29837565486E+02 -0.26379116466E+02 -0.15366763548E+03  0.18328721284E+03  0.91620533159E+02 0.  0.
         23    2    1    2    0    0  0.29579938572E+01  0.14638768434E+02  0.10265926288E+03  0.14350463936E+03  0.99154495572E+02 0.  0.
        -11    1    3    3    0    0 -0.44749902467E+02  0.20906015351E+01 -0.14231946167E+03  0.14920373171E+03  0.00000000000E+00 0.  1.
         11    1    3    3    0    0  0.14912336981E+02 -0.28469718001E+02 -0.11348173815E+02  0.34083481134E+02  0.00000000000E+00 0. -1.
        -13    1    4    4    0    0  0.36359368203E+02 -0.10192834182E+02  0.59596558211E+01  0.38228458277E+02  0.00000000000E+00 0. -1.
         13    1    4    4    0    0 -0.33401374346E+02  0.24831602616E+02  0.96699607061E+02  0.10527618108E+03  0.00000000000E+00 0.  1.
         -2    1    1    2    0  502  0.26879571629E+02  0.11740348032E+02  0.20719035922E+02  0.35911357429E+02  0.00000000000E+00 0.  1.
<scales pt_clust_5="13000.00000" pt_clust_6="13000.00000" pt_clust_7="13000.00000" pt_clust_8="13000.00000" pt_clust_9="29.33167"></scales>
<clustering>
<clus scale="   29.332">  1  9  2 -1</clus>
<clus scale="   91.621">  5  6 -1 -1</clus>
<clus scale="   98.750">  2  5  1 -1</clus>
<clus scale="   99.154">  7  8 -1 -1</clus>
<clus scale="   29.332">  1  5  2 -1</clus>
</clustering>
</event>
<event>
 9    1  0.1504846E-005  0.1017603E+03  0.7546771E-02  0.1276652E+00
         -3   -1    0    0    0  501 -0.00000000000E+00  0.00000000000E+00  0.37654539570E+03  0.37654539570E+03  0.00000000000E+00 0.  1.
         21   -1    0    0  501  502  0.00000000000E+00 -0.00000000000E+00 -0.44509622549E+02  0.44509622549E+02  0.00000000000E+00 0. -1.
         23    2    1    2    0    0 -0.29421418691E+02 -0.33971264048E+02  0.24837248600E+03  0.26833152663E+03  0.91067281308E+02 0.  0.
         23    2    1    2    0    0  0.46508414178E+02  0.19392584302E+02  0.76506568661E+02  0.12914973635E+03  0.91034578242E+02 0.  0.
        -11    1    4    4    0    0  0.24811250363E+02  0.43197716700E+02  0.41990240674E+01  0.49992726229E+02  0.00000000000E+00 0. -1.
         11    1    4    4    0    0  0.21697163815E+02 -0.23805132398E+02  0.72307544593E+02  0.79157010121E+02  0.00000000000E+00 0.  1.
        -13    1    3    3    0    0 -0.28434129714E+01 -0.56356899745E+02  0.90274409018E+02  0.10645963587E+03  0.00000000000E+00 0. -1.
         13    1    3    3    0    0 -0.26578005720E+02  0.22385635698E+02  0.15809807698E+03  0.16187189076E+03  0.00000000000E+00 0.  1.
         -3    1    1    2    0  502 -0.17086995487E+02  0.14578679746E+02  0.71567184940E+01  0.23573755269E+02  0.00000000000E+00 0.  1.
<scales pt_clust_5="13000.00000" pt_clust_6="13000.00000" pt_clust_7="13000.00000" pt_clust_8="13000.00000" pt_clust_9="22.46115"></scales>
<clustering>
<clus scale="   22.461">  2  9  1 -1</clus>
<clus scale="   91.035">  5  6 -1 -1</clus>
<clus scale="   91.067">  7  8 -1 -1</clus>
<clus scale="  101.731">  2  5  1 -1</clus>
<clus scale="   22.461">  2  5  1 -1</clus>
</clustering>
</event>
<event>
 9    1  0.1504846E-005  0.1026245E+03  0.7546771E-02  0.1278094E+00
          1   -1    0    0  502    0 -0.00000000000E+00  0.00000000000E+00  0.37692470235E+03  0.37692470235E+03  0.00000000000E+00 0. -1.
         21   -1    0    0  501  502  0.00000000000E+00 -0.00000000000E+00 -0.43633629774E+02  0.43633629774E+02  0.00000000000E+00 0.  1.
         23    2    1    2    0    0 -0.45809137471E+02  0.15479671494E+02  0.20176765328E+03  0.22967129673E+03  0.98491732277E+02 0.  0.
         23    2    1    2    0    0  0.42363727423E+01  0.19519829134E+01  0.99120276565E+02  0.13537018208E+03  0.92078769970E+02 0.  0.
        -13    1    3    3    0    0 -0.45666457435E+02 -0.12994275503E+02  0.31359906581E+02  0.56900968984E+02  0.00000000000E+00 0.  1.
         13    1    3    3    0    0 -0.14268003582E+00  0.28473946997E+02  0.17040774670E+03  0.17277032775E+03  0.00000000000E+00 0. -1.
        -13    1    4    4    0    0  0.64263648548E+01 -0.34111463515E+02  0.56606850022E+01  0.35170064872E+02  0.00000000000E+00 0.  1.
         13    1    4    4    0    0 -0.21899921125E+01  0.36063446429E+02  0.93459591562E+02  0.10020011721E+03  0.00000000000E+00 0. -1.
          1    1    1    2  501    0  0.41572764728E+02 -0.17431654408E+02  0.32403142729E+02  0.55516853309E+02  0.00000000000E+00 0. -1.
<scales pt_clust_5="13000.00000" pt_clust_6="13000.00000" pt_clust_7="13000.00000" pt_clust_8="13000.00000" pt_clust_9="45.07946"></scales>
<clustering>
<clus scale="   45.079">  2  9  1 -1</clus>
<clus scale="   92.079">  7  8 -1 -1</clus>
<clus scale="   96.487">  2  7  1 -1</clus>
<clus scale="   98.492">  5  6 -1 -1</clus>
<clus scale="   45.079">  2  5  1 -1</clus>
</clustering>
</event>
<event>
 9    1  0.1504846E-005  0.1022431E+03  0.7546771E-02  0.1276554E+00
         21   -1    0    0  501  502  0.00000000000E+00  0.00000000000E+00  0.12903284755E+03  0.12903284755E+03  0.00000000000E+00 0. -1.
          3   -1    0    0  502    0 -0.00000000000E+00 -0.00000000000E+00 -0.24320117261E+03  0.24320117261E+03  0.00000000000E+00 0. -1.
         23    2    1    2    0    0  0.27307298537E+02 -0.54950071115E+02 -0.11834913755E+03  0.16311097801E+03  0.93986562437E+02 0.  0.
         23    2    1    2    0    0  0.30382276983E+02  0.21835500524E+02 -0.60494115310E+02  0.11634638455E+03  0.92071012670E+02 0.  0.
        -11    1    4    4    0    0 -0.10432217528E+00  0.53500945618E+02 -0.44439444593E+02  0.69550171107E+02  0.00000000000E+00 0. -1.
         11    1    4    4    0    0  0.30486599158E+02 -0.31665445095E+02 -0.16054670717E+02  0.46796213448E+02  0.00000000000E+00 0.  1.
        -13    1    3    3    0    0  0.20812438722E+02  0.37303047808E+00 -0.10334784192E+03  0.10542330476E+03  0.00000000000E+00 0. -1.
         13    1    3    3    0    0  0.64948598148E+01 -0.55323101593E+02 -0.15001295629E+02  0.57687673245E+02  0.00000000000E+00 0.  1.
          3    1    1    2  501    0 -0.57689575520E+02  0.33114570591E+02  0.64674927801E+02  0.92776657599E+02  0.00000000000E+00 0. -1.
<scales pt_clust_5="13000.00000" pt_clust_6="13000.00000" pt_clust_7="13000.00000" pt_clust_8="13000.00000" pt_clust_9="66.51813"></scales>
<clustering>
<clus scale="   66.518">  1  9  2 -1</clus>
<clus scale="   92.071">  5  6 -1 -1</clus>
<clus scale="   93.987">  7  8 -1 -1</clus>
<clus scale="  100.485">  1  5  2 -1</clus>
<clus scale="   66.518">  1  5  2 -1</clus>
</clustering>
</event>
<event>
 9    1  0.1504846E-005  0.1072318E+03  0.7546771E-02  0.1266159E+00
          3   -1    0    0  502    0 -0.00000000000E+00  0.00000000000E+00  0.22864487133E+03  0.22864487133E+03  0.00000000000E+00 0. -1.
         21   -1    0    0  501  502  0.00000000000E+00 -0.00000000000E+00 -0.10323729590E+03  0.10323729590E+03  0.00000000000E+00 0.  1.
         23    2    1    2    0    0 -0.22461555702E+02 -0.73006459382E+02  0.11101205194E+03  0.16225732067E+03  0.90384168080E+02 0.  0.
         23    2    1    2    0    0 -0.47305490249E+01  0.34901139675E+02  0.50858400924E+02  0.11028710662E+03  0.91302800051E+02 0.  0.
        -11    1    3    3    0    0  0.95904415595E+01 -0.56671553606E+02  0.11241367281E+03  0.12625559549E+03  0.00000000000E+00 0.  1.
         11    1    3    3    0    0 -0.32051997261E+02 -0.16334905776E+02 -0.14016208691E+01  0.36001725184E+02  0.00000000000E+00 0. -1.
        -13    1    4    4    0    0  0.39975553758E+02 -0.23740083062E+00  0.28915069865E+02  0.49337435308E+02  0.00000000000E+00 0. -1.
         13    1    4    4    0    0 -0.44706102783E+02  0.35138540506E+02  0.21943331059E+02  0.60949671311E+02  0.00000000000E+00 0.  1.
          3    1    1    2  501    0  0.27192104727E+02  0.38105319707E+02 -0.36462877445E+02  0.59337739938E+02  0.00000000000E+00 0. -1.
<scales pt_clust_5="13000.00000" pt_clust_6="13000.00000" pt_clust_7="13000.00000" pt_clust_8="13000.00000" pt_clust_9="46.81267"></scales>
<clustering>
<clus scale="   46.813">  2  9  1 -1</clus>
<clus scale="   90.384">  5  6 -1 -1</clus>
<clus scale="   91.303">  7  8 -1 -1</clus>
<clus scale="  106.451">  1  5  2 -1</clus>
<clus scale="   46.813">  2  5  1 -1</clus>
</clustering>
</event>
<event>
 9    1  0.1504846E-005  0.1355891E+03  0.7546771E-02  0.1219487E+00
          1   -1    0    0  502    0 -0.00000000000E+00  0.00000000000E+00  0.24084870416E+03  0.24084870416E+03  0.00000000000E+00 0. -1.
         21   -1    0    0  501  502  0.00000000000E+00 -0.00000000000E+00 -0.10578118525E+03  0.10578118525E+03  0.00000000000E+00 0.  1.
         23    2    1    2    0    0  0.53647479008E+02 -0.74180531789E+02  0.10843861298E+03  0.16958675786E+03  0.92843590818E+02 0.  0.
         23    2    1    2    0    0 -0.51936687664E+02  0.10137143274E+03  0.29557144648E+02  0.14964155344E+03  0.92441239800E+02 0.  0.
        -11    1    4    4    0    0 -0.48652100133E+02  0.45285489705E+02  0.56590215990E+02  0.87294071798E+02  0.00000000000E+00 0. -1.
         11    1    4    4    0    0 -0.32845875311E+01  0.56085943032E+02 -0.27033071342E+02  0.62347481643E+02  0.00000000000E+00 0.  1.
        -13    1    3    3    0    0  0.72511763086E+02 -0.41290283704E+02  0.10089084769E+03  0.13092672173E+03  0.00000000000E+00 0.  1.
         13    1    3    3    0    0 -0.18864284078E+02 -0.32890248084E+02  0.75477652856E+01  0.38660036131E+02  0.00000000000E+00 0. -1.
          1    1    1    2  501    0 -0.17107913443E+01 -0.27190900949E+02 -0.29282387176E+01  0.27401578119E+02  0.00000000000E+00 0. -1.
<scales pt_clust_5="13000.00000" pt_clust_6="13000.00000" pt_clust_7="13000.00000" pt_clust_8="13000.00000" pt_clust_9="27.24467"></scales>
<clustering>
<clus scale="   27.245">  2  9  1 -1</clus>
<clus scale="   92.441">  5  6 -1 -1</clus>
<clus scale="   92.844">  7  8 -1 -1</clus>
<clus scale="  135.314">  2  5  1 -1</clus>
<clus scale="   27.245">  2  5  1 -1</clus>
</clustering>
</event>
<event>
 9    1  0.1504846E-005  0.1609985E+03  0.7546771E-02  0.1213386E+00
         21   -1    0    0  501  502  0.00000000000E+00  0.00000000000E+00  0.16332040335E+03  0.16332040335E+03  0.00000000000E+00 0.  1.
         -3   -1    0    0    0  501 -0.00000000000E+00 -0.00000000000E+00 -0.22837968929E+03  0.22837968929E+03  0.00000000000E+00 0.  1.
         23    2    1    2    0    0  0.72595465661E+01  0.47824693958E+01 -0.53617373673E+01  0.92099588909E+02  0.91531486494E+02 0.  0.
         23    2    1    2    0    0  0.17423194740E+02 -0.13245264128E+03 -0.20798587158E+02  0.16387268895E+03  0.92598094242E+02 0.  0.
        -11    1    3    3    0    0 -0.12742754000E+02 -0.36444176726E+02  0.15687806280E+02  0.41673289559E+02  0.00000000000E+00 0.  1.
         11    1    3    3    0    0  0.20002300566E+02  0.41226646122E+02 -0.21049543648E+02  0.50426299350E+02  0.00000000000E+00 0. -1.
        -11    1    4    4    0    0  0.15335028378E+02 -0.87440141735E+02  0.32085065513E+02  0.94394877567E+02  0.00000000000E+00 0. -1.
         11    1    4    4    0    0  0.20881663612E+01 -0.45012499547E+02 -0.52883652671E+02  0.69477811380E+02  0.00000000000E+00 0.  1.
         -3    1    1    2    0  502 -0.24682741306E+02  0.12767017189E+03 -0.38898961418E+02  0.13572781479E+03  0.00000000000E+00 0.  1.
<scales pt_clust_5="13000.00000" pt_clust_6="13000.00000" pt_clust_7="13000.00000" pt_clust_8="13000.00000" pt_clust_9="131.70464"></scales>
<clustering>
<clus scale="   91.531">  5  6 -1 -1</clus>
<clus scale="   91.943">  2  5  1 -1</clus>
<clus scale="   92.598">  7  8 -1 -1</clus>
<clus scale="  131.705">  1  9  2 -1</clus>
<clus scale="  131.705">  1  5  2 -1</clus>
</clustering>
</event>
<event>
 9    1  0.1504846E-005  0.1067279E+03  0.7546771E-02  0.1266881E+00
         21   -1    0    0  501  502  0.00000000000E+00  0.00000000000E+00  0.18167768739E+03  0.18167768739E+03  0.00000000000E+00 0.  1.
          1   -1    0    0  502    0 -0.00000000000E+00 -0.00000000000E+00 -0.18900768762E+03  0.18900768762E+03  0.00000000000E+00 0. -1.
         23    2    1    2    0    0 -0.93739958127E+01  0.46485275626E+02 -0.10908647650E+03  0.14983906016E+03  0.91121522959E+02 0.  0.
         23    2    1    2    0    0  0.20185773666E+02 -0.79772829622E+02  0.10365605006E+02  0.12298290422E+03  0.90808475154E+02 0.  0.
        -13    1    4    4    0    0 -0.34615179982E+02 -0.31845111154E+02 -0.84497911776E+01  0.47788291040E+02  0.00000000000E+00 0.  1.
         13    1    4    4    0    0  0.54800953648E+02 -0.47927718467E+02  0.18815396184E+02  0.75194613183E+02  0.00000000000E+00 0. -1.
        -13    1    3    3    0    0 -0.99710629348E+00  0.69795918549E+02 -0.50273154357E+02  0.86022407058E+02  0.00000000000E+00 0. -1.
         13    1    3    3    0    0 -0.83768895192E+01 -0.23310642923E+02 -0.58813322141E+02  0.63816653099E+02  0.00000000000E+00 0.  1.
          1    1    1    2  501    0 -0.10811777853E+02  0.33287553995E+02  0.91390871257E+02  0.97863410632E+02  0.00000000000E+00 0. -1.
<scales pt_clust_5="13000.00000" pt_clust_6="13000.00000" pt_clust_7="13000.00000" pt_clust_8="13000.00000" pt_clust_9="34.99937"></scales>
<clustering>
<clus scale="   34.999">  1  9  2 -1</clus>
<clus scale="   90.808">  5  6 -1 -1</clus>
<clus scale="   91.122">  7  8 -1 -1</clus>
<clus scale="  106.461">  1  5  2 -1</clus>
<clus scale="   34.999">  1  5  2 -1</clus>
</clustering>
</event>
<event>
 9    1  0.1540918E-005  0.1093305E+03  0.7546771E-02  0.1262129E+00
         21   -1    0    0  501  502  0.00000000000E+00  0.00000000000E+00  0.23150348007E+03  0.23150348007E+03  0.00000000000E+00 0.  1.
         -1   -1    0    0    0  501 -0.00000000000E+00 -0.00000000000E+00 -0.17157679215E+03  0.17157679215E+03  0.00000000000E+00 0.  1.
         23    2    1    2    0    0 -0.36998781861E+02 -0.35379841228E+01 -0.39566294442E+02  0.10655209770E+03  0.91686589409E+02 0.  0.
         23    2    1    2    0    0  0.88477622175E+02 -0.15928315492E+02 -0.49969327520E+02  0.13725485630E+03  0.90884327713E+02 0.  0.
        -13    1    4    4    0    0  0.66662265524E+02 -0.31431347921E+02 -0.71667642514E+02  0.10280096430E+03  0.00000000000E+00 0.  1.
         13    1    4    4    0    0  0.21815356650E+02  0.15503032429E+02  0.21698314993E+02  0.34453891998E+02  0.00000000000E+00 0. -1.
        -13    1    3    3    0    0  0.21010188848E+02 -0.23878659140E+02 -0.31128386089E+02  0.44503874194E+02  0.00000000000E+00 0. -1.
         13    1    3    3    0    0 -0.58008970709E+02  0.20340675017E+02 -0.84379083532E+01  0.62048223506E+02  0.00000000000E+00 0.  1.
         -1    1    1    2    0  502 -0.51478840313E+02  0.19466299614E+02  0.14946230989E+03  0.15927331822E+03  0.00000000000E+00 0.  1.
<scales pt_clust_5="13000.00000" pt_clust_6="13000.00000" pt_clust_7="13000.00000" pt_clust_8="13000.00000" pt_clust_9="55.03642"></scales>
<clustering>
<clus scale="   55.036">  1  9  2 -1</clus>
<clus scale="   90.884">  5  6 -1 -1</clus>
<clus scale="   91.687">  7  8 -1 -1</clus>
<clus scale="  108.659">  1  5  2 -1</clus>
<clus scale="   55.036">  1  5  2 -1</clus>
</clustering>
</event>
<event>
 9    1  0.1504846E-005  0.4485736E+03  0.7546771E-02  0.1075637E+00
          1   -1    0    0  502    0 -0.00000000000E+00  0.00000000000E+00  0.58138037235E+03  0.58138037235E+03  0.00000000000E+00 0. -1.
         21   -1    0    0  501  502  0.00000000000E+00 -0.00000000000E+00 -0.66644227829E+03  0.66644227829E+03  0.00000000000E+00 0. -1.
         23    2    1    2    0    0 -0.52493608361E+02 -0.50496717063E+02  0.15832591154E+03  0.19639637568E+03  0.90548024626E+02 0.  0.
         23    2    1    2    0    0  0.18939579574E+03 -0.37455935683E+03  0.15106050368E+03  0.45560385770E+03  0.92682901038E+02 0.  0.
        -11    1    3    3    0    0 -0.72764749080E+02 -0.43884081648E+02  0.15202712330E+03  0.17416304875E+03  0.00000000000E+00 0. -1.
         11    1    3    3    0    0  0.20271140718E+02 -0.66126354151E+01  0.62987882347E+01  0.22233326930E+02  0.00000000000E+00 0.  1.
        -13    1    4    4    0    0  0.75953950277E+02 -0.16430684323E+03  0.11379505487E+03  0.21381079441E+03  0.00000000000E+00 0. -1.
         13    1    4    4    0    0  0.11344184546E+03 -0.21025251360E+03  0.37265448804E+02  0.24179306328E+03  0.00000000000E+00 0.  1.
          1    1    1    2  501    0 -0.13690218738E+03  0.42505607389E+03 -0.39444832114E+03  0.59582241726E+03  0.00000000000E+00 0. -1.
<scales pt_clust_5="13000.00000" pt_clust_6="13000.00000" pt_clust_7="13000.00000" pt_clust_8="13000.00000" pt_clust_9="438.89420"></scales>
<clustering>
<clus scale="   90.548">  5  6 -1 -1</clus>
<clus scale="   92.683">  7  8 -1 -1</clus>
<clus scale="  116.209">  1  5  2 -1</clus>
<clus scale="  438.894">  2  9  1 -1</clus>
<clus scale="  438.894">  2  5  1 -1</clus>
</clustering>
</event>
<event>
 9    1  0.1504846E-005  0.9958946E+02  0.7546771E-02  0.1282312E+00
         21   -1    0    0  501  502  0.00000000000E+00  0.00000000000E+00  0.43655376069E+03  0.43655376069E+03  0.00000000000E+00 0. -1.
          1   -1    0    0  502    0 -0.00000000000E+00 -0.00000000000E+00 -0.57492950882E+02  0.57492950882E+02  0.00000000000E+00 0. -1.
         23    2    1    2    0    0 -0.43541735574E+02  0.20872623920E+01  0.45409984931E+02  0.10910522285E+03  0.89115899375E+02 0.  0.
         23    2    1    2    0    0  0.24857033025E+02 -0.36833799952E+02  0.83154436422E+02  0.13135741861E+03  0.91463163178E+02 0.  0.
        -13    1    3    3    0    0 -0.66711314652E+02 -0.11005143016E+02  0.47159467611E+02  0.82434992938E+02  0.00000000000E+00 0. -1.
         13    1    3    3    0    0  0.23169579079E+02  0.13092405408E+02 -0.17494826796E+01  0.26670229915E+02  0.00000000000E+00 0.  1.
        -13    1    4    4    0    0 -0.81355578819E+01  0.24607583501E+02  0.44827001276E+02  0.51780116949E+02  0.00000000000E+00 0.  1.
         13    1    4    4    0    0  0.32992590907E+02 -0.61441383454E+02  0.38327435145E+02  0.79577301665E+02  0.00000000000E+00 0. -1.
          1    1    1    2  501    0  0.18684702548E+02  0.34746537560E+02  0.25049638846E+03  0.25358407011E+03  0.00000000000E+00 0. -1.
<scales pt_clust_5="13000.00000" pt_clust_6="13000.00000" pt_clust_7="13000.00000" pt_clust_8="13000.00000" pt_clust_9="39.45174"></scales>
<clustering>
<clus scale="   39.452">  1  9  2 -1</clus>
<clus scale="   89.116">  5  6 -1 -1</clus>
<clus scale="   91.463">  7  8 -1 -1</clus>
<clus scale="   97.438">  2  5  1 -1</clus>
<clus scale="   39.452">  1  5  2 -1</clus>
</clustering>
</event>
<event>
 9    1  0.1504846E-005  0.1477403E+03  0.7546771E-02  0.1203951E+00
          3   -1    0    0  502    0 -0.00000000000E+00  0.00000000000E+00  0.35533010583E+02  0.35533010583E+02  0.00000000000E+00 0. -1.
         21   -1    0    0  501  502  0.00000000000E+00 -0.00000000000E+00 -0.87838366242E+03  0.87838366242E+03  0.00000000000E+00 0. -1.
         23    2    1    2    0    0 -0.41843873734E+02 -0.10271107644E+03 -0.23592248415E+03  0.27612685044E+03  0.91028259431E+02 0.  0.
         23    2    1    2    0    0  0.78216728307E+02  0.93518028389E+02 -0.42686886372E+03  0.45386361554E+03  0.94401676266E+02 0.  0.
        -13    1    4    4    0    0  0.72835777983E+02  0.62741768091E+02 -0.40364411554E+03  0.41493391284E+03  0.00000000000E+00 0. -1.
         13    1    4    4    0    0  0.53809503239E+01  0.30776260298E+02 -0.23224748175E+02  0.38929702697E+02  0.00000000000E+00 0.  1.
        -13    1    3    3    0    0 -0.40992892194E+02 -0.32378438393E+02 -0.17643752068E+03  0.18400809544E+03  0.00000000000E+00 0.  1.
         13    1    3    3    0    0 -0.85098154032E+00 -0.70332638044E+02 -0.59484963462E+02  0.92118754996E+02  0.00000000000E+00 0. -1.
          3    1    1    2  501    0 -0.36372854573E+02  0.91930480491E+01 -0.18005930398E+03  0.18392620703E+03  0.00000000000E+00 0. -1.
<scales pt_clust_5="13000.00000" pt_clust_6="13000.00000" pt_clust_7="13000.00000" pt_clust_8="13000.00000" pt_clust_9="37.51662"></scales>
<clustering>
<clus scale="   37.517">  2  9  1 -1</clus>
<clus scale="   91.028">  7  8 -1 -1</clus>
<clus scale="   94.402">  5  6 -1 -1</clus>
<clus scale="  145.608">  1  7  2 -1</clus>
<clus scale="   37.517">  2  5  1 -1</clus>
</clustering>
</event>
<event>
 9    1  0.1504846E-005  0.9930143E+02  0.7546771E-02  0.1285567E+00
         21   -1    0    0  501  502  0.00000000000E+00  0.00000000000E+00  0.12284241838E+03  0.12284241838E+03  0.00000000000E+00 0. -1.
          3   -1    0    0  502    0 -0.00000000000E+00 -0.00000000000E+00 -0.19896568813E+03  0.19896568813E+03  0.00000000000E+00 0. -1.
         23    2    1    2    0    0  0.17576630817E+02 -0.21611746328E+02 -0.10640667753E+03  0.14180747786E+03  0.89504045848E+02 0.  0.
         23    2    1    2    0    0  0.46021360611E+01  0.19311878564E+02 -0.39886536461E+02  0.10637313266E+03  0.96592853000E+02 0.  0.
        -11    1    3    3    0    0  0.13778875574E+02  0.23079735041E+02 -0.60003012132E+00  0.26886643856E+02  0.00000000000E+00 0.  1.
         11    1    3    3    0    0  0.37977552426E+01 -0.44691481369E+02 -0.10580664741E+03  0.11492083400E+03  0.00000000000E+00 0. -1.
        -13    1    4    4    0    0 -0.28040251271E+02  0.36710476171E+02  0.69256620295E+01  0.46710593516E+02  0.00000000000E+00 0.  1.
         13    1    4    4    0    0  0.32642387332E+02 -0.17398597608E+02 -0.46812198490E+02  0.59662539143E+02  0.00000000000E+00 0. -1.
          3    1    1    2  501    0 -0.22178766878E+02  0.22998677646E+01  0.70169944242E+02  0.73627495997E+02  0.00000000000E+00 0. -1.
<scales pt_clust_5="13000.00000" pt_clust_6="13000.00000" pt_clust_7="13000.00000" pt_clust_8="13000.00000" pt_clust_9="22.29769"></scales>
<clustering>
<clus scale="   22.298">  1  9  2 -1</clus>
<clus scale="   89.504">  5  6 -1 -1</clus>
<clus scale="   92.421">  2  5  1 -1</clus>
<clus scale="   96.593">  7  8 -1 -1</clus>
<clus scale="   22.298">  1  5  2 -1</clus>
</clustering>
</event>
<event>
 9    1  0.1504846E-005  0.1225948E+03  0.7546771E-02  0.1239559E+00
         -1   -1    0    0    0  501 -0.00000000000E+00  0.00000000000E+00  0.11082903450E+03  0.11082903450E+03  0.00000000000E+00 0.  1.
         21   -1    0    0  501  502  0.00000000000E+00 -0.00000000000E+00 -0.23164990502E+03  0.23164990502E+03  0.00000000000E+00 0. -1.
         23    2    1    2    0    0  0.66973304437E+02 -0.15149767623E+02 -0.18220301130E+02  0.11663764332E+03  0.92506332218E+02 0.  0.
         23    2    1    2    0    0 -0.10674981622E+03 -0.23014391903E+02 -0.94070462299E+02  0.17006104261E+03  0.90256971141E+02 0.  0.
        -11    1    4    4    0    0 -0.38397662117E+02  0.26208863950E+00 -0.89873118108E+02  0.97732422998E+02  0.00000000000E+00 0. -1.
         11    1    4    4    0    0 -0.68352154107E+02 -0.23276480542E+02 -0.41973441911E+01  0.72328619617E+02  0.00000000000E+00 0.  1.
        -13    1    3    3    0    0 -0.17776102206E+02  0.15207933318E+02  0.44295224058E+01  0.23809487902E+02  0.00000000000E+00 0. -1.
         13    1    3    3    0    0  0.84749406643E+02 -0.30357700941E+02 -0.22649823535E+02  0.92828155421E+02  0.00000000000E+00 0.  1.
         -1    1    1    2    0  502  0.39776511787E+02  0.38164159526E+02 -0.85301070880E+01  0.55780253577E+02  0.00000000000E+00 0.  1.
<scales pt_clust_5="13000.00000" pt_clust_6="13000.00000" pt_clust_7="13000.00000" pt_clust_8="13000.00000" pt_clust_9="55.12420"></scales>
<clustering>
<clus scale="   55.124">  2  9  1 -1</clus>
<clus scale="   90.257">  5  6 -1 -1</clus>
<clus scale="   92.506">  7  8 -1 -1</clus>
<clus scale="  120.907">  2  5  1 -1</clus>
<clus scale="   55.124">  2  5  1 -1</clus>
</clustering>
</event>
<event>
 9    1  0.1504846E-005  0.9978065E+02  0.7546771E-02  0.1281642E+00
          1   -1    0    0  502    0 -0.00000000000E+00  0.00000000000E+00  0.42325199424E+03  0.42325199424E+03  0.00000000000E+00 0. -1.
         21   -1    0    0  501  502  0.00000000000E+00 -0.00000000000E+00 -0.18588271167E+03  0.18588271167E+03  0.00000000000E+00 0. -1.
         23    2    1    2    0    0  0.59829527356E+01  0.30300519947E+02  0.32082831011E+03  0.33560347067E+03  0.93514532141E+02 0.  0.
         23    2    1    2    0    0 -0.71276339838E+02 -0.35452227861E+02  0.44844267789E+02  0.12947741861E+03  0.91739939477E+02 0.  0.
        -13    1    4    4    0    0 -0.32651179137E+02  0.27531629077E+02  0.34437896042E+02  0.54864002611E+02  0.00000000000E+00 0.  1.
         13    1    4    4    0    0 -0.38625160701E+02 -0.62983856938E+02  0.10406371746E+02  0.74613415998E+02  0.00000000000E+00 0. -1.
        -13    1    3    3    0    0 -0.18929569307E+02  0.57083875955E+02  0.16740837911E+03  0.17788328445E+03  0.00000000000E+00 0. -1.
         13    1    3    3    0    0  0.24912522042E+02 -0.26783356008E+02  0.15341993100E+03  0.15772018622E+03  0.00000000000E+00 0.  1.
          1    1    1    2  501    0  0.65293387102E+02  0.51517079142E+01 -0.12830329533E+03  0.14405381663E+03  0.00000000000E+00 0. -1.
<scales pt_clust_5="13000.00000" pt_clust_6="13000.00000" pt_clust_7="13000.00000" pt_clust_8="13000.00000" pt_clust_9="65.49631"></scales>
<clustering>
<clus scale="   65.496">  2  9  1 -1</clus>
<clus scale="   91.740">  5  6 -1 -1</clus>
<clus scale="   93.515">  7  8 -1 -1</clus>
<clus scale="   98.119">  2  5  1 -1</clus>
<clus scale="   65.496">  2  5  1 -1</clus>
</clustering>
</event>
<event>
 9    1  0.1504846E-005  0.1678421E+03  0.7546771E-02  0.1180159E+00
         21   -1    0    0  501  502  0.00000000000E+00  0.00000000000E+00  0.56460363709E+02  0.56460363709E+02  0.00000000000E+00 0.  1.
         -4   -1    0    0    0  501 -0.00000000000E+00 -0.00000000000E+00 -0.85019094265E+03  0.85019094265E+03  0.00000000000E+00 0.  1.
         23    2    1    2    0    0 -0.33109987982E+02  0.15249657236E+03 -0.58545746665E+03  0.61253323955E+03  0.89916897262E+02 0.  0.
         23    2    1    2    0    0 -0.81114989587E+01 -0.11630193671E+03 -0.17917365771E+03  0.23202103876E+03  0.90214333193E+02 0.  0.
        -11    1    3    3    0    0 -0.53129816448E+02  0.12447888380E+03 -0.53199051337E+03  0.54893685996E+03  0.00000000000E+00 0.  1.
         11    1    3    3    0    0  0.20019828467E+02  0.28017688558E+02 -0.53466953283E+02  0.63596379593E+02  0.00000000000E+00 0. -1.
        -13    1    4    4    0    0 -0.47660849096E+02 -0.82892225172E+02 -0.11425688476E+03  0.14898762783E+03  0.00000000000E+00 0.  1.
         13    1    4    4    0    0  0.39549350137E+02 -0.33409711540E+02 -0.64916772947E+02  0.83033410934E+02  0.00000000000E+00 0. -1.
         -4    1    1    2    0  502  0.41221486940E+02 -0.36194635649E+02 -0.29099454588E+02  0.62097028050E+02  0.00000000000E+00 0.  1.
<scales pt_clust_5="13000.00000" pt_clust_6="13000.00000" pt_clust_7="13000.00000" pt_clust_8="13000.00000" pt_clust_9="54.85675"></scales>
<clustering>
<clus scale="   54.857">  1  9  2 -1</clus>
<clus scale="   89.917">  5  6 -1 -1</clus>
<clus scale="   90.214">  7  8 -1 -1</clus>
<clus scale="  167.682">  2  5  1 -1</clus>
<clus scale="   54.857">  1  5  2 -1</clus>
</clustering>
</event>
<event>
 9    1  0.1504846E-005  0.1487912E+03  0.7546771E-02  0.1202048E+00
         21   -1    0    0  501  502  0.00000000000E+00  0.00000000000E+00  0.65985046431E+03  0.65985046431E+03  0.00000000000E+00 0.  1.
          1   -1    0    0  502    0 -0.00000000000E+00 -0.00000000000E+00 -0.16296512820E+03  0.16296512820E+03  0.00000000000E+00 0. -1.
         23    2    1    2    0    0  0.78409283636E+02  0.81300382359E+02 -0.95526490162E+02  0.17342069760E+03  0.90507790286E+02 0.  0.
         23    2    1    2    0    0 -0.13781924333E+03 -0.90622794955E+02  0.32801913577E+03  0.37824927816E+03  0.90935846629E+02 0.  0.
        -13    1    3    3    0    0 -0.18721382891E+02  0.28491038544E+02 -0.25128370645E+02  0.42351676070E+02  0.00000000000E+00 0.  1.
         13    1    3    3    0    0  0.97130666527E+02  0.52809343815E+02 -0.70398119518E+02  0.13106902153E+03  0.00000000000E+00 0. -1.
        -13    1    4    4    0    0 -0.81773578215E+02 -0.42097605081E+02  0.26646722918E+03  0.28189343851E+03  0.00000000000E+00 0.  1.
         13    1    4    4    0    0 -0.56045665114E+02 -0.48525189874E+02  0.61551906588E+02  0.96355839652E+02  0.00000000000E+00 0. -1.
          1    1    1    2  501    0  0.59409959693E+02  0.93224125960E+01  0.26439269050E+03  0.27114561674E+03  0.00000000000E+00 0. -1.
<scales pt_clust_5="13000.00000" pt_clust_6="13000.00000" pt_clust_7="13000.00000" pt_clust_8="13000.00000" pt_clust_9="60.13693"></scales>
<clustering>
<clus scale="   60.137">  1  9  2 -1</clus>
<clus scale="   90.508">  5  6 -1 -1</clus>
<clus scale="   90.936">  7  8 -1 -1</clus>
<clus scale="  148.530">  2  5  1 -1</clus>
<clus scale="   60.137">  1  5  2 -1</clus>
</clustering>
</event>
<event>
 9    1  0.1504846E-005  0.1212536E+03  0.7546771E-02  0.1241277E+00
          1   -1    0    0  502    0 -0.00000000000E+00  0.00000000000E+00  0.14278199289E+03  0.14278199289E+03  0.00000000000E+00 0. -1.
         21   -1    0    0  501  502  0.00000000000E+00 -0.00000000000E+00 -0.29386033697E+03  0.29386033697E+03  0.00000000000E+00 0. -1.
         23    2    1    2    0    0  0.38373848341E+02 -0.63460858713E+02  0.77748145427E+02  0.14110191456E+03  0.91461157608E+02 0.  0.
         23    2    1    2    0    0 -0.74787035564E+02  0.82684490556E+02 -0.19111363872E+03  0.23970380241E+03  0.92215314970E+02 0.  0.
        -13    1    4    4    0    0 -0.18857417777E+01  0.46950874807E+02 -0.12956621983E+03  0.13782360461E+03  0.00000000000E+00 0. -1.
         13    1    4    4    0    0 -0.72901293787E+02  0.35733615749E+02 -0.61547418893E+02  0.10188019779E+03  0.00000000000E+00 0.  1.
        -13    1    3    3    0    0 -0.13424150810E+02 -0.55879239548E+02  0.65880063532E+02  0.87423566665E+02  0.00000000000E+00 0. -1.
         13    1    3    3    0    0  0.51797999151E+02 -0.75816191647E+01  0.11868081894E+02  0.53678347898E+02  0.00000000000E+00 0.  1.
          1    1    1    2  501    0  0.36413187224E+02 -0.19223631844E+02 -0.37712850785E+02  0.55836612893E+02  0.00000000000E+00 0. -1.
<scales pt_clust_5="13000.00000" pt_clust_6="13000.00000" pt_clust_7="13000.00000" pt_clust_8="13000.00000" pt_clust_9="41.17606"></scales>
<clustering>
<clus scale="   41.176">  2  9  1 -1</clus>
<clus scale="   91.461">  7  8 -1 -1</clus>
<clus scale="   92.215">  5  6 -1 -1</clus>
<clus scale="  120.681">  1  7  2 -1</clus>
<clus scale="   41.176">  2  5  1 -1</clus>
</clustering>
</event>
<event>
 9    1  0.1504846E-005  0.1055734E+03  0.7546771E-02  0.1269722E+00
         21   -1    0    0  501  502  0.00000000000E+00  0.00000000000E+00  0.20622225382E+03  0.20622225382E+03  0.00000000000E+00 0.  1.
         -2   -1    0    0    0  501 -0.00000000000E+00 -0.00000000000E+00 -0.13529345167E+03  0.13529345167E+03  0.00000000000E+00 0.  1.
         23    2    1    2    0    0  0.11864277555E+02 -0.38757346647E+02 -0.50044275490E+02  0.11250409857E+03  0.92248846527E+02 0.  0.
         23    2    1    2    0    0  0.15543601556E+02  0.68711177975E+02  0.18576248957E+02  0.11885928342E+03  0.93912846311E+02 0.  0.
        -11    1    4    4    0    0 -0.27064599669E+01 -0.23352557081E+02  0.25685954011E+01  0.23648774389E+02  0.00000000000E+00 0. -1.
         11    1    4    4    0    0  0.18250061523E+02  0.92063735055E+02  0.16007653556E+02  0.95210509033E+02  0.00000000000E+00 0.  1.
        -11    1    3    3    0    0 -0.36925703400E+02 -0.24225848414E+02 -0.42034790226E+02  0.60969852323E+02  0.00000000000E+00 0. -1.
         11    1    3    3    0    0  0.48789980955E+02 -0.14531498233E+02 -0.80094852636E+01  0.51534246251E+02  0.00000000000E+00 0.  1.
         -2    1    1    2    0  502 -0.27407879111E+02 -0.29953831328E+02  0.10239682868E+03  0.11015232350E+03  0.00000000000E+00 0.  1.
<scales pt_clust_5="13000.00000" pt_clust_6="13000.00000" pt_clust_7="13000.00000" pt_clust_8="13000.00000" pt_clust_9="40.60079"></scales>
<clustering>
<clus scale="   40.601">  1  9  2 -1</clus>
<clus scale="   92.249">  7  8 -1 -1</clus>
<clus scale="   93.913">  5  6 -1 -1</clus>
<clus scale="  104.096">  2  7  1 -1</clus>
<clus scale="   40.601">  1  5  2 -1</clus>
</clustering>
</event>
<event>
 9    1  0.1504846E-005  0.1074867E+03  0.7546771E-02  0.1265896E+00
         -1   -1    0    0    0  501 -0.00000000000E+00  0.00000000000E+00  0.10507942061E+03  0.10507942061E+03  0.00000000000E+00 0.  1.
         21   -1    0    0  501  502  0.00000000000E+00 -0.00000000000E+00 -0.21310195542E+03  0.21310195542E+03  0.00000000000E+00 0. -1.
         23    2    1    2    0    0  0.39265121565E+02 -0.28306371628E+02 -0.32022203333E+01  0.10641494497E+03  0.94714760478E+02 0.  0.
         23    2    1    2    0    0 -0.12621424572E+02  0.53157826335E+02 -0.10978221995E+02  0.11109955611E+03  0.96112096799E+02 0.  0.
        -13    1    3    3    0    0 -0.22121231761E+02  0.17526777567E+02  0.71366020385E+01  0.29111302189E+02  0.00000000000E+00 0.  1.
         13    1    3    3    0    0  0.61386353326E+02 -0.45833149194E+02 -0.10338822372E+02  0.77303642785E+02  0.00000000000E+00 0. -1.
        -13    1    4    4    0    0 -0.37526238648E+02 -0.40699688020E+01  0.18546108844E+02  0.42056407198E+02  0.00000000000E+00 0.  1.
         13    1    4    4    0    0  0.24904814076E+02  0.57227795137E+02 -0.29524330840E+02  0.69043148914E+02  0.00000000000E+00 0. -1.
         -1    1    1    2    0  502 -0.26643696993E+02 -0.24851454707E+02 -0.93842092475E+02  0.10066687494E+03  0.00000000000E+00 0.  1.
<scales pt_clust_5="13000.00000" pt_clust_6="13000.00000" pt_clust_7="13000.00000" pt_clust_8="13000.00000" pt_clust_9="36.43462"></scales>
<clustering>
<clus scale="   36.435">  2  9  1 -1</clus>
<clus scale="   94.715">  5  6 -1 -1</clus>
<clus scale="   96.112">  7  8 -1 -1</clus>
<clus scale="  106.239">  1  5  2 -1</clus>
<clus scale="   36.435">  2  5  1 -1</clus>
</clustering>
</event>
<event>
 9    1  0.1504846E-005  0.1110625E+03  0.7546771E-02  0.1259003E+00
          1   -1    0    0  502    0 -0.00000000000E+00  0.00000000000E+00  0.37401144294E+03  0.37401144294E+03  0.00000000000E+00 0. -1.
         21   -1    0    0  501  502  0.00000000000E+00 -0.00000000000E+00 -0.53719284584E+02  0.53719284584E+02  0.00000000000E+00 0.  1.
         23    2    1    2    0    0 -0.34746503124E+02 -0.80755115743E+02  0.16187732096E+03  0.20512781729E+03  0.90246585454E+02 0.  0.
         23    2    1    2    0    0  0.43533970219E+01  0.38794663341E+02  0.69274508549E+02  0.11949898843E+03  0.89202425597E+02 0.  0.
        -11    1    4    4    0    0  0.44463012618E+02  0.10435953228E+02  0.19795207798E+02  0.49776689953E+02  0.00000000000E+00 0. -1.
         11    1    4    4    0    0 -0.40109615596E+02  0.28358710113E+02  0.49479300750E+02  0.69722298480E+02  0.00000000000E+00 0.  1.
        -13    1    3    3    0    0 -0.62366265980E+02 -0.47391927082E+02  0.77002834960E+02  0.10984071411E+03  0.00000000000E+00 0.  1.
         13    1    3    3    0    0  0.27619762856E+02 -0.33363188661E+02  0.84874486001E+02  0.95287103177E+02  0.00000000000E+00 0. -1.
          1    1    1    2  501    0  0.30393106102E+02  0.41960452403E+02  0.89140328841E+02  0.10310392180E+03  0.00000000000E+00 0. -1.
<scales pt_clust_5="13000.00000" pt_clust_6="13000.00000" pt_clust_7="13000.00000" pt_clust_8="13000.00000" pt_clust_9="51.81142"></scales>
<clustering>
<clus scale="   51.811">  2  9  1 -1</clus>
<clus scale="   89.202">  5  6 -1 -1</clus>
<clus scale="   90.247">  7  8 -1 -1</clus>
<clus scale="  110.216">  2  5  1 -1</clus>
<clus scale="   51.811">  2  5  1 -1</clus>
</clustering>
</event>
<event>
 9    1  0.1504846E-005  0.1166501E+03  0.7546771E-02  0.1250257E+00
         -2   -1    0    0    0  501 -0.00000000000E+00  0.00000000000E+00  0.12017495530E+03  0.12017495530E+03  0.00000000000E+00 0.  1.
         21   -1    0    0  501  502  0.00000000000E+00 -0.00000000000E+00 -0.21653616538E+03  0.21653616538E+03  0.00000000000E+00 0. -1.
         23    2    1    2    0    0  0.29315324677E+02  0.51120376605E+02  0.18905490578E+02  0.11021528639E+03  0.91199290648E+02 0.  0.
         23    2    1    2    0    0 -0.45456247153E+02 -0.10200413135E+03 -0.88551339082E+02  0.16680164345E+03  0.86662191217E+02 0.  0.
        -13    1    4    4    0    0 -0.48568454291E+02 -0.50320381519E+02 -0.91233658743E+02  0.11495484347E+03  0.00000000000E+00 0. -1.
         13    1    4    4    0    0  0.31122071382E+01 -0.51683749832E+02  0.26823196608E+01  0.51846799985E+02  0.00000000000E+00 0.  1.
        -13    1    3    3    0    0  0.52876803710E+02  0.56048926375E+02  0.31265169080E+02  0.83156174251E+02  0.00000000000E+00 0.  1.
         13    1    3    3    0    0 -0.23561479034E+02 -0.49285497697E+01 -0.12359678502E+02  0.27059112139E+02  0.00000000000E+00 0. -1.
         -2    1    1    2    0  502  0.16140922476E+02  0.50883754746E+02 -0.26715361584E+02  0.59694190839E+02  0.00000000000E+00 0.  1.
<scales pt_clust_5="13000.00000" pt_clust_6="13000.00000" pt_clust_7="13000.00000" pt_clust_8="13000.00000" pt_clust_9="53.38245"></scales>
<clustering>
<clus scale="   53.382">  2  9  1 -1</clus>
<clus scale="   86.662">  5  6 -1 -1</clus>
<clus scale="   91.199">  7  8 -1 -1</clus>
<clus scale="  113.138">  2  5  1 -1</clus>
<clus scale="   53.382">  2  5  1 -1</clus>
</clustering>
</event>
<event>
 9    1  0.1504846E-005  0.1378373E+03  0.7546771E-02  0.1216626E+00
          1   -1    0    0  502    0 -0.00000000000E+00  0.00000000000E+00  0.63765418213E+03  0.63765418213E+03  0.00000000000E+00 0. -1.
         21   -1    0    0  501  502  0.00000000000E+00 -0.00000000000E+00 -0.57639493230E+02  0.57639493230E+02  0.00000000000E+00 0. -1.
         23    2    1    2    0    0 -0.11372508462E+03 -0.75779467446E+02  0.38893628474E+03  0.42273156426E+03  0.93566122513E+02 0.  0.
         23    2    1    2    0    0  0.49595317473E+02  0.39208703135E+02  0.15324297715E+03  0.18960689804E+03  0.92034492561E+02 0.  0.
        -11    1    4    4    0    0  0.37879976239E+02  0.69464575035E+02  0.11210177290E+03  0.13721161493E+03  0.00000000000E+00 0.  1.
         11    1    4    4    0    0  0.11715341234E+02 -0.30255871901E+02  0.41141204245E+02  0.52395283103E+02  0.00000000000E+00 0. -1.
        -13    1    3    3    0    0 -0.77874473227E+02 -0.63910708335E+01  0.12437324695E+03  0.14688084941E+03  0.00000000000E+00 0.  1.
         13    1    3    3    0    0 -0.35850611389E+02 -0.69388396613E+02  0.26456303779E+03  0.27585071485E+03  0.00000000000E+00 0. -1.
          1    1    1    2  501    0  0.64129767144E+02  0.36570764312E+02  0.37835427015E+02  0.82955213059E+02  0.00000000000E+00 0. -1.
<scales pt_clust_5="13000.00000" pt_clust_6="13000.00000" pt_clust_7="13000.00000" pt_clust_8="13000.00000" pt_clust_9="73.82444"></scales>
<clustering>
<clus scale="   73.824">  2  9  1 -1</clus>
<clus scale="   92.034">  5  6 -1 -1</clus>
<clus scale="   93.566">  7  8 -1 -1</clus>
<clus scale="  136.802">  2  5  1 -1</clus>
<clus scale="   73.824">  2  5  1 -1</clus>
</clustering>
</event>
<event>
 9    1  0.1504846E-005  0.1805236E+03  0.7546771E-02  0.1168886E+00
         21   -1    0    0  501  502  0.00000000000E+00  0.00000000000E+00  0.38289432077E+02  0.38289432077E+02  0.00000000000E+00 0.  1.
          1   -1    0    0  502    0 -0.00000000000E+00 -0.00000000000E+00 -0.13108763487E+04  0.13108763487E+04  0.00000000000E+00 0. -1.
         23    2    1    2    0    0  0.67328584691E+02 -0.12472214386E+03 -0.62270279071E+03  0.64456375052E+03  0.87263459947E+02 0.  0.
         23    2    1    2    0    0 -0.13044943365E+03  0.14242020508E+03 -0.48062461733E+03  0.52309102731E+03  0.72963213446E+02 0.  0.
        -11    1    4    4    0    0 -0.24771832397E+02  0.55106634193E+02 -0.22569850234E+03  0.23364545528E+03  0.00000000000E+00 0.  1.
         11    1    4    4    0    0 -0.10567760125E+03  0.87313570887E+02 -0.25492611499E+03  0.28944557203E+03  0.00000000000E+00 0. -1.
        -13    1    3    3    0    0 -0.20611748428E+02 -0.34235789333E+02 -0.13373989799E+03  0.13958256968E+03  0.00000000000E+00 0.  1.
         13    1    3    3    0    0  0.87940333119E+02 -0.90486354526E+02 -0.48896289272E+03  0.50498118084E+03  0.00000000000E+00 0. -1.
          1    1    1    2  501    0  0.63120848961E+02 -0.17698061221E+02 -0.16925950860E+03  0.18151100296E+03  0.00000000000E+00 0. -1.
<scales pt_clust_5="13000.00000" pt_clust_6="13000.00000" pt_clust_7="13000.00000" pt_clust_8="13000.00000" pt_clust_9="65.55504"></scales>
<clustering>
<clus scale="   65.555">  1  9  2 -1</clus>
<clus scale="   72.963">  5  6 -1 -1</clus>
<clus scale="   87.263">  7  8 -1 -1</clus>
<clus scale="  174.062">  1  5  2 -1</clus>
<clus scale="   65.555">  1  5  2 -1</clus>
</clustering>
</event>
<event>
 9    1  0.1504846E-005  0.1811465E+03  0.7546771E-02  0.1166903E+00
         21   -1    0    0  501  502  0.00000000000E+00  0.00000000000E+00  0.69805975596E+02  0.69805975596E+02  0.00000000000E+00 0. -1.
         -3   -1    0    0    0  501 -0.00000000000E+00 -0.00000000000E+00 -0.78375878121E+03  0.78375878121E+03  0.00000000000E+00 0.  1.
         23    2    1    2    0    0 -0.16288264730E+03 -0.64786233001E+01 -0.55597773948E+03  0.58683546353E+03  0.93230279987E+02 0.  0.
         23    2    1    2    0    0  0.13746160753E+03  0.18912379152E+02 -0.16833879006E+03  0.23659236707E+03  0.91567615915E+02 0.  0.
        -11    1    4    4    0    0  0.81238153280E+02 -0.29084827028E+02 -0.58705453544E+02  0.10436424190E+03  0.00000000000E+00 0. -1.
         11    1    4    4    0    0  0.56223454253E+02  0.47997206179E+02 -0.10963333652E+03  0.13222812517E+03  0.00000000000E+00 0.  1.
        -13    1    3    3    0    0 -0.24832623002E+02 -0.36286296480E+02 -0.94471621471E+02  0.10420288739E+03  0.00000000000E+00 0. -1.
         13    1    3    3    0    0 -0.13805002430E+03  0.29807673180E+02 -0.46150611801E+03  0.48263257614E+03  0.00000000000E+00 0.  1.
         -3    1    1    2    0  502  0.25421039771E+02 -0.12433755852E+02  0.10363723929E+02  0.30136926208E+02  0.00000000000E+00 0.  1.
<scales pt_clust_5="13000.00000" pt_clust_6="13000.00000" pt_clust_7="13000.00000" pt_clust_8="13000.00000" pt_clust_9="28.29890"></scales>
<clustering>
<clus scale="   28.299">  1  9  2 -1</clus>
<clus scale="   91.568">  5  6 -1 -1</clus>
<clus scale="   93.230">  7  8 -1 -1</clus>
<clus scale="  180.296">  1  5  2 -1</clus>
<clus scale="   28.299">  1  5  2 -1</clus>
</clustering>
</event>
<event>
 9    1  0.1504846E-005  0.2118568E+03  0.7546771E-02  0.1163223E+00
         21   -1    0    0  501  502  0.00000000000E+00  0.00000000000E+00  0.90818140784E+03  0.90818140784E+03  0.00000000000E+00 0. -1.
          1   -1    0    0  502    0 -0.00000000000E+00 -0.00000000000E+00 -0.25409447756E+03  0.25409447756E+03  0.00000000000E+00 0. -1.
         23    2    1    2    0    0  0.13787272029E+02  0.81222268980E+02 -0.66498574209E+02  0.13955614510E+03  0.90921457402E+02 0.  0.
         23    2    1    2    0    0  0.17504192324E+03 -0.10973860912E+03 -0.47721399554E+02  0.23103473636E+03  0.91746826685E+02 0.  0.
        -11    1    4    4    0    0  0.24366018958E+02  0.52813844289E+01 -0.32364560646E+02  0.40854139168E+02  0.00000000000E+00 0.  1.
         11    1    4    4    0    0  0.15067590428E+03 -0.11501999355E+03 -0.15356838908E+02  0.19018059719E+03  0.00000000000E+00 0. -1.
        -13    1    3    3    0    0  0.31874160353E+02  0.93951323770E+02 -0.61986572543E+02  0.11698353949E+03  0.00000000000E+00 0.  1.
         13    1    3    3    0    0 -0.18086888324E+02 -0.12729054790E+02 -0.45120016667E+01  0.22572605613E+02  0.00000000000E+00 0. -1.
          1    1    1    2  501    0 -0.18882919527E+03  0.28516340142E+02  0.76830690405E+03  0.79168500393E+03  0.00000000000E+00 0. -1.
<scales pt_clust_5="13000.00000" pt_clust_6="13000.00000" pt_clust_7="13000.00000" pt_clust_8="13000.00000" pt_clust_9="190.96027"></scales>
<clustering>
<clus scale="   90.921">  7  8 -1 -1</clus>
<clus scale="   91.747">  5  6 -1 -1</clus>
<clus scale="  122.694">  2  7  1 -1</clus>
<clus scale="  190.960">  1  9  2 -1</clus>
<clus scale="  190.960">  1  5  2 -1</clus>
</clustering>
</event>
<event>
 9    1  0.1504846E-005  0.3366674E+03  0.7546771E-02  0.1068253E+00
         21   -1    0    0  501  502  0.00000000000E+00  0.00000000000E+00  0.17271022727E+03  0.17271022727E+03  0.00000000000E+00 0.  1.
          1   -1    0    0  502    0 -0.00000000000E+00 -0.00000000000E+00 -0.88927439837E+03  0.88927439837E+03  0.00000000000E+00 0. -1.
         23    2    1    2    0    0 -0.27796915852E+03  0.77673762085E+02 -0.29933262698E+03  0.42589539491E+03  0.92123826563E+02 0.  0.
         23    2    1    2    0    0  0.34739336719E+03 -0.10888547154E+03 -0.41557567430E+03  0.55995360528E+03  0.91141107721E+02 0.  0.
        -13    1    3    3    0    0 -0.17184307294E+03  0.75749680077E+02 -0.23847497372E+03  0.30354302634E+03  0.00000000000E+00 0. -1.
         13    1    3    3    0    0 -0.10612608559E+03  0.19240820086E+01 -0.60857653256E+02  0.12235236856E+03  0.00000000000E+00 0.  1.
        -13    1    4    4    0    0  0.25191023330E+03 -0.11946443852E+03 -0.29722997262E+03  0.40752444631E+03  0.00000000000E+00 0.  1.
         13    1    4    4    0    0  0.95483133895E+02  0.10578966980E+02 -0.11834570168E+03  0.15242915898E+03  0.00000000000E+00 0. -1.
          1    1    1    2  501    0 -0.69424208671E+02  0.31211709458E+02 -0.16558698137E+01  0.76135625444E+02  0.00000000000E+00 0. -1.
<scales pt_clust_5="13000.00000" pt_clust_6="13000.00000" pt_clust_7="13000.00000" pt_clust_8="13000.00000" pt_clust_9="76.11762"></scales>
<clustering>
<clus scale="   76.118">  1  9  2 -1</clus>
<clus scale="   91.141">  7  8 -1 -1</clus>
<clus scale="   92.124">  5  6 -1 -1</clus>
<clus scale="  336.400">  1  7  2 -1</clus>
<clus scale="   76.118">  1  5  2 -1</clus>
</clustering>
</event>
<event>
 9    1  0.1504846E-005  0.9613163E+02  0.7546771E-02  0.1290089E+00
         21   -1    0    0  501  502  0.00000000000E+00  0.00000000000E+00  0.13230973022E+03  0.13230973022E+03  0.00000000000E+00 0. -1.
          1   -1    0    0  502    0 -0.00000000000E+00 -0.00000000000E+00 -0.47946547590E+03  0.47946547590E+03  0.00000000000E+00 0. -1.
         23    2    1    2    0    0  0.38471517014E+02  0.37080863933E+02 -0.31752895847E+03  0.33502251075E+03  0.92522403528E+02 0.  0.
         23    2    1    2    0    0  0.84061341647E+01  0.31207373108E+02 -0.12052926731E+03  0.15377278488E+03  0.89856562714E+02 0.  0.
        -13    1    3    3    0    0  0.52220623090E+02  0.60183217639E+02 -0.24751704615E+03  0.26002634731E+03  0.00000000000E+00 0. -1.
         13    1    3    3    0    0 -0.13749106076E+02 -0.23102353706E+02 -0.70011912320E+02  0.74996163444E+02  0.00000000000E+00 0.  1.
        -13    1    4    4    0    0  0.34258064534E+02  0.89667437301E+01 -0.81564266951E+01  0.36339300697E+02  0.00000000000E+00 0.  1.
         13    1    4    4    0    0 -0.25851930369E+02  0.22240629378E+02 -0.11237284061E+03  0.11743348418E+03  0.00000000000E+00 0. -1.
          1    1    1    2  501    0 -0.46877651178E+02 -0.68288237041E+02  0.90902480092E+02  0.12297991049E+03  0.00000000000E+00 0. -1.
<scales pt_clust_5="13000.00000" pt_clust_6="13000.00000" pt_clust_7="13000.00000" pt_clust_8="13000.00000" pt_clust_9="82.82993"></scales>
<clustering>
<clus scale="   82.830">  1  9  2 -1</clus>
<clus scale="   89.857">  7  8 -1 -1</clus>
<clus scale="   92.522">  5  6 -1 -1</clus>
<clus scale="   93.569">  1  7  2 -1</clus>
<clus scale="   82.830">  1  5  2 -1</clus>
</clustering>
</event>
<event>
 9    1  0.1504846E-005  0.1163701E+03  0.7546771E-02  0.1252430E+00
         21   -1    0    0  501  502  0.00000000000E+00  0.00000000000E+00  0.37019992905E+03  0.37019992905E+03  0.00000000000E+00 0. -1.
          1   -1    0    0  502    0 -0.00000000000E+00 -0.00000000000E+00 -0.80049439928E+02  0.80049439928E+02  0.00000000000E+00 0. -1.
         23    2    1    2    0    0 -0.58200633128E+02  0.39686274857E+02 -0.60500076656E+01  0.11615308063E+03  0.92155420011E+02 0.  0.
         23    2    1    2    0    0  0.40089142215E+02 -0.68187842904E+02  0.18223406757E+03  0.21523202765E+03  0.82818168893E+02 0.  0.
        -11    1    4    4    0    0  0.38928297022E+02  0.27400276327E+01  0.37859841070E+02  0.54371753938E+02  0.00000000000E+00 0.  1.
         11    1    4    4    0    0  0.11608451932E+01 -0.70927870537E+02  0.14437422650E+03  0.16086027371E+03  0.00000000000E+00 0. -1.
        -11    1    3    3    0    0 -0.36813456455E+02  0.69877209641E+02 -0.32389088542E+01  0.79047742118E+02  0.00000000000E+00 0.  1.
         11    1    3    3    0    0 -0.21387176673E+02 -0.30190934784E+02 -0.28110988114E+01  0.37105338507E+02  0.00000000000E+00 0. -1.
          1    1    1    2  501    0  0.18111490913E+02  0.28501568047E+02  0.11396642922E+03  0.11886426070E+03  0.00000000000E+00 0. -1.
<scales pt_clust_5="13000.00000" pt_clust_6="13000.00000" pt_clust_7="13000.00000" pt_clust_8="13000.00000" pt_clust_9="33.76930"></scales>
<clustering>
<clus scale="   33.769">  1  9  2 -1</clus>
<clus scale="   82.818">  5  6 -1 -1</clus>
<clus scale="   92.155">  7  8 -1 -1</clus>
<clus scale="  109.125">  1  5  2 -1</clus>
<clus scale="   33.769">  1  5  2 -1</clus>
</clustering>
</event>
<event>
 9    1  0.1504846E-005  0.3490824E+03  0.7546771E-02  0.1063019E+00
          1   -1    0    0  502    0 -0.00000000000E+00  0.00000000000E+00  0.37746137703E+03  0.37746137703E+03  0.00000000000E+00 0. -1.
         21   -1    0    0  501  502  0.00000000000E+00 -0.00000000000E+00 -0.43673042515E+03  0.43673042515E+03  0.00000000000E+00 0. -1.
         23    2    1    2    0    0  0.32292436424E+03 -0.19649833266E+03  0.78164043234E+02  0.39675492329E+03  0.91723016436E+02 0.  0.
         23    2    1    2    0    0 -0.24630252153E+03  0.14391398516E+03 -0.87145027059E+02  0.31177274215E+03  0.90729376536E+02 0.  0.
        -13    1    3    3    0    0  0.21339376970E+03 -0.11797826158E+03  0.93435991839E+02  0.26112459809E+03  0.00000000000E+00 0. -1.
         13    1    3    3    0    0  0.10953059453E+03 -0.78520071080E+02 -0.15271948605E+02  0.13563032521E+03  0.00000000000E+00 0.  1.
        -13    1    4    4    0    0 -0.12845689082E+03  0.24522558915E+02 -0.49603398069E+02  0.13986788693E+03  0.00000000000E+00 0. -1.
         13    1    4    4    0    0 -0.11784563071E+03  0.11939142624E+03 -0.37541628990E+02  0.17190485521E+03  0.00000000000E+00 0.  1.
          1    1    1    2  501    0 -0.76621842705E+02  0.52584347503E+02 -0.50288064296E+02  0.10566413674E+03  0.00000000000E+00 0. -1.
<scales pt_clust_5="13000.00000" pt_clust_6="13000.00000" pt_clust_7="13000.00000" pt_clust_8="13000.00000" pt_clust_9="92.93019"></scales>
<clustering>
<clus scale="   90.729">  7  8 -1 -1</clus>
<clus scale="   91.723">  5  6 -1 -1</clus>
<clus scale="   92.930">  2  9  1 -1</clus>
<clus scale="  348.823">  2  7  1 -1</clus>
<clus scale="   92.930">  2  5  1 -1</clus>
</clustering>
</event>
<event>
 9    1  0.1504846E-005  0.9809165E+02  0.7546771E-02  0.1286194E+00
         21   -1    0    0  501  502  0.00000000000E+00  0.00000000000E+00  0.12757693518E+03  0.12757693518E+03  0.00000000000E+00 0. -1.
          2   -1    0    0  502    0 -0.00000000000E+00 -0.00000000000E+00 -0.37663456922E+03  0.37663456922E+03  0.00000000000E+00 0. -1.
         23    2    1    2    0    0 -0.13192341555E+02 -0.13305417263E+02 -0.23317984126E+03  0.25066790512E+03  0.90058249384E+02 0.  0.
         23    2    1    2    0    0  0.46093348721E+02  0.35570477129E+02 -0.10733390865E+03  0.15383186331E+03  0.93561843640E+02 0.  0.
        -13    1    3    3    0    0  0.36461095417E+02  0.58666392673E+01 -0.12083138334E+03  0.12634893009E+03  0.00000000000E+00 0. -1.
         13    1    3    3    0    0 -0.49653436972E+02 -0.19172056531E+02 -0.11234845791E+03  0.12431897502E+03  0.00000000000E+00 0.  1.
        -13    1    4    4    0    0 -0.17050836465E+02  0.18878873521E+02 -0.78350303108E+02  0.82376652559E+02  0.00000000000E+00 0.  1.
         13    1    4    4    0    0  0.63144185186E+02  0.16691603608E+02 -0.28983605538E+02  0.71455210753E+02  0.00000000000E+00 0. -1.
          2    1    1    2  501    0 -0.32901007165E+02 -0.22265059865E+02  0.91456115861E+02  0.99711735978E+02  0.00000000000E+00 0. -1.
<scales pt_clust_5="13000.00000" pt_clust_6="13000.00000" pt_clust_7="13000.00000" pt_clust_8="13000.00000" pt_clust_9="39.72668"></scales>
<clustering>
<clus scale="   39.727">  1  9  2 -1</clus>
<clus scale="   90.058">  5  6 -1 -1</clus>
<clus scale="   93.562">  7  8 -1 -1</clus>
<clus scale="   94.756">  2  5  1 -1</clus>
<clus scale="   39.727">  1  5  2 -1</clus>
</clustering>
</event>
<event>
 9    1  0.1504846E-005  0.1742151E+03  0.7546771E-02  0.1195907E+00
          1   -1    0    0  502    0 -0.00000000000E+00  0.00000000000E+00  0.23650788637E+03  0.23650788637E+03  0.00000000000E+00 0. -1.
         21   -1    0    0  501  502  0.00000000000E+00 -0.00000000000E+00 -0.25389471478E+03  0.25389471478E+03  0.00000000000E+00 0. -1.
         23    2    1    2    0    0  0.52157703037E+02 -0.16697885150E+02  0.35863162173E+02  0.11167246624E+03  0.90472802329E+02 0.  0.
         23    2    1    2    0    0  0.53803297861E+02 -0.10238170366E+03  0.83337233482E+02  0.16881645750E+03  0.90427284226E+02 0.  0.
        -11    1    3    3    0    0  0.12112645786E+02 -0.49131682029E+02  0.32267121134E+02  0.60015043724E+02  0.00000000000E+00 0.  1.
         11    1    3    3    0    0  0.40045057252E+02  0.32433796879E+02  0.35960410399E+01  0.51657422520E+02  0.00000000000E+00 0. -1.
        -13    1    4    4    0    0  0.42038248912E+02 -0.67545946491E+02  0.10054971725E+03  0.12821823153E+03  0.00000000000E+00 0. -1.
         13    1    4    4    0    0  0.11765048949E+02 -0.34835757168E+02 -0.17212483763E+02  0.40598225966E+02  0.00000000000E+00 0.  1.
          1    1    1    2  501    0 -0.10596100090E+03  0.11907958881E+03 -0.13658722407E+03  0.20991367740E+03  0.00000000000E+00 0. -1.
<scales pt_clust_5="13000.00000" pt_clust_6="13000.00000" pt_clust_7="13000.00000" pt_clust_8="13000.00000" pt_clust_9="148.90875"></scales>
<clustering>
<clus scale="   90.427">  7  8 -1 -1</clus>
<clus scale="   90.473">  5  6 -1 -1</clus>
<clus scale="  105.757">  1  5  2 -1</clus>
<clus scale="  148.909">  2  9  1 -1</clus>
<clus scale="  148.909">  2  5  1 -1</clus>
</clustering>
</event>
<event>
 9    1  0.1529322E-005  0.9342375E+02  0.7546771E-02  0.1295888E+00
         -1   -1    0    0    0  501 -0.00000000000E+00  0.00000000000E+00  0.27057748187E+03  0.27057748187E+03  0.00000000000E+00 0.  1.
         21   -1    0    0  501  502  0.00000000000E+00 -0.00000000000E+00 -0.96328183973E+02  0.96328183973E+02  0.00000000000E+00 0. -1.
         23    2    1    2    0    0  0.15178244209E+02 -0.51830234539E+01  0.20828755854E+03  0.22843980461E+03  0.92432648210E+02 0.  0.
         23    2    1    2    0    0  0.82792145049E+01  0.42482979006E+01 -0.55584799989E+02  0.10660084219E+03  0.90484673498E+02 0.  0.
        -11    1    3    3    0    0  0.38725905245E+02  0.56802192336E+01  0.19576963170E+03  0.19964395639E+03  0.00000000000E+00 0. -1.
         11    1    3    3    0    0 -0.23547661036E+02 -0.10863242688E+02  0.12517926843E+02  0.28795848215E+02  0.00000000000E+00 0.  1.
        -11    1    4    4    0    0  0.46651114078E+02  0.18154500951E+02 -0.32956673555E+02  0.59933752438E+02  0.00000000000E+00 0. -1.
         11    1    4    4    0    0 -0.38371899573E+02 -0.13906203050E+02 -0.22628126434E+02  0.46667089753E+02  0.00000000000E+00 0.  1.
         -1    1    1    2    0  502 -0.23457458714E+02  0.93472555332E+00  0.21546539342E+02  0.31865019046E+02  0.00000000000E+00 0.  1.
<scales pt_clust_5="13000.00000" pt_clust_6="13000.00000" pt_clust_7="13000.00000" pt_clust_8="13000.00000" pt_clust_9="23.47609"></scales>
<clustering>
<clus scale="   23.476">  2  9  1 -1</clus>
<clus scale="   90.485">  7  8 -1 -1</clus>
<clus scale="   91.497">  2  7  1 -1</clus>
<clus scale="   92.433">  5  6 -1 -1</clus>
<clus scale="   23.476">  2  5  1 -1</clus>
</clustering>
</event>
<event>
 9    1  0.1504846E-005  0.1038669E+03  0.7546771E-02  0.1272412E+00
          3   -1    0    0  502    0 -0.00000000000E+00  0.00000000000E+00  0.35993308571E+03  0.35993308571E+03  0.00000000000E+00 0. -1.
         21   -1    0    0  501  502  0.00000000000E+00 -0.00000000000E+00 -0.39462627586E+03  0.39462627586E+03  0.00000000000E+00 0. -1.
         23    2    1    2    0    0  0.26818976680E+02 -0.38095736460E+02  0.24890219010E+03  0.26919972453E+03  0.91354522630E+02 0.  0.
         23    2    1    2    0    0  0.24663616395E+02  0.78714138896E+02  0.58988516139E+02  0.13655591275E+03  0.91453062473E+02 0.  0.
        -11    1    4    4    0    0  0.54702665079E+02  0.67134223681E+02  0.58225278584E+02  0.10435309589E+03  0.00000000000E+00 0. -1.
         11    1    4    4    0    0 -0.30039048684E+02  0.11579915215E+02  0.76323755441E+00  0.32202816861E+02  0.00000000000E+00 0.  1.
        -13    1    3    3    0    0  0.53402506224E+02  0.31183979329E+01  0.12785778026E+03  0.13859712857E+03  0.00000000000E+00 0.  1.
         13    1    3    3    0    0 -0.26583529544E+02 -0.41214134393E+02  0.12104440984E+03  0.13060259596E+03  0.00000000000E+00 0. -1.
          3    1    1    2  501    0 -0.51482593075E+02 -0.40618402437E+02 -0.34258389639E+03  0.34880372428E+03  0.00000000000E+00 0. -1.
<scales pt_clust_5="13000.00000" pt_clust_6="13000.00000" pt_clust_7="13000.00000" pt_clust_8="13000.00000" pt_clust_9="65.57676"></scales>
<clustering>
<clus scale="   65.577">  2  9  1 -1</clus>
<clus scale="   91.355">  7  8 -1 -1</clus>
<clus scale="   91.453">  5  6 -1 -1</clus>
<clus scale="  103.780">  1  7  2 -1</clus>
<clus scale="   65.577">  2  5  1 -1</clus>
</clustering>
</event>
<event>
 9    1  0.1504846E-005  0.1859797E+03  0.7546771E-02  0.1162280E+00
          1   -1    0    0  502    0 -0.00000000000E+00  0.00000000000E+00  0.57740736251E+03  0.57740736251E+03  0.00000000000E+00 0. -1.
         21   -1    0    0  501  502  0.00000000000E+00 -0.00000000000E+00 -0.90802588019E+02  0.90802588019E+02  0.00000000000E+00 0.  1.
         23    2    1    2    0    0  0.14478171264E+03  0.42630032152E+02  0.33462864478E+03  0.37863706579E+03  0.92793500439E+02 0.  0.
         23    2    1    2    0    0 -0.17395734366E+03 -0.55851294358E+02  0.15503063981E+03  0.25739604133E+03  0.94009033165E+02 0.  0.
        -11    1    4    4    0    0 -0.15793715994E+02  0.23429455717E+02  0.16761721201E+02  0.32853251859E+02  0.00000000000E+00 0. -1.
         11    1    4    4    0    0 -0.15816362767E+03 -0.79280750076E+02  0.13826891861E+03  0.22454278947E+03  0.00000000000E+00 0.  1.
        -13    1    3    3    0    0  0.91833133793E+02  0.75375041669E+00  0.10599535968E+03  0.14024588720E+03  0.00000000000E+00 0.  1.
         13    1    3    3    0    0  0.52948578844E+02  0.41876281735E+02  0.22863328509E+03  0.23839117858E+03  0.00000000000E+00 0. -1.
          1    1    1    2  501    0  0.29175631027E+02  0.13221262207E+02 -0.30545100966E+01  0.32176843414E+02  0.00000000000E+00 0. -1.
<scales pt_clust_5="13000.00000" pt_clust_6="13000.00000" pt_clust_7="13000.00000" pt_clust_8="13000.00000" pt_clust_9="32.03153"></scales>
<clustering>
<clus scale="   32.032">  2  9  1 -1</clus>
<clus scale="   92.794">  7  8 -1 -1</clus>
<clus scale="   94.009">  5  6 -1 -1</clus>
<clus scale="  185.368">  1  7  2 -1</clus>
<clus scale="   32.032">  2  5  1 -1</clus>
</clustering>
</event>
<event>
 9    1  0.1504846E-005  0.1901212E+03  0.7546771E-02  0.1158917E+00
         21   -1    0    0  501  502  0.00000000000E+00  0.00000000000E+00  0.55062656547E+02  0.55062656547E+02  0.00000000000E+00 0.  1.
         -2   -1    0    0    0  501 -0.00000000000E+00 -0.00000000000E+00 -0.15228621280E+04  0.15228621280E+04  0.00000000000E+00 0.  1.
         23    2    1    2    0    0 -0.59180918968E+02  0.15535000372E+03 -0.99454341105E+03  0.10128016843E+04  0.94945512855E+02 0.  0.
         23    2    1    2    0    0  0.99950311307E+02 -0.13264902317E+03 -0.48197884695E+03  0.51765137317E+03  0.89852696981E+02 0.  0.
        -13    1    4    4    0    0  0.44957399918E+02 -0.10427645819E+03 -0.21014621548E+03  0.23886435359E+03  0.00000000000E+00 0. -1.
         13    1    4    4    0    0  0.54992911389E+02 -0.28372564982E+02 -0.27183263148E+03  0.27878701957E+03  0.00000000000E+00 0.  1.
        -13    1    3    3    0    0  0.20599915902E+02  0.39637997578E+02 -0.14548112303E+03  0.15218503390E+03  0.00000000000E+00 0. -1.
         13    1    3    3    0    0 -0.79780834870E+02  0.11571200614E+03 -0.84906228802E+03  0.86061665039E+03  0.00000000000E+00 0.  1.
         -2    1    1    2    0  502 -0.40769392339E+02 -0.22700980547E+02  0.87227865331E+01  0.47471727106E+02  0.00000000000E+00 0.  1.
<scales pt_clust_5="13000.00000" pt_clust_6="13000.00000" pt_clust_7="13000.00000" pt_clust_8="13000.00000" pt_clust_9="46.66345"></scales>
<clustering>
<clus scale="   46.663">  1  9  2 -1</clus>
<clus scale="   89.853">  5  6 -1 -1</clus>
<clus scale="   94.946">  7  8 -1 -1</clus>
<clus scale="  187.630">  1  5  2 -1</clus>
<clus scale="   46.663">  1  5  2 -1</clus>
</clustering>
</event>
<event>
 9    1  0.1504846E-005  0.9720025E+02  0.7546771E-02  0.1286926E+00
         -1   -1    0    0    0  501 -0.00000000000E+00  0.00000000000E+00  0.43344813942E+03  0.43344813942E+03  0.00000000000E+00 0.  1.
         21   -1    0    0  501  502  0.00000000000E+00 -0.00000000000E+00 -0.22749351811E+03  0.22749351811E+03  0.00000000000E+00 0.  1.
         23    2    1    2    0    0 -0.25779549014E+02 -0.29209651254E+02  0.30583396594E+03  0.32098305591E+03  0.89319194964E+02 0.  0.
         23    2    1    2    0    0  0.51447517235E+00  0.32021489254E+02  0.99892154724E+02  0.13857617353E+03  0.90549836194E+02 0.  0.
        -13    1    4    4    0    0  0.20744203920E+02  0.25161984326E+02 -0.36860898676E+01  0.32818206990E+02  0.00000000000E+00 0. -1.
         13    1    4    4    0    0 -0.20229728747E+02  0.68595049275E+01  0.10357824459E+03  0.10575796654E+03  0.00000000000E+00 0.  1.
        -13    1    3    3    0    0 -0.52898308960E+02 -0.15500790857E+02  0.26142383733E+03  0.26717209497E+03  0.00000000000E+00 0.  1.
         13    1    3    3    0    0  0.27118759947E+02 -0.13708860397E+02  0.44410128608E+02  0.53810960941E+02  0.00000000000E+00 0. -1.
         -1    1    1    2    0  502  0.25265073841E+02 -0.28118380002E+01 -0.19977149935E+03  0.20138242809E+03  0.00000000000E+00 0.  1.
<scales pt_clust_5="13000.00000" pt_clust_6="13000.00000" pt_clust_7="13000.00000" pt_clust_8="13000.00000" pt_clust_9="25.42106"></scales>
<clustering>
<clus scale="   25.421">  2  9  1 -1</clus>
<clus scale="   89.319">  7  8 -1 -1</clus>
<clus scale="   90.550">  5  6 -1 -1</clus>
<clus scale="   96.055">  1  7  2 -1</clus>
<clus scale="   25.421">  2  5  1 -1</clus>
</clustering>
</event>
<event>
 9    1  0.1504846E-005  0.1281835E+03  0.7546771E-02  0.1230313E+00
         21   -1    0    0  501  502  0.00000000000E+00  0.00000000000E+00  0.20736074706E+03  0.20736074706E+03  0.00000000000E+00 0.  1.
          1   -1    0    0  502    0 -0.00000000000E+00 -0.00000000000E+00 -0.14809784877E+03  0.14809784877E+03  0.00000000000E+00 0. -1.
         23    2    1    2    0    0  0.36276240436E+02  0.79251620504E+02 -0.68679695622E+02  0.14381925346E+03  0.91489300478E+02 0.  0.
         23    2    1    2    0    0 -0.67211054397E+02 -0.76922161629E+02  0.96046248866E+02  0.16714478180E+03  0.90984346883E+02 0.  0.
        -11    1    3    3    0    0  0.33647357574E+02 -0.71947922794E+01 -0.17368294877E+01  0.34451796532E+02  0.00000000000E+00 0.  1.
         11    1    3    3    0    0  0.26288828624E+01  0.86446412784E+02 -0.66942866134E+02  0.10936745693E+03  0.00000000000E+00 0. -1.
        -13    1    4    4    0    0  0.45133099065E+01 -0.28492350497E+02 -0.97586523095E+01  0.30453494021E+02  0.00000000000E+00 0. -1.
         13    1    4    4    0    0 -0.71724364303E+02 -0.48429811132E+02  0.10580490118E+03  0.13669128778E+03  0.00000000000E+00 0.  1.
          1    1    1    2  501    0  0.30934813961E+02 -0.23294588751E+01  0.31896345050E+02  0.44494560578E+02  0.00000000000E+00 0. -1.
<scales pt_clust_5="13000.00000" pt_clust_6="13000.00000" pt_clust_7="13000.00000" pt_clust_8="13000.00000" pt_clust_9="31.02240"></scales>
<clustering>
<clus scale="   31.022">  1  9  2 -1</clus>
<clus scale="   90.984">  7  8 -1 -1</clus>
<clus scale="   91.489">  5  6 -1 -1</clus>
<clus scale="  127.824">  1  7  2 -1</clus>
<clus scale="   31.022">  1  5  2 -1</clus>
</clustering>
</event>
<event>
 9    1  0.1504846E-005  0.1012152E+03  0.7546771E-02  0.1278904E+00
         21   -1    0    0  501  502  0.00000000000E+00  0.00000000000E+00  0.43005603534E+02  0.43005603534E+02  0.00000000000E+00 0.  1.
          3   -1    0    0  502    0 -0.00000000000E+00 -0.00000000000E+00 -0.30307949815E+03  0.30307949815E+03  0.00000000000E+00 0. -1.
         23    2    1    2    0    0 -0.41592186975E+02  0.31333017838E+02 -0.13050543928E+03  0.16559782449E+03  0.87631625388E+02 0.  0.
         23    2    1    2    0    0  0.19656841619E+02 -0.37490080586E+02 -0.11963944145E+03  0.15563462916E+03  0.90092420763E+02 0.  0.
        -13    1    4    4    0    0 -0.30249751991E+02 -0.24257959405E+02 -0.20509989881E+02  0.43865200044E+02  0.00000000000E+00 0. -1.
         13    1    4    4    0    0  0.49906593609E+02 -0.13232121181E+02 -0.99129451573E+02  0.11176942912E+03  0.00000000000E+00 0.  1.
        -13    1    3    3    0    0 -0.74152417845E+01  0.38280885536E+02 -0.10151042450E+02  0.40292129144E+02  0.00000000000E+00 0.  1.
         13    1    3    3    0    0 -0.34176945190E+02 -0.69478676983E+01 -0.12035439683E+03  0.12530569534E+03  0.00000000000E+00 0. -1.
          3    1    1    2  501    0  0.21935345356E+02  0.61570627480E+01 -0.99290138754E+01  0.24852648030E+02  0.00000000000E+00 0. -1.
<scales pt_clust_5="13000.00000" pt_clust_6="13000.00000" pt_clust_7="13000.00000" pt_clust_8="13000.00000" pt_clust_9="22.78308"></scales>
<clustering>
<clus scale="   22.783">  1  9  2 -1</clus>
<clus scale="   87.632">  7  8 -1 -1</clus>
<clus scale="   90.092">  5  6 -1 -1</clus>
<clus scale="   99.031">  2  7  1 -1</clus>
<clus scale="   22.783">  1  5  2 -1</clus>
</clustering>
</event>
<event>
 9    1  0.1504846E-005  0.1965470E+03  0.7546771E-02  0.1182686E+00
         21   -1    0    0  501  502  0.00000000000E+00  0.00000000000E+00  0.52520819388E+03  0.52520819388E+03  0.00000000000E+00 0. -1.
          2   -1    0    0  502    0 -0.00000000000E+00 -0.00000000000E+00 -0.13466316143E+03  0.13466316143E+03  0.00000000000E+00 0. -1.
         23    2    1    2    0    0  0.24993003301E+02  0.32750102408E+02  0.50135722918E+02  0.11067717613E+03  0.89658391592E+02 0.  0.
         23    2    1    2    0    0 -0.46611935384E+02 -0.19833607789E+03  0.73149795073E+02  0.23405335102E+03  0.88995540845E+02 0.  0.
        -11    1    3    3    0    0 -0.16971284386E+02 -0.21162140171E+02  0.27694451745E+02  0.38766523287E+02  0.00000000000E+00 0. -1.
         11    1    3    3    0    0  0.41964287687E+02  0.53912242579E+02  0.22441271173E+02  0.71910652847E+02  0.00000000000E+00 0.  1.
        -13    1    4    4    0    0  0.14036782696E+02 -0.75735285863E+02  0.58030538299E+02  0.96438623841E+02  0.00000000000E+00 0.  1.
         13    1    4    4    0    0 -0.60648718080E+02 -0.12260079203E+03  0.15119256774E+02  0.13761472718E+03  0.00000000000E+00 0. -1.
          2    1    1    2  501    0  0.21618932082E+02  0.16558597548E+03  0.26725951446E+03  0.31514082816E+03  0.00000000000E+00 0. -1.
<scales pt_clust_5="13000.00000" pt_clust_6="13000.00000" pt_clust_7="13000.00000" pt_clust_8="13000.00000" pt_clust_9="175.24415"></scales>
<clustering>
<clus scale="   88.996">  7  8 -1 -1</clus>
<clus scale="   89.658">  5  6 -1 -1</clus>
<clus scale="   98.670">  2  5  1 -1</clus>
<clus scale="  175.244">  1  9  2 -1</clus>
<clus scale="  175.244">  1  5  2 -1</clus>
</clustering>
</event>
<event>
 9    1  0.1504846E-005  0.1607950E+03  0.7546771E-02  0.1191013E+00
         21   -1    0    0  501  502  0.00000000000E+00  0.00000000000E+00  0.20038515067E+03  0.20038515067E+03  0.00000000000E+00 0. -1.
          4   -1    0    0  502    0 -0.00000000000E+00 -0.00000000000E+00 -0.27171509472E+03  0.27171509472E+03  0.00000000000E+00 0. -1.
         23    2    1    2    0    0 -0.34915956506E+02 -0.80545311014E+02 -0.45911699432E+02  0.14517285611E+03  0.10611598777E+03 0.  0.
         23    2    1    2    0    0  0.14430908681E+03  0.11378620275E+03 -0.49907126831E+02  0.21000211745E+03  0.88531099353E+02 0.  0.
        -11    1    4    4    0    0  0.89087402995E+02  0.90520810697E+02 -0.72168226926E+02  0.14607818290E+03  0.00000000000E+00 0. -1.
         11    1    4    4    0    0  0.55221683820E+02  0.23265392049E+02  0.22261100095E+02  0.63923934551E+02  0.00000000000E+00 0.  1.
        -11    1    3    3    0    0  0.37706610340E+02 -0.37043379191E+02 -0.21548700624E+02  0.57081931500E+02  0.00000000000E+00 0.  1.
         11    1    3    3    0    0 -0.72622566845E+02 -0.43501931823E+02 -0.24362998807E+02  0.88090924609E+02  0.00000000000E+00 0. -1.
          4    1    1    2  501    0 -0.10939313031E+03 -0.33240891732E+02  0.24488882209E+02  0.11692527184E+03  0.00000000000E+00 0. -1.
<scales pt_clust_5="13000.00000" pt_clust_6="13000.00000" pt_clust_7="13000.00000" pt_clust_8="13000.00000" pt_clust_9="114.33203"></scales>
<clustering>
<clus scale="   88.531">  5  6 -1 -1</clus>
<clus scale="  106.116">  7  8 -1 -1</clus>
<clus scale="  114.332">  1  9  2 -1</clus>
<clus scale="  149.774">  1  5  2 -1</clus>
<clus scale="  114.332">  1  5  2 -1</clus>
</clustering>
</event>
<event>
 9    1  0.1504846E-005  0.1083014E+03  0.7546771E-02  0.1263869E+00
          2   -1    0    0  502    0 -0.00000000000E+00  0.00000000000E+00  0.20686205278E+03  0.20686205278E+03  0.00000000000E+00 0. -1.
         21   -1    0    0  501  502  0.00000000000E+00 -0.00000000000E+00 -0.13044282720E+03  0.13044282720E+03  0.00000000000E+00 0. -1.
         23    2    1    2    0    0 -0.51893711224E+02  0.37195795339E+02  0.12804143838E+03  0.16983434980E+03  0.91501977979E+02 0.  0.
         23    2    1    2    0    0  0.47064600713E+02  0.12359718721E+02 -0.55866465075E+02  0.11749970910E+03  0.91199125167E+02 0.  0.
        -11    1    4    4    0    0  0.33925992816E+02 -0.16786364383E+02  0.14244628751E+02  0.40443348847E+02  0.00000000000E+00 0.  1.
         11    1    4    4    0    0  0.13138607897E+02  0.29146083104E+02 -0.70111093826E+02  0.77056360252E+02  0.00000000000E+00 0. -1.
        -13    1    3    3    0    0 -0.33019119502E+01  0.35165128339E+02  0.27404941050E+01  0.35425967617E+02  0.00000000000E+00 0. -1.
         13    1    3    3    0    0 -0.48591799274E+02  0.20306670000E+01  0.12530094427E+03  0.13440838218E+03  0.00000000000E+00 0.  1.
          2    1    1    2  501    0  0.48291105104E+01 -0.49555514060E+02  0.42442522751E+01  0.49970821080E+02  0.00000000000E+00 0. -1.
<scales pt_clust_5="13000.00000" pt_clust_6="13000.00000" pt_clust_7="13000.00000" pt_clust_8="13000.00000" pt_clust_9="49.79025"></scales>
<clustering>
<clus scale="   49.790">  2  9  1 -1</clus>
<clus scale="   91.199">  5  6 -1 -1</clus>
<clus scale="   91.502">  7  8 -1 -1</clus>
<clus scale="  108.046">  2  5  1 -1</clus>
<clus scale="   49.790">  2  5  1 -1</clus>
</clustering>
</event>
<event>
 9    1  0.1504846E-005  0.1524621E+03  0.7546771E-02  0.1198340E+00
          1   -1    0    0  502    0 -0.00000000000E+00  0.00000000000E+00  0.44046844372E+03  0.44046844372E+03  0.00000000000E+00 0. -1.
         21   -1    0    0  501  502  0.00000000000E+00 -0.00000000000E+00 -0.25041632743E+03  0.25041632743E+03  0.00000000000E+00 0. -1.
         23    2    1    2    0    0 -0.66382749634E+02 -0.90548842734E+02  0.27315867468E+03  0.30826224048E+03  0.88341298291E+02 0.  0.
         23    2    1    2    0    0  0.17938934459E+02  0.17087427449E+03  0.66190401745E+02  0.20630304644E+03  0.93058877244E+02 0.  0.
        -13    1    4    4    0    0 -0.11928183781E+02  0.18235726957E+02 -0.19049787213E+02  0.28943353275E+02  0.00000000000E+00 0.  1.
         13    1    4    4    0    0  0.29867118240E+02  0.15263854753E+03  0.85240188957E+02  0.17735969316E+03  0.00000000000E+00 0. -1.
        -13    1    3    3    0    0 -0.14973767981E+02 -0.16941851629E+02  0.20845011704E+01  0.22706501477E+02  0.00000000000E+00 0.  1.
         13    1    3    3    0    0 -0.51408981653E+02 -0.73606991104E+02  0.27107417351E+03  0.28555573901E+03  0.00000000000E+00 0. -1.
          1    1    1    2  501    0  0.48443815175E+02 -0.80325431755E+02 -0.14929696014E+03  0.17631948424E+03  0.00000000000E+00 0. -1.
<scales pt_clust_5="13000.00000" pt_clust_6="13000.00000" pt_clust_7="13000.00000" pt_clust_8="13000.00000" pt_clust_9="93.80287"></scales>
<clustering>
<clus scale="   88.341">  7  8 -1 -1</clus>
<clus scale="   93.059">  5  6 -1 -1</clus>
<clus scale="   93.803">  2  9  1 -1</clus>
<clus scale="  149.629">  1  7  2 -1</clus>
<clus scale="   93.803">  2  5  1 -1</clus>
</clustering>
</event>
<event>
 9    1  0.2389550E-005  0.1753138E+03  0.7546771E-02  0.1174521E+00
         21   -1    0    0  501  502  0.00000000000E+00  0.00000000000E+00  0.25861218068E+03  0.25861218068E+03  0.00000000000E+00 0.  1.
          3   -1    0    0  502    0 -0.00000000000E+00 -0.00000000000E+00 -0.63193479280E+03  0.63193479280E+03  0.00000000000E+00 0. -1.
         23    2    1    2    0    0 -0.13281622825E+03  0.50242030221E+02 -0.58537267027E+03  0.61134257193E+03  0.10447088141E+03 0.  0.
         23    2    1    2    0    0  0.12092177362E+03 -0.23840610854E+02  0.17631307644E+03  0.23320826196E+03  0.90051887607E+02 0.  0.
        -11    1    4    4    0    0  0.33677516468E+02  0.88089572997E+01  0.11865195863E+03  0.12365298270E+03  0.00000000000E+00 0.  1.
         11    1    4    4    0    0  0.87244257154E+02 -0.32649568154E+02  0.57661117815E+02  0.10955527926E+03  0.00000000000E+00 0. -1.
        -13    1    3    3    0    0 -0.13962768906E+02  0.55533482498E+02 -0.18291902979E+03  0.19167237165E+03  0.00000000000E+00 0. -1.
         13    1    3    3    0    0 -0.11885345934E+03 -0.52914522771E+01 -0.40245364048E+03  0.41967020028E+03  0.00000000000E+00 0.  1.
          3    1    1    2  501    0  0.11894454627E+02 -0.26401419367E+02  0.35736981706E+02  0.45996139587E+02  0.00000000000E+00 0. -1.
<scales pt_clust_5="13000.00000" pt_clust_6="13000.00000" pt_clust_7="13000.00000" pt_clust_8="13000.00000" pt_clust_9="28.95709"></scales>
<clustering>
<clus scale="   28.957">  1  9  2 -1</clus>
<clus scale="   90.052">  5  6 -1 -1</clus>
<clus scale="  104.471">  7  8 -1 -1</clus>
<clus scale="  167.123">  1  5  2 -1</clus>
<clus scale="   28.957">  1  5  2 -1</clus>
</clustering>
</event>
<event>
 9    1  0.1504846E-005  0.1023426E+03  0.7546771E-02  0.1275991E+00
         -4   -1    0    0    0  501 -0.00000000000E+00  0.00000000000E+00  0.28091514385E+03  0.28091514385E+03  0.00000000000E+00 0.  1.
         21   -1    0    0  501  502  0.00000000000E+00 -0.00000000000E+00 -0.54077707607E+02  0.54077707607E+02  0.00000000000E+00 0.  1.
         23    2    1    2    0    0  0.14981507450E+02  0.27717184876E+02  0.99107029640E+02  0.13794596003E+03  0.90632205433E+02 0.  0.
         23    2    1    2    0    0 -0.24503464304E+02 -0.62107424509E+02  0.11179412981E+03  0.15796593491E+03  0.89429062333E+02 0.  0.
        -11    1    4    4    0    0 -0.57220736124E+02 -0.36270833927E+02  0.83755207962E+02  0.10772521013E+03  0.00000000000E+00 0.  1.
         11    1    4    4    0    0  0.32717271820E+02 -0.25836590582E+02  0.28038921852E+02  0.50240724784E+02  0.00000000000E+00 0. -1.
        -13    1    3    3    0    0 -0.36238316628E+02  0.14277597032E+02  0.62239691963E+02  0.73422371418E+02  0.00000000000E+00 0. -1.
         13    1    3    3    0    0  0.51219824078E+02  0.13439587844E+02  0.36867337677E+02  0.64523588612E+02  0.00000000000E+00 0.  1.
         -4    1    1    2    0  502  0.95219568539E+01  0.34390239634E+02  0.15936276794E+02  0.39080956519E+02  0.00000000000E+00 0.  1.
<scales pt_clust_5="13000.00000" pt_clust_6="13000.00000" pt_clust_7="13000.00000" pt_clust_8="13000.00000" pt_clust_9="35.68412"></scales>
<clustering>
<clus scale="   35.684">  2  9  1 -1</clus>
<clus scale="   89.429">  5  6 -1 -1</clus>
<clus scale="   90.632">  7  8 -1 -1</clus>
<clus scale="  101.279">  2  5  1 -1</clus>
<clus scale="   35.684">  2  5  1 -1</clus>
</clustering>
</event>
<event>
 9    1  0.1504846E-005  0.9283034E+02  0.7546771E-02  0.1296517E+00
          3   -1    0    0  502    0 -0.00000000000E+00  0.00000000000E+00  0.17904757143E+03  0.17904757143E+03  0.00000000000E+00 0. -1.
         21   -1    0    0  501  502  0.00000000000E+00 -0.00000000000E+00 -0.10082916595E+03  0.10082916595E+03  0.00000000000E+00 0. -1.
         23    2    1    2    0    0  0.18559348178E+01 -0.15446361549E+02  0.10026294378E+03  0.13549966130E+03  0.89807938061E+02 0.  0.
         23    2    1    2    0    0 -0.20789807046E+02  0.28328004173E+02  0.17555350300E+02  0.98632356044E+02  0.90473528931E+02 0.  0.
        -11    1    4    4    0    0  0.65203223351E+01 -0.30073184391E+02  0.14687341874E+02  0.34097346438E+02  0.00000000000E+00 0.  1.
         11    1    4    4    0    0 -0.27310129381E+02  0.58401188564E+02  0.28680084259E+01  0.64535009606E+02  0.00000000000E+00 0. -1.
        -13    1    3    3    0    0  0.17924089012E+02  0.21695427014E+02  0.83799536744E+00  0.28154338146E+02  0.00000000000E+00 0. -1.
         13    1    3    3    0    0 -0.16068154194E+02 -0.37141788563E+02  0.99424948414E+02  0.10734532316E+03  0.00000000000E+00 0.  1.
          3    1    1    2  501    0  0.18933872228E+02 -0.12881642624E+02 -0.39599888601E+02  0.45744720039E+02  0.00000000000E+00 0. -1.
<scales pt_clust_5="13000.00000" pt_clust_6="13000.00000" pt_clust_7="13000.00000" pt_clust_8="13000.00000" pt_clust_9="22.90040"></scales>
<clustering>
<clus scale="   22.900">  2  9  1 -1</clus>
<clus scale="   89.808">  7  8 -1 -1</clus>
<clus scale="   90.474">  5  6 -1 -1</clus>
<clus scale="   92.182">  1  7  2 -1</clus>
<clus scale="   22.900">  2  5  1 -1</clus>
</clustering>
</event>
<event>
 9    1  0.1504846E-005  0.1026866E+03  0.7546771E-02  0.1274946E+00
         21   -1    0    0  501  502  0.00000000000E+00  0.00000000000E+00  0.15298084487E+03  0.15298084487E+03  0.00000000000E+00 0.  1.
          1   -1    0    0  502    0 -0.00000000000E+00 -0.00000000000E+00 -0.12601599125E+03  0.12601599125E+03  0.00000000000E+00 0. -1.
         23    2    1    2    0    0 -0.45391002111E+02  0.43023155439E+01 -0.25563560533E+02  0.10357675910E+03  0.89419217216E+02 0.  0.
         23    2    1    2    0    0  0.49314755694E+02 -0.29760099058E+02 -0.10571220227E+02  0.10726541142E+03  0.89869400602E+02 0.  0.
        -11    1    3    3    0    0 -0.44542210079E+02  0.33559560049E+02 -0.42175617934E+02  0.69921636834E+02  0.00000000000E+00 0. -1.
         11    1    3    3    0    0 -0.84879203217E+00 -0.29257244505E+02  0.16612057401E+02  0.33655122270E+02  0.00000000000E+00 0.  1.
        -13    1    4    4    0    0  0.78871809370E+01 -0.29560050264E+02 -0.44303922571E+02  0.53840892916E+02  0.00000000000E+00 0. -1.
         13    1    4    4    0    0  0.41427574757E+02 -0.20004879349E+00  0.33732702344E+02  0.53424518503E+02  0.00000000000E+00 0.  1.
          1    1    1    2  501    0 -0.39237535829E+01  0.25457783514E+02  0.63099634386E+02  0.68154665601E+02  0.00000000000E+00 0. -1.
<scales pt_clust_5="13000.00000" pt_clust_6="13000.00000" pt_clust_7="13000.00000" pt_clust_8="13000.00000" pt_clust_9="25.75839"></scales>
<clustering>
<clus scale="   25.758">  1  9  2 -1</clus>
<clus scale="   89.419">  5  6 -1 -1</clus>
<clus scale="   89.869">  7  8 -1 -1</clus>
<clus scale="  102.293">  2  5  1 -1</clus>
<clus scale="   25.758">  1  5  2 -1</clus>
</clustering>
</event>
<event>
 9    1  0.1504846E-005  0.1604918E+03  0.7546771E-02  0.1188775E+00
          2   -1    0    0  502    0 -0.00000000000E+00  0.00000000000E+00  0.11838463547E+04  0.11838463547E+04  0.00000000000E+00 0. -1.
         21   -1    0    0  501  502  0.00000000000E+00 -0.00000000000E+00 -0.30785639511E+02  0.30785639511E+02  0.00000000000E+00 0.  1.
         23    2    1    2    0    0  0.16737607633E+02  0.12381449434E+03  0.69310131963E+03  0.70968924050E+03  0.87516868654E+02 0.  0.
         23    2    1    2    0    0 -0.33778847074E+02 -0.14182074105E+03  0.44199695267E+03  0.47432775546E+03  0.91495247568E+02 0.  0.
        -11    1    4    4    0    0 -0.62678548367E+02 -0.82557003560E+02  0.22917719629E+03  0.25152822220E+03  0.00000000000E+00 0.  1.
         11    1    4    4    0    0  0.28899701294E+02 -0.59263737488E+02  0.21281975638E+03  0.22279953326E+03  0.00000000000E+00 0. -1.
        -13    1    3    3    0    0  0.51221930093E+02  0.57800734114E+02  0.38982057500E+03  0.39739739768E+03  0.00000000000E+00 0. -1.
         13    1    3    3    0    0 -0.34484322459E+02  0.66013760222E+02  0.30328074462E+03  0.31229184282E+03  0.00000000000E+00 0.  1.
          2    1    1    2  501    0  0.17041239440E+02  0.18006246713E+02  0.17962442860E+02  0.30614998217E+02  0.00000000000E+00 0. -1.
<scales pt_clust_5="13000.00000" pt_clust_6="13000.00000" pt_clust_7="13000.00000" pt_clust_8="13000.00000" pt_clust_9="24.79171"></scales>
<clustering>
<clus scale="   24.792">  2  9  1 -1</clus>
<clus scale="   87.517">  7  8 -1 -1</clus>
<clus scale="   91.495">  5  6 -1 -1</clus>
<clus scale="  158.258">  1  7  2 -1</clus>
<clus scale="   24.792">  2  5  1 -1</clus>
</clustering>
</event>
<event>
 9    1  0.1504846E-005  0.1222012E+03  0.7546771E-02  0.1242067E+00
         21   -1    0    0  501  502  0.00000000000E+00  0.00000000000E+00  0.26421537301E+03  0.26421537301E+03  0.00000000000E+00 0. -1.
          3   -1    0    0  502    0 -0.00000000000E+00 -0.00000000000E+00 -0.87456892238E+02  0.87456892238E+02  0.00000000000E+00 0. -1.
         23    2    1    2    0    0  0.45900376814E+02  0.49827834362E+02 -0.40289482269E+01  0.11358358946E+03  0.91078766476E+02 0.  0.
         23    2    1    2    0    0 -0.64204659582E+02 -0.58264845157E+02  0.17096101195E+03  0.21566573238E+03  0.98828184355E+02 0.  0.
        -11    1    3    3    0    0  0.65409824993E+02  0.19956368385E+02  0.19174827605E+02  0.71023769672E+02  0.00000000000E+00 0. -1.
         11    1    3    3    0    0 -0.19509448179E+02  0.29871465976E+02 -0.23203775832E+02  0.42559819792E+02  0.00000000000E+00 0.  1.
        -13    1    4    4    0    0 -0.89077091216E+02 -0.56939314814E+02  0.14729160856E+03  0.18130535487E+03  0.00000000000E+00 0. -1.
         13    1    4    4    0    0  0.24872431633E+02 -0.13255303428E+01  0.23669403385E+02  0.34360377510E+02  0.00000000000E+00 0.  1.
          3    1    1    2  501    0  0.18304282769E+02  0.84370107951E+01  0.98264170479E+01  0.22422943403E+02  0.00000000000E+00 0. -1.
<scales pt_clust_5="13000.00000" pt_clust_6="13000.00000" pt_clust_7="13000.00000" pt_clust_8="13000.00000" pt_clust_9="20.15516"></scales>
<clustering>
<clus scale="   20.155">  1  9  2 -1</clus>
<clus scale="   91.079">  5  6 -1 -1</clus>
<clus scale="   98.828">  7  8 -1 -1</clus>
<clus scale="  116.024">  2  5  1 -1</clus>
<clus scale="   20.155">  1  5  2 -1</clus>
</clustering>
</event>
<event>
 9    1  0.1504846E-005  0.1164276E+03  0.7546771E-02  0.1249430E+00
         21   -1    0    0  501  502  0.00000000000E+00  0.00000000000E+00  0.25564001886E+03  0.25564001886E+03  0.00000000000E+00 0.  1.
          2   -1    0    0  502    0 -0.00000000000E+00 -0.00000000000E+00 -0.10222799113E+03  0.10222799113E+03  0.00000000000E+00 0. -1.
         23    2    1    2    0    0 -0.67934769537E+02  0.80349399063E+00  0.21584843425E+02  0.11804155590E+03  0.94085731861E+02 0.  0.
         23    2    1    2    0    0  0.62738329737E+02 -0.41069886993E+02  0.20512194850E+02  0.12133842824E+03  0.93163460622E+02 0.  0.
        -11    1    4    4    0    0  0.30044229908E+02 -0.49574076809E+02  0.49957825349E+02  0.76524696379E+02  0.00000000000E+00 0.  1.
         11    1    4    4    0    0  0.32694099830E+02  0.85041898166E+01 -0.29445630499E+02  0.44813731864E+02  0.00000000000E+00 0. -1.
        -13    1    3    3    0    0 -0.76501310481E+02  0.32565039233E+02  0.14741552527E+02  0.84440781951E+02  0.00000000000E+00 0.  1.
         13    1    3    3    0    0  0.85665409444E+01 -0.31761545242E+02  0.68432908979E+01  0.33600773953E+02  0.00000000000E+00 0. -1.
          2    1    1    2  501    0  0.51964397994E+01  0.40266393002E+02  0.11131498945E+03  0.11848802584E+03  0.00000000000E+00 0. -1.
<scales pt_clust_5="13000.00000" pt_clust_6="13000.00000" pt_clust_7="13000.00000" pt_clust_8="13000.00000" pt_clust_9="40.60031"></scales>
<clustering>
<clus scale="   40.600">  1  9  2 -1</clus>
<clus scale="   93.163">  5  6 -1 -1</clus>
<clus scale="   94.086">  7  8 -1 -1</clus>
<clus scale="  115.684">  1  5  2 -1</clus>
<clus scale="   40.600">  1  5  2 -1</clus>
</clustering>
</event>
<event>
 9    1  0.1504846E-005  0.9175200E+02  0.7546771E-02  0.1299019E+00
         21   -1    0    0  501  502  0.00000000000E+00  0.00000000000E+00  0.67964161166E+02  0.67964161166E+02  0.00000000000E+00 0. -1.
          2   -1    0    0  502    0 -0.00000000000E+00 -0.00000000000E+00 -0.34053588674E+03  0.34053588674E+03  0.00000000000E+00 0. -1.
         23    2    1    2    0    0  0.12856813873E+02 -0.20606786031E+02 -0.21112968092E+03  0.23090852938E+03  0.90294349113E+02 0.  0.
         23    2    1    2    0    0  0.36522571122E+02 -0.87939966028E+01 -0.68254960612E+02  0.11971971619E+03  0.90900155215E+02 0.  0.
        -13    1    4    4    0    0 -0.32646918124E+01 -0.40161032788E+02 -0.81494851568E+01  0.41109376978E+02  0.00000000000E+00 0.  1.
         13    1    4    4    0    0  0.39787262934E+02  0.31367036185E+02 -0.60105475455E+02  0.78610339209E+02  0.00000000000E+00 0. -1.
        -13    1    3    3    0    0 -0.20803966058E+02 -0.25662953954E+02 -0.18518770182E+03  0.18811134233E+03  0.00000000000E+00 0. -1.
         13    1    3    3    0    0  0.33660779931E+02  0.50561679230E+01 -0.25941979106E+02  0.42797187052E+02  0.00000000000E+00 0.  1.
          2    1    1    2  501    0 -0.49379384995E+02  0.29400782634E+02  0.68129159601E+01  0.57871802338E+02  0.00000000000E+00 0. -1.
<scales pt_clust_5="13000.00000" pt_clust_6="13000.00000" pt_clust_7="13000.00000" pt_clust_8="13000.00000" pt_clust_9="57.46938"></scales>
<clustering>
<clus scale="   57.469">  1  9  2 -1</clus>
<clus scale="   90.294">  7  8 -1 -1</clus>
<clus scale="   90.900">  5  6 -1 -1</clus>
<clus scale="   91.152">  2  7  1 -1</clus>
<clus scale="   57.469">  1  5  2 -1</clus>
</clustering>
</event>
<event>
 9    1  0.1504846E-005  0.2480627E+03  0.7546771E-02  0.1134299E+00
          1   -1    0    0  502    0 -0.00000000000E+00  0.00000000000E+00  0.57353534602E+03  0.57353534602E+03  0.00000000000E+00 0. -1.
         21   -1    0    0  501  502  0.00000000000E+00 -0.00000000000E+00 -0.42798798788E+03  0.42798798788E+03  0.00000000000E+00 0. -1.
         23    2    1    2    0    0 -0.11853418916E+03  0.26383955474E+02  0.33338552898E+03  0.36636680524E+03  0.91281202567E+02 0.  0.
         23    2    1    2    0    0 -0.11310222493E+03  0.71012691738E+02  0.14424869965E+03  0.21871538664E+03  0.95884395669E+02 0.  0.
        -11    1    3    3    0    0 -0.20142059673E+02 -0.24694321826E+02  0.31664566440E+02  0.44923900834E+02  0.00000000000E+00 0.  1.
         11    1    3    3    0    0 -0.98392129487E+02  0.51078277300E+02  0.30172096254E+03  0.32144290441E+03  0.00000000000E+00 0. -1.
        -13    1    4    4    0    0 -0.34154769031E+02  0.34589098558E+02 -0.19141278346E+01  0.48647896892E+02  0.00000000000E+00 0.  1.
         13    1    4    4    0    0 -0.78947455900E+02  0.36423593180E+02  0.14616282748E+03  0.17006748975E+03  0.00000000000E+00 0. -1.
          1    1    1    2  501    0  0.23163641409E+03 -0.97396647212E+02 -0.33208687049E+03  0.41644114203E+03  0.00000000000E+00 0. -1.
<scales pt_clust_5="13000.00000" pt_clust_6="13000.00000" pt_clust_7="13000.00000" pt_clust_8="13000.00000" pt_clust_9="228.78214"></scales>
<clustering>
<clus scale="   91.281">  5  6 -1 -1</clus>
<clus scale="   95.884">  7  8 -1 -1</clus>
<clus scale="  151.917">  1  5  2 -1</clus>
<clus scale="  228.782">  2  9  1 -1</clus>
<clus scale="  228.782">  2  5  1 -1</clus>
</clustering>
</event>
<event>
 9    1  0.1504846E-005  0.2296262E+03  0.7546771E-02  0.1126994E+00
          2   -1    0    0  502    0 -0.00000000000E+00  0.00000000000E+00  0.19870370850E+03  0.19870370850E+03  0.00000000000E+00 0.  1.
         21   -1    0    0  501  502  0.00000000000E+00 -0.00000000000E+00 -0.11297538146E+04  0.11297538146E+04  0.00000000000E+00 0.  1.
         23    2    1    2    0    0 -0.16669336253E+03 -0.98404521580E+02  0.16183102354E+02  0.21437856322E+03  0.90698117879E+02 0.  0.
         23    2    1    2    0    0  0.32953758258E+03 -0.24737514738E+02 -0.38358321770E+03  0.51459291902E+03  0.91993610811E+02 0.  0.
        -13    1    4    4    0    0  0.13202691174E+03  0.35121034833E+02 -0.14946190728E+03  0.20249309677E+03  0.00000000000E+00 0. -1.
         13    1    4    4    0    0  0.19751067084E+03 -0.59858549571E+02 -0.23412131042E+03  0.31209982225E+03  0.00000000000E+00 0.  1.
        -13    1    3    3    0    0 -0.72275634483E+02 -0.58518541123E+02 -0.35558761878E+02  0.99562103942E+02  0.00000000000E+00 0. -1.
         13    1    3    3    0    0 -0.94417728051E+02 -0.39885980457E+02  0.51741864231E+02  0.11481645928E+03  0.00000000000E+00 0.  1.
          2    1    1    2  501    0 -0.16284422005E+03  0.12314203632E+03 -0.56364999073E+03  0.59948604084E+03  0.00000000000E+00 0.  1.
<scales pt_clust_5="13000.00000" pt_clust_6="13000.00000" pt_clust_7="13000.00000" pt_clust_8="13000.00000" pt_clust_9="204.16219"></scales>
<clustering>
<clus scale="   90.698">  7  8 -1 -1</clus>
<clus scale="   91.994">  5  6 -1 -1</clus>
<clus scale="  204.162">  2  9  1 -1</clus>
<clus scale="  229.110">  1  7  2 -1</clus>
<clus scale="  204.162">  2  5  1 -1</clus>
</clustering>
</event>
<event>
 9    1  0.2577941E-005  0.9587887E+02  0.7546771E-02  0.1290928E+00
         21   -1    0    0  501  502  0.00000000000E+00  0.00000000000E+00  0.38931027216E+03  0.38931027216E+03  0.00000000000E+00 0.  1.
          4   -1    0    0  502    0 -0.00000000000E+00 -0.00000000000E+00 -0.12197051251E+03  0.12197051251E+03  0.00000000000E+00 0. -1.
         23    2    1    2    0    0  0.25795155915E+02  0.10854753664E+02 -0.92803080286E+02  0.13362941279E+03  0.91984740615E+02 0.  0.
         23    2    1    2    0    0 -0.54820609173E+01 -0.20169774350E+02  0.29440755303E+03  0.30822141161E+03  0.88813053685E+02 0.  0.
        -13    1    3    3    0    0 -0.96602331072E+01 -0.36047960050E+02 -0.34357530405E+02  0.50726870818E+02  0.00000000000E+00 0.  1.
         13    1    3    3    0    0  0.35455389022E+02  0.46902713714E+02 -0.58445549881E+02  0.82902541972E+02  0.00000000000E+00 0. -1.
        -13    1    4    4    0    0  0.34453318747E+02 -0.32793184132E+02  0.12586065480E+03  0.13454861027E+03  0.00000000000E+00 0.  1.
         13    1    4    4    0    0 -0.39935379664E+02  0.12623409782E+02  0.16854689823E+03  0.17367280134E+03  0.00000000000E+00 0. -1.
          4    1    1    2  501    0 -0.20313094998E+02  0.93150206861E+01  0.65735286902E+02  0.69429960268E+02  0.00000000000E+00 0. -1.
<scales pt_clust_5="13000.00000" pt_clust_6="13000.00000" pt_clust_7="13000.00000" pt_clust_8="13000.00000" pt_clust_9="22.34707"></scales>
<clustering>
<clus scale="   22.347">  1  9  2 -1</clus>
<clus scale="   88.813">  7  8 -1 -1</clus>
<clus scale="   91.985">  5  6 -1 -1</clus>
<clus scale="   92.840">  1  7  2 -1</clus>
<clus scale="   22.347">  1  5  2 -1</clus>
</clustering>
</event>
<event>
 9    1  0.1504846E-005  0.9306125E+02  0.7546771E-02  0.1295608E+00
          2   -1    0    0  502    0 -0.00000000000E+00  0.00000000000E+00  0.39637471512E+03  0.39637471512E+03  0.00000000000E+00 0. -1.
         21   -1    0    0  501  502  0.00000000000E+00 -0.00000000000E+00 -0.63050306566E+02  0.63050306566E+02  0.00000000000E+00 0.  1.
         23    2    1    2    0    0  0.15088581824E+02 -0.21107288321E+02  0.24923909308E+03  0.26654299525E+03  0.90839748327E+02 0.  0.
         23    2    1    2    0    0  0.18882003781E+02  0.17459695192E+02  0.11362029424E+03  0.14771986758E+03  0.90830705123E+02 0.  0.
        -11    1    3    3    0    0  0.40755832296E+02 -0.38924444895E+02  0.10723896689E+03  0.12114597103E+03  0.00000000000E+00 0.  1.
         11    1    3    3    0    0 -0.25667250472E+02  0.17817156573E+02  0.14200012619E+03  0.14539702422E+03  0.00000000000E+00 0. -1.
        -13    1    4    4    0    0 -0.36257360806E+02  0.51920855937E+00  0.51051361764E+02  0.62618745820E+02  0.00000000000E+00 0. -1.
         13    1    4    4    0    0  0.55139364587E+02  0.16940486632E+02  0.62568932475E+02  0.85101121764E+02  0.00000000000E+00 0.  1.
          2    1    1    2  501    0 -0.33970585605E+02  0.36475931297E+01 -0.29534978762E+02  0.45162158855E+02  0.00000000000E+00 0. -1.
<scales pt_clust_5="13000.00000" pt_clust_6="13000.00000" pt_clust_7="13000.00000" pt_clust_8="13000.00000" pt_clust_9="34.16585"></scales>
<clustering>
<clus scale="   34.166">  2  9  1 -1</clus>
<clus scale="   90.831">  7  8 -1 -1</clus>
<clus scale="   90.840">  5  6 -1 -1</clus>
<clus scale="   93.052">  2  7  1 -1</clus>
<clus scale="   34.166">  2  5  1 -1</clus>
</clustering>
</event>
<event>
 9    1  0.1504846E-005  0.9876183E+02  0.7546771E-02  0.1283362E+00
         -2   -1    0    0    0  501 -0.00000000000E+00  0.00000000000E+00  0.15977405471E+03  0.15977405471E+03  0.00000000000E+00 0.  1.
         21   -1    0    0  501  502  0.00000000000E+00 -0.00000000000E+00 -0.92268128113E+02  0.92268128113E+02  0.00000000000E+00 0. -1.
         23    2    1    2    0    0  0.23300563012E+02 -0.32238093287E+02  0.74697982663E+02  0.12384135711E+03  0.90413949264E+02 0.  0.
         23    2    1    2    0    0 -0.58959442601E+01  0.42420689013E+02  0.12497088522E+02  0.10001805750E+03  0.89516242045E+02 0.  0.
        -11    1    4    4    0    0  0.20225592869E+02  0.23506925697E+02  0.44725798428E+02  0.54424692996E+02  0.00000000000E+00 0.  1.
         11    1    4    4    0    0 -0.26121537129E+02  0.18913763316E+02 -0.32228709907E+02  0.45593364506E+02  0.00000000000E+00 0. -1.
        -11    1    3    3    0    0 -0.21635460758E+02  0.14882063105E+02  0.21323281168E+01  0.26346077273E+02  0.00000000000E+00 0. -1.
         11    1    3    3    0    0  0.44936023771E+02 -0.47120156392E+02  0.72565654546E+02  0.97495279837E+02  0.00000000000E+00 0.  1.
         -2    1    1    2    0  502 -0.17404618752E+02 -0.10182595726E+02 -0.19689144585E+02  0.28182768213E+02  0.00000000000E+00 0.  1.
<scales pt_clust_5="13000.00000" pt_clust_6="13000.00000" pt_clust_7="13000.00000" pt_clust_8="13000.00000" pt_clust_9="20.16447"></scales>
<clustering>
<clus scale="   20.164">  2  9  1 -1</clus>
<clus scale="   89.516">  5  6 -1 -1</clus>
<clus scale="   90.414">  7  8 -1 -1</clus>
<clus scale="   97.941">  2  5  1 -1</clus>
<clus scale="   20.164">  2  5  1 -1</clus>
</clustering>
</event>
<event>
 9    1  0.1504846E-005  0.2702942E+03  0.7546771E-02  0.1127875E+00
          2   -1    0    0  502    0 -0.00000000000E+00  0.00000000000E+00  0.17959871417E+03  0.17959871417E+03  0.00000000000E+00 0. -1.
         21   -1    0    0  501  502  0.00000000000E+00 -0.00000000000E+00 -0.77693695115E+03  0.77693695115E+03  0.00000000000E+00 0. -1.
         23    2    1    2    0    0  0.50484209657E+02  0.88785127547E+02 -0.18166755004E+03  0.22780846708E+03  0.91989915945E+02 0.  0.
         23    2    1    2    0    0  0.10975761657E+02  0.18716032285E+03  0.23100737014E+02  0.20676591410E+03  0.84077615285E+02 0.  0.
        -11    1    4    4    0    0  0.30835587919E+02  0.11236658774E+03 -0.19942742948E+02  0.11821504354E+03  0.00000000000E+00 0.  1.
         11    1    4    4    0    0 -0.19859826262E+02  0.74793735112E+02  0.43043479962E+02  0.88550870568E+02  0.00000000000E+00 0. -1.
        -13    1    3    3    0    0  0.49041372003E+02  0.45312361914E+01 -0.94531766445E+02  0.10659194687E+03  0.00000000000E+00 0.  1.
         13    1    3    3    0    0  0.14428376538E+01  0.84253891356E+02 -0.87135783595E+02  0.12121652021E+03  0.00000000000E+00 0. -1.
          2    1    1    2  501    0 -0.61459971313E+02 -0.27594545040E+03 -0.43877142395E+03  0.52196128414E+03  0.00000000000E+00 0. -1.
<scales pt_clust_5="13000.00000" pt_clust_6="13000.00000" pt_clust_7="13000.00000" pt_clust_8="13000.00000" pt_clust_9="256.88502"></scales>
<clustering>
<clus scale="   84.078">  5  6 -1 -1</clus>
<clus scale="   91.990">  7  8 -1 -1</clus>
<clus scale="  137.454">  1  7  2 -1</clus>
<clus scale="  256.885">  2  9  1 -1</clus>
<clus scale="  256.885">  2  5  1 -1</clus>
</clustering>
</event>
<event>
 9    1  0.1504846E-005  0.1602637E+03  0.7546771E-02  0.1189301E+00
         -3   -1    0    0    0  501 -0.00000000000E+00  0.00000000000E+00  0.52996848936E+03  0.52996848936E+03  0.00000000000E+00 0.  1.
         21   -1    0    0  501  502  0.00000000000E+00 -0.00000000000E+00 -0.88024120446E+02  0.88024120446E+02  0.00000000000E+00 0.  1.
         23    2    1    2    0    0 -0.11075963690E+03 -0.48896708114E+02  0.25944634427E+03  0.30232340022E+03  0.97100193300E+02 0.  0.
         23    2    1    2    0    0  0.13528727739E+03  0.26391972148E+02  0.21349091611E+03  0.27018704154E+03  0.91779532225E+02 0.  0.
        -11    1    4    4    0    0  0.12231092810E+03  0.52246091257E+02  0.15035356713E+03  0.20073816861E+03  0.00000000000E+00 0.  1.
         11    1    4    4    0    0  0.12976349288E+02 -0.25854119109E+02  0.63137348980E+02  0.69448872935E+02  0.00000000000E+00 0. -1.
        -11    1    3    3    0    0 -0.93184830685E+02 -0.66927787011E+02  0.25063685539E+03  0.27564755508E+03  0.00000000000E+00 0.  1.
         11    1    3    3    0    0 -0.17574806212E+02  0.18031078897E+02  0.88094888759E+01  0.26675845138E+02  0.00000000000E+00 0. -1.
         -3    1    1    2    0  502 -0.24527640494E+02  0.22504735966E+02 -0.30992891462E+02  0.45482168047E+02  0.00000000000E+00 0.  1.
<scales pt_clust_5="13000.00000" pt_clust_6="13000.00000" pt_clust_7="13000.00000" pt_clust_8="13000.00000" pt_clust_9="33.28766"></scales>
<clustering>
<clus scale="   33.288">  2  9  1 -1</clus>
<clus scale="   91.780">  5  6 -1 -1</clus>
<clus scale="   97.100">  7  8 -1 -1</clus>
<clus scale="  157.097">  2  5  1 -1</clus>
<clus scale="   33.288">  2  5  1 -1</clus>
</clustering>
</event>
<event>
 9    1  0.1504846E-005  0.1199276E+03  0.7546771E-02  0.1245874E+00
          1   -1    0    0  502    0 -0.00000000000E+00  0.00000000000E+00  0.39055866794E+03  0.39055866794E+03  0.00000000000E+00 0. -1.
         21   -1    0    0  501  502  0.00000000000E+00 -0.00000000000E+00 -0.97547057126E+02  0.97547057126E+02  0.00000000000E+00 0.  1.
         23    2    1    2    0    0  0.49317127914E+02  0.59493801344E+02  0.30373444358E+03  0.32672943656E+03  0.92335372414E+02 0.  0.
         23    2    1    2    0    0 -0.76726068447E+02 -0.27918589889E+02 -0.19120699235E+02  0.11872927031E+03  0.84051777186E+02 0.  0.
        -11    1    4    4    0    0  0.87581732704E+01  0.18051681503E+02 -0.46457522966E+01  0.20594946432E+02  0.00000000000E+00 0. -1.
         11    1    4    4    0    0 -0.85484241718E+02 -0.45970271393E+02 -0.14474946939E+02  0.98134323877E+02  0.00000000000E+00 0.  1.
        -13    1    3    3    0    0 -0.14094512849E+00  0.38723081357E+02  0.33440935709E+02  0.51164373116E+02  0.00000000000E+00 0.  1.
         13    1    3    3    0    0  0.49458073043E+02  0.20770719987E+02  0.27029350787E+03  0.27556506345E+03  0.00000000000E+00 0. -1.
          1    1    1    2  501    0  0.27408940533E+02 -0.31575211454E+02  0.83978664752E+01  0.42647018194E+02  0.00000000000E+00 0. -1.
<scales pt_clust_5="13000.00000" pt_clust_6="13000.00000" pt_clust_7="13000.00000" pt_clust_8="13000.00000" pt_clust_9="41.81201"></scales>
<clustering>
<clus scale="   41.812">  2  9  1 -1</clus>
<clus scale="   84.052">  5  6 -1 -1</clus>
<clus scale="   92.335">  7  8 -1 -1</clus>
<clus scale="  113.673">  2  5  1 -1</clus>
<clus scale="   41.812">  2  5  1 -1</clus>
</clustering>
</event>
<event>
 9    1  0.1504846E-005  0.3180612E+03  0.7546771E-02  0.1122636E+00
         -3   -1    0    0    0  501 -0.00000000000E+00  0.00000000000E+00  0.12319071558E+03  0.12319071558E+03  0.00000000000E+00 0.  1.
         21   -1    0    0  501  502  0.00000000000E+00 -0.00000000000E+00 -0.12062623945E+04  0.12062623945E+04  0.00000000000E+00 0. -1.
         23    2    1    2    0    0 -0.65416553010E+01  0.25832115449E+02 -0.17955956800E+03  0.20363507443E+03  0.92279540724E+02 0.  0.
         23    2    1    2    0    0  0.30719929221E+03  0.20058059392E+02 -0.25587711710E+03  0.41032379528E+03  0.90104311958E+02 0.  0.
        -13    1    3    3    0    0  0.23593859684E+02 -0.20516019333E+02 -0.11229858575E+03  0.11656993448E+03  0.00000000000E+00 0. -1.
         13    1    3    3    0    0 -0.30135514985E+02  0.46348134782E+02 -0.67260982254E+02  0.87065139953E+02  0.00000000000E+00 0.  1.
        -13    1    4    4    0    0  0.28376203288E+03  0.34483155976E+02 -0.25456703858E+03  0.38277193795E+03  0.00000000000E+00 0. -1.
         13    1    4    4    0    0  0.23437259335E+02 -0.14425096584E+02 -0.13100785195E+01  0.27551857330E+02  0.00000000000E+00 0.  1.
         -3    1    1    2    0  502 -0.30065763691E+03 -0.45890174841E+02 -0.64763499386E+03  0.71549424041E+03  0.00000000000E+00 0.  1.
<scales pt_clust_5="13000.00000" pt_clust_6="13000.00000" pt_clust_7="13000.00000" pt_clust_8="13000.00000" pt_clust_9="305.03133"></scales>
<clustering>
<clus scale="   90.104">  7  8 -1 -1</clus>
<clus scale="   92.280">  5  6 -1 -1</clus>
<clus scale="   96.050">  1  5  2 -1</clus>
<clus scale="  305.031">  2  9  1 -1</clus>
<clus scale="  305.031">  2  5  1 -1</clus>
</clustering>
</event>
<event>
 9    1  0.1504846E-005  0.9456762E+02  0.7546771E-02  0.1293311E+00
         21   -1    0    0  501  502  0.00000000000E+00  0.00000000000E+00  0.75681638107E+02  0.75681638107E+02  0.00000000000E+00 0. -1.
          1   -1    0    0  502    0 -0.00000000000E+00 -0.00000000000E+00 -0.22295748239E+03  0.22295748239E+03  0.00000000000E+00 0. -1.
         23    2    1    2    0    0 -0.11939589275E+02 -0.33237014163E+02 -0.77046945279E+02  0.12561194279E+03  0.92708551336E+02 0.  0.
         23    2    1    2    0    0  0.20977249145E+02 -0.24465400940E+02 -0.25686739952E+02  0.99574799004E+02  0.90646186695E+02 0.  0.
        -13    1    4    4    0    0  0.40798440943E+02 -0.37246545757E+02  0.10644780594E+02  0.56259481939E+02  0.00000000000E+00 0. -1.
         13    1    4    4    0    0 -0.19821191798E+02  0.12781144818E+02 -0.36331520547E+02  0.43315317064E+02  0.00000000000E+00 0.  1.
        -13    1    3    3    0    0  0.61723913443E+01 -0.63477873834E+02 -0.45955197547E+02  0.78609281023E+02  0.00000000000E+00 0. -1.
         13    1    3    3    0    0 -0.18111980619E+02  0.30240859671E+02 -0.31091747733E+02  0.47002661762E+02  0.00000000000E+00 0.  1.
          1    1    1    2  501    0 -0.90376598694E+01  0.57702415103E+02 -0.44542159047E+02  0.73452378703E+02  0.00000000000E+00 0. -1.
<scales pt_clust_5="13000.00000" pt_clust_6="13000.00000" pt_clust_7="13000.00000" pt_clust_8="13000.00000" pt_clust_9="58.40592"></scales>
<clustering>
<clus scale="   58.406">  1  9  2 -1</clus>
<clus scale="   90.646">  5  6 -1 -1</clus>
<clus scale="   92.547">  1  5  2 -1</clus>
<clus scale="   92.709">  7  8 -1 -1</clus>
<clus scale="   58.406">  1  5  2 -1</clus>
</clustering>
</event>
<event>
 9    1  0.1504846E-005  0.9410618E+02  0.7546771E-02  0.1294197E+00
         21   -1    0    0  501  502  0.00000000000E+00  0.00000000000E+00  0.21938659195E+03  0.21938659195E+03  0.00000000000E+00 0.  1.
          2   -1    0    0  502    0 -0.00000000000E+00 -0.00000000000E+00 -0.73176747932E+02  0.73176747932E+02  0.00000000000E+00 0. -1.
         23    2    1    2    0    0 -0.15281887018E+02  0.29362878127E+02  0.23888587554E+02  0.98173267883E+02  0.89283880005E+02 0.  0.
         23    2    1    2    0    0  0.23150231431E+02  0.25418809577E+01  0.33678839930E+02  0.99852764523E+02  0.91070939107E+02 0.  0.
        -11    1    3    3    0    0 -0.14385417680E+02 -0.28402080980E+02  0.24859441491E+02  0.40393195926E+02  0.00000000000E+00 0. -1.
         11    1    3    3    0    0 -0.89646933844E+00  0.57764959108E+02 -0.97085393697E+00  0.57780071957E+02  0.00000000000E+00 0.  1.
        -13    1    4    4    0    0  0.54226194421E+02  0.10119322168E+02  0.25528068678E+01  0.55221351536E+02  0.00000000000E+00 0.  1.
         13    1    4    4    0    0 -0.31075962990E+02 -0.75774412104E+01  0.31126033063E+02  0.44631412988E+02  0.00000000000E+00 0. -1.
          2    1    1    2  501    0 -0.78683444125E+01 -0.31904759085E+02  0.88642416538E+02  0.94537307481E+02  0.00000000000E+00 0. -1.
<scales pt_clust_5="13000.00000" pt_clust_6="13000.00000" pt_clust_7="13000.00000" pt_clust_8="13000.00000" pt_clust_9="32.86068"></scales>
<clustering>
<clus scale="   32.861">  1  9  2 -1</clus>
<clus scale="   89.284">  5  6 -1 -1</clus>
<clus scale="   91.071">  7  8 -1 -1</clus>
<clus scale="   92.378">  2  5  1 -1</clus>
<clus scale="   32.861">  1  5  2 -1</clus>
</clustering>
</event>
<event>
 9    1  0.1504846E-005  0.2300587E+03  0.7546771E-02  0.1126853E+00
          1   -1    0    0  502    0 -0.00000000000E+00  0.00000000000E+00  0.15434062866E+04  0.15434062866E+04  0.00000000000E+00 0. -1.
         21   -1    0    0  501  502  0.00000000000E+00 -0.00000000000E+00 -0.45208789863E+02  0.45208789863E+02  0.00000000000E+00 0. -1.
         23    2    1    2    0    0 -0.14105164730E+03 -0.14484005865E+03  0.55529568492E+03  0.59708791253E+03  0.85360809528E+02 0.  0.
         23    2    1    2    0    0  0.11915921130E+03  0.19100523947E+03  0.63855799842E+03  0.68292441049E+03  0.89148830398E+02 0.  0.
        -11    1    3    3    0    0 -0.17513660858E+02 -0.61129119873E+02  0.10548040358E+03  0.12316498347E+03  0.00000000000E+00 0.  1.
         11    1    3    3    0    0 -0.12353798644E+03 -0.83710938781E+02  0.44981528134E+03  0.47392292906E+03  0.00000000000E+00 0. -1.
        -11    1    4    4    0    0  0.10288902285E+03  0.12260613303E+03  0.33419580007E+03  0.37054722731E+03  0.00000000000E+00 0. -1.
         11    1    4    4    0    0  0.16270188455E+02  0.68399106446E+02  0.30436219835E+03  0.31237718319E+03  0.00000000000E+00 0.  1.
          1    1    1    2  501    0  0.21892436002E+02 -0.46165180820E+02  0.30434381342E+03  0.30860275345E+03  0.00000000000E+00 0. -1.
<scales pt_clust_5="13000.00000" pt_clust_6="13000.00000" pt_clust_7="13000.00000" pt_clust_8="13000.00000" pt_clust_9="51.09310"></scales>
<clustering>
<clus scale="   51.093">  2  9  1 -1</clus>
<clus scale="   85.361">  5  6 -1 -1</clus>
<clus scale="   89.149">  7  8 -1 -1</clus>
<clus scale="  228.618">  1  5  2 -1</clus>
<clus scale="   51.093">  2  5  1 -1</clus>
</clustering>
</event>
<event>
 9    1  0.1504846E-005  0.1160276E+03  0.7546771E-02  0.1250254E+00
          1   -1    0    0  502    0 -0.00000000000E+00  0.00000000000E+00  0.52526328980E+02  0.52526328980E+02  0.00000000000E+00 0. -1.
         21   -1    0    0  501  502  0.00000000000E+00 -0.00000000000E+00 -0.43534330914E+03  0.43534330914E+03  0.00000000000E+00 0.  1.
         23    2    1    2    0    0 -0.49509949906E+02  0.70202040604E+02 -0.14362932884E+03  0.19064140812E+03  0.91297320576E+02 0.  0.
         23    2    1    2    0    0 -0.46114941473E+01 -0.57904194682E+02 -0.20418497494E+03  0.23161150138E+03  0.92618691083E+02 0.  0.
        -13    1    3    3    0    0  0.21619051621E+02 -0.21058809517E+01 -0.13207821453E+02  0.25421736273E+02  0.00000000000E+00 0. -1.
         13    1    3    3    0    0 -0.71129001527E+02  0.72307921556E+02 -0.13042150738E+03  0.16521967185E+03  0.00000000000E+00 0.  1.
        -13    1    4    4    0    0  0.40172338050E+02 -0.25180806375E+02 -0.55934568963E+02  0.73325069105E+02  0.00000000000E+00 0. -1.
         13    1    4    4    0    0 -0.44783832198E+02 -0.32723388307E+02 -0.14825040598E+03  0.15828643227E+03  0.00000000000E+00 0.  1.
          1    1    1    2  501    0  0.54121444053E+02 -0.12297845922E+02 -0.35002676378E+02  0.65616728617E+02  0.00000000000E+00 0. -1.
<scales pt_clust_5="13000.00000" pt_clust_6="13000.00000" pt_clust_7="13000.00000" pt_clust_8="13000.00000" pt_clust_9="55.50109"></scales>
<clustering>
<clus scale="   55.501">  2  9  1 -1</clus>
<clus scale="   91.297">  5  6 -1 -1</clus>
<clus scale="   92.619">  7  8 -1 -1</clus>
<clus scale="  114.976">  1  5  2 -1</clus>
<clus scale="   55.501">  2  5  1 -1</clus>
</clustering>
</event>
<event>
 9    1  0.1504846E-005  0.1372204E+03  0.7546771E-02  0.1217487E+00
         21   -1    0    0  501  502  0.00000000000E+00  0.00000000000E+00  0.69329309233E+03  0.69329309233E+03  0.00000000000E+00 0. -1.
         -2   -1    0    0    0  501 -0.00000000000E+00 -0.00000000000E+00 -0.13131073825E+03  0.13131073825E+03  0.00000000000E+00 0.  1.
         23    2    1    2    0    0 -0.86881347040E+02 -0.24949780449E+02 -0.52775644868E+02  0.13948851568E+03  0.92200419231E+02 0.  0.
         23    2    1    2    0    0  0.16234228730E+03  0.42072266762E+02  0.26756429691E+03  0.32940335309E+03  0.93759384443E+02 0.  0.
        -11    1    3    3    0    0 -0.10033321605E+03 -0.21380958815E+01 -0.30514822599E+02  0.10489270754E+03  0.00000000000E+00 0.  1.
         11    1    3    3    0    0  0.13451869008E+02 -0.22811684568E+02 -0.22260822269E+02  0.34595808138E+02  0.00000000000E+00 0. -1.
        -13    1    4    4    0    0  0.99566782546E+02  0.25783786169E+02  0.78090174841E+02  0.12913722632E+03  0.00000000000E+00 0.  1.
         13    1    4    4    0    0  0.62775504749E+02  0.16288480594E+02  0.18947412206E+03  0.20026612676E+03  0.00000000000E+00 0. -1.
         -2    1    1    2    0  502 -0.75460940255E+02 -0.17122486313E+02  0.34719370204E+03  0.35571196182E+03  0.00000000000E+00 0.  1.
<scales pt_clust_5="13000.00000" pt_clust_6="13000.00000" pt_clust_7="13000.00000" pt_clust_8="13000.00000" pt_clust_9="77.37915"></scales>
<clustering>
<clus scale="   77.379">  1  9  2 -1</clus>
<clus scale="   92.200">  5  6 -1 -1</clus>
<clus scale="   93.759">  7  8 -1 -1</clus>
<clus scale="  136.160">  2  5  1 -1</clus>
<clus scale="   77.379">  1  5  2 -1</clus>
</clustering>
</event>
<event>
 9    1  0.1504846E-005  0.9330093E+02  0.7546771E-02  0.1296082E+00
          1   -1    0    0  502    0 -0.00000000000E+00  0.00000000000E+00  0.67908328412E+03  0.67908328412E+03  0.00000000000E+00 0. -1.
         21   -1    0    0  501  502  0.00000000000E+00 -0.00000000000E+00 -0.19982484111E+03  0.19982484111E+03  0.00000000000E+00 0. -1.
         23    2    1    2    0    0  0.69681510919E+01  0.16202039887E+02  0.47510581931E+03  0.48416089743E+03  0.91515975805E+02 0.  0.
         23    2    1    2    0    0  0.41909836081E+02 -0.20320084487E+02  0.18312801856E+03  0.20917188491E+03  0.89708784740E+02 0.  0.
        -13    1    3    3    0    0  0.40235488135E+02 -0.18458593546E+02  0.19467518780E+03  0.19964479188E+03  0.00000000000E+00 0. -1.
         13    1    3    3    0    0 -0.33267337043E+02  0.34660633433E+02  0.28043063151E+03  0.28451610554E+03  0.00000000000E+00 0.  1.
        -13    1    4    4    0    0  0.76241452717E+01 -0.33284482522E+02  0.15352744324E+02  0.37439165671E+02  0.00000000000E+00 0.  1.
         13    1    4    4    0    0  0.34285690809E+02  0.12964398035E+02  0.16777527424E+03  0.17173271924E+03  0.00000000000E+00 0. -1.
          1    1    1    2  501    0 -0.48877987173E+02  0.41180445999E+01 -0.17897539486E+03  0.18557534289E+03  0.00000000000E+00 0. -1.
<scales pt_clust_5="13000.00000" pt_clust_6="13000.00000" pt_clust_7="13000.00000" pt_clust_8="13000.00000" pt_clust_9="49.05116"></scales>
<clustering>
<clus scale="   49.051">  2  9  1 -1</clus>
<clus scale="   89.709">  7  8 -1 -1</clus>
<clus scale="   91.516">  5  6 -1 -1</clus>
<clus scale="   91.529">  2  7  1 -1</clus>
<clus scale="   49.051">  2  5  1 -1</clus>
</clustering>
</event>
<event>
 9    1  0.1504846E-005  0.1948382E+03  0.7546771E-02  0.1172962E+00
         21   -1    0    0  501  502  0.00000000000E+00  0.00000000000E+00  0.21058051088E+03  0.21058051088E+03  0.00000000000E+00 0. -1.
         -1   -1    0    0    0  501 -0.00000000000E+00 -0.00000000000E+00 -0.42955715814E+03  0.42955715814E+03  0.00000000000E+00 0.  1.
         23    2    1    2    0    0  0.46739582541E+02  0.72600598282E+02 -0.21659767499E+03  0.25065080875E+03  0.91955639677E+02 0.  0.
         23    2    1    2    0    0  0.85484276313E+02 -0.16547739401E+03  0.60023411331E+02  0.21627223758E+03  0.92089855119E+02 0.  0.
        -11    1    3    3    0    0  0.67870472583E+02  0.70341517238E+02 -0.20331200999E+03  0.22558834966E+03  0.00000000000E+00 0. -1.
         11    1    3    3    0    0 -0.21130890042E+02  0.22590810436E+01 -0.13285665002E+02  0.25062459091E+02  0.00000000000E+00 0.  1.
        -11    1    4    4    0    0  0.55562351213E+02 -0.15869889927E+03  0.25467525227E+02  0.17006207791E+03  0.00000000000E+00 0.  1.
         11    1    4    4    0    0  0.29921925101E+02 -0.67784947424E+01  0.34555886104E+02  0.46210159675E+02  0.00000000000E+00 0. -1.
         -1    1    1    2    0  502 -0.13222385885E+03  0.92876795728E+02 -0.62402383600E+02  0.17321462269E+03  0.00000000000E+00 0.  1.
<scales pt_clust_5="13000.00000" pt_clust_6="13000.00000" pt_clust_7="13000.00000" pt_clust_8="13000.00000" pt_clust_9="171.70155"></scales>
<clustering>
<clus scale="   91.956">  5  6 -1 -1</clus>
<clus scale="   92.090">  7  8 -1 -1</clus>
<clus scale="  126.140">  2  5  1 -1</clus>
<clus scale="  171.702">  1  9  2 -1</clus>
<clus scale="  171.702">  1  5  2 -1</clus>
</clustering>
</event>
<event>
 9    1  0.1504846E-005  0.1065289E+03  0.7546771E-02  0.1269634E+00
         21   -1    0    0  501  502  0.00000000000E+00  0.00000000000E+00  0.54249861688E+03  0.54249861688E+03  0.00000000000E+00 0.  1.
          1   -1    0    0  502    0 -0.00000000000E+00 -0.00000000000E+00 -0.44008105752E+02  0.44008105752E+02  0.00000000000E+00 0. -1.
         23    2    1    2    0    0 -0.19714077070E+02 -0.45449608504E+02  0.66263327900E+02  0.12877570222E+03  0.98681513518E+02 0.  0.
         23    2    1    2    0    0  0.21961996251E+02  0.12048031806E+02  0.18913032847E+03  0.21233990553E+03  0.93222690298E+02 0.  0.
        -11    1    3    3    0    0 -0.54276183008E+02 -0.30429232871E+02  0.66524649223E+02  0.91089907286E+02  0.00000000000E+00 0. -1.
         11    1    3    3    0    0  0.34562105938E+02 -0.15020375633E+02 -0.26132132353E+00  0.37685794935E+02  0.00000000000E+00 0.  1.
        -13    1    4    4    0    0 -0.48581169795E+01  0.26824315209E+02  0.76770985192E+01  0.28321070402E+02  0.00000000000E+00 0. -1.
         13    1    4    4    0    0  0.26820113230E+02 -0.14776283403E+02  0.18145322995E+03  0.18401883513E+03  0.00000000000E+00 0.  1.
          1    1    1    2  501    0 -0.22479191811E+01  0.33401576698E+02  0.24309685476E+03  0.24539111487E+03  0.00000000000E+00 0. -1.
<scales pt_clust_5="13000.00000" pt_clust_6="13000.00000" pt_clust_7="13000.00000" pt_clust_8="13000.00000" pt_clust_9="33.47713"></scales>
<clustering>
<clus scale="   33.477">  1  9  2 -1</clus>
<clus scale="   93.223">  7  8 -1 -1</clus>
<clus scale="   98.682">  5  6 -1 -1</clus>
<clus scale="  101.493">  1  7  2 -1</clus>
<clus scale="   33.477">  1  5  2 -1</clus>
</clustering>
</event>
<event>
 9    1  0.1504846E-005  0.1029004E+03  0.7546771E-02  0.1278651E+00
         21   -1    0    0  501  502  0.00000000000E+00  0.00000000000E+00  0.17199283709E+03  0.17199283709E+03  0.00000000000E+00 0. -1.
          1   -1    0    0  502    0 -0.00000000000E+00 -0.00000000000E+00 -0.13358925722E+03  0.13358925722E+03  0.00000000000E+00 0. -1.
         23    2    1    2    0    0 -0.46072855085E+01  0.18553432757E+02 -0.60063465371E+02  0.11750984497E+03  0.99174023044E+02 0.  0.
         23    2    1    2    0    0  0.50860833660E+02 -0.36958488930E+02  0.64093617746E+02  0.12757704848E+03  0.90637504143E+02 0.  0.
        -13    1    4    4    0    0  0.18019035615E+01 -0.32571258080E+02  0.70717687384E+02  0.77878912539E+02  0.00000000000E+00 0. -1.
         13    1    4    4    0    0  0.49058930099E+02 -0.43872308498E+01 -0.66240696378E+01  0.49698135936E+02  0.00000000000E+00 0.  1.
        -13    1    3    3    0    0  0.26305373286E+02  0.31127131255E+02 -0.71444318441E+02  0.82250602438E+02  0.00000000000E+00 0. -1.
         13    1    3    3    0    0 -0.30912658794E+02 -0.12573698498E+02  0.11380853070E+02  0.35259242536E+02  0.00000000000E+00 0.  1.
          1    1    1    2  501    0 -0.46253548152E+02  0.18405056172E+02  0.34373427494E+02  0.60495200859E+02  0.00000000000E+00 0. -1.
<scales pt_clust_5="13000.00000" pt_clust_6="13000.00000" pt_clust_7="13000.00000" pt_clust_8="13000.00000" pt_clust_9="49.78089"></scales>
<clustering>
<clus scale="   49.781">  1  9  2 -1</clus>
<clus scale="   90.638">  5  6 -1 -1</clus>
<clus scale="   94.700">  1  5  2 -1</clus>
<clus scale="   99.174">  7  8 -1 -1</clus>
<clus scale="   49.781">  1  5  2 -1</clus>
</clustering>
</event>
<event>
 9    1  0.1504846E-005  0.1095855E+03  0.7546771E-02  0.1261947E+00
         21   -1    0    0  501  502  0.00000000000E+00  0.00000000000E+00  0.12631592294E+03  0.12631592294E+03  0.00000000000E+00 0.  1.
          3   -1    0    0  502    0 -0.00000000000E+00 -0.00000000000E+00 -0.20854450718E+03  0.20854450718E+03  0.00000000000E+00 0. -1.
         23    2    1    2    0    0 -0.39248795274E+02 -0.32768734942E+02 -0.14118272319E+03  0.17673184797E+03  0.93205830495E+02 0.  0.
         23    2    1    2    0    0  0.55072259423E+02  0.47312307000E+02  0.31804507915E+02  0.12350200319E+03  0.94709080434E+02 0.  0.
        -11    1    3    3    0    0 -0.52907586377E+02  0.14244923864E+01 -0.32801804746E+02  0.62267168471E+02  0.00000000000E+00 0.  1.
         11    1    3    3    0    0  0.13658791102E+02 -0.34193227328E+02 -0.10838091844E+03  0.11446467950E+03  0.00000000000E+00 0. -1.
        -13    1    4    4    0    0  0.52354289106E+02  0.11617997576E+02 -0.22747844964E+02  0.58253016283E+02  0.00000000000E+00 0. -1.
         13    1    4    4    0    0  0.27179703171E+01  0.35694309424E+02  0.54552352879E+02  0.65248986908E+02  0.00000000000E+00 0.  1.
          3    1    1    2  501    0 -0.15823464149E+02 -0.14543572058E+02  0.27149631033E+02  0.34626578970E+02  0.00000000000E+00 0. -1.
<scales pt_clust_5="13000.00000" pt_clust_6="13000.00000" pt_clust_7="13000.00000" pt_clust_8="13000.00000" pt_clust_9="21.49180"></scales>
<clustering>
<clus scale="   21.492">  1  9  2 -1</clus>
<clus scale="   93.206">  5  6 -1 -1</clus>
<clus scale="   94.709">  7  8 -1 -1</clus>
<clus scale="  108.289">  2  5  1 -1</clus>
<clus scale="   21.492">  1  5  2 -1</clus>
</clustering>
</event>
<event>
 9    1  0.1504846E-005  0.9441372E+02  0.7546771E-02  0.1294099E+00
          3   -1    0    0  502    0 -0.00000000000E+00  0.00000000000E+00  0.25279980106E+03  0.25279980106E+03  0.00000000000E+00 0. -1.
         21   -1    0    0  501  502  0.00000000000E+00 -0.00000000000E+00 -0.45071561664E+02  0.45071561664E+02  0.00000000000E+00 0.  1.
         23    2    1    2    0    0  0.23555821031E+02 -0.77403010270E+01  0.13425809492E+03  0.16512344689E+03  0.92874795815E+02 0.  0.
         23    2    1    2    0    0 -0.42837123752E+01  0.13612264587E+01  0.57853298808E+02  0.10713556270E+03  0.90060099281E+02 0.  0.
        -13    1    4    4    0    0 -0.30312702512E+02 -0.32759730213E+02  0.42287988121E+02  0.61484419136E+02  0.00000000000E+00 0.  1.
         13    1    4    4    0    0  0.26028990137E+02  0.34120956672E+02  0.15565310687E+02  0.45651143562E+02  0.00000000000E+00 0. -1.
        -13    1    3    3    0    0 -0.18197042368E+02  0.27262356991E+02  0.19630733434E+02  0.38206467447E+02  0.00000000000E+00 0.  1.
         13    1    3    3    0    0  0.41752863399E+02 -0.35002658018E+02  0.11462736149E+03  0.12691697944E+03  0.00000000000E+00 0. -1.
          3    1    1    2  501    0 -0.19272108656E+02  0.63790745683E+01  0.15616845669E+02  0.25612353134E+02  0.00000000000E+00 0. -1.
<scales pt_clust_5="13000.00000" pt_clust_6="13000.00000" pt_clust_7="13000.00000" pt_clust_8="13000.00000" pt_clust_9="20.30041"></scales>
<clustering>
<clus scale="   20.300">  2  9  1 -1</clus>
<clus scale="   90.060">  5  6 -1 -1</clus>
<clus scale="   91.646">  2  5  1 -1</clus>
<clus scale="   92.875">  7  8 -1 -1</clus>
<clus scale="   20.300">  2  5  1 -1</clus>
</clustering>
</event>
<event>
 9    1  0.1504846E-005  0.9959417E+02  0.7546771E-02  0.1286145E+00
          1   -1    0    0  502    0 -0.00000000000E+00  0.00000000000E+00  0.10452863228E+03  0.10452863228E+03  0.00000000000E+00 0. -1.
         21   -1    0    0  501  502  0.00000000000E+00 -0.00000000000E+00 -0.16002433075E+03  0.16002433075E+03  0.00000000000E+00 0.  1.
         23    2    1    2    0    0 -0.18309881761E+02 -0.14635342094E+02  0.33261260283E+02  0.10649191868E+03  0.98411240716E+02 0.  0.
         23    2    1    2    0    0 -0.17575449713E+02  0.73611854054E+01 -0.77440363398E+02  0.11973695662E+03  0.89313187231E+02 0.  0.
        -11    1    4    4    0    0  0.29505288367E+02  0.23624438023E+01 -0.64011673688E+02  0.70524021090E+02  0.00000000000E+00 0.  1.
         11    1    4    4    0    0 -0.47080738080E+02  0.49987416030E+01 -0.13428689709E+02  0.49212935526E+02  0.00000000000E+00 0. -1.
        -13    1    3    3    0    0 -0.44761373648E+02 -0.38335148606E+02  0.38782573382E+02  0.70549643426E+02  0.00000000000E+00 0. -1.
         13    1    3    3    0    0  0.26451491888E+02  0.23699806512E+02 -0.55213130984E+01  0.35942275249E+02  0.00000000000E+00 0.  1.
          1    1    1    2  501    0  0.35885331474E+02  0.72741566887E+01 -0.11316595350E+02  0.38324087737E+02  0.00000000000E+00 0. -1.
<scales pt_clust_5="13000.00000" pt_clust_6="13000.00000" pt_clust_7="13000.00000" pt_clust_8="13000.00000" pt_clust_9="36.61517"></scales>
<clustering>
<clus scale="   36.615">  2  9  1 -1</clus>
<clus scale="   89.313">  5  6 -1 -1</clus>
<clus scale="   90.615">  2  5  1 -1</clus>
<clus scale="   98.411">  7  8 -1 -1</clus>
<clus scale="   36.615">  2  5  1 -1</clus>
</clustering>
</event>
<event>
 9    1  0.1504846E-005  0.9234680E+02  0.7546771E-02  0.1297615E+00
         -1   -1    0    0    0  501 -0.00000000000E+00  0.00000000000E+00  0.33360919565E+03  0.33360919565E+03  0.00000000000E+00 0.  1.
         21   -1    0    0  501  502  0.00000000000E+00 -0.00000000000E+00 -0.42805948068E+02  0.42805948068E+02  0.00000000000E+00 0. -1.
         23    2    1    2    0    0 -0.17419993897E+01  0.12752035324E+01  0.16046076053E+03  0.18485542950E+03  0.91756271935E+02 0.  0.
         23    2    1    2    0    0 -0.15563739440E+02 -0.16871830659E+02  0.13805434911E+03  0.16701962070E+03  0.91157346034E+02 0.  0.
        -11    1    3    3    0    0 -0.36934441526E+02 -0.26582209781E+02  0.64728033306E+02  0.79123227584E+02  0.00000000000E+00 0. -1.
         11    1    3    3    0    0  0.35192442136E+02  0.27857413313E+02  0.95732727220E+02  0.10573220191E+03  0.00000000000E+00 0.  1.
        -13    1    4    4    0    0 -0.12184168978E+02  0.31146884151E+02  0.18687473400E+02  0.38311930623E+02  0.00000000000E+00 0.  1.
         13    1    4    4    0    0 -0.33795704619E+01 -0.48018714811E+02  0.11936687571E+03  0.12870769008E+03  0.00000000000E+00 0. -1.
         -1    1    1    2    0  502  0.17305738829E+02  0.15596627127E+02 -0.77118620459E+01  0.24540093528E+02  0.00000000000E+00 0.  1.
<scales pt_clust_5="13000.00000" pt_clust_6="13000.00000" pt_clust_7="13000.00000" pt_clust_8="13000.00000" pt_clust_9="23.29685"></scales>
<clustering>
<clus scale="   23.297">  2  9  1 -1</clus>
<clus scale="   91.157">  7  8 -1 -1</clus>
<clus scale="   91.752">  2  7  1 -1</clus>
<clus scale="   91.756">  5  6 -1 -1</clus>
<clus scale="   23.297">  2  5  1 -1</clus>
</clustering>
</event>
<event>
 9    1  0.1504846E-005  0.1384728E+03  0.7546771E-02  0.1215812E+00
          1   -1    0    0  502    0 -0.00000000000E+00  0.00000000000E+00  0.48850935201E+03  0.48850935201E+03  0.00000000000E+00 0. -1.
         21   -1    0    0  501  502  0.00000000000E+00 -0.00000000000E+00 -0.52402400014E+03  0.52402400014E+03  0.00000000000E+00 0. -1.
         23    2    1    2    0    0 -0.89309809746E+02  0.67404864059E+02  0.44124145709E+03  0.46378858923E+03  0.88804134081E+02 0.  0.
         23    2    1    2    0    0  0.63021234499E+02  0.31247941890E+02 -0.82088365691E+02  0.14108548125E+03  0.90655961564E+02 0.  0.
        -11    1    4    4    0    0  0.14218790745E+02 -0.31205248898E+02 -0.15787558524E+02  0.37751669807E+02  0.00000000000E+00 0.  1.
         11    1    4    4    0    0  0.48802443754E+02  0.62453190788E+02 -0.66300807167E+02  0.10333381144E+03  0.00000000000E+00 0. -1.
        -13    1    3    3    0    0 -0.25278267179E+01  0.55007821499E+02  0.16106183762E+03  0.17021505771E+03  0.00000000000E+00 0.  1.
         13    1    3    3    0    0 -0.86781983028E+02  0.12397042559E+02  0.28017961946E+03  0.29357353151E+03  0.00000000000E+00 0. -1.
          1    1    1    2  501    0  0.26288575247E+02 -0.98652805949E+02 -0.39466773953E+03  0.40765928167E+03  0.00000000000E+00 0. -1.
<scales pt_clust_5="13000.00000" pt_clust_6="13000.00000" pt_clust_7="13000.00000" pt_clust_8="13000.00000" pt_clust_9="102.09537"></scales>
<clustering>
<clus scale="   88.804">  7  8 -1 -1</clus>
<clus scale="   90.656">  5  6 -1 -1</clus>
<clus scale="  102.095">  2  9  1 -1</clus>
<clus scale="  137.268">  1  7  2 -1</clus>
<clus scale="  102.095">  2  5  1 -1</clus>
</clustering>
</event>
<event>
 9    1  0.1504846E-005  0.1030687E+03  0.7546771E-02  0.1275975E+00
          2   -1    0    0  502    0 -0.00000000000E+00  0.00000000000E+00  0.28072471593E+03  0.28072471593E+03  0.00000000000E+00 0. -1.
         21   -1    0    0  501  502  0.00000000000E+00 -0.00000000000E+00 -0.20359693335E+03  0.20359693335E+03  0.00000000000E+00 0. -1.
         23    2    1    2    0    0  0.86554558638E+01 -0.37571526412E+02  0.20911180867E+03  0.23180617487E+03  0.92302858390E+02 0.  0.
         23    2    1    2    0    0  0.23230143380E+02  0.30718954426E+02  0.12295762869E+02  0.10459554106E+03  0.96466303455E+02 0.  0.
        -11    1    4    4    0    0  0.42256272346E+02  0.23559675156E+02 -0.30517546796E+02  0.57201149538E+02  0.00000000000E+00 0.  1.
         11    1    4    4    0    0 -0.19026128966E+02  0.71592792695E+01  0.42813309665E+02  0.47394391520E+02  0.00000000000E+00 0. -1.
        -13    1    3    3    0    0 -0.15036496057E+02  0.16420818535E+02  0.10480590230E+02  0.24608581158E+02  0.00000000000E+00 0.  1.
         13    1    3    3    0    0  0.23691951921E+02 -0.53992344947E+02  0.19863121844E+03  0.20719759371E+03  0.00000000000E+00 0. -1.
          2    1    1    2  501    0 -0.31885599244E+02  0.68525719864E+01 -0.14427978896E+03  0.14791993335E+03  0.00000000000E+00 0. -1.
<scales pt_clust_5="13000.00000" pt_clust_6="13000.00000" pt_clust_7="13000.00000" pt_clust_8="13000.00000" pt_clust_9="32.61363"></scales>
<clustering>
<clus scale="   32.614">  2  9  1 -1</clus>
<clus scale="   92.303">  7  8 -1 -1</clus>
<clus scale="   96.466">  5  6 -1 -1</clus>
<clus scale="   99.183">  1  7  2 -1</clus>
<clus scale="   32.614">  2  5  1 -1</clus>
</clustering>
</event>
<event>
 9    1  0.1504846E-005  0.1267801E+03  0.7546771E-02  0.1232841E+00
          1   -1    0    0  502    0 -0.00000000000E+00  0.00000000000E+00  0.53617686761E+03  0.53617686761E+03  0.00000000000E+00 0. -1.
         21   -1    0    0  501  502  0.00000000000E+00 -0.00000000000E+00 -0.67241732910E+02  0.67241732910E+02  0.00000000000E+00 0.  1.
         23    2    1    2    0    0  0.21574697379E+02  0.76514666883E+02  0.32883960599E+03  0.35068098465E+03  0.92313079871E+02 0.  0.
         23    2    1    2    0    0  0.14890611059E+02 -0.11341996577E+03  0.13807489922E+03  0.20081649542E+03  0.90425483712E+02 0.  0.
        -11    1    4    4    0    0  0.19430791078E+02 -0.92607327285E+02  0.43988528469E+02  0.10434875824E+03  0.00000000000E+00 0.  1.
         11    1    4    4    0    0 -0.45401800185E+01 -0.20812638481E+02  0.94086370754E+02  0.96467737181E+02  0.00000000000E+00 0. -1.
        -13    1    3    3    0    0 -0.34649439813E+02  0.13017783847E+02  0.99388935224E+02  0.10605756371E+03  0.00000000000E+00 0.  1.
         13    1    3    3    0    0  0.56224137192E+02  0.63496883036E+02  0.22945067077E+03  0.24462342094E+03  0.00000000000E+00 0. -1.
          1    1    1    2  501    0 -0.36465308438E+02  0.36905298883E+02  0.20206294875E+01  0.51921120449E+02  0.00000000000E+00 0. -1.
<scales pt_clust_5="13000.00000" pt_clust_6="13000.00000" pt_clust_7="13000.00000" pt_clust_8="13000.00000" pt_clust_9="51.88179"></scales>
<clustering>
<clus scale="   51.882">  2  9  1 -1</clus>
<clus scale="   90.425">  5  6 -1 -1</clus>
<clus scale="   92.313">  7  8 -1 -1</clus>
<clus scale="  125.412">  2  5  1 -1</clus>
<clus scale="   51.882">  2  5  1 -1</clus>
</clustering>
</event>
<event>
 9    1  0.1504846E-005  0.9394782E+02  0.7546771E-02  0.1294542E+00
         21   -1    0    0  501  502  0.00000000000E+00  0.00000000000E+00  0.39277685747E+02  0.39277685747E+02  0.00000000000E+00 0.  1.
          1   -1    0    0  502    0 -0.00000000000E+00 -0.00000000000E+00 -0.29704478581E+03  0.29704478581E+03  0.00000000000E+00 0. -1.
         23    2    1    2    0    0 -0.14559497149E+02  0.33095780314E+01 -0.13330481159E+03  0.16135467247E+03  0.89678454883E+02 0.  0.
         23    2    1    2    0    0  0.33029794887E+02  0.77857805388E+01 -0.82239039334E+02  0.12756461725E+03  0.91421475898E+02 0.  0.
        -11    1    3    3    0    0 -0.33540159908E+02  0.23325392460E+02 -0.12651407251E+03  0.13294670663E+03  0.00000000000E+00 0. -1.
         11    1    3    3    0    0  0.18980662759E+02 -0.20015814428E+02 -0.67907390810E+01  0.28407965841E+02  0.00000000000E+00 0.  1.
        -11    1    4    4    0    0 -0.13873143567E+02  0.38676085323E+02 -0.39434385845E+02  0.56950631913E+02  0.00000000000E+00 0. -1.
         11    1    4    4    0    0  0.46902938454E+02 -0.30890304784E+02 -0.42804653489E+02  0.70613985340E+02  0.00000000000E+00 0.  1.
          1    1    1    2  501    0 -0.18470297738E+02 -0.11095358570E+02 -0.42223249145E+02  0.47403181842E+02  0.00000000000E+00 0. -1.
<scales pt_clust_5="13000.00000" pt_clust_6="13000.00000" pt_clust_7="13000.00000" pt_clust_8="13000.00000" pt_clust_9="21.54668"></scales>
<clustering>
<clus scale="   21.547">  1  9  2 -1</clus>
<clus scale="   89.678">  5  6 -1 -1</clus>
<clus scale="   91.421">  7  8 -1 -1</clus>
<clus scale="   92.253">  2  5  1 -1</clus>
<clus scale="   21.547">  1  5  2 -1</clus>
</clustering>
</event>
<event>
 9    1  0.1504846E-005  0.9946372E+02  0.7546771E-02  0.1281954E+00
          2   -1    0    0  502    0 -0.00000000000E+00  0.00000000000E+00  0.24437050768E+03  0.24437050768E+03  0.00000000000E+00 0. -1.
         21   -1    0    0  501  502  0.00000000000E+00 -0.00000000000E+00 -0.54631934547E+02  0.54631934547E+02  0.00000000000E+00 0.  1.
         23    2    1    2    0    0 -0.20537301726E+02  0.21882374402E+02  0.11649681012E+03  0.15140076672E+03  0.91924242314E+02 0.  0.
         23    2    1    2    0    0  0.42059757794E+02 -0.30924335658E+02  0.60865352220E+02  0.12117917141E+03  0.90854073769E+02 0.  0.
        -11    1    4    4    0    0 -0.24823538484E+02 -0.27992470696E+02  0.16669754279E+02  0.40959335764E+02  0.00000000000E+00 0. -1.
         11    1    4    4    0    0  0.66883296278E+02 -0.29318649615E+01  0.44195597941E+02  0.80219835642E+02  0.00000000000E+00 0.  1.
        -13    1    3    3    0    0 -0.53683719717E+02 -0.24209733266E+01  0.80359942174E+02  0.96672246176E+02  0.00000000000E+00 0. -1.
         13    1    3    3    0    0  0.33146417991E+02  0.24303347729E+02  0.36136867945E+02  0.54728520548E+02  0.00000000000E+00 0.  1.
          2    1    1    2  501    0 -0.21522456068E+02  0.90419612554E+01  0.12376410791E+02  0.26422504094E+02  0.00000000000E+00 0. -1.
<scales pt_clust_5="13000.00000" pt_clust_6="13000.00000" pt_clust_7="13000.00000" pt_clust_8="13000.00000" pt_clust_9="23.34466"></scales>
<clustering>
<clus scale="   23.345">  2  9  1 -1</clus>
<clus scale="   90.854">  5  6 -1 -1</clus>
<clus scale="   91.924">  7  8 -1 -1</clus>
<clus scale="   98.476">  2  5  1 -1</clus>
<clus scale="   23.345">  2  5  1 -1</clus>
</clustering>
</event>
<event>
 9    1  0.1504846E-005  0.2109581E+03  0.7546771E-02  0.1162189E+00
         21   -1    0    0  501  502  0.00000000000E+00  0.00000000000E+00  0.13610037603E+03  0.13610037603E+03  0.00000000000E+00 0. -1.
          1   -1    0    0  502    0 -0.00000000000E+00 -0.00000000000E+00 -0.82220837991E+03  0.82220837991E+03  0.00000000000E+00 0. -1.
         23    2    1    2    0    0 -0.61229487486E+01  0.86110135866E+02 -0.19467972345E+02  0.12876049101E+03  0.93529760485E+02 0.  0.
         23    2    1    2    0    0 -0.16019095553E+03 -0.16347686740E+03 -0.57277130280E+03  0.62349665940E+03  0.91078485781E+02 0.  0.
        -11    1    4    4    0    0 -0.40247959925E+02 -0.73544750419E+02 -0.11872864811E+03  0.14534517699E+03  0.00000000000E+00 0.  1.
         11    1    4    4    0    0 -0.11994299561E+03 -0.89932116982E+02 -0.45404265469E+03  0.47815148242E+03  0.00000000000E+00 0. -1.
        -13    1    3    3    0    0  0.23705410609E+02  0.34170441625E+01 -0.31992661107E+02  0.39964397251E+02  0.00000000000E+00 0.  1.
         13    1    3    3    0    0 -0.29828359357E+02  0.82693091703E+02  0.12524688762E+02  0.88796093754E+02  0.00000000000E+00 0. -1.
          1    1    1    2  501    0  0.16631390428E+03  0.77366731536E+02 -0.93868728740E+02  0.20605160553E+03  0.00000000000E+00 0. -1.
<scales pt_clust_5="13000.00000" pt_clust_6="13000.00000" pt_clust_7="13000.00000" pt_clust_8="13000.00000" pt_clust_9="190.28407"></scales>
<clustering>
<clus scale="   91.078">  5  6 -1 -1</clus>
<clus scale="   93.530">  7  8 -1 -1</clus>
<clus scale="  127.280">  2  7  1 -1</clus>
<clus scale="  190.284">  1  9  2 -1</clus>
<clus scale="  190.284">  1  5  2 -1</clus>
</clustering>
</event>
<event>
 9    1  0.1504846E-005  0.9825048E+02  0.7546771E-02  0.1285601E+00
         21   -1    0    0  501  502  0.00000000000E+00  0.00000000000E+00  0.98004719592E+02  0.98004719592E+02  0.00000000000E+00 0.  1.
          2   -1    0    0  502    0 -0.00000000000E+00 -0.00000000000E+00 -0.32160718044E+03  0.32160718044E+03  0.00000000000E+00 0. -1.
         23    2    1    2    0    0  0.21055623606E+02  0.14260446440E+02 -0.19965848567E+03  0.21991210347E+03  0.88606561466E+02 0.  0.
         23    2    1    2    0    0 -0.60939481653E+02 -0.24146322201E+02 -0.74069078955E+02  0.13488483918E+03  0.91711646382E+02 0.  0.
        -13    1    4    4    0    0 -0.78694230131E+02 -0.37642528952E+02 -0.44734765787E+02  0.98035407440E+02  0.00000000000E+00 0.  1.
         13    1    4    4    0    0  0.17754748478E+02  0.13496206752E+02 -0.29334313167E+02  0.36849431735E+02  0.00000000000E+00 0. -1.
        -13    1    3    3    0    0 -0.14008191984E+00  0.37414759984E+02 -0.31679510942E+02  0.49025251668E+02  0.00000000000E+00 0.  1.
         13    1    3    3    0    0  0.21195705526E+02 -0.23154313544E+02 -0.16797897472E+03  0.17088685180E+03  0.00000000000E+00 0. -1.
          2    1    1    2  501    0  0.39883858047E+02  0.98858757602E+01  0.50125103777E+02  0.64814957386E+02  0.00000000000E+00 0. -1.
<scales pt_clust_5="13000.00000" pt_clust_6="13000.00000" pt_clust_7="13000.00000" pt_clust_8="13000.00000" pt_clust_9="41.09079"></scales>
<clustering>
<clus scale="   41.091">  1  9  2 -1</clus>
<clus scale="   88.607">  7  8 -1 -1</clus>
<clus scale="   91.712">  5  6 -1 -1</clus>
<clus scale="   95.359">  2  7  1 -1</clus>
<clus scale="   41.091">  1  5  2 -1</clus>
</clustering>
</event>
<event>
 9    1  0.1504846E-005  0.1301461E+03  0.7546771E-02  0.1236725E+00
          1   -1    0    0  502    0 -0.00000000000E+00  0.00000000000E+00  0.29013795296E+03  0.29013795296E+03  0.00000000000E+00 0. -1.
         21   -1    0    0  501  502  0.00000000000E+00 -0.00000000000E+00 -0.10086346133E+03  0.10086346133E+03  0.00000000000E+00 0. -1.
         23    2    1    2    0    0 -0.56176133199E+01 -0.56702822039E+02  0.61504784557E+02  0.12347359764E+03  0.90642833058E+02 0.  0.
         23    2    1    2    0    0  0.35266126541E+02 -0.48210321501E+02  0.11358939102E+03  0.15758745379E+03  0.91451194957E+02 0.  0.
        -11    1    4    4    0    0  0.52214896655E+01  0.24513775058E+02  0.88413034498E+01  0.26577392058E+02  0.00000000000E+00 0.  1.
         11    1    4    4    0    0  0.30044636875E+02 -0.72724096559E+02  0.10474808757E+03  0.13101006173E+03  0.00000000000E+00 0. -1.
        -11    1    3    3    0    0  0.25915449661E+02 -0.67656712054E+02  0.50543781128E+02  0.88338638363E+02  0.00000000000E+00 0. -1.
         11    1    3    3    0    0 -0.31533062981E+02  0.10953890015E+02  0.10961003430E+02  0.35134959280E+02  0.00000000000E+00 0.  1.
          1    1    1    2  501    0 -0.29648513221E+02  0.10491314354E+03  0.14180316058E+02  0.10994036287E+03  0.00000000000E+00 0. -1.
<scales pt_clust_5="13000.00000" pt_clust_6="13000.00000" pt_clust_7="13000.00000" pt_clust_8="13000.00000" pt_clust_9="92.59963"></scales>
<clustering>
<clus scale="   90.643">  7  8 -1 -1</clus>
<clus scale="   91.451">  5  6 -1 -1</clus>
<clus scale="  107.065">  1  7  2 -1</clus>
<clus scale="   92.600">  2  9  1 -1</clus>
<clus scale="   92.600">  2  5  1 -1</clus>
</clustering>
</event>
<event>
 9    1  0.1504846E-005  0.1165877E+03  0.7546771E-02  0.1249510E+00
          2   -1    0    0  502    0 -0.00000000000E+00  0.00000000000E+00  0.27890408028E+03  0.27890408028E+03  0.00000000000E+00 0. -1.
         21   -1    0    0  501  502  0.00000000000E+00 -0.00000000000E+00 -0.12781940443E+03  0.12781940443E+03  0.00000000000E+00 0. -1.
         23    2    1    2    0    0 -0.21084122903E+02  0.80398644606E+02  0.11912886926E+03  0.17194139735E+03  0.91998230081E+02 0.  0.
         23    2    1    2    0    0 -0.48230478619E+02 -0.59630704957E+02  0.84515804776E+02  0.14534845437E+03  0.90006954667E+02 0.  0.
        -11    1    3    3    0    0  0.22588149984E+02  0.25878023741E+02  0.89861320714E+02  0.96202669365E+02  0.00000000000E+00 0.  1.
         11    1    3    3    0    0 -0.43672272887E+02  0.54520620865E+02  0.29267548543E+02  0.75738727982E+02  0.00000000000E+00 0. -1.
        -11    1    4    4    0    0  0.25136364118E+02 -0.25152833125E+01  0.18879043609E+02  0.31536990009E+02  0.00000000000E+00 0.  1.
         11    1    4    4    0    0 -0.73366842737E+02 -0.57115421644E+02  0.65636761168E+02  0.11381146436E+03  0.00000000000E+00 0. -1.
          2    1    1    2  501    0  0.69314601521E+02 -0.20767939649E+02 -0.52559998181E+02  0.89433632992E+02  0.00000000000E+00 0. -1.
<scales pt_clust_5="13000.00000" pt_clust_6="13000.00000" pt_clust_7="13000.00000" pt_clust_8="13000.00000" pt_clust_9="72.35898"></scales>
<clustering>
<clus scale="   72.359">  2  9  1 -1</clus>
<clus scale="   90.007">  7  8 -1 -1</clus>
<clus scale="   91.998">  5  6 -1 -1</clus>
<clus scale="  115.023">  2  7  1 -1</clus>
<clus scale="   72.359">  2  5  1 -1</clus>
</clustering>
</event>
<event>
 9    1  0.1504846E-005  0.1047759E+03  0.7546771E-02  0.1271199E+00
          2   -1    0    0  502    0 -0.00000000000E+00  0.00000000000E+00  0.28282709369E+03  0.28282709369E+03  0.00000000000E+00 0. -1.
         21   -1    0    0  501  502  0.00000000000E+00 -0.00000000000E+00 -0.63551482996E+02  0.63551482996E+02  0.00000000000E+00 0.  1.
         23    2    1    2    0    0 -0.36753172453E+02  0.42659349406E+02  0.19413443991E+03  0.22150573193E+03  0.90586934712E+02 0.  0.
         23    2    1    2    0    0  0.23114723616E+02 -0.23602123083E+02  0.26729180504E+02  0.10138440213E+03  0.92048885076E+02 0.  0.
        -11    1    4    4    0    0  0.11226899363E+02 -0.41470128779E+02  0.52505847752E+02  0.67843046058E+02  0.00000000000E+00 0.  1.
         11    1    4    4    0    0  0.11887824254E+02  0.17868005696E+02 -0.25776667248E+02  0.33541356076E+02  0.00000000000E+00 0. -1.
        -11    1    3    3    0    0 -0.50487933100E+02  0.57481877078E+02  0.10385580849E+03  0.12899312593E+03  0.00000000000E+00 0.  1.
         11    1    3    3    0    0  0.13734760647E+02 -0.14822527672E+02  0.90278631424E+02  0.92512605998E+02  0.00000000000E+00 0. -1.
          2    1    1    2  501    0  0.13638448836E+02 -0.19057226323E+02 -0.15880097262E+01  0.23488442619E+02  0.00000000000E+00 0. -1.
<scales pt_clust_5="13000.00000" pt_clust_6="13000.00000" pt_clust_7="13000.00000" pt_clust_8="13000.00000" pt_clust_9="23.43470"></scales>
<clustering>
<clus scale="   23.435">  2  9  1 -1</clus>
<clus scale="   90.587">  7  8 -1 -1</clus>
<clus scale="   92.049">  5  6 -1 -1</clus>
<clus scale="  103.494">  1  7  2 -1</clus>
<clus scale="   23.435">  2  5  1 -1</clus>
</clustering>
</event>
<event>
 9    1  0.1504846E-005  0.1375418E+03  0.7546771E-02  0.1216814E+00
         21   -1    0    0  501  502  0.00000000000E+00  0.00000000000E+00  0.38676768155E+02  0.38676768155E+02  0.00000000000E+00 0. -1.
          1   -1    0    0  502    0 -0.00000000000E+00 -0.00000000000E+00 -0.10104384402E+04  0.10104384402E+04  0.00000000000E+00 0. -1.
         23    2    1    2    0    0 -0.10804574778E+03  0.83113837416E+00 -0.65821953665E+03  0.67335909467E+03  0.92113720740E+02 0.  0.
         23    2    1    2    0    0  0.89625820105E+02 -0.22421088913E+02 -0.32079118225E+03  0.34646501639E+03  0.92712092590E+02 0.  0.
        -11    1    3    3    0    0 -0.35111581045E+02 -0.43578177702E+02 -0.23020249716E+03  0.23690730337E+03  0.00000000000E+00 0.  1.
         11    1    3    3    0    0 -0.72934166734E+02  0.44409316076E+02 -0.42801703949E+03  0.43645179130E+03  0.00000000000E+00 0. -1.
        -13    1    4    4    0    0  0.89054463836E+02 -0.50737950979E+02 -0.24661391344E+03  0.26706452310E+03  0.00000000000E+00 0.  1.
         13    1    4    4    0    0  0.57135626885E+00  0.28316862066E+02 -0.74177268816E+02  0.79400493287E+02  0.00000000000E+00 0. -1.
          1    1    1    2  501    0  0.18419927674E+02  0.21589950539E+02  0.72490468631E+01  0.29291097286E+02  0.00000000000E+00 0. -1.
<scales pt_clust_5="13000.00000" pt_clust_6="13000.00000" pt_clust_7="13000.00000" pt_clust_8="13000.00000" pt_clust_9="28.37992"></scales>
<clustering>
<clus scale="   28.380">  1  9  2 -1</clus>
<clus scale="   92.114">  5  6 -1 -1</clus>
<clus scale="   92.712">  7  8 -1 -1</clus>
<clus scale="  137.139">  2  5  1 -1</clus>
<clus scale="   28.380">  1  5  2 -1</clus>
</clustering>
</event>
<event>
 9    1  0.1504846E-005  0.1267565E+03  0.7546771E-02  0.1234944E+00
         -3   -1    0    0    0  501 -0.00000000000E+00  0.00000000000E+00  0.41226538745E+03  0.41226538745E+03  0.00000000000E+00 0.  1.
         21   -1    0    0  501  502  0.00000000000E+00 -0.00000000000E+00 -0.47134192298E+02  0.47134192298E+02  0.00000000000E+00 0. -1.
         23    2    1    2    0    0  0.72122282814E+02 -0.37814236621E+02  0.18906416870E+03  0.22170056606E+03  0.82306384527E+02 0.  0.
         23    2    1    2    0    0 -0.91894746025E+02  0.30846560542E+02  0.16957424243E+03  0.21575237259E+03  0.91637917573E+02 0.  0.
        -11    1    3    3    0    0  0.20765969455E+02 -0.56704431173E+02  0.87183080223E+02  0.10605426667E+03  0.00000000000E+00 0. -1.
         11    1    3    3    0    0  0.51356313360E+02  0.18890194552E+02  0.10188108848E+03  0.11564629939E+03  0.00000000000E+00 0.  1.
        -11    1    4    4    0    0 -0.18348443024E+02  0.14828028593E+02  0.12720979138E+03  0.12937877266E+03  0.00000000000E+00 0.  1.
         11    1    4    4    0    0 -0.73546303001E+02  0.16018531950E+02  0.42364451052E+02  0.86373599924E+02  0.00000000000E+00 0. -1.
         -3    1    1    2    0  502  0.19772463211E+02  0.69676760790E+01  0.64927840191E+01  0.21946641103E+02  0.00000000000E+00 0.  1.
<scales pt_clust_5="13000.00000" pt_clust_6="13000.00000" pt_clust_7="13000.00000" pt_clust_8="13000.00000" pt_clust_9="20.96423"></scales>
<clustering>
<clus scale="   20.964">  2  9  1 -1</clus>
<clus scale="   82.306">  5  6 -1 -1</clus>
<clus scale="   91.638">  7  8 -1 -1</clus>
<clus scale="  120.183">  1  5  2 -1</clus>
<clus scale="   20.964">  2  5  1 -1</clus>
</clustering>
</event>
<event>
 9    1  0.1504846E-005  0.9364585E+02  0.7546771E-02  0.1295114E+00
         21   -1    0    0  501  502  0.00000000000E+00  0.00000000000E+00  0.20405935574E+03  0.20405935574E+03  0.00000000000E+00 0. -1.
         -1   -1    0    0    0  501 -0.00000000000E+00 -0.00000000000E+00 -0.17881086330E+03  0.17881086330E+03  0.00000000000E+00 0.  1.
         23    2    1    2    0    0 -0.55706474546E+01 -0.20986378694E+01 -0.10964780126E+03  0.14366247978E+03  0.92632777036E+02 0.  0.
         23    2    1    2    0    0  0.11255883930E+02  0.41248922112E+02  0.21463519477E+01  0.10068837706E+03  0.91133824401E+02 0.  0.
        -11    1    4    4    0    0 -0.38395943513E+02  0.30467805010E+02 -0.54387930838E+01  0.49316489033E+02  0.00000000000E+00 0.  1.
         11    1    4    4    0    0  0.49651827442E+02  0.10781117102E+02  0.75851450315E+01  0.51371888027E+02  0.00000000000E+00 0. -1.
        -13    1    3    3    0    0 -0.47020735518E+02  0.12368360664E+02 -0.51824806407E+02  0.71061497826E+02  0.00000000000E+00 0.  1.
         13    1    3    3    0    0  0.41450088063E+02 -0.14466998533E+02 -0.57822994853E+02  0.72600981954E+02  0.00000000000E+00 0. -1.
         -1    1    1    2    0  502 -0.56852364751E+01 -0.39150284242E+02  0.13274994175E+03  0.13851936220E+03  0.00000000000E+00 0.  1.
<scales pt_clust_5="13000.00000" pt_clust_6="13000.00000" pt_clust_7="13000.00000" pt_clust_8="13000.00000" pt_clust_9="39.56092"></scales>
<clustering>
<clus scale="   39.561">  1  9  2 -1</clus>
<clus scale="   91.134">  5  6 -1 -1</clus>
<clus scale="   92.163">  1  5  2 -1</clus>
<clus scale="   92.633">  7  8 -1 -1</clus>
<clus scale="   39.561">  1  5  2 -1</clus>
</clustering>
</event>
<event>
 9    1  0.1504846E-005  0.1127126E+03  0.7546771E-02  0.1256816E+00
         21   -1    0    0  501  502  0.00000000000E+00  0.00000000000E+00  0.24888694342E+03  0.24888694342E+03  0.00000000000E+00 0. -1.
          1   -1    0    0  502    0 -0.00000000000E+00 -0.00000000000E+00 -0.23412586375E+03  0.23412586375E+03  0.00000000000E+00 0. -1.
         23    2    1    2    0    0 -0.65987246622E+02 -0.15808970923E+02 -0.19121077211E+03  0.22149656573E+03  0.88853412884E+02 0.  0.
         23    2    1    2    0    0  0.34224530653E+02  0.39756780669E+02  0.90410185397E+02  0.13929976770E+03  0.92078789904E+02 0.  0.
        -13    1    4    4    0    0  0.61050516303E+02  0.18200151532E+02  0.31485320228E+02  0.71061497638E+02  0.00000000000E+00 0.  1.
         13    1    4    4    0    0 -0.26825985650E+02  0.21556629137E+02  0.58924865169E+02  0.68238270062E+02  0.00000000000E+00 0. -1.
        -13    1    3    3    0    0 -0.13211616312E+02 -0.33373619086E+02 -0.14441275686E+03  0.14880655094E+03  0.00000000000E+00 0. -1.
         13    1    3    3    0    0 -0.52775630310E+02  0.17564648163E+02 -0.46798015242E+02  0.72690014791E+02  0.00000000000E+00 0.  1.
          1    1    1    2  501    0  0.31762715969E+02 -0.23947809746E+02  0.11556166638E+03  0.12221647374E+03  0.00000000000E+00 0. -1.
<scales pt_clust_5="13000.00000" pt_clust_6="13000.00000" pt_clust_7="13000.00000" pt_clust_8="13000.00000" pt_clust_9="39.77899"></scales>
<clustering>
<clus scale="   39.779">  1  9  2 -1</clus>
<clus scale="   88.853">  7  8 -1 -1</clus>
<clus scale="   92.079">  5  6 -1 -1</clus>
<clus scale="  110.093">  2  7  1 -1</clus>
<clus scale="   39.779">  1  5  2 -1</clus>
</clustering>
</event>
<event>
 9    1  0.1504846E-005  0.1194504E+03  0.7546771E-02  0.1245925E+00
         21   -1    0    0  501  502  0.00000000000E+00  0.00000000000E+00  0.11688613948E+03  0.11688613948E+03  0.00000000000E+00 0.  1.
          1   -1    0    0  502    0 -0.00000000000E+00 -0.00000000000E+00 -0.18182088733E+03  0.18182088733E+03  0.00000000000E+00 0. -1.
         23    2    1    2    0    0 -0.72732863034E+02 -0.12703430267E+02 -0.86155368098E+02  0.14666811456E+03  0.92937300755E+02 0.  0.
         23    2    1    2    0    0  0.80180101742E+02 -0.16730743693E+02  0.22642443173E+02  0.12164395311E+03  0.87039098082E+02 0.  0.
        -11    1    4    4    0    0  0.42329155796E+02  0.77503967354E+01  0.52267114222E+02  0.67702860420E+02  0.00000000000E+00 0.  1.
         11    1    4    4    0    0  0.37850945946E+02 -0.24481140428E+02 -0.29624671048E+02  0.53941092688E+02  0.00000000000E+00 0. -1.
        -13    1    3    3    0    0 -0.63689753557E+02  0.33244472414E+02 -0.53557034957E+02  0.89609908200E+02  0.00000000000E+00 0. -1.
         13    1    3    3    0    0 -0.90431094768E+01 -0.45947902681E+02 -0.32598333142E+02  0.57058206363E+02  0.00000000000E+00 0.  1.
          1    1    1    2  501    0 -0.74472387085E+01  0.29434173960E+02 -0.14218229242E+01  0.30394959146E+02  0.00000000000E+00 0. -1.
<scales pt_clust_5="13000.00000" pt_clust_6="13000.00000" pt_clust_7="13000.00000" pt_clust_8="13000.00000" pt_clust_9="30.36169"></scales>
<clustering>
<clus scale="   30.362">  1  9  2 -1</clus>
<clus scale="   87.039">  5  6 -1 -1</clus>
<clus scale="   92.937">  7  8 -1 -1</clus>
<clus scale="  114.921">  1  5  2 -1</clus>
<clus scale="   30.362">  1  5  2 -1</clus>
</clustering>
</event>
<event>
 9    1  0.1504846E-005  0.3284833E+03  0.7546771E-02  0.1071889E+00
          1   -1    0    0  502    0 -0.00000000000E+00  0.00000000000E+00  0.23535807550E+04  0.23535807550E+04  0.00000000000E+00 0. -1.
         21   -1    0    0  501  502  0.00000000000E+00 -0.00000000000E+00 -0.57467254105E+02  0.57467254105E+02  0.00000000000E+00 0.  1.
         23    2    1    2    0    0 -0.31890593914E+03  0.93977429332E+02  0.13408939892E+04  0.13844476803E+04  0.90365557333E+02 0.  0.
         23    2    1    2    0    0  0.29040671579E+03 -0.61917054557E+02  0.92122491570E+03  0.97186728651E+03  0.87754743832E+02 0.  0.
        -11    1    3    3    0    0 -0.10572709025E+03  0.73270724069E+02  0.43806914025E+03  0.45656476896E+03  0.00000000000E+00 0.  1.
         11    1    3    3    0    0 -0.21317884889E+03  0.20706705263E+02  0.90282484895E+03  0.92788291133E+03  0.00000000000E+00 0. -1.
        -13    1    4    4    0    0  0.55881805468E+02 -0.36133648022E+02  0.30132064448E+03  0.30858150867E+03  0.00000000000E+00 0. -1.
         13    1    4    4    0    0  0.23452491032E+03 -0.25783406534E+02  0.61990427122E+03  0.66328577784E+03  0.00000000000E+00 0.  1.
          1    1    1    2  501    0  0.28499223350E+02 -0.32060374775E+02  0.33994595984E+02  0.54733042290E+02  0.00000000000E+00 0. -1.
<scales pt_clust_5="13000.00000" pt_clust_6="13000.00000" pt_clust_7="13000.00000" pt_clust_8="13000.00000" pt_clust_9="42.89608"></scales>
<clustering>
<clus scale="   42.896">  2  9  1 -1</clus>
<clus scale="   87.755">  7  8 -1 -1</clus>
<clus scale="   90.366">  5  6 -1 -1</clus>
<clus scale="  327.775">  2  7  1 -1</clus>
<clus scale="   42.896">  2  5  1 -1</clus>
</clustering>
</event>
<event>
 9    1  0.1504846E-005  0.1712821E+03  0.7546771E-02  0.1192822E+00
         -2   -1    0    0    0  501 -0.00000000000E+00  0.00000000000E+00  0.34319603047E+03  0.34319603047E+03  0.00000000000E+00 0.  1.
         21   -1    0    0  501  502  0.00000000000E+00 -0.00000000000E+00 -0.22218672236E+03  0.22218672236E+03  0.00000000000E+00 0. -1.
         23    2    1    2    0    0  0.39661999580E+02 -0.65912245780E+02 -0.92514807766E+02  0.15078986225E+03  0.90890563582E+02 0.  0.
         23    2    1    2    0    0 -0.54855014422E+02  0.19256116318E+03  0.17798296003E+03  0.28217706924E+03  0.88640228848E+02 0.  0.
        -11    1    4    4    0    0 -0.74398404601E+01  0.87643158511E+02  0.13107783786E+03  0.15785459777E+03  0.00000000000E+00 0.  1.
         11    1    4    4    0    0 -0.47415173962E+02  0.10491800467E+03  0.46905122172E+02  0.12432247147E+03  0.00000000000E+00 0. -1.
        -11    1    3    3    0    0  0.75464572970E+01 -0.79023728682E+02 -0.42849451634E+02  0.90209612669E+02  0.00000000000E+00 0. -1.
         11    1    3    3    0    0  0.32115542283E+02  0.13111482903E+02 -0.49665356132E+02  0.60580249585E+02  0.00000000000E+00 0.  1.
         -2    1    1    2    0  502  0.15193014842E+02 -0.12664891740E+03  0.35541155845E+02  0.13241582133E+03  0.00000000000E+00 0.  1.
<scales pt_clust_5="13000.00000" pt_clust_6="13000.00000" pt_clust_7="13000.00000" pt_clust_8="13000.00000" pt_clust_9="146.56215"></scales>
<clustering>
<clus scale="   88.640">  5  6 -1 -1</clus>
<clus scale="   90.891">  7  8 -1 -1</clus>
<clus scale="  119.074">  1  7  2 -1</clus>
<clus scale="  146.562">  2  9  1 -1</clus>
<clus scale="  146.562">  2  5  1 -1</clus>
</clustering>
</event>
<event>
 9    1  0.1504846E-005  0.9906542E+02  0.7546771E-02  0.1283784E+00
          3   -1    0    0  502    0 -0.00000000000E+00  0.00000000000E+00  0.75820695515E+02  0.75820695515E+02  0.00000000000E+00 0. -1.
         21   -1    0    0  501  502  0.00000000000E+00 -0.00000000000E+00 -0.38139134469E+03  0.38139134469E+03  0.00000000000E+00 0. -1.
         23    2    1    2    0    0 -0.10016103883E+02  0.24966963717E+02 -0.18429911827E+02  0.93968258969E+02  0.88128885329E+02 0.  0.
         23    2    1    2    0    0  0.71948120073E+02 -0.16197346881E+02 -0.68444908438E+02  0.13577873691E+03  0.91171672558E+02 0.  0.
        -13    1    3    3    0    0  0.23076218533E+02  0.46898409352E+02 -0.13336246829E+02  0.53942822886E+02  0.00000000000E+00 0. -1.
         13    1    3    3    0    0 -0.33092322416E+02 -0.21931445634E+02 -0.50936649984E+01  0.40025436082E+02  0.00000000000E+00 0.  1.
        -13    1    4    4    0    0  0.35326190360E+02 -0.95812644789E+00  0.18735645853E+02  0.39998526938E+02  0.00000000000E+00 0. -1.
         13    1    4    4    0    0  0.36621929712E+02 -0.15239220433E+02 -0.87180554291E+02  0.95780209969E+02  0.00000000000E+00 0.  1.
          3    1    1    2  501    0 -0.61932016190E+02 -0.87696168369E+01 -0.21869582891E+03  0.22746504433E+03  0.00000000000E+00 0. -1.
<scales pt_clust_5="13000.00000" pt_clust_6="13000.00000" pt_clust_7="13000.00000" pt_clust_8="13000.00000" pt_clust_9="62.54983"></scales>
<clustering>
<clus scale="   62.550">  2  9  1 -1</clus>
<clus scale="   88.129">  5  6 -1 -1</clus>
<clus scale="   91.172">  7  8 -1 -1</clus>
<clus scale="   96.272">  1  5  2 -1</clus>
<clus scale="   62.550">  2  5  1 -1</clus>
</clustering>
</event>
<event>
 9    1  0.1504846E-005  0.1621038E+03  0.7546771E-02  0.1186370E+00
         21   -1    0    0  501  502  0.00000000000E+00  0.00000000000E+00  0.14333133028E+03  0.14333133028E+03  0.00000000000E+00 0. -1.
          1   -1    0    0  502    0 -0.00000000000E+00 -0.00000000000E+00 -0.68388177932E+03  0.68388177932E+03  0.00000000000E+00 0. -1.
         23    2    1    2    0    0 -0.10530286120E+03 -0.83185315691E+02 -0.55304611460E+03  0.57633434731E+03  0.91064733547E+02 0.  0.
         23    2    1    2    0    0  0.11917215234E+03  0.63040632458E+02 -0.60672543386E+02  0.17373116156E+03  0.91242729806E+02 0.  0.
        -11    1    3    3    0    0 -0.39163711842E+02 -0.33585594316E+02 -0.74015690504E+02  0.90222563207E+02  0.00000000000E+00 0.  1.
         11    1    3    3    0    0 -0.66139149356E+02 -0.49599721375E+02 -0.47903042409E+03  0.48611178410E+03  0.00000000000E+00 0. -1.
        -13    1    4    4    0    0  0.95523184272E+02  0.80561183136E+02 -0.69522909652E+02  0.14299726546E+03  0.00000000000E+00 0.  1.
         13    1    4    4    0    0  0.23648968064E+02 -0.17520550678E+02  0.88503662656E+01  0.30733896102E+02  0.00000000000E+00 0. -1.
          1    1    1    2  501    0 -0.13869291139E+02  0.20144683233E+02  0.73168208943E+02  0.77147600735E+02  0.00000000000E+00 0. -1.
<scales pt_clust_5="13000.00000" pt_clust_6="13000.00000" pt_clust_7="13000.00000" pt_clust_8="13000.00000" pt_clust_9="24.45742"></scales>
<clustering>
<clus scale="   24.457">  1  9  2 -1</clus>
<clus scale="   91.065">  5  6 -1 -1</clus>
<clus scale="   91.243">  7  8 -1 -1</clus>
<clus scale="  162.004">  2  5  1 -1</clus>
<clus scale="   24.457">  1  5  2 -1</clus>
</clustering>
</event>
<event>
 9    1  0.1504846E-005  0.3071515E+03  0.7546771E-02  0.1112208E+00
         21   -1    0    0  501  502  0.00000000000E+00  0.00000000000E+00  0.39382215925E+03  0.39382215925E+03  0.00000000000E+00 0. -1.
          2   -1    0    0  502    0 -0.00000000000E+00 -0.00000000000E+00 -0.39631927140E+03  0.39631927140E+03  0.00000000000E+00 0. -1.
         23    2    1    2    0    0 -0.99218395464E+02  0.26744633811E+02 -0.56402730637E+02  0.14964182103E+03  0.93015273701E+02 0.  0.
         23    2    1    2    0    0 -0.17418028482E+03  0.15162098144E+03 -0.11448209204E+03  0.27319108516E+03  0.90551233989E+02 0.  0.
        -11    1    4    4    0    0 -0.51357665891E+01  0.42941794012E+02 -0.39870426895E+02  0.58821974740E+02  0.00000000000E+00 0.  1.
         11    1    4    4    0    0 -0.16904451824E+03  0.10867918743E+03 -0.74611665142E+02  0.21436911042E+03  0.00000000000E+00 0. -1.
        -13    1    3    3    0    0 -0.73667474831E+02 -0.51742066682E+01 -0.74527024981E+02  0.10491876246E+03  0.00000000000E+00 0.  1.
         13    1    3    3    0    0 -0.25550920633E+02  0.31918840479E+02  0.18124294344E+02  0.44723058574E+02  0.00000000000E+00 0. -1.
          2    1    1    2  501    0  0.27339868029E+03 -0.17836561525E+03  0.16838771052E+03  0.36730852446E+03  0.00000000000E+00 0. -1.
<scales pt_clust_5="13000.00000" pt_clust_6="13000.00000" pt_clust_7="13000.00000" pt_clust_8="13000.00000" pt_clust_9="293.50043"></scales>
<clustering>
<clus scale="   90.551">  5  6 -1 -1</clus>
<clus scale="   93.015">  7  8 -1 -1</clus>
<clus scale="  138.605">  2  7  1 -1</clus>
<clus scale="  293.500">  1  9  2 -1</clus>
<clus scale="  293.500">  1  5  2 -1</clus>
</clustering>
</event>
<event>
 9    1  0.1504846E-005  0.9362637E+02  0.7546771E-02  0.1294521E+00
          2   -1    0    0  502    0 -0.00000000000E+00  0.00000000000E+00  0.42724152412E+03  0.42724152412E+03  0.00000000000E+00 0. -1.
         21   -1    0    0  501  502  0.00000000000E+00 -0.00000000000E+00 -0.60662788000E+02  0.60662788000E+02  0.00000000000E+00 0. -1.
         23    2    1    2    0    0 -0.27768866659E+02 -0.28300721645E+02  0.26353469489E+03  0.28152334143E+03  0.90734864087E+02 0.  0.
         23    2    1    2    0    0 -0.24848165012E+01 -0.11324552280E+02  0.12228155644E+03  0.15294381442E+03  0.91129641315E+02 0.  0.
        -11    1    4    4    0    0 -0.26555216227E+02 -0.33366265497E+02  0.11016339895E+03  0.11812900428E+03  0.00000000000E+00 0. -1.
         11    1    4    4    0    0  0.24070399725E+02  0.22041713217E+02  0.12118157488E+02  0.34814810145E+02  0.00000000000E+00 0.  1.
        -13    1    3    3    0    0 -0.50728933125E+02  0.98416987390E+01  0.17431261961E+03  0.18181081663E+03  0.00000000000E+00 0.  1.
         13    1    3    3    0    0  0.22960066465E+02 -0.38142420384E+02  0.89222075279E+02  0.99712524800E+02  0.00000000000E+00 0. -1.
          2    1    1    2  501    0  0.30253683161E+02  0.39625273925E+02 -0.19237515210E+02  0.53437156267E+02  0.00000000000E+00 0. -1.
<scales pt_clust_5="13000.00000" pt_clust_6="13000.00000" pt_clust_7="13000.00000" pt_clust_8="13000.00000" pt_clust_9="49.85426"></scales>
<clustering>
<clus scale="   49.854">  2  9  1 -1</clus>
<clus scale="   90.735">  7  8 -1 -1</clus>
<clus scale="   91.130">  5  6 -1 -1</clus>
<clus scale="   93.242">  1  7  2 -1</clus>
<clus scale="   49.854">  2  5  1 -1</clus>
</clustering>
</event>
<event>
 9    1  0.1504846E-005  0.1655454E+03  0.7546771E-02  0.1184606E+00
         -1   -1    0    0    0  501 -0.00000000000E+00  0.00000000000E+00  0.65432874308E+03  0.65432874308E+03  0.00000000000E+00 0.  1.
         21   -1    0    0  501  502  0.00000000000E+00 -0.00000000000E+00 -0.90934727287E+02  0.90934727287E+02  0.00000000000E+00 0. -1.
         23    2    1    2    0    0  0.38704911180E+02 -0.12147531352E+03  0.48709884769E+03  0.51143640917E+03  0.89708367825E+02 0.  0.
         23    2    1    2    0    0 -0.15701766474E+02  0.14841446217E+03  0.44494069712E+02  0.18622273098E+03  0.10210673456E+03 0.  0.
        -13    1    3    3    0    0  0.21052278837E+02 -0.35801987813E+02  0.46968333175E+02  0.62697728004E+02  0.00000000000E+00 0. -1.
         13    1    3    3    0    0  0.17652632343E+02 -0.85673325710E+02  0.44013051451E+03  0.44873868117E+03  0.00000000000E+00 0.  1.
        -13    1    4    4    0    0 -0.35134176876E+02  0.47334651689E+02  0.57651900013E+02  0.82454358347E+02  0.00000000000E+00 0. -1.
         13    1    4    4    0    0  0.19432410402E+02  0.10107981048E+03 -0.13157830301E+02  0.10376837264E+03  0.00000000000E+00 0.  1.
         -1    1    1    2    0  502 -0.23003144706E+02 -0.26939148649E+02  0.31801098390E+02  0.47604330214E+02  0.00000000000E+00 0.  1.
<scales pt_clust_5="13000.00000" pt_clust_6="13000.00000" pt_clust_7="13000.00000" pt_clust_8="13000.00000" pt_clust_9="35.42404"></scales>
<clustering>
<clus scale="   35.424">  2  9  1 -1</clus>
<clus scale="   89.708">  5  6 -1 -1</clus>
<clus scale="  102.107">  7  8 -1 -1</clus>
<clus scale="  158.199">  1  5  2 -1</clus>
<clus scale="   35.424">  2  5  1 -1</clus>
</clustering>
</event>
<event>
 9    1  0.1504846E-005  0.1339423E+03  0.7546771E-02  0.1224022E+00
          2   -1    0    0  502    0 -0.00000000000E+00  0.00000000000E+00  0.58216440988E+03  0.58216440988E+03  0.00000000000E+00 0. -1.
         21   -1    0    0  501  502  0.00000000000E+00 -0.00000000000E+00 -0.73470499306E+02  0.73470499306E+02  0.00000000000E+00 0. -1.
         23    2    1    2    0    0  0.42075241769E+02 -0.85925408071E+02  0.28769148978E+03  0.31590385618E+03  0.88743176274E+02 0.  0.
         23    2    1    2    0    0 -0.37566450960E+01  0.91417054573E+02  0.25516729027E+03  0.28810052581E+03  0.97572417712E+02 0.  0.
        -11    1    4    4    0    0 -0.44356866099E+02  0.33985896544E+02  0.67154267175E+02  0.87362854428E+02  0.00000000000E+00 0.  1.
         11    1    4    4    0    0  0.40600221003E+02  0.57431158029E+02  0.18801302309E+03  0.20073767138E+03  0.00000000000E+00 0. -1.
        -13    1    3    3    0    0 -0.91364529646E+01 -0.57263427266E+02  0.21389887821E+03  0.22161973056E+03  0.00000000000E+00 0.  1.
         13    1    3    3    0    0  0.51211694733E+02 -0.28661980804E+02  0.73792611572E+02  0.94284125619E+02  0.00000000000E+00 0. -1.
          2    1    1    2  501    0 -0.38318596673E+02 -0.54916465025E+01 -0.34164869477E+02  0.51630527197E+02  0.00000000000E+00 0. -1.
<scales pt_clust_5="13000.00000" pt_clust_6="13000.00000" pt_clust_7="13000.00000" pt_clust_8="13000.00000" pt_clust_9="38.71012"></scales>
<clustering>
<clus scale="   38.710">  2  9  1 -1</clus>
<clus scale="   88.743">  7  8 -1 -1</clus>
<clus scale="   97.572">  5  6 -1 -1</clus>
<clus scale="  127.654">  1  7  2 -1</clus>
<clus scale="   38.710">  2  5  1 -1</clus>
</clustering>
</event>
<event>
 9    1  0.1504846E-005  0.1298597E+03  0.7546771E-02  0.1228334E+00
         21   -1    0    0  501  502  0.00000000000E+00  0.00000000000E+00  0.25203207686E+03  0.25203207686E+03  0.00000000000E+00 0. -1.
          1   -1    0    0  502    0 -0.00000000000E+00 -0.00000000000E+00 -0.20759152190E+03  0.20759152190E+03  0.00000000000E+00 0. -1.
         23    2    1    2    0    0 -0.92503367049E+02 -0.27801146541E+02 -0.15203730950E+03  0.20266719527E+03  0.92891721332E+02 0.  0.
         23    2    1    2    0    0  0.60097297743E+02  0.25825995362E+02  0.83342198524E+02  0.13925451966E+03  0.90372739026E+02 0.  0.
        -11    1    4    4    0    0  0.13052161413E+01  0.48278227718E+02  0.30899163910E+02  0.57334537506E+02  0.00000000000E+00 0.  1.
         11    1    4    4    0    0  0.58792081602E+02 -0.22452232356E+02  0.52443034615E+02  0.81919982156E+02  0.00000000000E+00 0. -1.
        -13    1    3    3    0    0 -0.61785854019E+02 -0.11315161651E+02 -0.19722725774E+02  0.65836999871E+02  0.00000000000E+00 0.  1.
         13    1    3    3    0    0 -0.30717513030E+02 -0.16485984890E+02 -0.13231458373E+03  0.13683019540E+03  0.00000000000E+00 0. -1.
          1    1    1    2  501    0  0.32406069306E+02  0.19751511785E+01  0.11313566594E+03  0.11770188383E+03  0.00000000000E+00 0. -1.
<scales pt_clust_5="13000.00000" pt_clust_6="13000.00000" pt_clust_7="13000.00000" pt_clust_8="13000.00000" pt_clust_9="32.46621"></scales>
<clustering>
<clus scale="   32.466">  1  9  2 -1</clus>
<clus scale="   90.373">  5  6 -1 -1</clus>
<clus scale="   92.892">  7  8 -1 -1</clus>
<clus scale="  128.070">  1  5  2 -1</clus>
<clus scale="   32.466">  1  5  2 -1</clus>
</clustering>
</event>
<event>
 9    1  0.1504846E-005  0.1268838E+03  0.7546771E-02  0.1238141E+00
         21   -1    0    0  501  502  0.00000000000E+00  0.00000000000E+00  0.16047017362E+03  0.16047017362E+03  0.00000000000E+00 0.  1.
          1   -1    0    0  502    0 -0.00000000000E+00 -0.00000000000E+00 -0.22590900560E+03  0.22590900560E+03  0.00000000000E+00 0. -1.
         23    2    1    2    0    0  0.47424727857E+02 -0.45002280652E+02 -0.13023267794E+03  0.18172697805E+03  0.10858100235E+03 0.  0.
         23    2    1    2    0    0 -0.71205996721E+02  0.15919875417E+02 -0.13850791104E+02  0.11749536562E+03  0.91047131339E+02 0.  0.
        -11    1    3    3    0    0  0.76073855543E+02 -0.57420136274E+02 -0.93496329258E+02  0.13351354662E+03  0.00000000000E+00 0.  1.
         11    1    3    3    0    0 -0.28649127686E+02  0.12417855623E+02 -0.36736348686E+02  0.48213431430E+02  0.00000000000E+00 0. -1.
        -11    1    4    4    0    0 -0.49434113450E+02  0.50555017828E+02 -0.25161299699E+02  0.75050865436E+02  0.00000000000E+00 0.  1.
         11    1    4    4    0    0 -0.21771883272E+02 -0.34635142411E+02  0.11310508595E+02  0.42444500182E+02  0.00000000000E+00 0. -1.
          1    1    1    2  501    0  0.23781268865E+02  0.29082405235E+02  0.78644637074E+02  0.87156835553E+02  0.00000000000E+00 0. -1.
<scales pt_clust_5="13000.00000" pt_clust_6="13000.00000" pt_clust_7="13000.00000" pt_clust_8="13000.00000" pt_clust_9="37.56774"></scales>
<clustering>
<clus scale="   37.568">  1  9  2 -1</clus>
<clus scale="   91.047">  7  8 -1 -1</clus>
<clus scale="  108.581">  5  6 -1 -1</clus>
<clus scale="  112.246">  1  7  2 -1</clus>
<clus scale="   37.568">  1  5  2 -1</clus>
</clustering>
</event>
<event>
 9    1  0.1504846E-005  0.1205685E+03  0.7546771E-02  0.1242839E+00
         21   -1    0    0  501  502  0.00000000000E+00  0.00000000000E+00  0.32416517017E+02  0.32416517017E+02  0.00000000000E+00 0. -1.
          1   -1    0    0  502    0 -0.00000000000E+00 -0.00000000000E+00 -0.10552511526E+04  0.10552511526E+04  0.00000000000E+00 0. -1.
         23    2    1    2    0    0 -0.51257346267E+02  0.18118973745E+02 -0.36212006424E+03  0.37742040571E+03  0.91430897227E+02 0.  0.
         23    2    1    2    0    0  0.10595692719E+03  0.11938223034E+02 -0.62075156342E+03  0.63613571801E+03  0.89256689717E+02 0.  0.
        -11    1    4    4    0    0  0.60242743873E+02  0.47877943590E+02 -0.42575677727E+03  0.43265496538E+03  0.00000000000E+00 0. -1.
         11    1    4    4    0    0  0.45714183318E+02 -0.35939720557E+02 -0.19499478614E+03  0.20348075264E+03  0.00000000000E+00 0.  1.
        -11    1    3    3    0    0 -0.64682096517E+02 -0.18565568709E+02 -0.22600270999E+03  0.23580856404E+03  0.00000000000E+00 0. -1.
         11    1    3    3    0    0  0.13424750250E+02  0.36684542454E+02 -0.13611735425E+03  0.14161184167E+03  0.00000000000E+00 0.  1.
          1    1    1    2  501    0 -0.54699580925E+02 -0.30057196779E+02 -0.39963007925E+02  0.74111545888E+02  0.00000000000E+00 0. -1.
<scales pt_clust_5="13000.00000" pt_clust_6="13000.00000" pt_clust_7="13000.00000" pt_clust_8="13000.00000" pt_clust_9="62.41377"></scales>
<clustering>
<clus scale="   62.414">  1  9  2 -1</clus>
<clus scale="   89.257">  5  6 -1 -1</clus>
<clus scale="   91.431">  7  8 -1 -1</clus>
<clus scale="  118.928">  1  5  2 -1</clus>
<clus scale="   62.414">  1  5  2 -1</clus>
</clustering>
</event>
<event>
 9    1  0.1504846E-005  0.1533178E+03  0.7546771E-02  0.1197697E+00
          1   -1    0    0  502    0 -0.00000000000E+00  0.00000000000E+00  0.28650198345E+03  0.28650198345E+03  0.00000000000E+00 0. -1.
         21   -1    0    0  501  502  0.00000000000E+00 -0.00000000000E+00 -0.11595851418E+03  0.11595851418E+03  0.00000000000E+00 0. -1.
         23    2    1    2    0    0 -0.11111691353E+03  0.70986531537E+01  0.14348219369E+03  0.20577533144E+03  0.96741861552E+02 0.  0.
         23    2    1    2    0    0  0.13356101841E+03 -0.27383024049E+02  0.30488376765E+02  0.16623950034E+03  0.90098028337E+02 0.  0.
        -11    1    3    3    0    0 -0.46295424138E+02  0.47965430197E+02  0.42684924383E+02  0.79157763736E+02  0.00000000000E+00 0.  1.
         11    1    3    3    0    0 -0.64821489387E+02 -0.40866777044E+02  0.10079726931E+03  0.12661756771E+03  0.00000000000E+00 0. -1.
        -13    1    4    4    0    0  0.36315435021E+02 -0.23657938366E+02 -0.29029341190E+02  0.52165232852E+02  0.00000000000E+00 0.  1.
         13    1    4    4    0    0  0.97245583390E+02 -0.37250856826E+01  0.59517717955E+02  0.11407426749E+03  0.00000000000E+00 0. -1.
          1    1    1    2  501    0 -0.22444104886E+02  0.20284370895E+02 -0.34271011846E+01  0.30445665854E+02  0.00000000000E+00 0. -1.
<scales pt_clust_5="13000.00000" pt_clust_6="13000.00000" pt_clust_7="13000.00000" pt_clust_8="13000.00000" pt_clust_9="30.25217"></scales>
<clustering>
<clus scale="   30.252">  2  9  1 -1</clus>
<clus scale="   90.098">  7  8 -1 -1</clus>
<clus scale="   96.742">  5  6 -1 -1</clus>
<clus scale="  149.215">  2  7  1 -1</clus>
<clus scale="   30.252">  2  5  1 -1</clus>
</clustering>
</event>
<event>
 9    1  0.1504846E-005  0.1013186E+03  0.7546771E-02  0.1278227E+00
          1   -1    0    0  502    0 -0.00000000000E+00  0.00000000000E+00  0.18856655689E+03  0.18856655689E+03  0.00000000000E+00 0. -1.
         21   -1    0    0  501  502  0.00000000000E+00 -0.00000000000E+00 -0.99586673384E+02  0.99586673384E+02  0.00000000000E+00 0. -1.
         23    2    1    2    0    0  0.65701778758E+01  0.46249107160E+02  0.89929993575E+02  0.13792099292E+03  0.93555595205E+02 0.  0.
         23    2    1    2    0    0  0.35765053083E+02 -0.21364386713E+02 -0.26186597720E+00  0.10112017394E+03  0.92139269384E+02 0.  0.
        -11    1    3    3    0    0  0.32046794607E+02 -0.15238176999E+02  0.46318501027E+02  0.58348972743E+02  0.00000000000E+00 0. -1.
         11    1    3    3    0    0 -0.25476616731E+02  0.61487284159E+02  0.43611492548E+02  0.79572020180E+02  0.00000000000E+00 0.  1.
        -11    1    4    4    0    0  0.33862993213E+02  0.29694565520E+02  0.15530313023E+02  0.47640950383E+02  0.00000000000E+00 0.  1.
         11    1    4    4    0    0  0.19020598696E+01 -0.51058952233E+02 -0.15792179000E+02  0.53479223559E+02  0.00000000000E+00 0. -1.
          1    1    1    2  501    0 -0.42335230959E+02 -0.24884720447E+02 -0.68824409372E+00  0.49112063406E+02  0.00000000000E+00 0. -1.
<scales pt_clust_5="13000.00000" pt_clust_6="13000.00000" pt_clust_7="13000.00000" pt_clust_8="13000.00000" pt_clust_9="49.10724"></scales>
<clustering>
<clus scale="   49.107">  2  9  1 -1</clus>
<clus scale="   92.139">  7  8 -1 -1</clus>
<clus scale="   93.556">  5  6 -1 -1</clus>
<clus scale="  100.012">  2  7  1 -1</clus>
<clus scale="   49.107">  2  5  1 -1</clus>
</clustering>
</event>
<event>
 9    1  0.1504846E-005  0.1097917E+03  0.7546771E-02  0.1266257E+00
          2   -1    0    0  502    0 -0.00000000000E+00  0.00000000000E+00  0.26150625054E+03  0.26150625054E+03  0.00000000000E+00 0. -1.
         21   -1    0    0  501  502  0.00000000000E+00 -0.00000000000E+00 -0.84759742148E+02  0.84759742148E+02  0.00000000000E+00 0.  1.
         23    2    1    2    0    0 -0.47411391185E+02  0.97556397346E+01  0.11111231371E+03  0.15897234014E+03  0.10287490535E+03 0.  0.
         23    2    1    2    0    0  0.27048791502E+02  0.29783650109E+02  0.91920193439E+02  0.13563182295E+03  0.91257692829E+02 0.  0.
        -11    1    3    3    0    0 -0.22828012872E+02  0.52880514504E+02  0.32883746854E+02  0.66323508600E+02  0.00000000000E+00 0.  1.
         11    1    3    3    0    0 -0.24583378313E+02 -0.43124874769E+02  0.78228566856E+02  0.92648831539E+02  0.00000000000E+00 0. -1.
        -13    1    4    4    0    0 -0.31837641285E+01 -0.29495204834E+02  0.12966510116E+02  0.32376439687E+02  0.00000000000E+00 0. -1.
         13    1    4    4    0    0  0.30232555630E+02  0.59278854943E+02  0.78953683323E+02  0.10325538327E+03  0.00000000000E+00 0.  1.
          2    1    1    2  501    0  0.20362599683E+02 -0.39539289843E+02 -0.26285998752E+02  0.51661829599E+02  0.00000000000E+00 0. -1.
<scales pt_clust_5="13000.00000" pt_clust_6="13000.00000" pt_clust_7="13000.00000" pt_clust_8="13000.00000" pt_clust_9="44.47461"></scales>
<clustering>
<clus scale="   44.475">  2  9  1 -1</clus>
<clus scale="   91.258">  7  8 -1 -1</clus>
<clus scale="   98.990">  2  7  1 -1</clus>
<clus scale="  102.875">  5  6 -1 -1</clus>
<clus scale="   44.475">  2  5  1 -1</clus>
</clustering>
</event>
<event>
 9    1  0.1504846E-005  0.2518559E+03  0.7546771E-02  0.1112292E+00
          2   -1    0    0  502    0 -0.00000000000E+00  0.00000000000E+00  0.91529591457E+03  0.91529591457E+03  0.00000000000E+00 0. -1.
         21   -1    0    0  501  502  0.00000000000E+00 -0.00000000000E+00 -0.11851514383E+03  0.11851514383E+03  0.00000000000E+00 0.  1.
         23    2    1    2    0    0 -0.90927867315E+02 -0.22065668977E+03  0.71415809653E+03  0.75817169025E+03  0.88573547220E+02 0.  0.
         23    2    1    2    0    0  0.97902273323E+02  0.19659157505E+03  0.76399093747E+02  0.24982260927E+03  0.91331331277E+02 0.  0.
        -11    1    4    4    0    0  0.35275970858E+02  0.65573093466E+02 -0.18020291565E+02  0.76609109216E+02  0.00000000000E+00 0.  1.
         11    1    4    4    0    0  0.62626302465E+02  0.13101848158E+03  0.94419385313E+02  0.17321350005E+03  0.00000000000E+00 0. -1.
        -11    1    3    3    0    0 -0.29015627633E+02 -0.15660677440E+03  0.53312868781E+03  0.55641152595E+03  0.00000000000E+00 0. -1.
         11    1    3    3    0    0 -0.61912239682E+02 -0.64049915366E+02  0.18102940872E+03  0.20176016431E+03  0.00000000000E+00 0.  1.
          2    1    1    2  501    0 -0.69744060078E+01  0.24065114719E+02  0.62235804609E+01  0.25816758885E+02  0.00000000000E+00 0. -1.
<scales pt_clust_5="13000.00000" pt_clust_6="13000.00000" pt_clust_7="13000.00000" pt_clust_8="13000.00000" pt_clust_9="25.05538"></scales>
<clustering>
<clus scale="   25.055">  2  9  1 -1</clus>
<clus scale="   88.574">  7  8 -1 -1</clus>
<clus scale="   91.331">  5  6 -1 -1</clus>
<clus scale="  250.869">  1  7  2 -1</clus>
<clus scale="   25.055">  2  5  1 -1</clus>
</clustering>
</event>
<event>
 9    1  0.1504846E-005  0.9392675E+02  0.7546771E-02  0.1295454E+00
         21   -1    0    0  501  502  0.00000000000E+00  0.00000000000E+00  0.35581296152E+03  0.35581296152E+03  0.00000000000E+00 0.  1.
          2   -1    0    0  502    0 -0.00000000000E+00 -0.00000000000E+00 -0.82397511433E+02  0.82397511433E+02  0.00000000000E+00 0. -1.
         23    2    1    2    0    0  0.56121282233E+01 -0.15244722544E+02 -0.34510573498E+02  0.97668592561E+02  0.89912606130E+02 0.  0.
         23    2    1    2    0    0 -0.20068532376E+02 -0.21385288089E+02  0.15966792380E+03  0.18714302300E+03  0.93105255627E+02 0.  0.
        -11    1    3    3    0    0  0.28773190498E+01 -0.49569694532E+02 -0.10634798035E+01  0.49664520236E+02  0.00000000000E+00 0. -1.
         11    1    3    3    0    0  0.27348091735E+01  0.34324971988E+02 -0.33447093695E+02  0.48004072325E+02  0.00000000000E+00 0.  1.
        -13    1    4    4    0    0 -0.37018857098E+02  0.10616975926E+02  0.14146148202E+03  0.14660991390E+03  0.00000000000E+00 0.  1.
         13    1    4    4    0    0  0.16950324722E+02 -0.32002264015E+02  0.18206441781E+02  0.40533109091E+02  0.00000000000E+00 0. -1.
          2    1    1    2  501    0  0.14456404153E+02  0.36630010633E+02  0.14825809978E+03  0.15339885739E+03  0.00000000000E+00 0. -1.
<scales pt_clust_5="13000.00000" pt_clust_6="13000.00000" pt_clust_7="13000.00000" pt_clust_8="13000.00000" pt_clust_9="39.37950"></scales>
<clustering>
<clus scale="   39.380">  1  9  2 -1</clus>
<clus scale="   89.913">  5  6 -1 -1</clus>
<clus scale="   90.763">  2  5  1 -1</clus>
<clus scale="   93.105">  7  8 -1 -1</clus>
<clus scale="   39.380">  1  5  2 -1</clus>
</clustering>
</event>
<event>
 9    1  0.1504846E-005  0.1118213E+03  0.7546771E-02  0.1261858E+00
         21   -1    0    0  501  502  0.00000000000E+00  0.00000000000E+00  0.25467676227E+03  0.25467676227E+03  0.00000000000E+00 0. -1.
          2   -1    0    0  502    0 -0.00000000000E+00 -0.00000000000E+00 -0.89673896181E+02  0.89673896181E+02  0.00000000000E+00 0. -1.
         23    2    1    2    0    0 -0.69403100256E+01 -0.43932683079E+02  0.12008797894E+02  0.10897478030E+03  0.98757495755E+02 0.  0.
         23    2    1    2    0    0  0.36424484902E+02  0.54255144834E+02  0.37205228282E+02  0.11544704412E+03  0.87598100113E+02 0.  0.
        -11    1    3    3    0    0 -0.18596843980E+02  0.27383673279E+02 -0.78770901166E+01  0.34025824266E+02  0.00000000000E+00 0.  1.
         11    1    3    3    0    0  0.11656533954E+02 -0.71316356358E+02  0.19885888011E+02  0.74948956030E+02  0.00000000000E+00 0. -1.
        -11    1    4    4    0    0 -0.12170775533E+02  0.36376150356E+02  0.49111353335E+02  0.62315945939E+02  0.00000000000E+00 0.  1.
         11    1    4    4    0    0  0.48595260435E+02  0.17878994478E+02 -0.11906125053E+02  0.53131098182E+02  0.00000000000E+00 0. -1.
          2    1    1    2  501    0 -0.29484174876E+02 -0.10322461755E+02  0.11578883991E+03  0.11992883403E+03  0.00000000000E+00 0. -1.
<scales pt_clust_5="13000.00000" pt_clust_6="13000.00000" pt_clust_7="13000.00000" pt_clust_8="13000.00000" pt_clust_9="31.23891"></scales>
<clustering>
<clus scale="   31.239">  1  9  2 -1</clus>
<clus scale="   87.598">  7  8 -1 -1</clus>
<clus scale="   98.757">  5  6 -1 -1</clus>
<clus scale="  102.100">  1  7  2 -1</clus>
<clus scale="   31.239">  1  5  2 -1</clus>
</clustering>
</event>
<event>
 9    1  0.1504846E-005  0.1316834E+03  0.7546771E-02  0.1225495E+00
         21   -1    0    0  501  502  0.00000000000E+00  0.00000000000E+00  0.77877259507E+02  0.77877259507E+02  0.00000000000E+00 0. -1.
          2   -1    0    0  502    0 -0.00000000000E+00 -0.00000000000E+00 -0.32164450024E+03  0.32164450024E+03  0.00000000000E+00 0. -1.
         23    2    1    2    0    0  0.83590705048E+02  0.28506421529E+02 -0.14022673072E+03  0.18690461595E+03  0.86427874070E+02 0.  0.
         23    2    1    2    0    0 -0.10837261592E+03 -0.40382980803E+02 -0.11426241316E+03  0.18311875445E+03  0.84268441011E+02 0.  0.
        -11    1    3    3    0    0  0.33682231483E+01  0.41775181078E+02 -0.54461702595E+02  0.68721086508E+02  0.00000000000E+00 0.  1.
         11    1    3    3    0    0  0.80222481900E+02 -0.13268759549E+02 -0.85765028129E+02  0.11818352945E+03  0.00000000000E+00 0. -1.
        -13    1    4    4    0    0 -0.99533432492E+02 -0.13865900105E+02 -0.48342351857E+02  0.11151748900E+03  0.00000000000E+00 0.  1.
         13    1    4    4    0    0 -0.88391834322E+01 -0.26517080698E+02 -0.65920061305E+02  0.71601265456E+02  0.00000000000E+00 0. -1.
          2    1    1    2  501    0  0.24781910876E+02  0.11876559274E+02  0.10721903148E+02  0.29498389345E+02  0.00000000000E+00 0. -1.
<scales pt_clust_5="13000.00000" pt_clust_6="13000.00000" pt_clust_7="13000.00000" pt_clust_8="13000.00000" pt_clust_9="27.48083"></scales>
<clustering>
<clus scale="   27.481">  1  9  2 -1</clus>
<clus scale="   84.268">  7  8 -1 -1</clus>
<clus scale="   86.428">  5  6 -1 -1</clus>
<clus scale="  130.276">  1  7  2 -1</clus>
<clus scale="   27.481">  1  5  2 -1</clus>
</clustering>
</event>
<event>
 9    1  0.1504846E-005  0.1834871E+03  0.7546771E-02  0.1165358E+00
         21   -1    0    0  501  502  0.00000000000E+00  0.00000000000E+00  0.14383265397E+03  0.14383265397E+03  0.00000000000E+00 0.  1.
          3   -1    0    0  502    0 -0.00000000000E+00 -0.00000000000E+00 -0.48618372647E+03  0.48618372647E+03  0.00000000000E+00 0. -1.
         23    2    1    2    0    0 -0.12220138099E+03 -0.10489481914E+03 -0.37571682910E+03  0.41735263598E+03  0.84166421398E+02 0.  0.
         23    2    1    2    0    0  0.10129084461E+03  0.11095801074E+03  0.40325095201E+01  0.17613358968E+03  0.91843698370E+02 0.  0.
        -13    1    3    3    0    0 -0.12022366368E+03 -0.72874465524E+02 -0.24228808203E+03  0.28012128039E+03  0.00000000000E+00 0.  1.
         13    1    3    3    0    0 -0.19777173109E+01 -0.32020353615E+02 -0.13342874708E+03  0.13723135559E+03  0.00000000000E+00 0. -1.
        -13    1    4    4    0    0  0.70258817038E+02  0.54595018277E+02 -0.40625699413E+02  0.97812907354E+02  0.00000000000E+00 0. -1.
         13    1    4    4    0    0  0.31032027576E+02  0.56362992460E+02  0.44658208933E+02  0.78320682323E+02  0.00000000000E+00 0.  1.
          3    1    1    2  501    0  0.20910536380E+02 -0.60631915987E+01  0.29333247084E+02  0.36530154784E+02  0.00000000000E+00 0. -1.
<scales pt_clust_5="13000.00000" pt_clust_6="13000.00000" pt_clust_7="13000.00000" pt_clust_8="13000.00000" pt_clust_9="21.77184"></scales>
<clustering>
<clus scale="   21.772">  1  9  2 -1</clus>
<clus scale="   84.166">  5  6 -1 -1</clus>
<clus scale="   91.844">  7  8 -1 -1</clus>
<clus scale="  179.767">  2  5  1 -1</clus>
<clus scale="   21.772">  1  5  2 -1</clus>
</clustering>
</event>
<event>
 9    1  0.1504846E-005  0.9877477E+02  0.7546771E-02  0.1283664E+00
          2   -1    0    0  502    0 -0.00000000000E+00  0.00000000000E+00  0.30418549618E+03  0.30418549618E+03  0.00000000000E+00 0. -1.
         21   -1    0    0  501  502  0.00000000000E+00 -0.00000000000E+00 -0.43443633806E+02  0.43443633806E+02  0.00000000000E+00 0.  1.
         23    2    1    2    0    0  0.16228344964E+02 -0.98549429172E+01  0.12596073178E+03  0.15729269907E+03  0.92273550657E+02 0.  0.
         23    2    1    2    0    0 -0.38292018798E+02  0.25100006991E+02  0.12224480000E+03  0.16073276110E+03  0.93781343069E+02 0.  0.
        -13    1    3    3    0    0 -0.32939191877E+02  0.14847839431E+02  0.70209424398E+02  0.78960825550E+02  0.00000000000E+00 0. -1.
         13    1    3    3    0    0  0.49167536841E+02 -0.24702782349E+02  0.55751307384E+02  0.78331873524E+02  0.00000000000E+00 0.  1.
        -13    1    4    4    0    0  0.23944207942E+02  0.46630246400E+01  0.77895922779E+02  0.81626243809E+02  0.00000000000E+00 0.  1.
         13    1    4    4    0    0 -0.62236226741E+02  0.20436982351E+02  0.44348877224E+02  0.79106517289E+02  0.00000000000E+00 0. -1.
          2    1    1    2  501    0  0.22063673834E+02 -0.15245064074E+02  0.12536330586E+02  0.29603669810E+02  0.00000000000E+00 0. -1.
<scales pt_clust_5="13000.00000" pt_clust_6="13000.00000" pt_clust_7="13000.00000" pt_clust_8="13000.00000" pt_clust_9="26.81823"></scales>
<clustering>
<clus scale="   26.818">  2  9  1 -1</clus>
<clus scale="   92.274">  5  6 -1 -1</clus>
<clus scale="   93.781">  7  8 -1 -1</clus>
<clus scale="   97.344">  1  5  2 -1</clus>
<clus scale="   26.818">  2  5  1 -1</clus>
</clustering>
</event>
<event>
 9    1  0.1504846E-005  0.9086174E+02  0.7546771E-02  0.1304022E+00
          3   -1    0    0  502    0 -0.00000000000E+00  0.00000000000E+00  0.32735166338E+03  0.32735166338E+03  0.00000000000E+00 0. -1.
         21   -1    0    0  501  502  0.00000000000E+00 -0.00000000000E+00 -0.42701665727E+02  0.42701665727E+02  0.00000000000E+00 0.  1.
         23    2    1    2    0    0 -0.16230568794E+02 -0.28179207569E+02  0.12016528297E+03  0.15338609604E+03  0.89610825931E+02 0.  0.
         23    2    1    2    0    0 -0.17459825204E+01 -0.88219189245E+01  0.58515492560E+02  0.10299350789E+03  0.84277666608E+02 0.  0.
        -11    1    4    4    0    0  0.14850285807E+02  0.33609988248E+02  0.14077633317E+02  0.39348977857E+02  0.00000000000E+00 0. -1.
         11    1    4    4    0    0 -0.16596268327E+02 -0.42431907173E+02  0.44437859243E+02  0.63644530031E+02  0.00000000000E+00 0.  1.
        -11    1    3    3    0    0  0.13805319053E+02 -0.53988784572E+02  0.70651196522E+02  0.89983149888E+02  0.00000000000E+00 0.  1.
         11    1    3    3    0    0 -0.30035887847E+02  0.25809577002E+02  0.49514086445E+02  0.63402946148E+02  0.00000000000E+00 0. -1.
          3    1    1    2  501    0  0.17976551314E+02  0.37001126494E+02  0.10596922212E+03  0.11367372518E+03  0.00000000000E+00 0. -1.
<scales pt_clust_5="13000.00000" pt_clust_6="13000.00000" pt_clust_7="13000.00000" pt_clust_8="13000.00000" pt_clust_9="41.13686"></scales>
<clustering>
<clus scale="   41.137">  2  9  1 -1</clus>
<clus scale="   84.278">  5  6 -1 -1</clus>
<clus scale="   85.607">  2  5  1 -1</clus>
<clus scale="   89.611">  7  8 -1 -1</clus>
<clus scale="   41.137">  2  5  1 -1</clus>
</clustering>
</event>
<event>
 9    1  0.1504846E-005  0.9422174E+02  0.7546771E-02  0.1295335E+00
          3   -1    0    0  502    0 -0.00000000000E+00  0.00000000000E+00  0.18615033703E+03  0.18615033703E+03  0.00000000000E+00 0. -1.
         21   -1    0    0  501  502  0.00000000000E+00 -0.00000000000E+00 -0.21996465001E+03  0.21996465001E+03  0.00000000000E+00 0. -1.
         23    2    1    2    0    0 -0.26807023675E+02  0.13464604098E+02  0.78590183116E+02  0.12532135857E+03  0.92893024231E+02 0.  0.
         23    2    1    2    0    0  0.41230614041E+01  0.10168619403E+02  0.58460522002E+02  0.10681677423E+03  0.88723109555E+02 0.  0.
        -11    1    4    4    0    0  0.15327749391E+02  0.46683071031E+02  0.21386148015E+02  0.53587464478E+02  0.00000000000E+00 0.  1.
         11    1    4    4    0    0 -0.11204687986E+02 -0.36514451628E+02  0.37074373986E+02  0.53229309755E+02  0.00000000000E+00 0. -1.
        -13    1    3    3    0    0  0.12143531893E+02 -0.34016786769E+02  0.31628957672E+02  0.48010395878E+02  0.00000000000E+00 0. -1.
         13    1    3    3    0    0 -0.38950555569E+02  0.47481390867E+02  0.46961225444E+02  0.77310962696E+02  0.00000000000E+00 0.  1.
          3    1    1    2  501    0  0.22683962271E+02 -0.23633223502E+02 -0.17086501811E+03  0.17397685424E+03  0.00000000000E+00 0. -1.
<scales pt_clust_5="13000.00000" pt_clust_6="13000.00000" pt_clust_7="13000.00000" pt_clust_8="13000.00000" pt_clust_9="32.75807"></scales>
<clustering>
<clus scale="   32.758">  2  9  1 -1</clus>
<clus scale="   88.723">  5  6 -1 -1</clus>
<clus scale="   90.113">  2  5  1 -1</clus>
<clus scale="   92.893">  7  8 -1 -1</clus>
<clus scale="   32.758">  2  5  1 -1</clus>
</clustering>
</event>
<event>
 9    1  0.1504846E-005  0.1026866E+03  0.7546771E-02  0.1280344E+00
         21   -1    0    0  501  502  0.00000000000E+00  0.00000000000E+00  0.62982258876E+03  0.62982258876E+03  0.00000000000E+00 0.  1.
          1   -1    0    0  502    0 -0.00000000000E+00 -0.00000000000E+00 -0.66864988415E+02  0.66864988415E+02  0.00000000000E+00 0. -1.
         23    2    1    2    0    0  0.11405341216E+02  0.14310852876E+02  0.21937155088E+02  0.10623629727E+03  0.10232316338E+03 0.  0.
         23    2    1    2    0    0  0.55962886181E+02  0.31514976107E+02  0.13098467855E+03  0.17239887333E+03  0.91865919486E+02 0.  0.
        -11    1    4    4    0    0  0.64365459801E+02  0.54807005187E+02  0.83377118199E+02  0.11873695327E+03  0.00000000000E+00 0.  1.
         11    1    4    4    0    0 -0.84025736201E+01 -0.23292029080E+02  0.47607560352E+02  0.53661920062E+02  0.00000000000E+00 0. -1.
        -13    1    3    3    0    0  0.52218665555E+02 -0.66187416223E+01  0.28573242141E+02  0.59891793591E+02  0.00000000000E+00 0. -1.
         13    1    3    3    0    0 -0.40813324340E+02  0.20929594498E+02 -0.66360870534E+01  0.46344503675E+02  0.00000000000E+00 0.  1.
          1    1    1    2  501    0 -0.67368227397E+02 -0.45825828983E+02  0.41003576671E+03  0.41805240658E+03  0.00000000000E+00 0. -1.
<scales pt_clust_5="13000.00000" pt_clust_6="13000.00000" pt_clust_7="13000.00000" pt_clust_8="13000.00000" pt_clust_9="81.47690"></scales>
<clustering>
<clus scale="   81.477">  1  9  2 -1</clus>
<clus scale="   91.866">  5  6 -1 -1</clus>
<clus scale="   92.271">  1  5  2 -1</clus>
<clus scale="  102.323">  7  8 -1 -1</clus>
<clus scale="   81.477">  1  5  2 -1</clus>
</clustering>
</event>
<event>
 9    1  0.1504846E-005  0.1479760E+03  0.7546771E-02  0.1202990E+00
          1   -1    0    0  502    0 -0.00000000000E+00  0.00000000000E+00  0.36913046860E+03  0.36913046860E+03  0.00000000000E+00 0. -1.
         21   -1    0    0  501  502  0.00000000000E+00 -0.00000000000E+00 -0.17299369399E+03  0.17299369399E+03  0.00000000000E+00 0.  1.
         23    2    1    2    0    0 -0.49471367130E+01  0.11582139599E+03  0.19703170798E+03  0.24582717113E+03  0.90390454051E+02 0.  0.
         23    2    1    2    0    0 -0.74997778024E+02 -0.12258479344E+03 -0.76340258251E+02  0.18616557004E+03  0.90432771433E+02 0.  0.
        -11    1    4    4    0    0 -0.96200357835E+02 -0.10283478710E+03 -0.63354704691E+02  0.15441282619E+03  0.00000000000E+00 0.  1.
         11    1    4    4    0    0  0.21202579811E+02 -0.19750006342E+02 -0.12985553560E+02  0.31752743856E+02  0.00000000000E+00 0. -1.
        -11    1    3    3    0    0  0.39650714399E+02  0.77143705120E+02  0.10133585180E+03  0.13338772526E+03  0.00000000000E+00 0. -1.
         11    1    3    3    0    0 -0.44597851112E+02  0.38677690870E+02  0.95695856189E+02  0.11243944587E+03  0.00000000000E+00 0.  1.
          1    1    1    2  501    0  0.79944914737E+02  0.67633974496E+01  0.75445324872E+02  0.11013142141E+03  0.00000000000E+00 0. -1.
<scales pt_clust_5="13000.00000" pt_clust_6="13000.00000" pt_clust_7="13000.00000" pt_clust_8="13000.00000" pt_clust_9="80.23054"></scales>
<clustering>
<clus scale="   80.231">  2  9  1 -1</clus>
<clus scale="   90.390">  7  8 -1 -1</clus>
<clus scale="   90.433">  5  6 -1 -1</clus>
<clus scale="  147.950">  1  7  2 -1</clus>
<clus scale="   80.231">  2  5  1 -1</clus>
</clustering>
</event>
<event>
 9    1  0.1504846E-005  0.1060961E+03  0.7546771E-02  0.1269636E+00
         -1   -1    0    0    0  501 -0.00000000000E+00  0.00000000000E+00  0.63318079283E+02  0.63318079283E+02  0.00000000000E+00 0.  1.
         21   -1    0    0  501  502  0.00000000000E+00 -0.00000000000E+00 -0.42517869645E+03  0.42517869645E+03  0.00000000000E+00 0.  1.
         23    2    1    2    0    0 -0.41714115794E+02  0.23519385561E+02 -0.18745659488E+02  0.10102058788E+03  0.86951310926E+02 0.  0.
         23    2    1    2    0    0  0.59428214430E+02 -0.42725506968E+02 -0.13811502647E+03  0.18081792844E+03  0.90896540595E+02 0.  0.
        -11    1    3    3    0    0 -0.64952610143E+02  0.13146035901E+02  0.46759749441E+01  0.66434362841E+02  0.00000000000E+00 0.  1.
         11    1    3    3    0    0  0.23238494350E+02  0.10373349660E+02 -0.23421634432E+02  0.34586225037E+02  0.00000000000E+00 0. -1.
        -13    1    4    4    0    0 -0.24395990270E+02 -0.11147372004E+02 -0.37527445396E+02  0.46127404022E+02  0.00000000000E+00 0.  1.
         13    1    4    4    0    0  0.83824204700E+02 -0.31578134964E+02 -0.10058758108E+03  0.13469052442E+03  0.00000000000E+00 0. -1.
         -1    1    1    2    0  502 -0.17714098636E+02  0.19206121407E+02 -0.20499993120E+03  0.20665825941E+03  0.00000000000E+00 0.  1.
<scales pt_clust_5="13000.00000" pt_clust_6="13000.00000" pt_clust_7="13000.00000" pt_clust_8="13000.00000" pt_clust_9="26.12785"></scales>
<clustering>
<clus scale="   26.128">  2  9  1 -1</clus>
<clus scale="   86.951">  5  6 -1 -1</clus>
<clus scale="   90.897">  7  8 -1 -1</clus>
<clus scale="  102.736">  1  5  2 -1</clus>
<clus scale="   26.128">  2  5  1 -1</clus>
</clustering>
</event>
<event>
 9    1  0.1504846E-005  0.1808042E+03  0.7546771E-02  0.1187076E+00
          2   -1    0    0  502    0 -0.00000000000E+00  0.00000000000E+00  0.48363762256E+03  0.48363762256E+03  0.00000000000E+00 0. -1.
         21   -1    0    0  501  502  0.00000000000E+00 -0.00000000000E+00 -0.13111376335E+03  0.13111376335E+03  0.00000000000E+00 0. -1.
         23    2    1    2    0    0  0.40738191786E+02  0.54279917208E+02  0.10369950791E+03  0.15480414424E+03  0.92762198394E+02 0.  0.
         23    2    1    2    0    0  0.12079296412E+03 -0.42155077919E+02  0.25084211045E+03  0.29794910154E+03  0.97385378569E+02 0.  0.
        -11    1    4    4    0    0  0.88529644315E+02 -0.16939409086E+02  0.23883399099E+03  0.25527654956E+03  0.00000000000E+00 0. -1.
         11    1    4    4    0    0  0.32263319802E+02 -0.25215668834E+02  0.12008119456E+02  0.42672551977E+02  0.00000000000E+00 0.  1.
        -13    1    3    3    0    0  0.39465924192E+02 -0.31376415386E+01  0.40601853295E+01  0.39798103871E+02  0.00000000000E+00 0. -1.
         13    1    3    3    0    0  0.12722675938E+01  0.57417558747E+02  0.99639322576E+02  0.11500604037E+03  0.00000000000E+00 0.  1.
          2    1    1    2  501    0 -0.16153115590E+03 -0.12124839289E+02 -0.20177591459E+01  0.16199814014E+03  0.00000000000E+00 0. -1.
<scales pt_clust_5="13000.00000" pt_clust_6="13000.00000" pt_clust_7="13000.00000" pt_clust_8="13000.00000" pt_clust_9="152.33599"></scales>
<clustering>
<clus scale="   92.762">  7  8 -1 -1</clus>
<clus scale="   97.385">  5  6 -1 -1</clus>
<clus scale="  114.938">  1  7  2 -1</clus>
<clus scale="  152.336">  2  9  1 -1</clus>
<clus scale="  152.336">  2  5  1 -1</clus>
</clustering>
</event>
<event>
 9    1  0.1504846E-005  0.1119545E+03  0.7546771E-02  0.1257340E+00
         21   -1    0    0  501  502  0.00000000000E+00  0.00000000000E+00  0.24151482523E+03  0.24151482523E+03  0.00000000000E+00 0.  1.
          3   -1    0    0  502    0 -0.00000000000E+00 -0.00000000000E+00 -0.17517181948E+03  0.17517181948E+03  0.00000000000E+00 0. -1.
         23    2    1    2    0    0 -0.23478610338E+02  0.63552341984E+02 -0.13486063401E+03  0.17657576750E+03  0.91659509866E+02 0.  0.
         23    2    1    2    0    0  0.15897091635E+02 -0.31611109834E+02  0.16156735699E+03  0.18864480441E+03  0.90724151141E+02 0.  0.
        -13    1    3    3    0    0 -0.12564604118E+02 -0.21975421814E+02 -0.47546863478E+02  0.53865505355E+02  0.00000000000E+00 0.  1.
         13    1    3    3    0    0 -0.10914006220E+02  0.85527763798E+02 -0.87313770529E+02  0.12271026215E+03  0.00000000000E+00 0. -1.
        -13    1    4    4    0    0  0.28678778214E+02 -0.57799869822E+02  0.13305642651E+03  0.14787599504E+03  0.00000000000E+00 0.  1.
         13    1    4    4    0    0 -0.12781686579E+02  0.26188759987E+02  0.28510930477E+02  0.40768809379E+02  0.00000000000E+00 0. -1.
          3    1    1    2  501    0  0.75815187028E+01 -0.31941232149E+02  0.39636282771E+02  0.51466072795E+02  0.00000000000E+00 0. -1.
<scales pt_clust_5="13000.00000" pt_clust_6="13000.00000" pt_clust_7="13000.00000" pt_clust_8="13000.00000" pt_clust_9="32.82867"></scales>
<clustering>
<clus scale="   32.829">  1  9  2 -1</clus>
<clus scale="   90.724">  7  8 -1 -1</clus>
<clus scale="   91.660">  5  6 -1 -1</clus>
<clus scale="  111.190">  1  7  2 -1</clus>
<clus scale="   32.829">  1  5  2 -1</clus>
</clustering>
</event>
<event>
 9    1  0.1504846E-005  0.1023988E+03  0.7546771E-02  0.1275755E+00
         21   -1    0    0  501  502  0.00000000000E+00  0.00000000000E+00  0.80528453686E+03  0.80528453686E+03  0.00000000000E+00 0. -1.
         -2   -1    0    0    0  501 -0.00000000000E+00 -0.00000000000E+00 -0.28595461009E+02  0.28595461009E+02  0.00000000000E+00 0.  1.
         23    2    1    2    0    0 -0.11708713147E+02 -0.39488505754E+02  0.92807231240E+02  0.13723683047E+03  0.92327295076E+02 0.  0.
         23    2    1    2    0    0  0.29788067920E+02  0.51801013970E+02  0.52290237435E+03  0.53418440102E+03  0.91407916268E+02 0.  0.
        -11    1    4    4    0    0  0.14963178251E+02  0.77819976348E+02  0.38342685217E+03  0.39153032627E+03  0.00000000000E+00 0. -1.
         11    1    4    4    0    0  0.14824889669E+02 -0.26018962378E+02  0.13947552218E+03  0.14265407475E+03  0.00000000000E+00 0.  1.
        -13    1    3    3    0    0  0.10467948344E+02  0.28063159111E+02  0.29439425353E+02  0.41997602395E+02  0.00000000000E+00 0. -1.
         13    1    3    3    0    0 -0.22176661491E+02 -0.67551664864E+02  0.63367805887E+02  0.95239228072E+02  0.00000000000E+00 0.  1.
         -2    1    1    2    0  502 -0.18079354773E+02 -0.12312508216E+02  0.16097947026E+03  0.16245876637E+03  0.00000000000E+00 0.  1.
<scales pt_clust_5="13000.00000" pt_clust_6="13000.00000" pt_clust_7="13000.00000" pt_clust_8="13000.00000" pt_clust_9="21.87375"></scales>
<clustering>
<clus scale="   21.874">  1  9  2 -1</clus>
<clus scale="   91.408">  5  6 -1 -1</clus>
<clus scale="   92.327">  7  8 -1 -1</clus>
<clus scale="  101.571">  1  5  2 -1</clus>
<clus scale="   21.874">  1  5  2 -1</clus>
</clustering>
</event>
<event>
 9    1  0.1504846E-005  0.1272504E+03  0.7546771E-02  0.1231950E+00
         -3   -1    0    0    0  501 -0.00000000000E+00  0.00000000000E+00  0.62932175654E+03  0.62932175654E+03  0.00000000000E+00 0.  1.
         21   -1    0    0  501  502  0.00000000000E+00 -0.00000000000E+00 -0.43875558044E+02  0.43875558044E+02  0.00000000000E+00 0. -1.
         23    2    1    2    0    0  0.45703656174E+02 -0.90412740499E+02  0.34882619112E+03  0.37439546943E+03  0.90713659878E+02 0.  0.
         23    2    1    2    0    0 -0.60167917833E+01  0.75620469081E+02  0.22537982752E+03  0.25498175682E+03  0.92005285320E+02 0.  0.
        -11    1    4    4    0    0  0.29704022819E+02  0.18610080286E+02  0.23535546225E+02  0.42220682088E+02  0.00000000000E+00 0. -1.
         11    1    4    4    0    0 -0.35720814602E+02  0.57010388794E+02  0.20184428130E+03  0.21276107473E+03  0.00000000000E+00 0.  1.
        -11    1    3    3    0    0 -0.48922382200E+01 -0.84942388743E+02  0.21582471968E+03  0.23199020027E+03  0.00000000000E+00 0.  1.
         11    1    3    3    0    0  0.50595894394E+02 -0.54703517567E+01  0.13300147145E+03  0.14240526916E+03  0.00000000000E+00 0. -1.
         -3    1    1    2    0  502 -0.39686864391E+02  0.14792271419E+02  0.11240179858E+02  0.43820088340E+02  0.00000000000E+00 0.  1.
<scales pt_clust_5="13000.00000" pt_clust_6="13000.00000" pt_clust_7="13000.00000" pt_clust_8="13000.00000" pt_clust_9="42.35397"></scales>
<clustering>
<clus scale="   42.354">  2  9  1 -1</clus>
<clus scale="   90.714">  7  8 -1 -1</clus>
<clus scale="   92.005">  5  6 -1 -1</clus>
<clus scale="  126.320">  1  7  2 -1</clus>
<clus scale="   42.354">  2  5  1 -1</clus>
</clustering>
</event>
<event>
 9    1  0.1504846E-005  0.2496759E+03  0.7546771E-02  0.1114077E+00
          2   -1    0    0  502    0 -0.00000000000E+00  0.00000000000E+00  0.42592315725E+03  0.42592315725E+03  0.00000000000E+00 0. -1.
         21   -1    0    0  501  502  0.00000000000E+00 -0.00000000000E+00 -0.20439462558E+03  0.20439462558E+03  0.00000000000E+00 0.  1.
         23    2    1    2    0    0 -0.41950066002E+02 -0.21274699041E+03  0.16056971209E+03  0.28513292710E+03  0.92179518941E+02 0.  0.
         23    2    1    2    0    0  0.83875412733E+02  0.25065469715E+03  0.24316161000E+02  0.27782453094E+03  0.82050790630E+02 0.  0.
        -11    1    4    4    0    0  0.42230250401E+02  0.15777460268E+03  0.53613614103E+02  0.17190299275E+03  0.00000000000E+00 0.  1.
         11    1    4    4    0    0  0.41645162332E+02  0.92880094473E+02 -0.29297453103E+02  0.10592153819E+03  0.00000000000E+00 0. -1.
        -11    1    3    3    0    0 -0.59240590852E+02 -0.14684637612E+03  0.73492334341E+02  0.17456926703E+03  0.00000000000E+00 0.  1.
         11    1    3    3    0    0  0.17290524850E+02 -0.65900614286E+02  0.87077377748E+02  0.11056366007E+03  0.00000000000E+00 0. -1.
          2    1    1    2  501    0 -0.41925346731E+02 -0.37907706740E+02  0.36642658581E+02  0.67360324797E+02  0.00000000000E+00 0. -1.
<scales pt_clust_5="13000.00000" pt_clust_6="13000.00000" pt_clust_7="13000.00000" pt_clust_8="13000.00000" pt_clust_9="56.52196"></scales>
<clustering>
<clus scale="   56.522">  2  9  1 -1</clus>
<clus scale="   82.051">  5  6 -1 -1</clus>
<clus scale="   92.180">  7  8 -1 -1</clus>
<clus scale="  246.116">  2  5  1 -1</clus>
<clus scale="   56.522">  2  5  1 -1</clus>
</clustering>
</event>
<event>
 9    1  0.1504846E-005  0.1903683E+03  0.7546771E-02  0.1160044E+00
         21   -1    0    0  501  502  0.00000000000E+00  0.00000000000E+00  0.96969929426E+02  0.96969929426E+02  0.00000000000E+00 0. -1.
          2   -1    0    0  502    0 -0.00000000000E+00 -0.00000000000E+00 -0.57789641162E+03  0.57789641162E+03  0.00000000000E+00 0. -1.
         23    2    1    2    0    0  0.97755596259E+02 -0.13733212879E+03 -0.31118224489E+03  0.36130249260E+03  0.72724352345E+02 0.  0.
         23    2    1    2    0    0 -0.14084839260E+03  0.95821173690E+02 -0.88560089235E+02  0.21271240133E+03  0.91562597433E+02 0.  0.
        -13    1    4    4    0    0 -0.79679074510E+02  0.10136247879E+03 -0.77123375315E+02  0.15023688642E+03  0.00000000000E+00 0.  1.
         13    1    4    4    0    0 -0.61169318087E+02 -0.55413051022E+01 -0.11436713920E+02  0.62475514905E+02  0.00000000000E+00 0. -1.
        -13    1    3    3    0    0  0.50476410663E+02 -0.63238292833E+02 -0.79181667182E+02  0.11321080395E+03  0.00000000000E+00 0. -1.
         13    1    3    3    0    0  0.47279185596E+02 -0.74093835954E+02 -0.23200057771E+03  0.24809168864E+03  0.00000000000E+00 0.  1.
          2    1    1    2  501    0  0.43092796338E+02  0.41510955096E+02 -0.81184148069E+02  0.10085144712E+03  0.00000000000E+00 0. -1.
<scales pt_clust_5="13000.00000" pt_clust_6="13000.00000" pt_clust_7="13000.00000" pt_clust_8="13000.00000" pt_clust_9="59.83437"></scales>
<clustering>
<clus scale="   59.834">  1  9  2 -1</clus>
<clus scale="   72.724">  7  8 -1 -1</clus>
<clus scale="   91.563">  5  6 -1 -1</clus>
<clus scale="  182.058">  2  7  1 -1</clus>
<clus scale="   59.834">  1  5  2 -1</clus>
</clustering>
</event>
<event>
 9    1  0.1504846E-005  0.9699115E+02  0.7546771E-02  0.1288863E+00
         21   -1    0    0  501  502  0.00000000000E+00  0.00000000000E+00  0.51879761061E+03  0.51879761061E+03  0.00000000000E+00 0. -1.
          1   -1    0    0  502    0 -0.00000000000E+00 -0.00000000000E+00 -0.32444290627E+02  0.32444290627E+02  0.00000000000E+00 0. -1.
         23    2    1    2    0    0  0.12590182701E+01  0.17701733858E+02  0.82066419354E+02  0.12376979680E+03  0.90934750816E+02 0.  0.
         23    2    1    2    0    0  0.25182619379E+02 -0.23417100931E+02  0.23050856531E+03  0.25160074392E+03  0.94795626095E+02 0.  0.
        -13    1    4    4    0    0 -0.22436509755E+02 -0.25843385514E+02  0.17549050558E+03  0.17879651868E+03  0.00000000000E+00 0.  1.
         13    1    4    4    0    0  0.47619129134E+02  0.24262845824E+01  0.55018059732E+02  0.72804225241E+02  0.00000000000E+00 0. -1.
        -13    1    3    3    0    0 -0.30036718457E+02 -0.24951881368E+02  0.42441780644E+02  0.57672398803E+02  0.00000000000E+00 0.  1.
         13    1    3    3    0    0  0.31295736728E+02  0.42653615226E+02  0.39624638710E+02  0.66097397997E+02  0.00000000000E+00 0. -1.
          1    1    1    2  501    0 -0.26441637649E+02  0.57153670732E+01  0.17377833532E+03  0.17587136051E+03  0.00000000000E+00 0. -1.
<scales pt_clust_5="13000.00000" pt_clust_6="13000.00000" pt_clust_7="13000.00000" pt_clust_8="13000.00000" pt_clust_9="27.05228"></scales>
<clustering>
<clus scale="   27.052">  1  9  2 -1</clus>
<clus scale="   90.935">  7  8 -1 -1</clus>
<clus scale="   93.221">  2  7  1 -1</clus>
<clus scale="   94.796">  5  6 -1 -1</clus>
<clus scale="   27.052">  1  5  2 -1</clus>
</clustering>
</event>
<event>
 9    1  0.1504846E-005  0.1003576E+03  0.7546771E-02  0.1280164E+00
         21   -1    0    0  501  502  0.00000000000E+00  0.00000000000E+00  0.46377260911E+03  0.46377260911E+03  0.00000000000E+00 0. -1.
          2   -1    0    0  502    0 -0.00000000000E+00 -0.00000000000E+00 -0.11919119950E+03  0.11919119950E+03  0.00000000000E+00 0. -1.
         23    2    1    2    0    0 -0.26897690090E+02 -0.45549965164E+02 -0.28100724750E+02  0.11000881387E+03  0.92271357085E+02 0.  0.
         23    2    1    2    0    0 -0.16564237857E+02  0.30830392060E+02  0.32896464938E-01  0.97491202191E+02  0.90992562180E+02 0.  0.
        -13    1    3    3    0    0 -0.36019728155E+02  0.19251942618E+02 -0.87729000294E+01  0.41773459108E+02  0.00000000000E+00 0.  1.
         13    1    3    3    0    0  0.91220380650E+01 -0.64801907782E+02 -0.19327824721E+02  0.68235354759E+02  0.00000000000E+00 0. -1.
        -13    1    4    4    0    0 -0.48059963009E+02  0.26317396491E+02  0.21767123698E+02  0.58959079679E+02  0.00000000000E+00 0.  1.
         13    1    4    4    0    0  0.31495725152E+02  0.45129955690E+01 -0.21734227233E+02  0.38532122512E+02  0.00000000000E+00 0. -1.
          2    1    1    2  501    0  0.43461927947E+02  0.14719573104E+02  0.37264923790E+03  0.37546379256E+03  0.00000000000E+00 0. -1.
<scales pt_clust_5="13000.00000" pt_clust_6="13000.00000" pt_clust_7="13000.00000" pt_clust_8="13000.00000" pt_clust_9="45.88687"></scales>
<clustering>
<clus scale="   45.887">  1  9  2 -1</clus>
<clus scale="   90.993">  7  8 -1 -1</clus>
<clus scale="   92.271">  5  6 -1 -1</clus>
<clus scale="   99.183">  1  7  2 -1</clus>
<clus scale="   45.887">  1  5  2 -1</clus>
</clustering>
</event>
<event>
 9    1  0.1504846E-005  0.1865383E+03  0.7546771E-02  0.1161715E+00
          1   -1    0    0  502    0 -0.00000000000E+00  0.00000000000E+00  0.45041213300E+03  0.45041213300E+03  0.00000000000E+00 0. -1.
         21   -1    0    0  501  502  0.00000000000E+00 -0.00000000000E+00 -0.20784936238E+03  0.20784936238E+03  0.00000000000E+00 0. -1.
         23    2    1    2    0    0 -0.13366143716E+03 -0.56122715194E+02  0.20948467648E+03  0.27015575422E+03  0.89917533959E+02 0.  0.
         23    2    1    2    0    0  0.16519320840E+03  0.11629915948E+03  0.13957419624E+03  0.26178520914E+03  0.90753781579E+02 0.  0.
        -13    1    4    4    0    0  0.17423307455E+02  0.10450967174E+02 -0.13294341038E+02  0.24280318391E+02  0.00000000000E+00 0.  1.
         13    1    4    4    0    0  0.14776990095E+03  0.10584819230E+03  0.15286853728E+03  0.23750489075E+03  0.00000000000E+00 0. -1.
        -13    1    3    3    0    0 -0.44582428512E+02  0.22072322649E+02  0.42806347168E+02  0.65628985342E+02  0.00000000000E+00 0. -1.
         13    1    3    3    0    0 -0.89079008650E+02 -0.78195037843E+02  0.16667832932E+03  0.20452676888E+03  0.00000000000E+00 0.  1.
          1    1    1    2  501    0 -0.31531771239E+02 -0.60176444281E+02 -0.10649610211E+03  0.12632053201E+03  0.00000000000E+00 0. -1.
<scales pt_clust_5="13000.00000" pt_clust_6="13000.00000" pt_clust_7="13000.00000" pt_clust_8="13000.00000" pt_clust_9="67.93716"></scales>
<clustering>
<clus scale="   67.937">  2  9  1 -1</clus>
<clus scale="   89.918">  7  8 -1 -1</clus>
<clus scale="   90.754">  5  6 -1 -1</clus>
<clus scale="  186.133">  1  7  2 -1</clus>
<clus scale="   67.937">  2  5  1 -1</clus>
</clustering>
</event>
<event>
 9    1  0.1504846E-005  0.1319151E+03  0.7546771E-02  0.1228586E+00
         21   -1    0    0  501  502  0.00000000000E+00  0.00000000000E+00  0.50278633295E+03  0.50278633295E+03  0.00000000000E+00 0. -1.
          3   -1    0    0  502    0 -0.00000000000E+00 -0.00000000000E+00 -0.96103097953E+02  0.96103097953E+02  0.00000000000E+00 0. -1.
         23    2    1    2    0    0 -0.98704258943E+01  0.90902743652E+02 -0.14383975199E+02  0.11910867623E+03  0.74961616171E+02 0.  0.
         23    2    1    2    0    0  0.73918650413E+02 -0.11219473659E+03  0.30850766577E+03  0.34853604023E+03  0.90822715810E+02 0.  0.
        -13    1    3    3    0    0  0.90140627012E+01  0.42741395981E+02  0.28294340726E+02  0.52044692082E+02  0.00000000000E+00 0.  1.
         13    1    3    3    0    0 -0.18884488596E+02  0.48161347671E+02 -0.42678315925E+02  0.67063984143E+02  0.00000000000E+00 0. -1.
        -13    1    4    4    0    0  0.13540065101E+01 -0.83591099622E+02  0.17419496479E+03  0.19321798836E+03  0.00000000000E+00 0.  1.
         13    1    4    4    0    0  0.72564643903E+02 -0.28603636971E+02  0.13431270098E+03  0.15531805187E+03  0.00000000000E+00 0. -1.
          3    1    1    2  501    0 -0.64048224519E+02  0.21291992942E+02  0.11255954443E+03  0.13124471445E+03  0.00000000000E+00 0. -1.
<scales pt_clust_5="13000.00000" pt_clust_6="13000.00000" pt_clust_7="13000.00000" pt_clust_8="13000.00000" pt_clust_9="67.49462"></scales>
<clustering>
<clus scale="   67.495">  1  9  2 -1</clus>
<clus scale="   74.962">  5  6 -1 -1</clus>
<clus scale="   90.823">  7  8 -1 -1</clus>
<clus scale="  121.540">  2  5  1 -1</clus>
<clus scale="   67.495">  1  5  2 -1</clus>
</clustering>
</event>
<event>
 9    1  0.1504846E-005  0.9669926E+02  0.7546771E-02  0.1294202E+00
         21   -1    0    0  501  502  0.00000000000E+00  0.00000000000E+00  0.12680918964E+03  0.12680918964E+03  0.00000000000E+00 0. -1.
         -1   -1    0    0    0  501 -0.00000000000E+00 -0.00000000000E+00 -0.10951582265E+03  0.10951582265E+03  0.00000000000E+00 0.  1.
         23    2    1    2    0    0  0.29662689558E+02 -0.35643043834E+02 -0.26253933552E+02  0.10419588447E+03  0.89538883108E+02 0.  0.
         23    2    1    2    0    0 -0.13649392278E+02  0.10189589500E+02  0.58907385093E+02  0.98361743787E+02  0.76907860318E+02 0.  0.
        -13    1    3    3    0    0  0.59685470900E+02 -0.84126701178E+01 -0.16866263138E+02  0.62590728445E+02  0.00000000000E+00 0.  1.
         13    1    3    3    0    0 -0.30022781341E+02 -0.27230373717E+02 -0.93876704138E+01  0.41605156027E+02  0.00000000000E+00 0. -1.
        -13    1    4    4    0    0 -0.43357757517E+02 -0.38980185441E+01  0.21480270681E+02  0.48543709314E+02  0.00000000000E+00 0. -1.
         13    1    4    4    0    0  0.29708365238E+02  0.14087608044E+02  0.37427114412E+02  0.49818034473E+02  0.00000000000E+00 0.  1.
         -1    1    1    2    0  502 -0.16013297280E+02  0.25453454334E+02 -0.15360084548E+02  0.33767384037E+02  0.00000000000E+00 0.  1.
<scales pt_clust_5="13000.00000" pt_clust_6="13000.00000" pt_clust_7="13000.00000" pt_clust_8="13000.00000" pt_clust_9="30.07166"></scales>
<clustering>
<clus scale="   30.072">  1  9  2 -1</clus>
<clus scale="   76.908">  7  8 -1 -1</clus>
<clus scale="   85.137">  1  7  2 -1</clus>
<clus scale="   89.539">  5  6 -1 -1</clus>
<clus scale="   30.072">  1  5  2 -1</clus>
</clustering>
</event>
<event>
 9    1  0.1504846E-005  0.1276620E+03  0.7546771E-02  0.1232601E+00
          1   -1    0    0  502    0 -0.00000000000E+00  0.00000000000E+00  0.25205290329E+03  0.25205290329E+03  0.00000000000E+00 0. -1.
         21   -1    0    0  501  502  0.00000000000E+00 -0.00000000000E+00 -0.10702964084E+03  0.10702964084E+03  0.00000000000E+00 0.  1.
         23    2    1    2    0    0  0.10871685197E+02  0.10546283198E+03  0.14760224756E+03  0.20355396001E+03  0.91690722980E+02 0.  0.
         23    2    1    2    0    0 -0.20789645737E+02 -0.54978553996E+02  0.12432627455E+01  0.10393752051E+03  0.85712377744E+02 0.  0.
        -11    1    3    3    0    0  0.41276326846E+02  0.68317479832E+02  0.48395554281E+02  0.93344217189E+02  0.00000000000E+00 0. -1.
         11    1    3    3    0    0 -0.30404641649E+02  0.37145352148E+02  0.99206693284E+02  0.11020974282E+03  0.00000000000E+00 0.  1.
        -13    1    4    4    0    0  0.14037719045E+02 -0.65544621897E+02  0.56896566256E+01  0.67272038829E+02  0.00000000000E+00 0. -1.
         13    1    4    4    0    0 -0.34827364782E+02  0.10566067901E+02 -0.44463938801E+01  0.36665481683E+02  0.00000000000E+00 0.  1.
          1    1    1    2  501    0  0.99179605400E+01 -0.50484277984E+02 -0.38222478588E+01  0.51591063601E+02  0.00000000000E+00 0. -1.
<scales pt_clust_5="13000.00000" pt_clust_6="13000.00000" pt_clust_7="13000.00000" pt_clust_8="13000.00000" pt_clust_9="51.44928"></scales>
<clustering>
<clus scale="   51.449">  2  9  1 -1</clus>
<clus scale="   85.712">  7  8 -1 -1</clus>
<clus scale="   91.691">  5  6 -1 -1</clus>
<clus scale="  123.438">  2  7  1 -1</clus>
<clus scale="   51.449">  2  5  1 -1</clus>
</clustering>
</event>
<event>
 9    1  0.1504846E-005  0.9765809E+02  0.7546771E-02  0.1285530E+00
         -2   -1    0    0    0  501 -0.00000000000E+00  0.00000000000E+00  0.32846829523E+03  0.32846829523E+03  0.00000000000E+00 0.  1.
         21   -1    0    0  501  502  0.00000000000E+00 -0.00000000000E+00 -0.45954163510E+02  0.45954163510E+02  0.00000000000E+00 0.  1.
         23    2    1    2    0    0  0.23911775724E+01 -0.46321357083E+02  0.17275034834E+03  0.20060799907E+03  0.90826761403E+02 0.  0.
         23    2    1    2    0    0  0.14197202335E+02  0.12604325404E+02  0.57836390085E+02  0.10971713720E+03  0.91281830639E+02 0.  0.
        -13    1    4    4    0    0  0.31966783039E+02 -0.21853432128E+02 -0.15979135771E+01  0.38755658186E+02  0.00000000000E+00 0.  1.
         13    1    4    4    0    0 -0.17769580703E+02  0.34457757531E+02  0.59434303662E+02  0.70961479017E+02  0.00000000000E+00 0. -1.
        -13    1    3    3    0    0  0.41024014982E+02 -0.32667353564E+02  0.13525934594E+03  0.14506969518E+03  0.00000000000E+00 0.  1.
         13    1    3    3    0    0 -0.38632837410E+02 -0.13654003518E+02  0.37491002398E+02  0.55538303892E+02  0.00000000000E+00 0. -1.
         -2    1    1    2    0  502 -0.16588379908E+02  0.33717031679E+02  0.51927393294E+02  0.64097322467E+02  0.00000000000E+00 0.  1.
<scales pt_clust_5="13000.00000" pt_clust_6="13000.00000" pt_clust_7="13000.00000" pt_clust_8="13000.00000" pt_clust_9="37.57677"></scales>
<clustering>
<clus scale="   37.577">  2  9  1 -1</clus>
<clus scale="   90.827">  7  8 -1 -1</clus>
<clus scale="   91.282">  5  6 -1 -1</clus>
<clus scale="   97.233">  1  7  2 -1</clus>
<clus scale="   37.577">  2  5  1 -1</clus>
</clustering>
</event>
<event>
 9    1  0.1504846E-005  0.1498939E+03  0.7546771E-02  0.1201121E+00
         21   -1    0    0  501  502  0.00000000000E+00  0.00000000000E+00  0.15871469860E+03  0.15871469860E+03  0.00000000000E+00 0.  1.
          2   -1    0    0  502    0 -0.00000000000E+00 -0.00000000000E+00 -0.20568556130E+03  0.20568556130E+03  0.00000000000E+00 0. -1.
         23    2    1    2    0    0  0.80693372466E+02 -0.90286523263E+02 -0.76898548173E+02  0.17021893966E+03  0.91640733665E+02 0.  0.
         23    2    1    2    0    0 -0.88441673171E+02  0.67246239756E+02 -0.11450086994E+02  0.14619162465E+03  0.94323381578E+02 0.  0.
        -11    1    4    4    0    0  0.15788483810E+02  0.28111821414E+02 -0.13209159962E+02  0.34842971044E+02  0.00000000000E+00 0. -1.
         11    1    4    4    0    0 -0.10423015698E+03  0.39134418342E+02  0.17590729683E+01  0.11134865361E+03  0.00000000000E+00 0.  1.
        -11    1    3    3    0    0 -0.12974445218E+02 -0.26165715779E+02  0.57999126657E+01  0.29776163249E+02  0.00000000000E+00 0.  1.
         11    1    3    3    0    0  0.93667817684E+02 -0.64120807485E+02 -0.82698460838E+02  0.14044277642E+03  0.00000000000E+00 0. -1.
          2    1    1    2  501    0  0.77483007056E+01  0.23040283507E+02  0.41377772464E+02  0.47989695581E+02  0.00000000000E+00 0. -1.
<scales pt_clust_5="13000.00000" pt_clust_6="13000.00000" pt_clust_7="13000.00000" pt_clust_8="13000.00000" pt_clust_9="24.30825"></scales>
<clustering>
<clus scale="   24.308">  1  9  2 -1</clus>
<clus scale="   91.641">  7  8 -1 -1</clus>
<clus scale="   94.323">  5  6 -1 -1</clus>
<clus scale="  148.220">  2  7  1 -1</clus>
<clus scale="   24.308">  1  5  2 -1</clus>
</clustering>
</event>
<event>
 9    1  0.1504846E-005  0.1294400E+03  0.7546771E-02  0.1228545E+00
         21   -1    0    0  501  502  0.00000000000E+00  0.00000000000E+00  0.23624087458E+03  0.23624087458E+03  0.00000000000E+00 0.  1.
          1   -1    0    0  502    0 -0.00000000000E+00 -0.00000000000E+00 -0.11973794716E+03  0.11973794716E+03  0.00000000000E+00 0. -1.
         23    2    1    2    0    0 -0.66754607172E+02  0.23863441279E+02  0.34455827247E+02  0.11995560736E+03  0.90424013940E+02 0.  0.
         23    2    1    2    0    0  0.12043890870E+03 -0.41692037430E+02  0.86809368436E+02  0.17925577415E+03  0.91394799659E+02 0.  0.
        -13    1    3    3    0    0  0.16160885049E+02  0.25654159238E+02  0.46012148693E+00  0.30323617917E+02  0.00000000000E+00 0.  1.
         13    1    3    3    0    0 -0.82915492221E+02 -0.17907179591E+01  0.33995705760E+02  0.89631989441E+02  0.00000000000E+00 0. -1.
        -13    1    4    4    0    0  0.72272825031E+02  0.16261571023E+02  0.70268853630E+02  0.10210539516E+03  0.00000000000E+00 0.  1.
         13    1    4    4    0    0  0.48166083668E+02 -0.57953608453E+02  0.16540514806E+02  0.77150378992E+02  0.00000000000E+00 0. -1.
          1    1    1    2  501    0 -0.53684301527E+02  0.17828596150E+02 -0.47622682630E+01  0.56767440229E+02  0.00000000000E+00 0. -1.
<scales pt_clust_5="13000.00000" pt_clust_6="13000.00000" pt_clust_7="13000.00000" pt_clust_8="13000.00000" pt_clust_9="56.56736"></scales>
<clustering>
<clus scale="   56.567">  1  9  2 -1</clus>
<clus scale="   90.424">  5  6 -1 -1</clus>
<clus scale="   91.395">  7  8 -1 -1</clus>
<clus scale="  128.756">  2  5  1 -1</clus>
<clus scale="   56.567">  1  5  2 -1</clus>
</clustering>
</event>
<event>
 9    1  0.1504846E-005  0.1207481E+03  0.7546771E-02  0.1241918E+00
         -4   -1    0    0    0  501 -0.00000000000E+00  0.00000000000E+00  0.49140856137E+03  0.49140856137E+03  0.00000000000E+00 0.  1.
         21   -1    0    0  501  502  0.00000000000E+00 -0.00000000000E+00 -0.52962765417E+02  0.52962765417E+02  0.00000000000E+00 0.  1.
         23    2    1    2    0    0  0.71948282524E+02  0.11731790976E+02  0.23599541488E+03  0.26345102669E+03  0.91642879370E+02 0.  0.
         23    2    1    2    0    0 -0.86754478464E+02  0.16157595681E+02  0.21254350397E+03  0.24777045159E+03  0.91804401674E+02 0.  0.
        -11    1    3    3    0    0  0.27408351697E+01  0.36952680286E+02  0.42365269896E+02  0.56283468720E+02  0.00000000000E+00 0.  1.
         11    1    3    3    0    0  0.69207447354E+02 -0.25220889310E+02  0.19363014498E+03  0.20716755797E+03  0.00000000000E+00 0. -1.
        -13    1    4    4    0    0 -0.52741975548E+02  0.54594059875E+02  0.13173081041E+03  0.15203694870E+03  0.00000000000E+00 0.  1.
         13    1    4    4    0    0 -0.34012502916E+02 -0.38436464194E+02  0.80812693563E+02  0.95733502888E+02  0.00000000000E+00 0. -1.
         -4    1    1    2    0  502  0.14806195940E+02 -0.27889386657E+02 -0.10093122905E+02  0.33149848511E+02  0.00000000000E+00 0.  1.
<scales pt_clust_5="13000.00000" pt_clust_6="13000.00000" pt_clust_7="13000.00000" pt_clust_8="13000.00000" pt_clust_9="31.57596"></scales>
<clustering>
<clus scale="   31.576">  2  9  1 -1</clus>
<clus scale="   91.643">  5  6 -1 -1</clus>
<clus scale="   91.804">  7  8 -1 -1</clus>
<clus scale="  120.625">  1  5  2 -1</clus>
<clus scale="   31.576">  2  5  1 -1</clus>
</clustering>
</event>
<event>
 9    1  0.1504846E-005  0.1053147E+03  0.7546771E-02  0.1269978E+00
         21   -1    0    0  501  502  0.00000000000E+00  0.00000000000E+00  0.15418912329E+03  0.15418912329E+03  0.00000000000E+00 0. -1.
          1   -1    0    0  502    0 -0.00000000000E+00 -0.00000000000E+00 -0.58373378399E+03  0.58373378399E+03  0.00000000000E+00 0. -1.
         23    2    1    2    0    0 -0.51946233368E+02  0.55559963877E+02 -0.41351151859E+03  0.43020244044E+03  0.91088105732E+02 0.  0.
         23    2    1    2    0    0  0.20530464600E+02  0.59413117652E+00 -0.14021556025E+03  0.16785801337E+03  0.89966973641E+02 0.  0.
        -11    1    4    4    0    0 -0.13881852057E+02 -0.23127770694E+02 -0.11695455127E+03  0.12002485850E+03  0.00000000000E+00 0.  1.
         11    1    4    4    0    0  0.34412316657E+02  0.23721901870E+02 -0.23261008977E+02  0.47833154869E+02  0.00000000000E+00 0. -1.
        -13    1    3    3    0    0 -0.77399167360E+02  0.31447538996E+02 -0.28471184123E+03  0.29671604499E+03  0.00000000000E+00 0. -1.
         13    1    3    3    0    0  0.25452933991E+02  0.24112424881E+02 -0.12879967736E+03  0.13348639545E+03  0.00000000000E+00 0.  1.
          1    1    1    2  501    0  0.31415768768E+02 -0.56154095053E+02  0.12418241814E+03  0.13986245348E+03  0.00000000000E+00 0. -1.
<scales pt_clust_5="13000.00000" pt_clust_6="13000.00000" pt_clust_7="13000.00000" pt_clust_8="13000.00000" pt_clust_9="64.34464"></scales>
<clustering>
<clus scale="   64.345">  1  9  2 -1</clus>
<clus scale="   89.967">  5  6 -1 -1</clus>
<clus scale="   91.088">  7  8 -1 -1</clus>
<clus scale="  104.347">  1  5  2 -1</clus>
<clus scale="   64.345">  1  5  2 -1</clus>
</clustering>
</event>
<event>
 9    1  0.1504846E-005  0.9227222E+02  0.7546771E-02  0.1298102E+00
         21   -1    0    0  501  502  0.00000000000E+00  0.00000000000E+00  0.20192801135E+03  0.20192801135E+03  0.00000000000E+00 0. -1.
          1   -1    0    0  502    0 -0.00000000000E+00 -0.00000000000E+00 -0.10648796041E+03  0.10648796041E+03  0.00000000000E+00 0. -1.
         23    2    1    2    0    0 -0.34306788485E+02  0.73152292056E+01 -0.26264084983E+02  0.10103166297E+03  0.91033655582E+02 0.  0.
         23    2    1    2    0    0 -0.17786123208E+02 -0.39712483974E+01  0.21215614444E+02  0.94146520908E+02  0.89896318669E+02 0.  0.
        -11    1    3    3    0    0  0.19443583059E+02 -0.17834344560E+02  0.13461068683E+02  0.29619539804E+02  0.00000000000E+00 0.  1.
         11    1    3    3    0    0 -0.53750371544E+02  0.25149573766E+02 -0.39725153666E+02  0.71412123170E+02  0.00000000000E+00 0. -1.
        -13    1    4    4    0    0  0.31422284192E+02  0.12944573074E+02 -0.73740473898E+01  0.34774969314E+02  0.00000000000E+00 0.  1.
         13    1    4    4    0    0 -0.49208407400E+02 -0.16915821472E+02  0.28589661834E+02  0.59371551594E+02  0.00000000000E+00 0. -1.
          1    1    1    2  501    0  0.52092911693E+02 -0.33439808081E+01  0.10048852148E+03  0.11323778788E+03  0.00000000000E+00 0. -1.
<scales pt_clust_5="13000.00000" pt_clust_6="13000.00000" pt_clust_7="13000.00000" pt_clust_8="13000.00000" pt_clust_9="52.20013"></scales>
<clustering>
<clus scale="   52.200">  1  9  2 -1</clus>
<clus scale="   89.896">  7  8 -1 -1</clus>
<clus scale="   91.034">  5  6 -1 -1</clus>
<clus scale="   91.150">  1  7  2 -1</clus>
<clus scale="   52.200">  1  5  2 -1</clus>
</clustering>
</event>
<event>
 9    1  0.1504846E-005  0.1291055E+03  0.7546771E-02  0.1229031E+00
          1   -1    0    0  502    0 -0.00000000000E+00  0.00000000000E+00  0.17318892261E+03  0.17318892261E+03  0.00000000000E+00 0. -1.
         21   -1    0    0  501  502  0.00000000000E+00 -0.00000000000E+00 -0.22104432742E+03  0.22104432742E+03  0.00000000000E+00 0.  1.
         23    2    1    2    0    0  0.64085270186E+02 -0.38180084294E+02  0.64279075063E+02  0.13532698888E+03  0.92827548371E+02 0.  0.
         23    2    1    2    0    0 -0.10224700179E+03  0.87076111481E+02 -0.50284110448E+02  0.17131283998E+03  0.93717121237E+02 0.  0.
        -11    1    4    4    0    0 -0.26325195458E+01  0.59150412871E+02 -0.88387340197E+01  0.59865054256E+02  0.00000000000E+00 0. -1.
         11    1    4    4    0    0 -0.99614482245E+02  0.27925698610E+02 -0.41445376428E+02  0.11144778573E+03  0.00000000000E+00 0.  1.
        -13    1    3    3    0    0  0.54882671146E+02 -0.14140639848E+02  0.85082554378E+02  0.10223065268E+03  0.00000000000E+00 0.  1.
         13    1    3    3    0    0  0.92025990396E+01 -0.24039444446E+02 -0.20803479315E+02  0.33096336201E+02  0.00000000000E+00 0. -1.
          1    1    1    2  501    0  0.38161731605E+02 -0.48896027187E+02 -0.61850369432E+02  0.87593421172E+02  0.00000000000E+00 0. -1.
<scales pt_clust_5="13000.00000" pt_clust_6="13000.00000" pt_clust_7="13000.00000" pt_clust_8="13000.00000" pt_clust_9="62.02531"></scales>
<clustering>
<clus scale="   62.025">  2  9  1 -1</clus>
<clus scale="   92.828">  7  8 -1 -1</clus>
<clus scale="   93.717">  5  6 -1 -1</clus>
<clus scale="  128.461">  1  7  2 -1</clus>
<clus scale="   62.025">  2  5  1 -1</clus>
</clustering>
</event>
<event>
 9    1  0.1504846E-005  0.1593317E+03  0.7546771E-02  0.1189926E+00
          1   -1    0    0  502    0 -0.00000000000E+00  0.00000000000E+00  0.65476254813E+03  0.65476254813E+03  0.00000000000E+00 0. -1.
         21   -1    0    0  501  502  0.00000000000E+00 -0.00000000000E+00 -0.82026621309E+02  0.82026621309E+02  0.00000000000E+00 0.  1.
         23    2    1    2    0    0  0.11528169843E+03 -0.58893941181E+02  0.47380558887E+03  0.49950828300E+03  0.90875862796E+02 0.  0.
         23    2    1    2    0    0 -0.98987428310E+02  0.10243801157E+03  0.89540118373E+02  0.18984919315E+03  0.87938763713E+02 0.  0.
        -11    1    3    3    0    0  0.23696257911E+02 -0.39647290604E+02  0.62648118007E+02  0.77834484524E+02  0.00000000000E+00 0.  1.
         11    1    3    3    0    0  0.91585440522E+02 -0.19246650576E+02  0.41115747087E+03  0.42167379848E+03  0.00000000000E+00 0. -1.
        -13    1    4    4    0    0  0.41772775032E+01  0.34101836207E+02 -0.41930389714E+01  0.34611652024E+02  0.00000000000E+00 0.  1.
         13    1    4    4    0    0 -0.10316470581E+03  0.68336175359E+02  0.93733157344E+02  0.15523754112E+03  0.00000000000E+00 0. -1.
          1    1    1    2  501    0 -0.16294270123E+02 -0.43544070385E+02  0.93902195725E+01  0.47431693288E+02  0.00000000000E+00 0. -1.
<scales pt_clust_5="13000.00000" pt_clust_6="13000.00000" pt_clust_7="13000.00000" pt_clust_8="13000.00000" pt_clust_9="46.49290"></scales>
<clustering>
<clus scale="   46.493">  2  9  1 -1</clus>
<clus scale="   87.939">  7  8 -1 -1</clus>
<clus scale="   90.876">  5  6 -1 -1</clus>
<clus scale="  157.675">  2  7  1 -1</clus>
<clus scale="   46.493">  2  5  1 -1</clus>
</clustering>
</event>
<event>
 9    1  0.1504846E-005  0.1411124E+03  0.7546771E-02  0.1212145E+00
         21   -1    0    0  501  502  0.00000000000E+00  0.00000000000E+00  0.23164401758E+03  0.23164401758E+03  0.00000000000E+00 0.  1.
          1   -1    0    0  502    0 -0.00000000000E+00 -0.00000000000E+00 -0.10142896912E+03  0.10142896912E+03  0.00000000000E+00 0. -1.
         23    2    1    2    0    0  0.74668243338E+02 -0.61868610849E+02  0.44193546177E+02  0.14121858757E+03  0.92663630293E+02 0.  0.
         23    2    1    2    0    0 -0.91570889536E+02  0.75072018636E+02  0.69968221132E+02  0.16506378022E+03  0.91265896037E+02 0.  0.
        -13    1    3    3    0    0  0.48472458431E+02 -0.73347682314E+02 -0.78048654184E+00  0.87920821689E+02  0.00000000000E+00 0. -1.
         13    1    3    3    0    0  0.26195784907E+02  0.11479071465E+02  0.44974032719E+02  0.53297765878E+02  0.00000000000E+00 0.  1.
        -13    1    4    4    0    0 -0.87140309843E+02  0.13989224140E+02  0.40940625126E+02  0.97289602616E+02  0.00000000000E+00 0.  1.
         13    1    4    4    0    0 -0.44305796935E+01  0.61082794496E+02  0.29027596006E+02  0.67774177603E+02  0.00000000000E+00 0. -1.
          1    1    1    2  501    0  0.16902646199E+02 -0.13203407787E+02  0.16053281156E+02  0.26790618910E+02  0.00000000000E+00 0. -1.
<scales pt_clust_5="13000.00000" pt_clust_6="13000.00000" pt_clust_7="13000.00000" pt_clust_8="13000.00000" pt_clust_9="21.44830"></scales>
<clustering>
<clus scale="   21.448">  1  9  2 -1</clus>
<clus scale="   91.266">  7  8 -1 -1</clus>
<clus scale="   92.664">  5  6 -1 -1</clus>
<clus scale="  140.198">  1  7  2 -1</clus>
<clus scale="   21.448">  1  5  2 -1</clus>
</clustering>
</event>
<event>
 9    1  0.1504846E-005  0.1143977E+03  0.7546771E-02  0.1252662E+00
         -3   -1    0    0    0  501 -0.00000000000E+00  0.00000000000E+00  0.23082434048E+03  0.23082434048E+03  0.00000000000E+00 0.  1.
         21   -1    0    0  501  502  0.00000000000E+00 -0.00000000000E+00 -0.77747532728E+02  0.77747532728E+02  0.00000000000E+00 0. -1.
         23    2    1    2    0    0 -0.75217684816E+02  0.17009501233E+02  0.91876345411E+02  0.15205024379E+03  0.93439769626E+02 0.  0.
         23    2    1    2    0    0  0.49344748322E+02 -0.26488001001E+02  0.67703364644E+02  0.12821017345E+03  0.93368006346E+02 0.  0.
        -13    1    3    3    0    0 -0.69361160825E+02 -0.28679189198E+02  0.58675363986E+02  0.95269432994E+02  0.00000000000E+00 0.  1.
         13    1    3    3    0    0 -0.58565239908E+01  0.45688690431E+02  0.33200981425E+02  0.56780810791E+02  0.00000000000E+00 0. -1.
        -13    1    4    4    0    0  0.73848625563E+02 -0.33613441858E+02  0.39722908618E+02  0.90340425282E+02  0.00000000000E+00 0. -1.
         13    1    4    4    0    0 -0.24503877240E+02  0.71254408568E+01  0.27980456026E+02  0.37869748172E+02  0.00000000000E+00 0.  1.
         -3    1    1    2    0  502  0.25872936494E+02  0.94784997678E+01 -0.65029023036E+01  0.28311455968E+02  0.00000000000E+00 0.  1.
<scales pt_clust_5="13000.00000" pt_clust_6="13000.00000" pt_clust_7="13000.00000" pt_clust_8="13000.00000" pt_clust_9="27.55451"></scales>
<clustering>
<clus scale="   27.555">  2  9  1 -1</clus>
<clus scale="   93.368">  7  8 -1 -1</clus>
<clus scale="   93.440">  5  6 -1 -1</clus>
<clus scale="  114.339">  2  7  1 -1</clus>
<clus scale="   27.555">  2  5  1 -1</clus>
</clustering>
</event>
<event>
 9    1  0.1504846E-005  0.1003759E+03  0.7546771E-02  0.1280735E+00
         21   -1    0    0  501  502  0.00000000000E+00  0.00000000000E+00  0.94640068863E+02  0.94640068863E+02  0.00000000000E+00 0.  1.
          1   -1    0    0  502    0 -0.00000000000E+00 -0.00000000000E+00 -0.32240190323E+03  0.32240190323E+03  0.00000000000E+00 0. -1.
         23    2    1    2    0    0  0.12503976827E+02  0.29473872263E+02 -0.21762441091E+03  0.23912274553E+03  0.93777633928E+02 0.  0.
         23    2    1    2    0    0  0.26358210405E+02 -0.69163424229E+02  0.11966527872E+02  0.11813532575E+03  0.91293060493E+02 0.  0.
        -11    1    4    4    0    0 -0.22811075301E+02 -0.62794354340E+02 -0.12607652003E+01  0.66821146520E+02  0.00000000000E+00 0.  1.
         11    1    4    4    0    0  0.49169285706E+02 -0.63690698891E+01  0.13227293072E+02  0.51314179231E+02  0.00000000000E+00 0. -1.
        -13    1    3    3    0    0  0.38590382870E+02 -0.19590634611E+02 -0.10370286001E+03  0.11237123204E+03  0.00000000000E+00 0.  1.
         13    1    3    3    0    0 -0.26086406044E+02  0.49064506874E+02 -0.11392155089E+03  0.12675151349E+03  0.00000000000E+00 0. -1.
          1    1    1    2  501    0 -0.38862187232E+02  0.39689551967E+02 -0.22103951333E+02  0.59783900812E+02  0.00000000000E+00 0. -1.
<scales pt_clust_5="13000.00000" pt_clust_6="13000.00000" pt_clust_7="13000.00000" pt_clust_8="13000.00000" pt_clust_9="55.54755"></scales>
<clustering>
<clus scale="   55.548">  1  9  2 -1</clus>
<clus scale="   91.293">  5  6 -1 -1</clus>
<clus scale="   93.778">  7  8 -1 -1</clus>
<clus scale="   98.059">  1  5  2 -1</clus>
<clus scale="   55.548">  1  5  2 -1</clus>
</clustering>
</event>
<event>
 9    1  0.1504846E-005  0.1656432E+03  0.7546771E-02  0.1182655E+00
         -3   -1    0    0    0  501 -0.00000000000E+00  0.00000000000E+00  0.40124386616E+03  0.40124386616E+03  0.00000000000E+00 0.  1.
         21   -1    0    0  501  502  0.00000000000E+00 -0.00000000000E+00 -0.10509595429E+03  0.10509595429E+03  0.00000000000E+00 0.  1.
         23    2    1    2    0    0 -0.43502925474E+02  0.10171940779E+03  0.96608298010E+02  0.17391023259E+03  0.93124987580E+02 0.  0.
         23    2    1    2    0    0  0.30190027889E+02 -0.17033169707E+03  0.14281441165E+03  0.24241498878E+03  0.91895298024E+02 0.  0.
        -13    1    4    4    0    0 -0.28252709509E+02 -0.38728976981E+02  0.58189507246E+02  0.75393421504E+02  0.00000000000E+00 0. -1.
         13    1    4    4    0    0  0.58442737398E+02 -0.13160272009E+03  0.84624904403E+02  0.16702156727E+03  0.00000000000E+00 0.  1.
        -13    1    3    3    0    0 -0.60444982168E+02  0.31735513804E+02  0.25973031279E+02  0.73043391621E+02  0.00000000000E+00 0. -1.
         13    1    3    3    0    0  0.16942056694E+02  0.69983893981E+02  0.70635266731E+02  0.10086684097E+03  0.00000000000E+00 0.  1.
         -3    1    1    2    0  502  0.13312897585E+02  0.68612289280E+02  0.56725202203E+02  0.90014599079E+02  0.00000000000E+00 0.  1.
<scales pt_clust_5="13000.00000" pt_clust_6="13000.00000" pt_clust_7="13000.00000" pt_clust_8="13000.00000" pt_clust_9="69.89195"></scales>
<clustering>
<clus scale="   69.892">  2  9  1 -1</clus>
<clus scale="   91.895">  5  6 -1 -1</clus>
<clus scale="   93.125">  7  8 -1 -1</clus>
<clus scale="  164.955">  2  5  1 -1</clus>
<clus scale="   69.892">  2  5  1 -1</clus>
</clustering>
</event>
<event>
 9    1  0.1504846E-005  0.1539544E+03  0.7546771E-02  0.1195951E+00
          2   -1    0    0  502    0 -0.00000000000E+00  0.00000000000E+00  0.87462157835E+03  0.87462157835E+03  0.00000000000E+00 0. -1.
         21   -1    0    0  501  502  0.00000000000E+00 -0.00000000000E+00 -0.41477558826E+02  0.41477558826E+02  0.00000000000E+00 0.  1.
         23    2    1    2    0    0  0.11729337510E+03 -0.14183084147E+02  0.50972496769E+03  0.53098430566E+03  0.90365338770E+02 0.  0.
         23    2    1    2    0    0 -0.13393400814E+03  0.52546460000E+00  0.32522812208E+03  0.36351126758E+03  0.91806947544E+02 0.  0.
        -11    1    4    4    0    0 -0.72167632808E+02 -0.19462484150E+02  0.26361985587E+03  0.27401164925E+03  0.00000000000E+00 0. -1.
         11    1    4    4    0    0 -0.61766375329E+02  0.19987948750E+02  0.61608266215E+02  0.89499618338E+02  0.00000000000E+00 0.  1.
        -13    1    3    3    0    0  0.86314556215E+02 -0.50908733381E+02  0.32381649928E+03  0.33896758983E+03  0.00000000000E+00 0. -1.
         13    1    3    3    0    0  0.30978818883E+02  0.36725649234E+02  0.18590846840E+03  0.19201671582E+03  0.00000000000E+00 0.  1.
          2    1    1    2  501    0  0.16640633039E+02  0.13657619547E+02 -0.18090702466E+01  0.21603563937E+02  0.00000000000E+00 0. -1.
<scales pt_clust_5="13000.00000" pt_clust_6="13000.00000" pt_clust_7="13000.00000" pt_clust_8="13000.00000" pt_clust_9="21.52769"></scales>
<clustering>
<clus scale="   21.528">  2  9  1 -1</clus>
<clus scale="   90.365">  7  8 -1 -1</clus>
<clus scale="   91.807">  5  6 -1 -1</clus>
<clus scale="  153.099">  1  7  2 -1</clus>
<clus scale="   21.528">  2  5  1 -1</clus>
</clustering>
</event>
<event>
 9    1  0.1504846E-005  0.9763833E+02  0.7546771E-02  0.1286468E+00
          2   -1    0    0  502    0 -0.00000000000E+00  0.00000000000E+00  0.34225904708E+03  0.34225904708E+03  0.00000000000E+00 0. -1.
         21   -1    0    0  501  502  0.00000000000E+00 -0.00000000000E+00 -0.19874078262E+03  0.19874078262E+03  0.00000000000E+00 0. -1.
         23    2    1    2    0    0  0.66366979207E+02 -0.12673182816E+01  0.22321428712E+03  0.24973137035E+03  0.90193998336E+02 0.  0.
         23    2    1    2    0    0  0.22819722522E+02 -0.33075163842E+02  0.65955583546E+02  0.11706150129E+03  0.87969027982E+02 0.  0.
        -13    1    4    4    0    0  0.44425275405E+02  0.11266454388E+02  0.42253792518E+02  0.62337156428E+02  0.00000000000E+00 0.  1.
         13    1    4    4    0    0 -0.21605552883E+02 -0.44341618231E+02  0.23701791028E+02  0.54724344862E+02  0.00000000000E+00 0. -1.
        -13    1    3    3    0    0 -0.20120148644E+02  0.10221037263E+02  0.68380979507E+02  0.72008668523E+02  0.00000000000E+00 0.  1.
         13    1    3    3    0    0  0.86487127850E+02 -0.11488355545E+02  0.15483330762E+03  0.17772270183E+03  0.00000000000E+00 0. -1.
          2    1    1    2  501    0 -0.89186701729E+02  0.34342482124E+02 -0.14565160622E+03  0.17420695806E+03  0.00000000000E+00 0. -1.
<scales pt_clust_5="13000.00000" pt_clust_6="13000.00000" pt_clust_7="13000.00000" pt_clust_8="13000.00000" pt_clust_9="95.57026"></scales>
<clustering>
<clus scale="   87.969">  5  6 -1 -1</clus>
<clus scale="   90.194">  7  8 -1 -1</clus>
<clus scale="   95.570">  2  9  1 -1</clus>
<clus scale="   95.587">  2  5  1 -1</clus>
<clus scale="   95.570">  2  5  1 -1</clus>
</clustering>
</event>
<event>
 9    1  0.1504846E-005  0.9421389E+02  0.7546771E-02  0.1294448E+00
         -2   -1    0    0    0  501 -0.00000000000E+00  0.00000000000E+00  0.20189168827E+03  0.20189168827E+03  0.00000000000E+00 0.  1.
         21   -1    0    0  501  502  0.00000000000E+00 -0.00000000000E+00 -0.10093723204E+03  0.10093723204E+03  0.00000000000E+00 0.  1.
         23    2    1    2    0    0 -0.45774690388E+01  0.67583077173E+01  0.10666374071E+03  0.13944896937E+03  0.89455204044E+02 0.  0.
         23    2    1    2    0    0  0.48095475493E+02 -0.36890005802E+02 -0.12544251063E+01  0.11026138651E+03  0.92097516151E+02 0.  0.
        -11    1    3    3    0    0  0.31011899862E+02  0.32522176027E+01  0.48748479846E+01  0.31560719182E+02  0.00000000000E+00 0.  1.
         11    1    3    3    0    0 -0.35589368901E+02  0.35060901146E+01  0.10178889273E+03  0.10788825019E+03  0.00000000000E+00 0. -1.
        -13    1    4    4    0    0  0.39424899708E+02  0.20726304932E+02 -0.20318789512E+02  0.48956671051E+02  0.00000000000E+00 0. -1.
         13    1    4    4    0    0  0.86705757844E+01 -0.57616310734E+02  0.19064364405E+02  0.61304715457E+02  0.00000000000E+00 0.  1.
         -2    1    1    2    0  502 -0.43518006454E+02  0.30131698085E+02 -0.44548593832E+01  0.53118564432E+02  0.00000000000E+00 0.  1.
<scales pt_clust_5="13000.00000" pt_clust_6="13000.00000" pt_clust_7="13000.00000" pt_clust_8="13000.00000" pt_clust_9="52.93143"></scales>
<clustering>
<clus scale="   52.931">  2  9  1 -1</clus>
<clus scale="   89.455">  5  6 -1 -1</clus>
<clus scale="   91.633">  1  5  2 -1</clus>
<clus scale="   92.098">  7  8 -1 -1</clus>
<clus scale="   52.931">  2  5  1 -1</clus>
</clustering>
</event>
<event>
 9    1  0.1504846E-005  0.1399623E+03  0.7546771E-02  0.1213980E+00
         21   -1    0    0  501  502  0.00000000000E+00  0.00000000000E+00  0.84347332426E+02  0.84347332426E+02  0.00000000000E+00 0. -1.
          2   -1    0    0  502    0 -0.00000000000E+00 -0.00000000000E+00 -0.56231759904E+03  0.56231759904E+03  0.00000000000E+00 0. -1.
         23    2    1    2    0    0  0.69523643911E+02 -0.51317695872E+02 -0.25130097430E+03  0.28126768802E+03  0.92153619912E+02 0.  0.
         23    2    1    2    0    0 -0.12142173867E+03  0.61574593067E+02 -0.25710556291E+03  0.30436460671E+03  0.89442015889E+02 0.  0.
        -11    1    3    3    0    0  0.42897632805E+02 -0.77171014133E+02 -0.19171484894E+03  0.21106907786E+03  0.00000000000E+00 0. -1.
         11    1    3    3    0    0  0.26626011106E+02  0.25853318261E+02 -0.59586125364E+02  0.70198610160E+02  0.00000000000E+00 0.  1.
        -13    1    4    4    0    0 -0.11533226106E+03  0.39258460329E+02 -0.25308995908E+03  0.28088660441E+03  0.00000000000E+00 0. -1.
         13    1    4    4    0    0 -0.60894776079E+01  0.22316132738E+02 -0.40156038275E+01  0.23478002300E+02  0.00000000000E+00 0.  1.
          2    1    1    2  501    0  0.51898094755E+02 -0.10256897195E+02  0.30436270602E+02  0.61032636740E+02  0.00000000000E+00 0. -1.
<scales pt_clust_5="13000.00000" pt_clust_6="13000.00000" pt_clust_7="13000.00000" pt_clust_8="13000.00000" pt_clust_9="52.90195"></scales>
<clustering>
<clus scale="   52.902">  1  9  2 -1</clus>
<clus scale="   89.442">  7  8 -1 -1</clus>
<clus scale="   92.154">  5  6 -1 -1</clus>
<clus scale="  138.192">  1  7  2 -1</clus>
<clus scale="   52.902">  1  5  2 -1</clus>
</clustering>
</event>
<event>
 9    1  0.1504846E-005  0.9985363E+02  0.7546771E-02  0.1284687E+00
         -4   -1    0    0    0  501 -0.00000000000E+00  0.00000000000E+00  0.80376617019E+02  0.80376617019E+02  0.00000000000E+00 0.  1.
         21   -1    0    0  501  502  0.00000000000E+00 -0.00000000000E+00 -0.18971842951E+03  0.18971842951E+03  0.00000000000E+00 0. -1.
         23    2    1    2    0    0  0.49543827069E+02  0.15156612247E+02 -0.18103704519E+02  0.10741278846E+03  0.92333359689E+02 0.  0.
         23    2    1    2    0    0 -0.14637622671E+02 -0.24759811680E+02 -0.34680523135E+02  0.95530006082E+02  0.84237373565E+02 0.  0.
        -13    1    4    4    0    0 -0.25936319655E+02  0.25038689855E+02 -0.24148535966E+02  0.43391018151E+02  0.00000000000E+00 0. -1.
         13    1    4    4    0    0  0.11298696984E+02 -0.49798501535E+02 -0.10531987169E+02  0.52138987930E+02  0.00000000000E+00 0.  1.
        -13    1    3    3    0    0  0.97529854051E+01  0.50839510005E+02 -0.14907553495E+02  0.53870322563E+02  0.00000000000E+00 0. -1.
         13    1    3    3    0    0  0.39790841664E+02 -0.35682897757E+02 -0.31961510238E+01  0.53542465894E+02  0.00000000000E+00 0.  1.
         -4    1    1    2    0  502 -0.34906204398E+02  0.96031994330E+01 -0.56557584839E+02  0.67152251992E+02  0.00000000000E+00 0.  1.
<scales pt_clust_5="13000.00000" pt_clust_6="13000.00000" pt_clust_7="13000.00000" pt_clust_8="13000.00000" pt_clust_9="36.20310"></scales>
<clustering>
<clus scale="   36.203">  2  9  1 -1</clus>
<clus scale="   84.237">  5  6 -1 -1</clus>
<clus scale="   92.333">  7  8 -1 -1</clus>
<clus scale="   92.419">  2  5  1 -1</clus>
<clus scale="   36.203">  2  5  1 -1</clus>
</clustering>
</event>
<event>
 9    1  0.1504846E-005  0.1281456E+03  0.7546771E-02  0.1230743E+00
         -1   -1    0    0    0  501 -0.00000000000E+00  0.00000000000E+00  0.72536397645E+02  0.72536397645E+02  0.00000000000E+00 0.  1.
         21   -1    0    0  501  502  0.00000000000E+00 -0.00000000000E+00 -0.37393927701E+03  0.37393927701E+03  0.00000000000E+00 0.  1.
         23    2    1    2    0    0 -0.89118365509E+02 -0.18226564179E+02 -0.52518412413E+02  0.13955455089E+03  0.91885789544E+02 0.  0.
         23    2    1    2    0    0  0.84027973015E+02 -0.92583805025E+01 -0.11699251457E+03  0.17209968117E+03  0.93726378005E+02 0.  0.
        -11    1    4    4    0    0  0.14864316989E+02  0.14667172354E+02 -0.92647448731E+02  0.94971699052E+02  0.00000000000E+00 0. -1.
         11    1    4    4    0    0  0.69163656027E+02 -0.23925552857E+02 -0.24345065839E+02  0.77127982115E+02  0.00000000000E+00 0.  1.
        -11    1    3    3    0    0 -0.56856639689E+02 -0.41263924921E+02  0.41746083257E+01  0.70376248347E+02  0.00000000000E+00 0.  1.
         11    1    3    3    0    0 -0.32261725820E+02  0.23037360743E+02 -0.56693020739E+02  0.69178302547E+02  0.00000000000E+00 0. -1.
         -1    1    1    2    0  502  0.50903924941E+01  0.27484944681E+02 -0.13189195238E+03  0.13482144259E+03  0.00000000000E+00 0.  1.
<scales pt_clust_5="13000.00000" pt_clust_6="13000.00000" pt_clust_7="13000.00000" pt_clust_8="13000.00000" pt_clust_9="27.95236"></scales>
<clustering>
<clus scale="   27.952">  2  9  1 -1</clus>
<clus scale="   91.886">  7  8 -1 -1</clus>
<clus scale="   93.726">  5  6 -1 -1</clus>
<clus scale="  126.806">  1  7  2 -1</clus>
<clus scale="   27.952">  2  5  1 -1</clus>
</clustering>
</event>
<event>
 9    1  0.1504846E-005  0.9332966E+02  0.7546771E-02  0.1295179E+00
          1   -1    0    0  502    0 -0.00000000000E+00  0.00000000000E+00  0.19721575846E+03  0.19721575846E+03  0.00000000000E+00 0. -1.
         21   -1    0    0  501  502  0.00000000000E+00 -0.00000000000E+00 -0.11584688789E+03  0.11584688789E+03  0.00000000000E+00 0.  1.
         23    2    1    2    0    0 -0.13439647797E+02 -0.12979970888E+02  0.72642421210E+02  0.11761403721E+03  0.90592696241E+02 0.  0.
         23    2    1    2    0    0  0.30822333095E+02 -0.49921284269E+01  0.77045281088E+02  0.12269823547E+03  0.90243803581E+02 0.  0.
        -13    1    3    3    0    0  0.25295945428E+02  0.20484103606E+02  0.54164378326E+02  0.63192271958E+02  0.00000000000E+00 0.  1.
         13    1    3    3    0    0 -0.38735593225E+02 -0.33464074495E+02  0.18478042884E+02  0.54421765252E+02  0.00000000000E+00 0. -1.
        -13    1    4    4    0    0  0.58349038067E+02 -0.45005459486E+01  0.74944608252E+02  0.95087115127E+02  0.00000000000E+00 0. -1.
         13    1    4    4    0    0 -0.27526704972E+02 -0.49158247826E+00  0.21006728361E+01  0.27611120338E+02  0.00000000000E+00 0.  1.
          1    1    1    2  501    0 -0.17382685298E+02  0.17972099315E+02 -0.68318831722E+02  0.72750373675E+02  0.00000000000E+00 0. -1.
<scales pt_clust_5="13000.00000" pt_clust_6="13000.00000" pt_clust_7="13000.00000" pt_clust_8="13000.00000" pt_clust_9="25.00308"></scales>
<clustering>
<clus scale="   25.003">  2  9  1 -1</clus>
<clus scale="   90.244">  7  8 -1 -1</clus>
<clus scale="   90.593">  5  6 -1 -1</clus>
<clus scale="   92.991">  2  7  1 -1</clus>
<clus scale="   25.003">  2  5  1 -1</clus>
</clustering>
</event>
<event>
 9    1  0.1504846E-005  0.9834900E+02  0.7546771E-02  0.1285413E+00
          3   -1    0    0  502    0 -0.00000000000E+00  0.00000000000E+00  0.61693992934E+02  0.61693992934E+02  0.00000000000E+00 0. -1.
         21   -1    0    0  501  502  0.00000000000E+00 -0.00000000000E+00 -0.35839527537E+03  0.35839527537E+03  0.00000000000E+00 0.  1.
         23    2    1    2    0    0 -0.28148521117E+01  0.38048690055E+02 -0.97755643027E+01  0.99691720795E+02  0.91581937795E+02 0.  0.
         23    2    1    2    0    0  0.20798675753E+02 -0.21470047663E+02 -0.27974755669E+03  0.29490646479E+03  0.88417077764E+02 0.  0.
        -13    1    4    4    0    0  0.46712364787E+02  0.14508691515E+02 -0.15283001334E+03  0.16046669478E+03  0.00000000000E+00 0.  1.
         13    1    4    4    0    0 -0.25913689034E+02 -0.35978739179E+02 -0.12691754335E+03  0.13443977002E+03  0.00000000000E+00 0. -1.
        -13    1    3    3    0    0  0.35232552172E+02  0.44488779677E+02 -0.19305043751E+02  0.59943881789E+02  0.00000000000E+00 0.  1.
         13    1    3    3    0    0 -0.38047404284E+02 -0.64400896218E+01  0.95294794486E+01  0.39747839006E+02  0.00000000000E+00 0. -1.
          3    1    1    2  501    0 -0.17983823641E+02 -0.16578642392E+02 -0.71781614366E+01  0.25491082714E+02  0.00000000000E+00 0. -1.
<scales pt_clust_5="13000.00000" pt_clust_6="13000.00000" pt_clust_7="13000.00000" pt_clust_8="13000.00000" pt_clust_9="24.45956"></scales>
<clustering>
<clus scale="   24.460">  2  9  1 -1</clus>
<clus scale="   88.417">  5  6 -1 -1</clus>
<clus scale="   91.582">  7  8 -1 -1</clus>
<clus scale="   95.409">  2  5  1 -1</clus>
<clus scale="   24.460">  2  5  1 -1</clus>
</clustering>
</event>
<event>
 9    1  0.1504846E-005  0.9672623E+02  0.7546771E-02  0.1287481E+00
         21   -1    0    0  501  502  0.00000000000E+00  0.00000000000E+00  0.31114836432E+03  0.31114836432E+03  0.00000000000E+00 0. -1.
          2   -1    0    0  502    0 -0.00000000000E+00 -0.00000000000E+00 -0.41511349960E+03  0.41511349960E+03  0.00000000000E+00 0. -1.
         23    2    1    2    0    0  0.25568558301E+02 -0.22371264193E+02 -0.37679731347E+03  0.38902752283E+03  0.90619939549E+02 0.  0.
         23    2    1    2    0    0 -0.28155146553E+01  0.43600443403E+02  0.49770625029E+02  0.11201259359E+03  0.90337036812E+02 0.  0.
        -11    1    4    4    0    0 -0.39710803719E+02 -0.68650249870E+00  0.33922300138E+02  0.52231615563E+02  0.00000000000E+00 0.  1.
         11    1    4    4    0    0  0.36895289063E+02  0.44286945902E+02  0.15848324891E+02  0.59780978030E+02  0.00000000000E+00 0. -1.
        -13    1    3    3    0    0 -0.44435705109E+01  0.31577214942E+02 -0.17906053423E+03  0.18187781817E+03  0.00000000000E+00 0.  1.
         13    1    3    3    0    0  0.30012128812E+02 -0.53948479135E+02 -0.19773677924E+03  0.20714970466E+03  0.00000000000E+00 0. -1.
          2    1    1    2  501    0 -0.22753043646E+02 -0.21229179210E+02  0.22306155316E+03  0.22522174749E+03  0.00000000000E+00 0. -1.
<scales pt_clust_5="13000.00000" pt_clust_6="13000.00000" pt_clust_7="13000.00000" pt_clust_8="13000.00000" pt_clust_9="31.11879"></scales>
<clustering>
<clus scale="   31.119">  1  9  2 -1</clus>
<clus scale="   90.337">  5  6 -1 -1</clus>
<clus scale="   90.620">  7  8 -1 -1</clus>
<clus scale="   96.461">  1  5  2 -1</clus>
<clus scale="   31.119">  1  5  2 -1</clus>
</clustering>
</event>
<event>
 9    1  0.1504846E-005  0.1392350E+03  0.7546771E-02  0.1217297E+00
          1   -1    0    0  502    0 -0.00000000000E+00  0.00000000000E+00  0.67260125644E+03  0.67260125644E+03  0.00000000000E+00 0. -1.
         21   -1    0    0  501  502  0.00000000000E+00 -0.00000000000E+00 -0.94577492139E+02  0.94577492139E+02  0.00000000000E+00 0. -1.
         23    2    1    2    0    0 -0.46268921155E+02  0.81453418438E+02  0.39943699201E+03  0.42313424172E+03  0.10352392712E+03 0.  0.
         23    2    1    2    0    0 -0.57936902664E+02 -0.11799133021E+03  0.16930031726E+03  0.23322884479E+03  0.91948126246E+02 0.  0.
        -11    1    4    4    0    0 -0.17699466394E+02  0.12013282705E+02  0.97084701036E+01  0.23491369984E+02  0.00000000000E+00 0.  1.
         11    1    4    4    0    0 -0.40237436271E+02 -0.13000461292E+03  0.15959184716E+03  0.20973747480E+03  0.00000000000E+00 0. -1.
        -13    1    3    3    0    0  0.32651381342E+02  0.31203751635E+02  0.15333257739E+03  0.15984575724E+03  0.00000000000E+00 0.  1.
         13    1    3    3    0    0 -0.78920302498E+02  0.50249666803E+02  0.24610441463E+03  0.26328848448E+03  0.00000000000E+00 0. -1.
          1    1    1    2  501    0  0.10420582382E+03  0.36537911773E+02  0.92864550291E+01  0.11081566208E+03  0.00000000000E+00 0. -1.
<scales pt_clust_5="13000.00000" pt_clust_6="13000.00000" pt_clust_7="13000.00000" pt_clust_8="13000.00000" pt_clust_9="110.42587"></scales>
<clustering>
<clus scale="   91.948">  5  6 -1 -1</clus>
<clus scale="  103.524">  7  8 -1 -1</clus>
<clus scale="  110.426">  2  9  1 -1</clus>
<clus scale="  130.857">  2  5  1 -1</clus>
<clus scale="  110.426">  2  5  1 -1</clus>
</clustering>
</event>
<event>
 9    1  0.1504846E-005  0.9097979E+02  0.7546771E-02  0.1302200E+00
          1   -1    0    0  502    0 -0.00000000000E+00  0.00000000000E+00  0.75207586453E+02  0.75207586453E+02  0.00000000000E+00 0. -1.
         21   -1    0    0  501  502  0.00000000000E+00 -0.00000000000E+00 -0.26698776227E+03  0.26698776227E+03  0.00000000000E+00 0.  1.
         23    2    1    2    0    0  0.12936705292E+02 -0.10683049883E+01  0.25313316315E+02  0.91919093607E+02  0.87406270755E+02 0.  0.
         23    2    1    2    0    0 -0.12631155639E+01 -0.26729361836E+02 -0.17115302495E+03  0.19532619140E+03  0.90238067632E+02 0.  0.
        -13    1    4    4    0    0  0.78208617606E+01 -0.59529205060E+02 -0.11216917010E+03  0.12722741393E+03  0.00000000000E+00 0. -1.
         13    1    4    4    0    0 -0.90839773245E+01  0.32799843224E+02 -0.58983854846E+02  0.68098777463E+02  0.00000000000E+00 0.  1.
        -13    1    3    3    0    0  0.67368116206E+00  0.40106161467E+02 -0.33839308712E+01  0.40254304391E+02  0.00000000000E+00 0.  1.
         13    1    3    3    0    0  0.12263024130E+02 -0.41174466455E+02  0.28697247186E+02  0.51664789216E+02  0.00000000000E+00 0. -1.
          1    1    1    2  501    0 -0.11673589728E+02  0.27797666825E+02 -0.45940467180E+02  0.54950063719E+02  0.00000000000E+00 0. -1.
<scales pt_clust_5="13000.00000" pt_clust_6="13000.00000" pt_clust_7="13000.00000" pt_clust_8="13000.00000" pt_clust_9="30.14934"></scales>
<clustering>
<clus scale="   30.149">  2  9  1 -1</clus>
<clus scale="   87.406">  7  8 -1 -1</clus>
<clus scale="   88.172">  1  7  2 -1</clus>
<clus scale="   90.238">  5  6 -1 -1</clus>
<clus scale="   30.149">  2  5  1 -1</clus>
</clustering>
</event>
<event>
 9    1  0.1504846E-005  0.9859281E+02  0.7546771E-02  0.1284342E+00
          1   -1    0    0  502    0 -0.00000000000E+00  0.00000000000E+00  0.32939711796E+03  0.32939711796E+03  0.00000000000E+00 0. -1.
         21   -1    0    0  501  502  0.00000000000E+00 -0.00000000000E+00 -0.93102481127E+02  0.93102481127E+02  0.00000000000E+00 0.  1.
         23    2    1    2    0    0 -0.37800523944E+02 -0.14661525677E+00  0.27272484355E+03  0.28927324347E+03  0.88720166798E+02 0.  0.
         23    2    1    2    0    0  0.42004642540E+02 -0.24039956890E+02 -0.34664394021E+02  0.10861369668E+03  0.90846053139E+02 0.  0.
        -11    1    4    4    0    0  0.62434856655E+02 -0.17160691461E+02  0.34317475271E+01  0.64841171705E+02  0.00000000000E+00 0. -1.
         11    1    4    4    0    0 -0.20430214115E+02 -0.68792654298E+01 -0.38096141548E+02  0.43772524973E+02  0.00000000000E+00 0.  1.
        -11    1    3    3    0    0  0.26886321441E+02  0.58820279886E+01  0.12332987182E+03  0.12636348292E+03  0.00000000000E+00 0.  1.
         11    1    3    3    0    0 -0.64686845385E+02 -0.60286432454E+01  0.14939497173E+03  0.16290976055E+03  0.00000000000E+00 0. -1.
          1    1    1    2  501    0 -0.42041185962E+01  0.24186572147E+02 -0.17658126911E+01  0.24612658935E+02  0.00000000000E+00 0. -1.
<scales pt_clust_5="13000.00000" pt_clust_6="13000.00000" pt_clust_7="13000.00000" pt_clust_8="13000.00000" pt_clust_9="24.54923"></scales>
<clustering>
<clus scale="   24.549">  2  9  1 -1</clus>
<clus scale="   88.720">  7  8 -1 -1</clus>
<clus scale="   90.846">  5  6 -1 -1</clus>
<clus scale="   96.637">  1  7  2 -1</clus>
<clus scale="   24.549">  2  5  1 -1</clus>
</clustering>
</event>
<event>
 9    1  0.1504846E-005  0.1109459E+03  0.7546771E-02  0.1259858E+00
         21   -1    0    0  501  502  0.00000000000E+00  0.00000000000E+00  0.70863314377E+03  0.70863314377E+03  0.00000000000E+00 0.  1.
          2   -1    0    0  502    0 -0.00000000000E+00 -0.00000000000E+00 -0.14004504760E+03  0.14004504760E+03  0.00000000000E+00 0. -1.
         23    2    1    2    0    0  0.23416492997E+01  0.59087525179E+02 -0.10208717601E+03  0.15021528139E+03  0.92983978749E+02 0.  0.
         23    2    1    2    0    0  0.49208561458E+02 -0.88463383508E+02  0.45884717211E+03  0.47848220797E+03  0.90317458155E+02 0.  0.
        -11    1    3    3    0    0  0.24066695645E+02  0.36230612297E+02 -0.13306408383E+00  0.43495756261E+02  0.00000000000E+00 0.  1.
         11    1    3    3    0    0 -0.21725046345E+02  0.22856912882E+02 -0.10195411192E+03  0.10671952513E+03  0.00000000000E+00 0. -1.
        -13    1    4    4    0    0  0.70552537756E+02 -0.39509964029E+02  0.30891453843E+03  0.31932254837E+03  0.00000000000E+00 0.  1.
         13    1    4    4    0    0 -0.21343976298E+02 -0.48953419479E+02  0.14993263367E+03  0.15915965960E+03  0.00000000000E+00 0. -1.
          2    1    1    2  501    0 -0.51550210758E+02  0.29375858329E+02  0.21182810006E+03  0.21998070201E+03  0.00000000000E+00 0. -1.
<scales pt_clust_5="13000.00000" pt_clust_6="13000.00000" pt_clust_7="13000.00000" pt_clust_8="13000.00000" pt_clust_9="59.33267"></scales>
<clustering>
<clus scale="   59.333">  1  9  2 -1</clus>
<clus scale="   90.317">  7  8 -1 -1</clus>
<clus scale="   92.984">  5  6 -1 -1</clus>
<clus scale="  108.721">  1  7  2 -1</clus>
<clus scale="   59.333">  1  5  2 -1</clus>
</clustering>
</event>
<event>
 9    1  0.1504846E-005  0.9565855E+02  0.7546771E-02  0.1290578E+00
         21   -1    0    0  501  502  0.00000000000E+00  0.00000000000E+00  0.10576687684E+03  0.10576687684E+03  0.00000000000E+00 0.  1.
         -1   -1    0    0    0  501 -0.00000000000E+00 -0.00000000000E+00 -0.16020448068E+03  0.16020448068E+03  0.00000000000E+00 0.  1.
         23    2    1    2    0    0 -0.17732233106E+02  0.25419341537E+02 -0.98161037374E+02  0.13838537687E+03  0.92489719747E+02 0.  0.
         23    2    1    2    0    0 -0.26977263167E+01 -0.51784748640E+01  0.34620352355E+02  0.97420735531E+02  0.90874290011E+02 0.  0.
        -13    1    3    3    0    0 -0.15259692352E+02  0.59642442978E+02 -0.50321978035E+02  0.79513399427E+02  0.00000000000E+00 0.  1.
         13    1    3    3    0    0 -0.24725407532E+01 -0.34223101441E+02 -0.47839059339E+02  0.58871977446E+02  0.00000000000E+00 0. -1.
        -13    1    4    4    0    0  0.11631452678E+02  0.36599921044E+02  0.36814077878E+02  0.53198883840E+02  0.00000000000E+00 0.  1.
         13    1    4    4    0    0 -0.14329178995E+02 -0.41778395908E+02 -0.21937255236E+01  0.44221851691E+02  0.00000000000E+00 0. -1.
         -1    1    1    2    0  502  0.20429959422E+02 -0.20240866673E+02  0.91030811846E+01  0.30165245113E+02  0.00000000000E+00 0.  1.
<scales pt_clust_5="13000.00000" pt_clust_6="13000.00000" pt_clust_7="13000.00000" pt_clust_8="13000.00000" pt_clust_9="28.75893"></scales>
<clustering>
<clus scale="   28.759">  1  9  2 -1</clus>
<clus scale="   90.874">  7  8 -1 -1</clus>
<clus scale="   92.490">  5  6 -1 -1</clus>
<clus scale="   94.098">  1  7  2 -1</clus>
<clus scale="   28.759">  1  5  2 -1</clus>
</clustering>
</event>
<event>
 9    1  0.1504846E-005  0.1863393E+03  0.7546771E-02  0.1162141E+00
         -1   -1    0    0    0  501 -0.00000000000E+00  0.00000000000E+00  0.83750279026E+02  0.83750279026E+02  0.00000000000E+00 0.  1.
         21   -1    0    0  501  502  0.00000000000E+00 -0.00000000000E+00 -0.89814673913E+03  0.89814673913E+03  0.00000000000E+00 0. -1.
         23    2    1    2    0    0  0.97752290446E+02  0.90013824643E+02 -0.14681405962E+03  0.21915324491E+03  0.93892373153E+02 0.  0.
         23    2    1    2    0    0 -0.14753460019E+03 -0.13210913823E+03 -0.22344422803E+03  0.31384622367E+03  0.96710115366E+02 0.  0.
        -11    1    3    3    0    0  0.67183342496E+02  0.10082623925E+03 -0.14151957799E+03  0.18629901498E+03  0.00000000000E+00 0.  1.
         11    1    3    3    0    0  0.30568947950E+02 -0.10812414603E+02 -0.52944816371E+01  0.32854229927E+02  0.00000000000E+00 0. -1.
        -13    1    4    4    0    0 -0.61655794924E+02 -0.56037026304E+02 -0.29262946647E+02  0.88305749593E+02  0.00000000000E+00 0.  1.
         13    1    4    4    0    0 -0.85878805265E+02 -0.76072111929E+02 -0.19418128138E+03  0.22554047408E+03  0.00000000000E+00 0. -1.
         -1    1    1    2    0  502  0.49782309743E+02  0.42095313590E+02 -0.44413817245E+03  0.44889754958E+03  0.00000000000E+00 0.  1.
<scales pt_clust_5="13000.00000" pt_clust_6="13000.00000" pt_clust_7="13000.00000" pt_clust_8="13000.00000" pt_clust_9="65.19428"></scales>
<clustering>
<clus scale="   65.194">  2  9  1 -1</clus>
<clus scale="   93.892">  5  6 -1 -1</clus>
<clus scale="   96.710">  7  8 -1 -1</clus>
<clus scale="  184.893">  1  5  2 -1</clus>
<clus scale="   65.194">  2  5  1 -1</clus>
</clustering>
</event>
<event>
 9    1  0.1504846E-005  0.1240477E+03  0.7546771E-02  0.1237472E+00
         21   -1    0    0  501  502  0.00000000000E+00  0.00000000000E+00  0.36072930320E+03  0.36072930320E+03  0.00000000000E+00 0.  1.
         -2   -1    0    0    0  501 -0.00000000000E+00 -0.00000000000E+00 -0.73896262614E+02  0.73896262614E+02  0.00000000000E+00 0.  1.
         23    2    1    2    0    0  0.43366291074E+01  0.85510785589E+02  0.87269959239E+02  0.15354933214E+03  0.92900219651E+02 0.  0.
         23    2    1    2    0    0  0.55148628859E+02 -0.70899247175E+02  0.90463475060E+02  0.15595742189E+03  0.89838758940E+02 0.  0.
        -13    1    3    3    0    0 -0.20557503637E+02 -0.44978289664E+01  0.47678144856E+02  0.52115707019E+02  0.00000000000E+00 0. -1.
         13    1    3    3    0    0  0.24894132744E+02  0.90008614555E+02  0.39591814384E+02  0.10143362512E+03  0.00000000000E+00 0.  1.
        -13    1    4    4    0    0  0.14688371095E+02 -0.76295225835E+02  0.84355262383E+02  0.11468443671E+03  0.00000000000E+00 0.  1.
         13    1    4    4    0    0  0.40460257764E+02  0.53959786598E+01  0.61082126764E+01  0.41272985185E+02  0.00000000000E+00 0. -1.
         -2    1    1    2    0  502 -0.59485257967E+02 -0.14611538414E+02  0.10909960629E+03  0.12511881179E+03  0.00000000000E+00 0.  1.
<scales pt_clust_5="13000.00000" pt_clust_6="13000.00000" pt_clust_7="13000.00000" pt_clust_8="13000.00000" pt_clust_9="61.25351"></scales>
<clustering>
<clus scale="   61.254">  1  9  2 -1</clus>
<clus scale="   89.839">  7  8 -1 -1</clus>
<clus scale="   92.900">  5  6 -1 -1</clus>
<clus scale="  121.772">  1  7  2 -1</clus>
<clus scale="   61.254">  1  5  2 -1</clus>
</clustering>
</event>
<event>
 9    1  0.1504846E-005  0.2047711E+03  0.7546771E-02  0.1145800E+00
         21   -1    0    0  501  502  0.00000000000E+00  0.00000000000E+00  0.34052505100E+03  0.34052505100E+03  0.00000000000E+00 0.  1.
          2   -1    0    0  502    0 -0.00000000000E+00 -0.00000000000E+00 -0.33363858403E+03  0.33363858403E+03  0.00000000000E+00 0. -1.
         23    2    1    2    0    0 -0.18495192458E+03  0.26056590741E+02 -0.25759554401E+03  0.33114363930E+03  0.91730503271E+02 0.  0.
         23    2    1    2    0    0  0.15205097411E+03 -0.40848873812E+02  0.22179295150E+03  0.28713046201E+03  0.91998150289E+02 0.  0.
        -11    1    3    3    0    0 -0.86466223774E+02  0.36568450157E+01 -0.49172213961E+02  0.99537364819E+02  0.00000000000E+00 0.  1.
         11    1    3    3    0    0 -0.98485700803E+02  0.22399745725E+02 -0.20842333005E+03  0.23160627448E+03  0.00000000000E+00 0. -1.
        -13    1    4    4    0    0  0.85890429221E+02 -0.59270067382E+02  0.17591517001E+03  0.20453912525E+03  0.00000000000E+00 0. -1.
         13    1    4    4    0    0  0.66160544888E+02  0.18421193571E+02  0.45877781498E+02  0.82591336759E+02  0.00000000000E+00 0.  1.
          2    1    1    2  501    0  0.32900950469E+02  0.14792283071E+02  0.42689059481E+02  0.55889533721E+02  0.00000000000E+00 0. -1.
<scales pt_clust_5="13000.00000" pt_clust_6="13000.00000" pt_clust_7="13000.00000" pt_clust_8="13000.00000" pt_clust_9="36.07332"></scales>
<clustering>
<clus scale="   36.073">  1  9  2 -1</clus>
<clus scale="   91.731">  5  6 -1 -1</clus>
<clus scale="   91.998">  7  8 -1 -1</clus>
<clus scale="  204.651">  2  5  1 -1</clus>
<clus scale="   36.073">  1  5  2 -1</clus>
</clustering>
</event>
<event>
 9    1  0.1504846E-005  0.1030080E+03  0.7546771E-02  0.1274180E+00
         21   -1    0    0  501  502  0.00000000000E+00  0.00000000000E+00  0.34068853569E+03  0.34068853569E+03  0.00000000000E+00 0.  1.
         -1   -1    0    0    0  501 -0.00000000000E+00 -0.00000000000E+00 -0.77389840650E+02  0.77389840650E+02  0.00000000000E+00 0.  1.
         23    2    1    2    0    0  0.68120681868E+01  0.49557486174E+02  0.23341083213E+02  0.10650174359E+03  0.91079451652E+02 0.  0.
         23    2    1    2    0    0  0.57943428243E+02 -0.38715873492E+02  0.21013362056E+03  0.23946362880E+03  0.91270648569E+02 0.  0.
        -11    1    3    3    0    0  0.46722710266E+02  0.40896082581E+02  0.68924117826E+01  0.62474047134E+02  0.00000000000E+00 0.  1.
         11    1    3    3    0    0 -0.39910642079E+02  0.86614035930E+01  0.16448671430E+02  0.44027696456E+02  0.00000000000E+00 0. -1.
        -11    1    4    4    0    0  0.39504800921E+02 -0.28957654541E+02  0.21286159562E+03  0.21842443532E+03  0.00000000000E+00 0.  1.
         11    1    4    4    0    0  0.18438627322E+02 -0.97582189518E+01 -0.27279750569E+01  0.21039193486E+02  0.00000000000E+00 0. -1.
         -1    1    1    2    0  502 -0.64755496430E+02 -0.10841612682E+02  0.29823991258E+02  0.72113003945E+02  0.00000000000E+00 0.  1.
<scales pt_clust_5="13000.00000" pt_clust_6="13000.00000" pt_clust_7="13000.00000" pt_clust_8="13000.00000" pt_clust_9="65.65683"></scales>
<clustering>
<clus scale="   65.657">  1  9  2 -1</clus>
<clus scale="   91.079">  5  6 -1 -1</clus>
<clus scale="   91.271">  7  8 -1 -1</clus>
<clus scale="  102.839">  2  5  1 -1</clus>
<clus scale="   65.657">  1  5  2 -1</clus>
</clustering>
</event>
<event>
 9    1  0.1504846E-005  0.1043054E+03  0.7546771E-02  0.1272069E+00
          2   -1    0    0  502    0 -0.00000000000E+00  0.00000000000E+00  0.17127689429E+03  0.17127689429E+03  0.00000000000E+00 0. -1.
         21   -1    0    0  501  502  0.00000000000E+00 -0.00000000000E+00 -0.11138056809E+03  0.11138056809E+03  0.00000000000E+00 0.  1.
         23    2    1    2    0    0  0.55639200423E+02 -0.51644899315E+01  0.55636508182E+02  0.12126318758E+03  0.92124627760E+02 0.  0.
         23    2    1    2    0    0 -0.28654511710E+02  0.43453065240E+02  0.28724810961E+02  0.10854804216E+03  0.90820222258E+02 0.  0.
        -11    1    4    4    0    0  0.24240013776E+02  0.77011192082E+01  0.36228270655E+02  0.44264806558E+02  0.00000000000E+00 0.  1.
         11    1    4    4    0    0 -0.52894525487E+02  0.35751946032E+02 -0.75034596944E+01  0.64283235597E+02  0.00000000000E+00 0. -1.
        -11    1    3    3    0    0  0.11250742244E+02  0.21820659294E+02 -0.18498542463E+02  0.30739493267E+02  0.00000000000E+00 0.  1.
         11    1    3    3    0    0  0.44388458180E+02 -0.26985149226E+02  0.74135050645E+02  0.90523694315E+02  0.00000000000E+00 0. -1.
          2    1    1    2  501    0 -0.26984688713E+02 -0.38288575308E+02 -0.24464992942E+02  0.52846232636E+02  0.00000000000E+00 0. -1.
<scales pt_clust_5="13000.00000" pt_clust_6="13000.00000" pt_clust_7="13000.00000" pt_clust_8="13000.00000" pt_clust_9="46.84217"></scales>
<clustering>
<clus scale="   46.842">  2  9  1 -1</clus>
<clus scale="   90.820">  5  6 -1 -1</clus>
<clus scale="   92.125">  7  8 -1 -1</clus>
<clus scale="  103.155">  2  5  1 -1</clus>
<clus scale="   46.842">  2  5  1 -1</clus>
</clustering>
</event>
<event>
 9    1  0.1504846E-005  0.1171853E+03  0.7546771E-02  0.1249312E+00
         21   -1    0    0  501  502  0.00000000000E+00  0.00000000000E+00  0.11862903072E+03  0.11862903072E+03  0.00000000000E+00 0. -1.
          1   -1    0    0  502    0 -0.00000000000E+00 -0.00000000000E+00 -0.45915590457E+03  0.45915590457E+03  0.00000000000E+00 0. -1.
         23    2    1    2    0    0 -0.37497931769E+02 -0.17559157564E+02 -0.15594584422E+03  0.18465748247E+03  0.89804568938E+02 0.  0.
         23    2    1    2    0    0  0.91640811815E+02  0.52493677945E+02 -0.25873290169E+03  0.29489114434E+03  0.94151197443E+02 0.  0.
        -11    1    4    4    0    0  0.75018924020E+02 -0.50435908277E+01 -0.99110764562E+02  0.12440345824E+03  0.00000000000E+00 0.  1.
         11    1    4    4    0    0  0.16621887796E+02  0.57537268773E+02 -0.15962213713E+03  0.17048768610E+03  0.00000000000E+00 0. -1.
        -13    1    3    3    0    0 -0.35402243836E+02  0.57152100515E+01 -0.15721644646E+03  0.16125443725E+03  0.00000000000E+00 0. -1.
         13    1    3    3    0    0 -0.20956879335E+01 -0.23274367616E+02  0.12706022380E+01  0.23403045226E+02  0.00000000000E+00 0.  1.
          1    1    1    2  501    0 -0.54142880046E+02 -0.34934520381E+02  0.74151872058E+02  0.98236308479E+02  0.00000000000E+00 0. -1.
<scales pt_clust_5="13000.00000" pt_clust_6="13000.00000" pt_clust_7="13000.00000" pt_clust_8="13000.00000" pt_clust_9="64.43502"></scales>
<clustering>
<clus scale="   64.435">  1  9  2 -1</clus>
<clus scale="   89.805">  7  8 -1 -1</clus>
<clus scale="   94.151">  5  6 -1 -1</clus>
<clus scale="  113.723">  2  7  1 -1</clus>
<clus scale="   64.435">  1  5  2 -1</clus>
</clustering>
</event>
<event>
 9    1  0.1504846E-005  0.1091103E+03  0.7546771E-02  0.1265017E+00
          2   -1    0    0  502    0 -0.00000000000E+00  0.00000000000E+00  0.56581152009E+03  0.56581152009E+03  0.00000000000E+00 0. -1.
         21   -1    0    0  501  502  0.00000000000E+00 -0.00000000000E+00 -0.33266679316E+02  0.33266679316E+02  0.00000000000E+00 0.  1.
         23    2    1    2    0    0  0.21413792555E+02  0.37241792663E+02  0.21167196306E+03  0.23427499356E+03  0.90742773998E+02 0.  0.
         23    2    1    2    0    0  0.24547949164E+02 -0.64974387408E+02  0.23177605264E+03  0.26078482885E+03  0.97284713874E+02 0.  0.
        -13    1    4    4    0    0  0.55903565547E+02 -0.10837403678E+02  0.10759058460E+03  0.12173081719E+03  0.00000000000E+00 0.  1.
         13    1    4    4    0    0 -0.31355616383E+02 -0.54136983731E+02  0.12418546803E+03  0.13905401165E+03  0.00000000000E+00 0. -1.
        -13    1    3    3    0    0  0.36691544980E+02 -0.18567616994E+02  0.10774689066E+03  0.11532743958E+03  0.00000000000E+00 0.  1.
         13    1    3    3    0    0 -0.15277752425E+02  0.55809409657E+02  0.10392507240E+03  0.11894755398E+03  0.00000000000E+00 0. -1.
          2    1    1    2  501    0 -0.45961741720E+02  0.27732594746E+02  0.89096825078E+02  0.10401837699E+03  0.00000000000E+00 0. -1.
<scales pt_clust_5="13000.00000" pt_clust_6="13000.00000" pt_clust_7="13000.00000" pt_clust_8="13000.00000" pt_clust_9="53.68034"></scales>
<clustering>
<clus scale="   53.680">  2  9  1 -1</clus>
<clus scale="   90.743">  7  8 -1 -1</clus>
<clus scale="   97.285">  5  6 -1 -1</clus>
<clus scale="  103.320">  1  7  2 -1</clus>
<clus scale="   53.680">  2  5  1 -1</clus>
</clustering>
</event>
<event>
 9    1  0.1504846E-005  0.9135721E+02  0.7546771E-02  0.1300098E+00
         21   -1    0    0  501  502  0.00000000000E+00  0.00000000000E+00  0.22246048859E+03  0.22246048859E+03  0.00000000000E+00 0.  1.
          3   -1    0    0  502    0 -0.00000000000E+00 -0.00000000000E+00 -0.11017744342E+03  0.11017744342E+03  0.00000000000E+00 0. -1.
         23    2    1    2    0    0 -0.15505139415E+02 -0.24821641750E+01 -0.17765595197E+02  0.92831503591E+02  0.89752443972E+02 0.  0.
         23    2    1    2    0    0 -0.19053457521E+00  0.15321033153E+02 -0.15213177090E+02  0.93136096218E+02  0.90598682668E+02 0.  0.
        -11    1    4    4    0    0 -0.23050378354E+02 -0.31907731214E+02 -0.80759950298E+01  0.40182644876E+02  0.00000000000E+00 0.  1.
         11    1    4    4    0    0  0.22859843779E+02  0.47228764367E+02 -0.71371820598E+01  0.52953451342E+02  0.00000000000E+00 0. -1.
        -13    1    3    3    0    0 -0.39443934919E+02 -0.90139802229E+01 -0.41878614078E+02  0.58231384651E+02  0.00000000000E+00 0. -1.
         13    1    3    3    0    0  0.23938795504E+02  0.65318160479E+01  0.24113018881E+02  0.34600118940E+02  0.00000000000E+00 0.  1.
          3    1    1    2  501    0  0.15695673990E+02 -0.12838868978E+02  0.14526181745E+03  0.14667033220E+03  0.00000000000E+00 0. -1.
<scales pt_clust_5="13000.00000" pt_clust_6="13000.00000" pt_clust_7="13000.00000" pt_clust_8="13000.00000" pt_clust_9="20.27784"></scales>
<clustering>
<clus scale="   20.278">  1  9  2 -1</clus>
<clus scale="   89.752">  7  8 -1 -1</clus>
<clus scale="   90.518">  2  7  1 -1</clus>
<clus scale="   90.599">  5  6 -1 -1</clus>
<clus scale="   20.278">  1  5  2 -1</clus>
</clustering>
</event>
<event>
 9    1  0.1504846E-005  0.9790741E+02  0.7546771E-02  0.1285452E+00
         -3   -1    0    0    0  501 -0.00000000000E+00  0.00000000000E+00  0.13620819080E+03  0.13620819080E+03  0.00000000000E+00 0.  1.
         21   -1    0    0  501  502  0.00000000000E+00 -0.00000000000E+00 -0.24628132606E+03  0.24628132606E+03  0.00000000000E+00 0.  1.
         23    2    1    2    0    0 -0.18403120064E+02 -0.31378287572E+02  0.50483002231E+02  0.11007625652E+03  0.90801855581E+02 0.  0.
         23    2    1    2    0    0  0.37619698643E+02  0.36791107222E+01  0.85572796197E+01  0.99972345428E+02  0.92154572509E+02 0.  0.
        -11    1    3    3    0    0 -0.27060033333E+02 -0.54147043740E+02  0.79367233048E+01  0.61050301609E+02  0.00000000000E+00 0. -1.
         11    1    3    3    0    0  0.86569132690E+01  0.22768756168E+02  0.42546278926E+02  0.49025954914E+02  0.00000000000E+00 0.  1.
        -11    1    4    4    0    0  0.29212415644E+02  0.47037019433E+02  0.66195069623E+01  0.55764364045E+02  0.00000000000E+00 0.  1.
         11    1    4    4    0    0  0.84072829989E+01 -0.43357908711E+02  0.19377726574E+01  0.44207981384E+02  0.00000000000E+00 0. -1.
         -3    1    1    2    0  502 -0.19216578578E+02  0.27699176850E+02 -0.16911341711E+03  0.17244091491E+03  0.00000000000E+00 0.  1.
<scales pt_clust_5="13000.00000" pt_clust_6="13000.00000" pt_clust_7="13000.00000" pt_clust_8="13000.00000" pt_clust_9="33.71233"></scales>
<clustering>
<clus scale="   33.712">  2  9  1 -1</clus>
<clus scale="   90.802">  5  6 -1 -1</clus>
<clus scale="   92.155">  7  8 -1 -1</clus>
<clus scale="   96.635">  1  5  2 -1</clus>
<clus scale="   33.712">  2  5  1 -1</clus>
</clustering>
</event>
<event>
 9    1  0.1504846E-005  0.9251365E+02  0.7546771E-02  0.1296962E+00
         21   -1    0    0  501  502  0.00000000000E+00  0.00000000000E+00  0.37770020749E+02  0.37770020749E+02  0.00000000000E+00 0.  1.
          1   -1    0    0  502    0 -0.00000000000E+00 -0.00000000000E+00 -0.37881577297E+03  0.37881577297E+03  0.00000000000E+00 0. -1.
         23    2    1    2    0    0 -0.23638198691E+01  0.26052368180E+02 -0.19923238361E+03  0.22068691738E+03  0.91240666887E+02 0.  0.
         23    2    1    2    0    0 -0.24594846190E+00  0.29940480010E+00 -0.14263928952E+03  0.16940531155E+03  0.91389509962E+02 0.  0.
        -11    1    4    4    0    0 -0.89045285674E+01  0.26860252876E+02 -0.13826177703E+03  0.14112789520E+03  0.00000000000E+00 0.  1.
         11    1    4    4    0    0  0.86585801055E+01 -0.26560848076E+02 -0.43775124880E+01  0.28277416352E+02  0.00000000000E+00 0. -1.
        -13    1    3    3    0    0  0.28745645370E+02  0.31898301030E+02 -0.41175299994E+02  0.59491336058E+02  0.00000000000E+00 0.  1.
         13    1    3    3    0    0 -0.31109465239E+02 -0.58459328501E+01 -0.15805708361E+03  0.16119558132E+03  0.00000000000E+00 0. -1.
          1    1    1    2  501    0  0.26097683310E+01 -0.26351772980E+02  0.82592090729E+00  0.26493564790E+02  0.00000000000E+00 0. -1.
<scales pt_clust_5="13000.00000" pt_clust_6="13000.00000" pt_clust_7="13000.00000" pt_clust_8="13000.00000" pt_clust_9="26.48069"></scales>
<clustering>
<clus scale="   26.481">  1  9  2 -1</clus>
<clus scale="   91.241">  7  8 -1 -1</clus>
<clus scale="   91.390">  5  6 -1 -1</clus>
<clus scale="   92.367">  2  7  1 -1</clus>
<clus scale="   26.481">  1  5  2 -1</clus>
</clustering>
</event>
<event>
 9    1  0.1504846E-005  0.1368598E+03  0.7546771E-02  0.1234061E+00
         21   -1    0    0  501  502  0.00000000000E+00  0.00000000000E+00  0.13673229494E+03  0.13673229494E+03  0.00000000000E+00 0.  1.
         -4   -1    0    0    0  501 -0.00000000000E+00 -0.00000000000E+00 -0.29653106872E+03  0.29653106872E+03  0.00000000000E+00 0.  1.
         23    2    1    2    0    0 -0.10295280659E+02  0.34148072589E+02 -0.84161342401E+02  0.12859356774E+03  0.90449380561E+02 0.  0.
         23    2    1    2    0    0 -0.76974821199E+02  0.29995680904E+02 -0.13445675413E+03  0.18142124818E+03  0.89499645747E+02 0.  0.
        -11    1    3    3    0    0  0.19801088101E+02  0.47952759357E+02 -0.18543002454E+02  0.55094402256E+02  0.00000000000E+00 0. -1.
         11    1    3    3    0    0 -0.30096368760E+02 -0.13804686768E+02 -0.65618339947E+02  0.73499165484E+02  0.00000000000E+00 0.  1.
        -13    1    4    4    0    0  0.56660834762E+01 -0.22839099134E+02 -0.30045989752E+02  0.38163994175E+02  0.00000000000E+00 0. -1.
         13    1    4    4    0    0 -0.82640904675E+02  0.52834780039E+02 -0.10441076437E+03  0.14325725400E+03  0.00000000000E+00 0.  1.
         -4    1    1    2    0  502  0.87270101858E+02 -0.64143753493E+02  0.58819322757E+02  0.12324854774E+03  0.00000000000E+00 0.  1.
<scales pt_clust_5="13000.00000" pt_clust_6="13000.00000" pt_clust_7="13000.00000" pt_clust_8="13000.00000" pt_clust_9="103.53943"></scales>
<clustering>
<clus scale="   89.500">  7  8 -1 -1</clus>
<clus scale="   90.449">  5  6 -1 -1</clus>
<clus scale="   97.227">  2  5  1 -1</clus>
<clus scale="  103.539">  1  9  2 -1</clus>
<clus scale="  103.539">  1  5  2 -1</clus>
</clustering>
</event>
<event>
 9    1  0.1504846E-005  0.3875587E+03  0.7546771E-02  0.1048833E+00
         21   -1    0    0  501  502  0.00000000000E+00  0.00000000000E+00  0.11050675571E+04  0.11050675571E+04  0.00000000000E+00 0.  1.
          2   -1    0    0  502    0 -0.00000000000E+00 -0.00000000000E+00 -0.38094613533E+03  0.38094613533E+03  0.00000000000E+00 0. -1.
         23    2    1    2    0    0  0.27567241481E+03 -0.20704351232E+03 -0.41677458500E+02  0.35843021541E+03  0.88729434170E+02 0.  0.
         23    2    1    2    0    0 -0.47884930856E+03  0.19351432590E+03  0.75708967044E+03  0.92377047602E+03  0.11585624125E+03 0.  0.
        -13    1    4    4    0    0 -0.27722142208E+03  0.13284273432E+03  0.53982636815E+03  0.62121768864E+03  0.00000000000E+00 0.  1.
         13    1    4    4    0    0 -0.20162788648E+03  0.60671591583E+02  0.21726330229E+03  0.30255278738E+03  0.00000000000E+00 0. -1.
        -13    1    3    3    0    0  0.20600154407E+03 -0.10572361739E+03 -0.42763478112E+02  0.23546302150E+03  0.00000000000E+00 0. -1.
         13    1    3    3    0    0  0.69670870736E+02 -0.10131989493E+03  0.10860196125E+01  0.12296719391E+03  0.00000000000E+00 0.  1.
          2    1    1    2  501    0  0.20317689376E+03  0.13529186422E+02  0.87092098167E+01  0.20381300100E+03  0.00000000000E+00 0. -1.
<scales pt_clust_5="13000.00000" pt_clust_6="13000.00000" pt_clust_7="13000.00000" pt_clust_8="13000.00000" pt_clust_9="203.62694"></scales>
<clustering>
<clus scale="   88.729">  7  8 -1 -1</clus>
<clus scale="  115.856">  5  6 -1 -1</clus>
<clus scale="  203.627">  1  9  2 -1</clus>
<clus scale="  380.331">  2  7  1 -1</clus>
<clus scale="  203.627">  1  5  2 -1</clus>
</clustering>
</event>
<event>
 9    1  0.1504846E-005  0.9138395E+02  0.7546771E-02  0.1302169E+00
         21   -1    0    0  501  502  0.00000000000E+00  0.00000000000E+00  0.55190868805E+02  0.55190868805E+02  0.00000000000E+00 0.  1.
         -2   -1    0    0    0  501 -0.00000000000E+00 -0.00000000000E+00 -0.36361359927E+03  0.36361359927E+03  0.00000000000E+00 0.  1.
         23    2    1    2    0    0  0.15550041034E+01 -0.28888792167E+02 -0.11028993102E+03  0.14294170731E+03  0.86206046504E+02 0.  0.
         23    2    1    2    0    0  0.30899989466E+02 -0.48547593675E+02 -0.99602062625E+02  0.14640996413E+03  0.90573884290E+02 0.  0.
        -11    1    4    4    0    0  0.56500791037E+02 -0.51413380534E+02 -0.52400390212E+02  0.92636256294E+02  0.00000000000E+00 0.  1.
         11    1    4    4    0    0 -0.25600801571E+02  0.28657868598E+01 -0.47201672413E+02  0.53773707831E+02  0.00000000000E+00 0. -1.
        -13    1    3    3    0    0  0.14809749940E+02 -0.56105630805E+02 -0.87742960392E+02  0.10519504551E+03  0.00000000000E+00 0.  1.
         13    1    3    3    0    0 -0.13254745836E+02  0.27216838638E+02 -0.22546970627E+02  0.37746661801E+02  0.00000000000E+00 0. -1.
         -2    1    1    2    0  502 -0.32454993570E+02  0.77436385841E+02 -0.98530736824E+02  0.12945279664E+03  0.00000000000E+00 0.  1.
<scales pt_clust_5="13000.00000" pt_clust_6="13000.00000" pt_clust_7="13000.00000" pt_clust_8="13000.00000" pt_clust_9="83.96266"></scales>
<clustering>
<clus scale="   83.963">  1  9  2 -1</clus>
<clus scale="   86.206">  7  8 -1 -1</clus>
<clus scale="   87.057">  2  7  1 -1</clus>
<clus scale="   90.574">  5  6 -1 -1</clus>
<clus scale="   83.963">  1  5  2 -1</clus>
</clustering>
</event>
<event>
 9    1  0.1504846E-005  0.1119013E+03  0.7546771E-02  0.1257863E+00
         21   -1    0    0  501  502  0.00000000000E+00  0.00000000000E+00  0.17111368694E+03  0.17111368694E+03  0.00000000000E+00 0. -1.
          2   -1    0    0  502    0 -0.00000000000E+00 -0.00000000000E+00 -0.20041255299E+03  0.20041255299E+03  0.00000000000E+00 0. -1.
         23    2    1    2    0    0 -0.50956344549E+02 -0.53132012657E+02 -0.12696510488E+03  0.17282461176E+03  0.91261430818E+02 0.  0.
         23    2    1    2    0    0  0.36977605963E+02  0.26184297012E+02  0.38536848055E+01  0.10009949937E+03  0.89174537478E+02 0.  0.
        -13    1    4    4    0    0  0.47118882918E+02  0.45992317383E+02  0.23999588198E+02  0.70081828025E+02  0.00000000000E+00 0.  1.
         13    1    4    4    0    0 -0.10141276955E+02 -0.19808020371E+02 -0.20145903393E+02  0.30017671342E+02  0.00000000000E+00 0. -1.
        -13    1    3    3    0    0 -0.83864196761E+01 -0.24159474969E+02  0.92548085248E+01  0.27196759854E+02  0.00000000000E+00 0.  1.
         13    1    3    3    0    0 -0.42569924873E+02 -0.28972537689E+02 -0.13621991340E+03  0.14562785191E+03  0.00000000000E+00 0. -1.
          2    1    1    2  501    0  0.13978738586E+02  0.26947715645E+02  0.93812554022E+02  0.98602128796E+02  0.00000000000E+00 0. -1.
<scales pt_clust_5="13000.00000" pt_clust_6="13000.00000" pt_clust_7="13000.00000" pt_clust_8="13000.00000" pt_clust_9="30.35761"></scales>
<clustering>
<clus scale="   30.358">  1  9  2 -1</clus>
<clus scale="   89.175">  5  6 -1 -1</clus>
<clus scale="   91.261">  7  8 -1 -1</clus>
<clus scale="  110.206">  1  5  2 -1</clus>
<clus scale="   30.358">  1  5  2 -1</clus>
</clustering>
</event>
<event>
 9    1  0.1504846E-005  0.1005985E+03  0.7546771E-02  0.1279603E+00
          3   -1    0    0  502    0 -0.00000000000E+00  0.00000000000E+00  0.10818184372E+03  0.10818184372E+03  0.00000000000E+00 0. -1.
         21   -1    0    0  501  502  0.00000000000E+00 -0.00000000000E+00 -0.16684433289E+03  0.16684433289E+03  0.00000000000E+00 0.  1.
         23    2    1    2    0    0 -0.41021635616E+02  0.21123146362E+02  0.33194235203E+02  0.10684669563E+03  0.90473185061E+02 0.  0.
         23    2    1    2    0    0  0.22762376266E+02 -0.38159601213E+02 -0.34338599456E+02  0.10547401041E+03  0.89282397603E+02 0.  0.
        -11    1    3    3    0    0 -0.60191064794E+02 -0.10761397698E+02  0.33337391666E+02  0.69643044480E+02  0.00000000000E+00 0.  1.
         11    1    3    3    0    0  0.19169429178E+02  0.31884544060E+02 -0.14315646248E+00  0.37203651148E+02  0.00000000000E+00 0. -1.
        -13    1    4    4    0    0 -0.42903080222E+01 -0.36421066888E+02 -0.58576862058E+02  0.69109692698E+02  0.00000000000E+00 0.  1.
         13    1    4    4    0    0  0.27052684288E+02 -0.17385343246E+01  0.24238262602E+02  0.36364317714E+02  0.00000000000E+00 0. -1.
          3    1    1    2  501    0  0.18259259350E+02  0.17036454851E+02 -0.57518124919E+02  0.62705470576E+02  0.00000000000E+00 0. -1.
<scales pt_clust_5="13000.00000" pt_clust_6="13000.00000" pt_clust_7="13000.00000" pt_clust_8="13000.00000" pt_clust_9="24.97281"></scales>
<clustering>
<clus scale="   24.973">  2  9  1 -1</clus>
<clus scale="   89.282">  7  8 -1 -1</clus>
<clus scale="   90.473">  5  6 -1 -1</clus>
<clus scale="   99.529">  2  7  1 -1</clus>
<clus scale="   24.973">  2  5  1 -1</clus>
</clustering>
</event>
<event>
 9    1  0.1504846E-005  0.9165924E+02  0.7546771E-02  0.1299592E+00
         21   -1    0    0  501  502  0.00000000000E+00  0.00000000000E+00  0.58971027985E+02  0.58971027985E+02  0.00000000000E+00 0. -1.
         -2   -1    0    0    0  501 -0.00000000000E+00 -0.00000000000E+00 -0.24246246609E+03  0.24246246609E+03  0.00000000000E+00 0.  1.
         23    2    1    2    0    0 -0.98657810440E+01 -0.41491154865E+01 -0.13490943238E+03  0.16267505896E+03  0.90266666427E+02 0.  0.
         23    2    1    2    0    0 -0.83205441246E+01 -0.22592037721E+02 -0.48786538746E+02  0.10641846709E+03  0.91461096385E+02 0.  0.
        -11    1    4    4    0    0 -0.29923242404E+02  0.26250738754E+02 -0.12024956501E+02  0.41582463851E+02  0.00000000000E+00 0.  1.
         11    1    4    4    0    0  0.21602698279E+02 -0.48842776475E+02 -0.36761582245E+02  0.64836003238E+02  0.00000000000E+00 0. -1.
        -13    1    3    3    0    0  0.19789410648E+02  0.34966379269E+02 -0.45680102368E+02  0.60835353253E+02  0.00000000000E+00 0.  1.
         13    1    3    3    0    0 -0.29655191692E+02 -0.39115494756E+02 -0.89229330015E+02  0.10183970571E+03  0.00000000000E+00 0. -1.
         -2    1    1    2    0  502  0.18186325169E+02  0.26741153208E+02  0.20453302250E+00  0.32339968024E+02  0.00000000000E+00 0.  1.
<scales pt_clust_5="13000.00000" pt_clust_6="13000.00000" pt_clust_7="13000.00000" pt_clust_8="13000.00000" pt_clust_9="32.33932"></scales>
<clustering>
<clus scale="   32.339">  1  9  2 -1</clus>
<clus scale="   90.267">  7  8 -1 -1</clus>
<clus scale="   90.467">  2  7  1 -1</clus>
<clus scale="   91.461">  5  6 -1 -1</clus>
<clus scale="   32.339">  1  5  2 -1</clus>
</clustering>
</event>
<event>
 9    1  0.1504846E-005  0.1017522E+03  0.7546771E-02  0.1278319E+00
         21   -1    0    0  501  502  0.00000000000E+00  0.00000000000E+00  0.26062884147E+03  0.26062884147E+03  0.00000000000E+00 0. -1.
          1   -1    0    0  502    0 -0.00000000000E+00 -0.00000000000E+00 -0.19989250073E+03  0.19989250073E+03  0.00000000000E+00 0. -1.
         23    2    1    2    0    0  0.98050203101E+01 -0.42953726392E+02 -0.10541533525E+03  0.14732999055E+03  0.93019203258E+02 0.  0.
         23    2    1    2    0    0 -0.10623441627E+02  0.12151629524E+02 -0.39377480481E+02  0.10536528702E+03  0.96388475078E+02 0.  0.
        -11    1    4    4    0    0  0.36754154268E+02  0.17313725224E+02 -0.40945380802E+02  0.57681514769E+02  0.00000000000E+00 0.  1.
         11    1    4    4    0    0 -0.47377595894E+02 -0.51620957004E+01  0.15679003208E+01  0.47683772252E+02  0.00000000000E+00 0. -1.
        -11    1    3    3    0    0  0.33708698520E+02 -0.55810187787E+02 -0.10042390002E+03  0.11973309113E+03  0.00000000000E+00 0. -1.
         11    1    3    3    0    0 -0.23903678210E+02  0.12856461395E+02 -0.49914352251E+01  0.27596899412E+02  0.00000000000E+00 0.  1.
          1    1    1    2  501    0  0.81842131663E+00  0.30802096868E+02  0.20552915647E+03  0.20782606464E+03  0.00000000000E+00 0. -1.
<scales pt_clust_5="13000.00000" pt_clust_6="13000.00000" pt_clust_7="13000.00000" pt_clust_8="13000.00000" pt_clust_9="30.81297"></scales>
<clustering>
<clus scale="   30.813">  1  9  2 -1</clus>
<clus scale="   93.019">  7  8 -1 -1</clus>
<clus scale="   96.388">  5  6 -1 -1</clus>
<clus scale="   98.566">  2  7  1 -1</clus>
<clus scale="   30.813">  1  5  2 -1</clus>
</clustering>
</event>
<event>
 9    1  0.1504846E-005  0.1260858E+03  0.7546771E-02  0.1233507E+00
         -1   -1    0    0    0  501 -0.00000000000E+00  0.00000000000E+00  0.15101436871E+03  0.15101436871E+03  0.00000000000E+00 0.  1.
         21   -1    0    0  501  502  0.00000000000E+00 -0.00000000000E+00 -0.44680303494E+03  0.44680303494E+03  0.00000000000E+00 0. -1.
         23    2    1    2    0    0  0.55301462838E+02 -0.68746819608E+02  0.10948113179E+03  0.16741186310E+03  0.90863835986E+02 0.  0.
         23    2    1    2    0    0 -0.35015933850E+02  0.69926811942E+02 -0.37763229743E+03  0.39610209310E+03  0.90414829766E+02 0.  0.
        -11    1    3    3    0    0 -0.20867084747E+01 -0.50231598137E+02  0.91643310120E+02  0.10452781493E+03  0.00000000000E+00 0.  1.
         11    1    3    3    0    0  0.57388171313E+02 -0.18515221471E+02  0.17837821673E+02  0.62884048174E+02  0.00000000000E+00 0. -1.
        -13    1    4    4    0    0 -0.65652837012E+02  0.53761501010E+02 -0.27315855721E+03  0.28603529743E+03  0.00000000000E+00 0. -1.
         13    1    4    4    0    0  0.30636903162E+02  0.16165310932E+02 -0.10447374022E+03  0.11006679566E+03  0.00000000000E+00 0.  1.
         -1    1    1    2    0  502 -0.20285528988E+02 -0.11799923337E+01 -0.27637500587E+02  0.34303447450E+02  0.00000000000E+00 0.  1.
<scales pt_clust_5="13000.00000" pt_clust_6="13000.00000" pt_clust_7="13000.00000" pt_clust_8="13000.00000" pt_clust_9="20.31982"></scales>
<clustering>
<clus scale="   20.320">  2  9  1 -1</clus>
<clus scale="   90.415">  7  8 -1 -1</clus>
<clus scale="   90.864">  5  6 -1 -1</clus>
<clus scale="  125.763">  2  7  1 -1</clus>
<clus scale="   20.320">  2  5  1 -1</clus>
</clustering>
</event>
<event>
 9    1  0.1504846E-005  0.1081634E+03  0.7546771E-02  0.1264429E+00
          2   -1    0    0  502    0 -0.00000000000E+00  0.00000000000E+00  0.29928627898E+03  0.29928627898E+03  0.00000000000E+00 0. -1.
         21   -1    0    0  501  502  0.00000000000E+00 -0.00000000000E+00 -0.19038206832E+03  0.19038206832E+03  0.00000000000E+00 0. -1.
         23    2    1    2    0    0  0.22173759918E+02  0.64463774932E+02  0.15957207008E+03  0.19599816295E+03  0.91130567999E+02 0.  0.
         23    2    1    2    0    0 -0.34319341994E+02 -0.35339730456E+02  0.97854224748E+02  0.14183298661E+03  0.90080147682E+02 0.  0.
        -11    1    3    3    0    0  0.45003340560E+02  0.35083359918E+01  0.42240752135E+02  0.61821438222E+02  0.00000000000E+00 0.  1.
         11    1    3    3    0    0 -0.22829580641E+02  0.60955438940E+02  0.11733131794E+03  0.13417672473E+03  0.00000000000E+00 0. -1.
        -11    1    4    4    0    0  0.19497186261E+02  0.17153739891E+02  0.36503967685E+02  0.44798780353E+02  0.00000000000E+00 0.  1.
         11    1    4    4    0    0 -0.53816528255E+02 -0.52493470347E+02  0.61350257063E+02  0.97034206258E+02  0.00000000000E+00 0. -1.
          2    1    1    2  501    0  0.12145582076E+02 -0.29124044475E+02 -0.14852208417E+03  0.15183719774E+03  0.00000000000E+00 0. -1.
<scales pt_clust_5="13000.00000" pt_clust_6="13000.00000" pt_clust_7="13000.00000" pt_clust_8="13000.00000" pt_clust_9="31.55511"></scales>
<clustering>
<clus scale="   31.555">  2  9  1 -1</clus>
<clus scale="   90.080">  7  8 -1 -1</clus>
<clus scale="   91.131">  5  6 -1 -1</clus>
<clus scale="  107.280">  2  7  1 -1</clus>
<clus scale="   31.555">  2  5  1 -1</clus>
</clustering>
</event>
<event>
 9    1  0.1504846E-005  0.1738852E+03  0.7546771E-02  0.1176277E+00
          1   -1    0    0  502    0 -0.00000000000E+00  0.00000000000E+00  0.48689233102E+03  0.48689233102E+03  0.00000000000E+00 0. -1.
         21   -1    0    0  501  502  0.00000000000E+00 -0.00000000000E+00 -0.11368442220E+03  0.11368442220E+03  0.00000000000E+00 0. -1.
         23    2    1    2    0    0 -0.50963859776E+02  0.12979720472E+03  0.27841667165E+03  0.32509919356E+03  0.93429188399E+02 0.  0.
         23    2    1    2    0    0  0.41964910707E+02 -0.15503375804E+03  0.13805432496E+03  0.22458984530E+03  0.74733406926E+02 0.  0.
        -11    1    4    4    0    0  0.44882012680E+02 -0.35776457171E+02  0.37400843344E+02  0.68506737134E+02  0.00000000000E+00 0. -1.
         11    1    4    4    0    0 -0.29171019735E+01 -0.11925730087E+03  0.10065348162E+03  0.15608310817E+03  0.00000000000E+00 0.  1.
        -13    1    3    3    0    0 -0.18967458378E+02  0.44991906408E+02  0.19798754620E+03  0.20391935801E+03  0.00000000000E+00 0. -1.
         13    1    3    3    0    0 -0.31996401398E+02  0.84805298310E+02  0.80429125447E+02  0.12117983555E+03  0.00000000000E+00 0.  1.
          1    1    1    2  501    0  0.89989490697E+01  0.25236553318E+02 -0.43263087789E+02  0.50887714359E+02  0.00000000000E+00 0. -1.
<scales pt_clust_5="13000.00000" pt_clust_6="13000.00000" pt_clust_7="13000.00000" pt_clust_8="13000.00000" pt_clust_9="26.79300"></scales>
<clustering>
<clus scale="   26.793">  2  9  1 -1</clus>
<clus scale="   74.733">  5  6 -1 -1</clus>
<clus scale="   93.429">  7  8 -1 -1</clus>
<clus scale="  164.597">  2  5  1 -1</clus>
<clus scale="   26.793">  2  5  1 -1</clus>
</clustering>
</event>
<event>
 9    1  0.1504846E-005  0.1089305E+03  0.7546771E-02  0.1263431E+00
         21   -1    0    0  501  502  0.00000000000E+00  0.00000000000E+00  0.45325619969E+02  0.45325619969E+02  0.00000000000E+00 0.  1.
          4   -1    0    0  502    0 -0.00000000000E+00 -0.00000000000E+00 -0.42296058294E+03  0.42296058294E+03  0.00000000000E+00 0. -1.
         23    2    1    2    0    0 -0.33463248580E+02  0.66261392513E+02 -0.21717431828E+03  0.24748631217E+03  0.92598212982E+02 0.  0.
         23    2    1    2    0    0  0.40628298268E+02 -0.17878411829E+02 -0.12416817518E+03  0.15989509536E+03  0.90434559567E+02 0.  0.
        -11    1    3    3    0    0 -0.27082731163E+02 -0.18894356864E+02 -0.53391431631E+02  0.62778308516E+02  0.00000000000E+00 0. -1.
         11    1    3    3    0    0 -0.63805174170E+01  0.85155749376E+02 -0.16378288665E+03  0.18470800366E+03  0.00000000000E+00 0.  1.
        -13    1    4    4    0    0  0.73640033696E+01 -0.41081598943E+02 -0.16567153002E+02  0.44904307989E+02  0.00000000000E+00 0.  1.
         13    1    4    4    0    0  0.33264294898E+02  0.23203187115E+02 -0.10760102218E+03  0.11499078737E+03  0.00000000000E+00 0. -1.
          4    1    1    2  501    0 -0.71650496880E+01 -0.48382980684E+02 -0.36292469513E+02  0.60904795380E+02  0.00000000000E+00 0. -1.
<scales pt_clust_5="13000.00000" pt_clust_6="13000.00000" pt_clust_7="13000.00000" pt_clust_8="13000.00000" pt_clust_9="48.91064"></scales>
<clustering>
<clus scale="   48.911">  1  9  2 -1</clus>
<clus scale="   90.435">  7  8 -1 -1</clus>
<clus scale="   92.598">  5  6 -1 -1</clus>
<clus scale="  107.097">  1  7  2 -1</clus>
<clus scale="   48.911">  1  5  2 -1</clus>
</clustering>
</event>
<event>
 9    1  0.1504846E-005  0.1041213E+03  0.7546771E-02  0.1272996E+00
         21   -1    0    0  501  502  0.00000000000E+00  0.00000000000E+00  0.12417291614E+03  0.12417291614E+03  0.00000000000E+00 0. -1.
         -1   -1    0    0    0  501 -0.00000000000E+00 -0.00000000000E+00 -0.11020255359E+03  0.11020255359E+03  0.00000000000E+00 0.  1.
         23    2    1    2    0    0  0.13013073858E+02 -0.34413322108E+02  0.20144474050E+01  0.97707531678E+02  0.90493573908E+02 0.  0.
         23    2    1    2    0    0 -0.85299878400E+01  0.57576666597E+02 -0.10306812567E+01  0.10973672429E+03  0.93022863456E+02 0.  0.
        -11    1    3    3    0    0 -0.33945018291E+02 -0.21105525127E+00  0.16634877804E+02  0.37802486302E+02  0.00000000000E+00 0. -1.
         11    1    3    3    0    0  0.46958092149E+02 -0.34202266857E+02 -0.14620430399E+02  0.59905045376E+02  0.00000000000E+00 0.  1.
        -13    1    4    4    0    0  0.41099677940E+02  0.36551021321E+02  0.62177275487E+01  0.55351791499E+02  0.00000000000E+00 0.  1.
         13    1    4    4    0    0 -0.49629665780E+02  0.21025645277E+02 -0.72484088054E+01  0.54384932793E+02  0.00000000000E+00 0. -1.
         -1    1    1    2    0  502 -0.44830860181E+01 -0.23163344489E+02  0.12986596402E+02  0.26931213754E+02  0.00000000000E+00 0.  1.
<scales pt_clust_5="13000.00000" pt_clust_6="13000.00000" pt_clust_7="13000.00000" pt_clust_8="13000.00000" pt_clust_9="23.59319"></scales>
<clustering>
<clus scale="   23.593">  1  9  2 -1</clus>
<clus scale="   90.494">  5  6 -1 -1</clus>
<clus scale="   93.023">  7  8 -1 -1</clus>
<clus scale="  101.868">  2  5  1 -1</clus>
<clus scale="   23.593">  1  5  2 -1</clus>
</clustering>
</event>
<event>
 9    1  0.1504846E-005  0.1509002E+03  0.7546771E-02  0.1210737E+00
         21   -1    0    0  501  502  0.00000000000E+00  0.00000000000E+00  0.45032376410E+03  0.45032376410E+03  0.00000000000E+00 0. -1.
          2   -1    0    0  502    0 -0.00000000000E+00 -0.00000000000E+00 -0.73635670020E+03  0.73635670020E+03  0.00000000000E+00 0. -1.
         23    2    1    2    0    0  0.56530352533E+02 -0.47946028814E+02 -0.15549032063E+03  0.19528092477E+03  0.91994007035E+02 0.  0.
         23    2    1    2    0    0 -0.50231045257E+02  0.16913638309E+03 -0.53439036453E+03  0.56971270352E+03  0.88708674118E+02 0.  0.
        -11    1    4    4    0    0  0.72345047731E+01  0.33076775938E+02 -0.34013797684E+02  0.47993224508E+02  0.00000000000E+00 0.  1.
         11    1    4    4    0    0 -0.57465550030E+02  0.13605960715E+03 -0.50037656684E+03  0.52171947902E+03  0.00000000000E+00 0. -1.
        -13    1    3    3    0    0 -0.22207887861E+02 -0.33749016438E+01 -0.11530572486E+02  0.25249442493E+02  0.00000000000E+00 0. -1.
         13    1    3    3    0    0  0.78738240394E+02 -0.44571127171E+02 -0.14395974815E+03  0.17003148227E+03  0.00000000000E+00 0.  1.
          2    1    1    2  501    0 -0.62993072761E+01 -0.12119035428E+03  0.40384774906E+03  0.42168683601E+03  0.00000000000E+00 0. -1.
<scales pt_clust_5="13000.00000" pt_clust_6="13000.00000" pt_clust_7="13000.00000" pt_clust_8="13000.00000" pt_clust_9="122.07222"></scales>
<clustering>
<clus scale="   88.709">  5  6 -1 -1</clus>
<clus scale="   91.994">  7  8 -1 -1</clus>
<clus scale="  118.141">  2  7  1 -1</clus>
<clus scale="  122.072">  1  9  2 -1</clus>
<clus scale="  122.072">  1  5  2 -1</clus>
</clustering>
</event>
<event>
 9    1  0.1504846E-005  0.1094470E+03  0.7546771E-02  0.1262854E+00
         -1   -1    0    0    0  501 -0.00000000000E+00  0.00000000000E+00  0.13784459367E+03  0.13784459367E+03  0.00000000000E+00 0.  1.
         21   -1    0    0  501  502  0.00000000000E+00 -0.00000000000E+00 -0.34907915048E+03  0.34907915048E+03  0.00000000000E+00 0.  1.
         23    2    1    2    0    0  0.46552259421E+02  0.22267096151E+02  0.71274671225E+02  0.12968809235E+03  0.95267970020E+02 0.  0.
         23    2    1    2    0    0  0.12747718381E+02 -0.57980268184E+02 -0.26038464351E+03  0.28456230549E+03  0.98241169103E+02 0.  0.
        -11    1    3    3    0    0 -0.26030277097E+01  0.34805745625E+02 -0.77773541280E+01  0.35758955787E+02  0.00000000000E+00 0. -1.
         11    1    3    3    0    0  0.49155287131E+02 -0.12538649474E+02  0.79052025353E+02  0.93929136566E+02  0.00000000000E+00 0.  1.
        -13    1    4    4    0    0 -0.25391758001E+02 -0.56066995702E+02 -0.22216960106E+03  0.23053759133E+03  0.00000000000E+00 0.  1.
         13    1    4    4    0    0  0.38139476382E+02 -0.19132724815E+01 -0.38215042444E+02  0.54024714152E+02  0.00000000000E+00 0. -1.
         -1    1    1    2    0  502 -0.59299977802E+02  0.35713172033E+02 -0.22124584532E+02  0.72673346315E+02  0.00000000000E+00 0.  1.
<scales pt_clust_5="13000.00000" pt_clust_6="13000.00000" pt_clust_7="13000.00000" pt_clust_8="13000.00000" pt_clust_9="69.22372"></scales>
<clustering>
<clus scale="   69.224">  2  9  1 -1</clus>
<clus scale="   95.268">  5  6 -1 -1</clus>
<clus scale="   98.241">  7  8 -1 -1</clus>
<clus scale="  106.786">  1  5  2 -1</clus>
<clus scale="   69.224">  2  5  1 -1</clus>
</clustering>
</event>
<event>
 9    1  0.1504846E-005  0.1019465E+03  0.7546771E-02  0.1276769E+00
          2   -1    0    0  502    0 -0.00000000000E+00  0.00000000000E+00  0.12510654348E+03  0.12510654348E+03  0.00000000000E+00 0. -1.
         21   -1    0    0  501  502  0.00000000000E+00 -0.00000000000E+00 -0.28899408221E+03  0.28899408221E+03  0.00000000000E+00 0. -1.
         23    2    1    2    0    0 -0.54593955110E+02  0.39157663590E+02  0.10807228623E+02  0.11594472706E+03  0.93875241625E+02 0.  0.
         23    2    1    2    0    0 -0.33014833523E+02 -0.36988579793E+02 -0.28372866194E+01  0.10524400565E+03  0.92790712152E+02 0.  0.
        -13    1    3    3    0    0 -0.74629642871E+02  0.41730900308E+02 -0.11011465382E+02  0.86210811418E+02  0.00000000000E+00 0. -1.
         13    1    3    3    0    0  0.20035687761E+02 -0.25732367182E+01  0.21818694005E+02  0.29733915641E+02  0.00000000000E+00 0.  1.
        -13    1    4    4    0    0 -0.42799930061E+02 -0.49573588633E+01  0.34419262582E+02  0.55146124586E+02  0.00000000000E+00 0. -1.
         13    1    4    4    0    0  0.97850965384E+01 -0.32031220930E+02 -0.37256549201E+02  0.50097881062E+02  0.00000000000E+00 0.  1.
          2    1    1    2  501    0  0.87608788632E+02 -0.21690837967E+01 -0.17185748073E+03  0.19291189298E+03  0.00000000000E+00 0. -1.
<scales pt_clust_5="13000.00000" pt_clust_6="13000.00000" pt_clust_7="13000.00000" pt_clust_8="13000.00000" pt_clust_9="87.63564"></scales>
<clustering>
<clus scale="   87.636">  2  9  1 -1</clus>
<clus scale="   92.791">  7  8 -1 -1</clus>
<clus scale="   93.875">  5  6 -1 -1</clus>
<clus scale="  100.949">  2  7  1 -1</clus>
<clus scale="   87.636">  2  5  1 -1</clus>
</clustering>
</event>
<event>
 9    1  0.1504846E-005  0.1670995E+03  0.7546771E-02  0.1181635E+00
          3   -1    0    0  502    0 -0.00000000000E+00  0.00000000000E+00  0.45272886073E+03  0.45272886073E+03  0.00000000000E+00 0. -1.
         21   -1    0    0  501  502  0.00000000000E+00 -0.00000000000E+00 -0.10067930488E+03  0.10067930488E+03  0.00000000000E+00 0. -1.
         23    2    1    2    0    0  0.16243868158E+03 -0.27312730061E+02  0.25613004618E+03  0.31608232102E+03  0.84694289129E+02 0.  0.
         23    2    1    2    0    0 -0.90834319214E+02  0.40506143185E+02  0.26283655713E+02  0.13657663608E+03  0.89837218243E+02 0.  0.
        -11    1    4    4    0    0 -0.26983693477E+02 -0.12720673697E+02 -0.24984144086E+02  0.38911986697E+02  0.00000000000E+00 0.  1.
         11    1    4    4    0    0 -0.63850625737E+02  0.53226816882E+02  0.51267799800E+02  0.97664649381E+02  0.00000000000E+00 0. -1.
        -13    1    3    3    0    0  0.52660490630E+02  0.30777149126E+02  0.82061810655E+02  0.10224725400E+03  0.00000000000E+00 0.  1.
         13    1    3    3    0    0  0.10977819095E+03 -0.58089879187E+02  0.17406823552E+03  0.21383506703E+03  0.00000000000E+00 0. -1.
          3    1    1    2  501    0 -0.71604362366E+02 -0.13193413124E+02  0.69635853962E+02  0.10074920852E+03  0.00000000000E+00 0. -1.
<scales pt_clust_5="13000.00000" pt_clust_6="13000.00000" pt_clust_7="13000.00000" pt_clust_8="13000.00000" pt_clust_9="72.80973"></scales>
<clustering>
<clus scale="   72.810">  2  9  1 -1</clus>
<clus scale="   84.694">  7  8 -1 -1</clus>
<clus scale="   89.837">  5  6 -1 -1</clus>
<clus scale="  164.392">  1  7  2 -1</clus>
<clus scale="   72.810">  2  5  1 -1</clus>
</clustering>
</event>
<event>
 9    1  0.1504846E-005  0.9701642E+02  0.7546771E-02  0.1289002E+00
         21   -1    0    0  501  502  0.00000000000E+00  0.00000000000E+00  0.87326164221E+02  0.87326164221E+02  0.00000000000E+00 0. -1.
          1   -1    0    0  502    0 -0.00000000000E+00 -0.00000000000E+00 -0.30756226935E+03  0.30756226935E+03  0.00000000000E+00 0. -1.
         23    2    1    2    0    0  0.16349086784E+02 -0.17419299441E+02 -0.22702936531E+03  0.24699312717E+03  0.94300305014E+02 0.  0.
         23    2    1    2    0    0  0.23297965319E+02  0.36465576673E+02 -0.10841059822E+02  0.10050734739E+03  0.90064781307E+02 0.  0.
        -11    1    4    4    0    0  0.22522336661E+02 -0.24991342775E+02  0.10820776278E+02  0.35339949938E+02  0.00000000000E+00 0.  1.
         11    1    4    4    0    0  0.77562865721E+00  0.61456919448E+02 -0.21661836100E+02  0.65167397455E+02  0.00000000000E+00 0. -1.
        -13    1    3    3    0    0 -0.18093052182E+02  0.96409441013E+01 -0.55710836328E+01  0.21244842039E+02  0.00000000000E+00 0.  1.
         13    1    3    3    0    0  0.34442138966E+02 -0.27060243542E+02 -0.22145828168E+03  0.22574828514E+03  0.00000000000E+00 0. -1.
          1    1    1    2  501    0 -0.39647052103E+02 -0.19046277232E+02  0.17634320002E+02  0.47387959006E+02  0.00000000000E+00 0. -1.
<scales pt_clust_5="13000.00000" pt_clust_6="13000.00000" pt_clust_7="13000.00000" pt_clust_8="13000.00000" pt_clust_9="43.98465"></scales>
<clustering>
<clus scale="   43.985">  1  9  2 -1</clus>
<clus scale="   90.065">  5  6 -1 -1</clus>
<clus scale="   92.905">  1  5  2 -1</clus>
<clus scale="   94.300">  7  8 -1 -1</clus>
<clus scale="   43.985">  1  5  2 -1</clus>
</clustering>
</event>
<event>
 9    1  0.1504846E-005  0.1376015E+03  0.7546771E-02  0.1217170E+00
         21   -1    0    0  501  502  0.00000000000E+00  0.00000000000E+00  0.76624117913E+02  0.76624117913E+02  0.00000000000E+00 0.  1.
         -2   -1    0    0    0  501 -0.00000000000E+00 -0.00000000000E+00 -0.30947217112E+03  0.30947217112E+03  0.00000000000E+00 0.  1.
         23    2    1    2    0    0  0.97466496428E+02 -0.29052484215E+02 -0.14461281427E+03  0.19836702881E+03  0.89960254014E+02 0.  0.
         23    2    1    2    0    0 -0.10901462131E+03  0.74064912696E+01 -0.82868764366E+02  0.16261537466E+03  0.87392701043E+02 0.  0.
        -11    1    3    3    0    0  0.36929423169E+02  0.17173501037E+02 -0.10476997289E+03  0.11240755603E+03  0.00000000000E+00 0. -1.
         11    1    3    3    0    0  0.60537073258E+02 -0.46225985252E+02 -0.39842841385E+02  0.85959472781E+02  0.00000000000E+00 0.  1.
        -11    1    4    4    0    0 -0.57459419329E+02  0.34379822313E+02 -0.74676709174E+01  0.67374499337E+02  0.00000000000E+00 0. -1.
         11    1    4    4    0    0 -0.51555201979E+02 -0.26973331043E+02 -0.75401093448E+02  0.95240875321E+02  0.00000000000E+00 0.  1.
         -2    1    1    2    0  502  0.11548124881E+02  0.21645992945E+02 -0.53664745687E+01  0.25113885564E+02  0.00000000000E+00 0.  1.
<scales pt_clust_5="13000.00000" pt_clust_6="13000.00000" pt_clust_7="13000.00000" pt_clust_8="13000.00000" pt_clust_9="24.53382"></scales>
<clustering>
<clus scale="   24.534">  1  9  2 -1</clus>
<clus scale="   87.393">  7  8 -1 -1</clus>
<clus scale="   89.960">  5  6 -1 -1</clus>
<clus scale="  135.937">  1  7  2 -1</clus>
<clus scale="   24.534">  1  5  2 -1</clus>
</clustering>
</event>
<event>
 9    1  0.1504846E-005  0.9599759E+02  0.7546771E-02  0.1289280E+00
          3   -1    0    0  502    0 -0.00000000000E+00  0.00000000000E+00  0.71156756592E+02  0.71156756592E+02  0.00000000000E+00 0. -1.
         21   -1    0    0  501  502  0.00000000000E+00 -0.00000000000E+00 -0.32673173741E+03  0.32673173741E+03  0.00000000000E+00 0. -1.
         23    2    1    2    0    0 -0.23489768181E+01  0.39723937127E+02 -0.24453732017E+02  0.10309278552E+03  0.91905541415E+02 0.  0.
         23    2    1    2    0    0  0.11266502547E+02 -0.12891174692E+02 -0.39200961855E+02  0.10080365724E+03  0.91277299686E+02 0.  0.
        -11    1    4    4    0    0  0.30153410034E+02  0.28124870649E+02 -0.35068239494E+00  0.41235415165E+02  0.00000000000E+00 0. -1.
         11    1    4    4    0    0 -0.18886907487E+02 -0.41016045341E+02 -0.38850279460E+02  0.59568242075E+02  0.00000000000E+00 0.  1.
        -13    1    3    3    0    0 -0.40013670520E+02  0.45001705821E+02 -0.51404334915E+01  0.60437334586E+02  0.00000000000E+00 0. -1.
         13    1    3    3    0    0  0.37664693702E+02 -0.52777686944E+01 -0.19313298525E+02  0.42655450929E+02  0.00000000000E+00 0.  1.
          3    1    1    2  501    0 -0.89175257291E+01 -0.26832762435E+02 -0.19192028694E+03  0.19399205124E+03  0.00000000000E+00 0. -1.
<scales pt_clust_5="13000.00000" pt_clust_6="13000.00000" pt_clust_7="13000.00000" pt_clust_8="13000.00000" pt_clust_9="28.27577"></scales>
<clustering>
<clus scale="   28.276">  2  9  1 -1</clus>
<clus scale="   91.277">  5  6 -1 -1</clus>
<clus scale="   91.906">  7  8 -1 -1</clus>
<clus scale="   95.396">  2  5  1 -1</clus>
<clus scale="   28.276">  2  5  1 -1</clus>
</clustering>
</event>
<event>
 9    1  0.1504846E-005  0.1162224E+03  0.7546771E-02  0.1250502E+00
          2   -1    0    0  502    0 -0.00000000000E+00  0.00000000000E+00  0.17928740712E+03  0.17928740712E+03  0.00000000000E+00 0. -1.
         21   -1    0    0  501  502  0.00000000000E+00 -0.00000000000E+00 -0.17782245771E+03  0.17782245771E+03  0.00000000000E+00 0.  1.
         23    2    1    2    0    0  0.16613814594E+02  0.55485002786E+02  0.60741902591E+02  0.12492290584E+03  0.92528640456E+02 0.  0.
         23    2    1    2    0    0 -0.88789647531E+02 -0.78750877729E+02 -0.40246029218E+02  0.15400238337E+03  0.89508038545E+02 0.  0.
        -11    1    4    4    0    0 -0.30784371147E+02 -0.84882210808E+02 -0.25960331289E+02  0.93950018729E+02  0.00000000000E+00 0.  1.
         11    1    4    4    0    0 -0.58005276384E+02  0.61313330789E+01 -0.14285697929E+02  0.60052364641E+02  0.00000000000E+00 0. -1.
        -13    1    3    3    0    0  0.29040845420E+02 -0.10348054290E+02 -0.47978775180E+01  0.31200521774E+02  0.00000000000E+00 0. -1.
         13    1    3    3    0    0 -0.12427030826E+02  0.65833057076E+02  0.65539780109E+02  0.93722384071E+02  0.00000000000E+00 0.  1.
          2    1    1    2  501    0  0.72175832937E+02  0.23265874943E+02 -0.19030923966E+02  0.78184575614E+02  0.00000000000E+00 0. -1.
<scales pt_clust_5="13000.00000" pt_clust_6="13000.00000" pt_clust_7="13000.00000" pt_clust_8="13000.00000" pt_clust_9="75.83305"></scales>
<clustering>
<clus scale="   75.833">  2  9  1 -1</clus>
<clus scale="   89.508">  5  6 -1 -1</clus>
<clus scale="   92.529">  7  8 -1 -1</clus>
<clus scale="  113.832">  2  5  1 -1</clus>
<clus scale="   75.833">  2  5  1 -1</clus>
</clustering>
</event>
<event>
 9    1  0.1504846E-005  0.1215793E+03  0.7546771E-02  0.1242141E+00
         21   -1    0    0  501  502  0.00000000000E+00  0.00000000000E+00  0.33663780800E+03  0.33663780800E+03  0.00000000000E+00 0. -1.
          1   -1    0    0  502    0 -0.00000000000E+00 -0.00000000000E+00 -0.17022943449E+03  0.17022943449E+03  0.00000000000E+00 0. -1.
         23    2    1    2    0    0 -0.74090107666E+02 -0.20541569582E+02 -0.45802959627E+02  0.12650339555E+03  0.89408600479E+02 0.  0.
         23    2    1    2    0    0  0.79217372578E+02 -0.21834730203E+02 -0.34552406567E+02  0.12993544827E+03  0.94536788369E+02 0.  0.
        -11    1    4    4    0    0 -0.16024834097E+02 -0.13591539489E+02  0.11356667821E+02  0.23885124189E+02  0.00000000000E+00 0.  1.
         11    1    4    4    0    0  0.95242206675E+02 -0.82431907145E+01 -0.45909074389E+02  0.10605032408E+03  0.00000000000E+00 0. -1.
        -11    1    3    3    0    0 -0.88817668017E+02 -0.26003520058E+01 -0.18669137539E+02  0.90795796593E+02  0.00000000000E+00 0.  1.
         11    1    3    3    0    0  0.14727560351E+02 -0.17941217577E+02 -0.27133822088E+02  0.35707598955E+02  0.00000000000E+00 0. -1.
          1    1    1    2  501    0 -0.51272649118E+01  0.42376299786E+02  0.24676373971E+03  0.25042839868E+03  0.00000000000E+00 0. -1.
<scales pt_clust_5="13000.00000" pt_clust_6="13000.00000" pt_clust_7="13000.00000" pt_clust_8="13000.00000" pt_clust_9="42.68536"></scales>
<clustering>
<clus scale="   42.685">  1  9  2 -1</clus>
<clus scale="   89.409">  7  8 -1 -1</clus>
<clus scale="   94.537">  5  6 -1 -1</clus>
<clus scale="  117.636">  2  7  1 -1</clus>
<clus scale="   42.685">  1  5  2 -1</clus>
</clustering>
</event>
<event>
 9    1  0.1504846E-005  0.1545612E+03  0.7546771E-02  0.1195314E+00
          1   -1    0    0  502    0 -0.00000000000E+00  0.00000000000E+00  0.78753747504E+03  0.78753747504E+03  0.00000000000E+00 0. -1.
         21   -1    0    0  501  502  0.00000000000E+00 -0.00000000000E+00 -0.83922468416E+02  0.83922468416E+02  0.00000000000E+00 0.  1.
         23    2    1    2    0    0  0.11700369096E+03 -0.29344002992E+02  0.55768054465E+03  0.57791188823E+03  0.91780316359E+02 0.  0.
         23    2    1    2    0    0 -0.13477262968E+03  0.19499490939E+02  0.18673680327E+03  0.24796866672E+03  0.89855072881E+02 0.  0.
        -13    1    4    4    0    0 -0.15975265467E+02  0.38799963385E+02  0.37748979545E+02  0.56441400781E+02  0.00000000000E+00 0. -1.
         13    1    4    4    0    0 -0.11879736421E+03 -0.19300472445E+02  0.14898782372E+03  0.19152726594E+03  0.00000000000E+00 0.  1.
        -13    1    3    3    0    0  0.98276402390E+02  0.16616669968E+02  0.32246229059E+03  0.33751487944E+03  0.00000000000E+00 0. -1.
         13    1    3    3    0    0  0.18727288565E+02 -0.45960672960E+02  0.23521825406E+03  0.24039700879E+03  0.00000000000E+00 0.  1.
          1    1    1    2  501    0  0.17768938720E+02  0.98445120523E+01 -0.40802341297E+02  0.45579388501E+02  0.00000000000E+00 0. -1.
<scales pt_clust_5="13000.00000" pt_clust_6="13000.00000" pt_clust_7="13000.00000" pt_clust_8="13000.00000" pt_clust_9="20.31378"></scales>
<clustering>
<clus scale="   20.314">  2  9  1 -1</clus>
<clus scale="   89.855">  5  6 -1 -1</clus>
<clus scale="   91.780">  7  8 -1 -1</clus>
<clus scale="  153.426">  2  5  1 -1</clus>
<clus scale="   20.314">  2  5  1 -1</clus>
</clustering>
</event>
<event>
 9    1  0.1504846E-005  0.1083871E+03  0.7546771E-02  0.1266065E+00
          2   -1    0    0  502    0 -0.00000000000E+00  0.00000000000E+00  0.25221123207E+03  0.25221123207E+03  0.00000000000E+00 0. -1.
         21   -1    0    0  501  502  0.00000000000E+00 -0.00000000000E+00 -0.26521790845E+03  0.26521790845E+03  0.00000000000E+00 0. -1.
         23    2    1    2    0    0 -0.25266853299E+01  0.50541265698E+02  0.85000315663E+02  0.12838264622E+03  0.81830596418E+02 0.  0.
         23    2    1    2    0    0 -0.19172852233E+02 -0.75817734504E+02  0.12017530013E+03  0.16833563724E+03  0.88197828065E+02 0.  0.
        -11    1    3    3    0    0 -0.25218153461E+02  0.49415385738E+02  0.89425165018E+02  0.10523638035E+03  0.00000000000E+00 0.  1.
         11    1    3    3    0    0  0.22691468131E+02  0.11258799604E+01 -0.44248493554E+01  0.23146265864E+02  0.00000000000E+00 0. -1.
        -13    1    4    4    0    0  0.24218513488E+02 -0.61749706274E+02  0.44161411832E+02  0.79685587879E+02  0.00000000000E+00 0. -1.
         13    1    4    4    0    0 -0.43391365721E+02 -0.14068028230E+02  0.76013888301E+02  0.88650049363E+02  0.00000000000E+00 0.  1.
          2    1    1    2  501    0  0.21699537563E+02  0.25276468806E+02 -0.21818229218E+03  0.22071085706E+03  0.00000000000E+00 0. -1.
<scales pt_clust_5="13000.00000" pt_clust_6="13000.00000" pt_clust_7="13000.00000" pt_clust_8="13000.00000" pt_clust_9="33.31321"></scales>
<clustering>
<clus scale="   33.313">  2  9  1 -1</clus>
<clus scale="   81.831">  5  6 -1 -1</clus>
<clus scale="   88.198">  7  8 -1 -1</clus>
<clus scale="  103.272">  1  5  2 -1</clus>
<clus scale="   33.313">  2  5  1 -1</clus>
</clustering>
</event>
<event>
 9    1  0.1504846E-005  0.9650523E+02  0.7546771E-02  0.1289492E+00
         -3   -1    0    0    0  501 -0.00000000000E+00  0.00000000000E+00  0.19128172529E+03  0.19128172529E+03  0.00000000000E+00 0.  1.
         21   -1    0    0  501  502  0.00000000000E+00 -0.00000000000E+00 -0.25896576568E+03  0.25896576568E+03  0.00000000000E+00 0.  1.
         23    2    1    2    0    0  0.21764668779E+01 -0.29142480565E+02  0.11050992411E+03  0.14705646883E+03  0.92515623100E+02 0.  0.
         23    2    1    2    0    0  0.45992121782E+01 -0.20243342623E+02  0.19180246163E+02  0.99619294259E+02  0.95525788521E+02 0.  0.
        -11    1    4    4    0    0  0.19380596973E+02 -0.38993549460E+02  0.46251067473E+02  0.63523741081E+02  0.00000000000E+00 0.  1.
         11    1    4    4    0    0 -0.14781384795E+02  0.18750206836E+02 -0.27070821310E+02  0.36095553179E+02  0.00000000000E+00 0. -1.
        -11    1    3    3    0    0 -0.36250124479E+02 -0.25327842437E+02  0.96195506036E+02  0.10587325682E+03  0.00000000000E+00 0.  1.
         11    1    3    3    0    0  0.38426591357E+02 -0.38146381273E+01  0.14314418073E+02  0.41183212018E+02  0.00000000000E+00 0. -1.
         -3    1    1    2    0  502 -0.67756790562E+01  0.49385823188E+02 -0.19737421066E+03  0.20357172788E+03  0.00000000000E+00 0.  1.
<scales pt_clust_5="13000.00000" pt_clust_6="13000.00000" pt_clust_7="13000.00000" pt_clust_8="13000.00000" pt_clust_9="49.84846"></scales>
<clustering>
<clus scale="   49.848">  2  9  1 -1</clus>
<clus scale="   92.516">  7  8 -1 -1</clus>
<clus scale="   93.527">  1  7  2 -1</clus>
<clus scale="   95.526">  5  6 -1 -1</clus>
<clus scale="   49.848">  2  5  1 -1</clus>
</clustering>
</event>
<event>
 9    1  0.1504846E-005  0.1329938E+03  0.7546771E-02  0.1239270E+00
          1   -1    0    0  502    0 -0.00000000000E+00  0.00000000000E+00  0.23464360260E+03  0.23464360260E+03  0.00000000000E+00 0. -1.
         21   -1    0    0  501  502  0.00000000000E+00 -0.00000000000E+00 -0.34181224581E+03  0.34181224581E+03  0.00000000000E+00 0. -1.
         23    2    1    2    0    0 -0.82049658743E+01 -0.54951383000E+01  0.82985909713E+02  0.12633921171E+03  0.94749233215E+02 0.  0.
         23    2    1    2    0    0 -0.44765277779E+02 -0.75027181247E+02  0.88787293941E+02  0.15499251944E+03  0.92230632089E+02 0.  0.
        -11    1    3    3    0    0  0.23541211085E+02 -0.40722903868E+02  0.49512244196E+02  0.68293527103E+02  0.00000000000E+00 0. -1.
         11    1    3    3    0    0 -0.31746176960E+02  0.35227765568E+02  0.33473665517E+02  0.58045684608E+02  0.00000000000E+00 0.  1.
        -13    1    4    4    0    0  0.20949135671E+02  0.65082891115E+01  0.20118964275E+02  0.29765698984E+02  0.00000000000E+00 0.  1.
         13    1    4    4    0    0 -0.65714413450E+02 -0.81535470358E+02  0.68668329666E+02  0.12522682045E+03  0.00000000000E+00 0. -1.
          1    1    1    2  501    0  0.52970243654E+02  0.80522319547E+02 -0.27894184687E+03  0.29512411727E+03  0.00000000000E+00 0. -1.
<scales pt_clust_5="13000.00000" pt_clust_6="13000.00000" pt_clust_7="13000.00000" pt_clust_8="13000.00000" pt_clust_9="95.81687"></scales>
<clustering>
<clus scale="   92.231">  7  8 -1 -1</clus>
<clus scale="   94.749">  5  6 -1 -1</clus>
<clus scale="   95.262">  1  5  2 -1</clus>
<clus scale="   95.817">  2  9  1 -1</clus>
<clus scale="   95.817">  2  5  1 -1</clus>
</clustering>
</event>
<event>
 9    1  0.1504846E-005  0.1378883E+03  0.7546771E-02  0.1216215E+00
          2   -1    0    0  502    0 -0.00000000000E+00  0.00000000000E+00  0.92659692996E+03  0.92659692996E+03  0.00000000000E+00 0. -1.
         21   -1    0    0  501  502  0.00000000000E+00 -0.00000000000E+00 -0.34757154999E+02  0.34757154999E+02  0.00000000000E+00 0.  1.
         23    2    1    2    0    0  0.45688610781E+01  0.10784906544E+03  0.71968734190E+03  0.73347954958E+03  0.91597402559E+02 0.  0.
         23    2    1    2    0    0  0.30781041641E+01 -0.87259013799E+02  0.15462869475E+03  0.19977635557E+03  0.91525672856E+02 0.  0.
        -11    1    3    3    0    0  0.47773026150E+02  0.65405471157E+02  0.40705629800E+03  0.41503610376E+03  0.00000000000E+00 0.  1.
         11    1    3    3    0    0 -0.43204165072E+02  0.42443594283E+02  0.31263104390E+03  0.31844344582E+03  0.00000000000E+00 0. -1.
        -13    1    4    4    0    0  0.46546300831E+02 -0.37327973817E+02  0.83258959462E+02  0.10243041580E+03  0.00000000000E+00 0.  1.
         13    1    4    4    0    0 -0.43468196667E+02 -0.49931039982E+02  0.71369735286E+02  0.97345939772E+02  0.00000000000E+00 0. -1.
          2    1    1    2  501    0 -0.76469652422E+01 -0.20590051641E+02  0.17523738315E+02  0.28098179808E+02  0.00000000000E+00 0. -1.
<scales pt_clust_5="13000.00000" pt_clust_6="13000.00000" pt_clust_7="13000.00000" pt_clust_8="13000.00000" pt_clust_9="21.96421"></scales>
<clustering>
<clus scale="   21.964">  2  9  1 -1</clus>
<clus scale="   91.526">  7  8 -1 -1</clus>
<clus scale="   91.597">  5  6 -1 -1</clus>
<clus scale="  137.841">  2  7  1 -1</clus>
<clus scale="   21.964">  2  5  1 -1</clus>
</clustering>
</event>
<event>
 9    1  0.1504846E-005  0.1684308E+03  0.7546771E-02  0.1179820E+00
          1   -1    0    0  502    0 -0.00000000000E+00  0.00000000000E+00  0.57772911086E+03  0.57772911086E+03  0.00000000000E+00 0. -1.
         21   -1    0    0  501  502  0.00000000000E+00 -0.00000000000E+00 -0.75827436894E+02  0.75827436894E+02  0.00000000000E+00 0.  1.
         23    2    1    2    0    0  0.10154504585E+03 -0.11433862445E+03  0.39413452888E+03  0.43278322102E+03  0.92598985746E+02 0.  0.
         23    2    1    2    0    0 -0.89387245600E+02  0.75537488778E+02  0.10221092165E+03  0.17973417646E+03  0.90339967874E+02 0.  0.
        -11    1    3    3    0    0  0.65843534331E+02 -0.97782000411E+02  0.36570313570E+03  0.38423361914E+03  0.00000000000E+00 0. -1.
         11    1    3    3    0    0  0.35701511516E+02 -0.16556624044E+02  0.28431393179E+02  0.48549601877E+02  0.00000000000E+00 0.  1.
        -11    1    4    4    0    0 -0.39798820498E+02  0.27367811683E+02  0.99435552906E+02  0.11054579328E+03  0.00000000000E+00 0. -1.
         11    1    4    4    0    0 -0.49588425102E+02  0.48169677095E+02  0.27753687439E+01  0.69188383181E+02  0.00000000000E+00 0.  1.
          1    1    1    2  501    0 -0.12157800247E+02  0.38801135676E+02  0.55562234357E+01  0.41039150277E+02  0.00000000000E+00 0. -1.
<scales pt_clust_5="13000.00000" pt_clust_6="13000.00000" pt_clust_7="13000.00000" pt_clust_8="13000.00000" pt_clust_9="40.66129"></scales>
<clustering>
<clus scale="   40.661">  2  9  1 -1</clus>
<clus scale="   90.340">  7  8 -1 -1</clus>
<clus scale="   92.599">  5  6 -1 -1</clus>
<clus scale="  167.200">  2  7  1 -1</clus>
<clus scale="   40.661">  2  5  1 -1</clus>
</clustering>
</event>
<event>
 9    1  0.1504846E-005  0.1112914E+03  0.7546771E-02  0.1262474E+00
          2   -1    0    0  502    0 -0.00000000000E+00  0.00000000000E+00  0.42139996311E+03  0.42139996311E+03  0.00000000000E+00 0. -1.
         21   -1    0    0  501  502  0.00000000000E+00 -0.00000000000E+00 -0.19207109189E+03  0.19207109189E+03  0.00000000000E+00 0. -1.
         23    2    1    2    0    0 -0.88789161788E+01  0.42739080643E+02  0.32862712796E+03  0.34672739818E+03  0.10158068345E+03 0.  0.
         23    2    1    2    0    0  0.32037203997E+02 -0.45774494605E+02  0.48007983260E+02  0.11759725768E+03  0.91666033846E+02 0.  0.
        -11    1    3    3    0    0 -0.52958372424E+02  0.26093759348E+02  0.22949980479E+03  0.23697179977E+03  0.00000000000E+00 0. -1.
         11    1    3    3    0    0  0.44079456245E+02  0.16645321295E+02  0.99127323168E+02  0.10975559841E+03  0.00000000000E+00 0.  1.
        -13    1    4    4    0    0  0.25485097650E+02 -0.18045424728E+02 -0.24500588167E+02  0.39691389197E+02  0.00000000000E+00 0.  1.
         13    1    4    4    0    0  0.65521063478E+01 -0.27729069877E+02  0.72508571427E+02  0.77905868484E+02  0.00000000000E+00 0. -1.
          2    1    1    2  501    0 -0.23158287819E+02  0.30354139619E+01 -0.14730624000E+03  0.14914639914E+03  0.00000000000E+00 0. -1.
<scales pt_clust_5="13000.00000" pt_clust_6="13000.00000" pt_clust_7="13000.00000" pt_clust_8="13000.00000" pt_clust_9="23.35637"></scales>
<clustering>
<clus scale="   23.356">  2  9  1 -1</clus>
<clus scale="   91.666">  7  8 -1 -1</clus>
<clus scale="  101.581">  5  6 -1 -1</clus>
<clus scale="  102.322">  2  7  1 -1</clus>
<clus scale="   23.356">  2  5  1 -1</clus>
</clustering>
</event>
<event>
 9    1  0.1504846E-005  0.1544921E+03  0.7546771E-02  0.1195697E+00
         21   -1    0    0  501  502  0.00000000000E+00  0.00000000000E+00  0.24757597085E+03  0.24757597085E+03  0.00000000000E+00 0.  1.
          2   -1    0    0  502    0 -0.00000000000E+00 -0.00000000000E+00 -0.18713551841E+03  0.18713551841E+03  0.00000000000E+00 0. -1.
         23    2    1    2    0    0  0.13458800366E+02 -0.12420192955E+03 -0.68528036241E+02  0.17022630694E+03  0.93132406885E+02 0.  0.
         23    2    1    2    0    0 -0.47229420536E+02  0.11413715817E+03  0.24858106268E+02  0.15457282571E+03  0.89537276939E+02 0.  0.
        -11    1    4    4    0    0  0.64987310473E+01  0.94395193690E+02  0.22639763425E+02  0.97289490619E+02  0.00000000000E+00 0.  1.
         11    1    4    4    0    0 -0.53728151583E+02  0.19741964476E+02  0.22183428430E+01  0.57283335089E+02  0.00000000000E+00 0. -1.
        -11    1    3    3    0    0 -0.13672710502E+02 -0.18157851543E+02  0.19353508110E+02  0.29853121467E+02  0.00000000000E+00 0.  1.
         11    1    3    3    0    0  0.27131510869E+02 -0.10604407801E+03 -0.87881544351E+02  0.14037318547E+03  0.00000000000E+00 0. -1.
          2    1    1    2  501    0  0.33770620170E+02  0.10064771383E+02  0.10411038241E+03  0.10991235661E+03  0.00000000000E+00 0. -1.
<scales pt_clust_5="13000.00000" pt_clust_6="13000.00000" pt_clust_7="13000.00000" pt_clust_8="13000.00000" pt_clust_9="35.23854"></scales>
<clustering>
<clus scale="   35.239">  1  9  2 -1</clus>
<clus scale="   89.537">  5  6 -1 -1</clus>
<clus scale="   93.132">  7  8 -1 -1</clus>
<clus scale="  152.352">  1  5  2 -1</clus>
<clus scale="   35.239">  1  5  2 -1</clus>
</clustering>
</event>
<event>
 9    1  0.1504846E-005  0.1098872E+03  0.7546771E-02  0.1260988E+00
         21   -1    0    0  501  502  0.00000000000E+00  0.00000000000E+00  0.34632284434E+03  0.34632284434E+03  0.00000000000E+00 0. -1.
          2   -1    0    0  502    0 -0.00000000000E+00 -0.00000000000E+00 -0.69019146703E+02  0.69019146703E+02  0.00000000000E+00 0. -1.
         23    2    1    2    0    0 -0.61431058267E+02  0.39568584628E+02  0.38686204111E+02  0.12323679699E+03  0.91385107837E+02 0.  0.
         23    2    1    2    0    0  0.34044115626E+02 -0.28114390218E+02  0.76996450926E+02  0.12778050142E+03  0.91923785513E+02 0.  0.
        -11    1    4    4    0    0  0.18694343382E+02 -0.61797202330E+02  0.54293659776E+02  0.84357419248E+02  0.00000000000E+00 0. -1.
         11    1    4    4    0    0  0.15349772244E+02  0.33682812112E+02  0.22702791150E+02  0.43423082177E+02  0.00000000000E+00 0.  1.
        -13    1    3    3    0    0 -0.83583969180E+02  0.23847308155E+02  0.17206541306E+02  0.88606089372E+02  0.00000000000E+00 0. -1.
         13    1    3    3    0    0  0.22152910913E+02  0.15721276473E+02  0.21479662805E+02  0.34630707617E+02  0.00000000000E+00 0.  1.
          2    1    1    2  501    0  0.27386942641E+02 -0.11454194410E+02  0.16162104260E+03  0.16432469263E+03  0.00000000000E+00 0. -1.
<scales pt_clust_5="13000.00000" pt_clust_6="13000.00000" pt_clust_7="13000.00000" pt_clust_8="13000.00000" pt_clust_9="29.68574"></scales>
<clustering>
<clus scale="   29.686">  1  9  2 -1</clus>
<clus scale="   91.385">  7  8 -1 -1</clus>
<clus scale="   91.924">  5  6 -1 -1</clus>
<clus scale="  109.437">  2  7  1 -1</clus>
<clus scale="   29.686">  1  5  2 -1</clus>
</clustering>
</event>
<event>
 9    1  0.1504846E-005  0.1705886E+03  0.7546771E-02  0.1177875E+00
          2   -1    0    0  502    0 -0.00000000000E+00  0.00000000000E+00  0.14875758081E+03  0.14875758081E+03  0.00000000000E+00 0. -1.
         21   -1    0    0  501  502  0.00000000000E+00 -0.00000000000E+00 -0.33052727634E+03  0.33052727634E+03  0.00000000000E+00 0. -1.
         23    2    1    2    0    0  0.64491399163E+02  0.12025729783E+03 -0.24859488453E+02  0.16390993108E+03  0.87335634734E+02 0.  0.
         23    2    1    2    0    0 -0.37237594356E+02 -0.14957421853E+03 -0.29585474416E+02  0.18190643066E+03  0.91954140412E+02 0.  0.
        -11    1    3    3    0    0 -0.21537370111E+02  0.26980052562E+02 -0.11156428724E+02  0.36280124716E+02  0.00000000000E+00 0.  1.
         11    1    3    3    0    0  0.86028769274E+02  0.93277245267E+02 -0.13703059729E+02  0.12762980637E+03  0.00000000000E+00 0. -1.
        -13    1    4    4    0    0 -0.32942929942E+02 -0.54579706451E+02  0.29190800555E+02  0.70116216573E+02  0.00000000000E+00 0. -1.
         13    1    4    4    0    0 -0.42946644147E+01 -0.94994512077E+02 -0.58776274971E+02  0.11179021409E+03  0.00000000000E+00 0.  1.
          2    1    1    2  501    0 -0.27253804806E+02  0.29316920699E+02 -0.12732473266E+03  0.13346849540E+03  0.00000000000E+00 0. -1.
<scales pt_clust_5="13000.00000" pt_clust_6="13000.00000" pt_clust_7="13000.00000" pt_clust_8="13000.00000" pt_clust_9="40.02814"></scales>
<clustering>
<clus scale="   40.028">  2  9  1 -1</clus>
<clus scale="   87.336">  5  6 -1 -1</clus>
<clus scale="   91.954">  7  8 -1 -1</clus>
<clus scale="  168.144">  1  5  2 -1</clus>
<clus scale="   40.028">  2  5  1 -1</clus>
</clustering>
</event>
<event>
 9    1  0.1504846E-005  0.9488154E+02  0.7546771E-02  0.1292626E+00
         21   -1    0    0  501  502  0.00000000000E+00  0.00000000000E+00  0.12666560800E+03  0.12666560800E+03  0.00000000000E+00 0. -1.
         -1   -1    0    0    0  501 -0.00000000000E+00 -0.00000000000E+00 -0.10493007311E+03  0.10493007311E+03  0.00000000000E+00 0.  1.
         23    2    1    2    0    0  0.19361398633E+02 -0.23763296538E+02 -0.15715844337E+02  0.98598326215E+02  0.92385519157E+02 0.  0.
         23    2    1    2    0    0  0.61942635119E+01  0.15976173641E+02  0.64817585709E+01  0.92096883576E+02  0.90256388946E+02 0.  0.
        -11    1    3    3    0    0 -0.34574100884E+02 -0.15842174743E+02 -0.21651290280E+02  0.43762099165E+02  0.00000000000E+00 0.  1.
         11    1    3    3    0    0  0.53935499517E+02 -0.79211217957E+01  0.59354459435E+01  0.54836227051E+02  0.00000000000E+00 0. -1.
        -11    1    4    4    0    0 -0.23180116989E+02 -0.28046584476E+02  0.13291409256E+02  0.38737453252E+02  0.00000000000E+00 0.  1.
         11    1    4    4    0    0  0.29374380501E+02  0.44022758117E+02 -0.68096506856E+01  0.53359430324E+02  0.00000000000E+00 0. -1.
         -1    1    1    2    0  502 -0.25555662145E+02  0.77871228972E+01  0.30969620659E+02  0.40900471323E+02  0.00000000000E+00 0.  1.
<scales pt_clust_5="13000.00000" pt_clust_6="13000.00000" pt_clust_7="13000.00000" pt_clust_8="13000.00000" pt_clust_9="26.71575"></scales>
<clustering>
<clus scale="   26.716">  1  9  2 -1</clus>
<clus scale="   90.256">  7  8 -1 -1</clus>
<clus scale="   92.386">  5  6 -1 -1</clus>
<clus scale="   92.810">  1  7  2 -1</clus>
<clus scale="   26.716">  1  5  2 -1</clus>
</clustering>
</event>
<event>
 9    1  0.1504846E-005  0.1057581E+03  0.7546771E-02  0.1268796E+00
         -1   -1    0    0    0  501 -0.00000000000E+00  0.00000000000E+00  0.33162339599E+03  0.33162339599E+03  0.00000000000E+00 0.  1.
         21   -1    0    0  501  502  0.00000000000E+00 -0.00000000000E+00 -0.44379236210E+02  0.44379236210E+02  0.00000000000E+00 0.  1.
         23    2    1    2    0    0 -0.43192970724E+02  0.28939140843E+02  0.14836027558E+03  0.18071237234E+03  0.89123978548E+02 0.  0.
         23    2    1    2    0    0  0.36862027237E+02 -0.52207603470E+02  0.12819220319E+03  0.16891196877E+03  0.89518541781E+02 0.  0.
        -11    1    3    3    0    0 -0.27550196225E+02 -0.10905053469E+02  0.37096595234E+01  0.29861263821E+02  0.00000000000E+00 0.  1.
         11    1    3    3    0    0 -0.15642774499E+02  0.39844194312E+02  0.14465061606E+03  0.15085110852E+03  0.00000000000E+00 0. -1.
        -13    1    4    4    0    0 -0.94760579729E+01 -0.54685266212E+02  0.37331461837E+02  0.66887308648E+02  0.00000000000E+00 0.  1.
         13    1    4    4    0    0  0.46338085210E+02  0.24776627419E+01  0.90860741349E+02  0.10202466012E+03  0.00000000000E+00 0. -1.
         -1    1    1    2    0  502  0.63309434879E+01  0.23268462627E+02  0.10691681014E+02  0.26378291100E+02  0.00000000000E+00 0.  1.
<scales pt_clust_5="13000.00000" pt_clust_6="13000.00000" pt_clust_7="13000.00000" pt_clust_8="13000.00000" pt_clust_9="24.11436"></scales>
<clustering>
<clus scale="   24.114">  2  9  1 -1</clus>
<clus scale="   89.124">  5  6 -1 -1</clus>
<clus scale="   89.519">  7  8 -1 -1</clus>
<clus scale="  105.424">  1  5  2 -1</clus>
<clus scale="   24.114">  2  5  1 -1</clus>
</clustering>
</event>
<event>
 9    1  0.1504846E-005  0.1048620E+03  0.7546771E-02  0.1275537E+00
         21   -1    0    0  501  502  0.00000000000E+00  0.00000000000E+00  0.18410420359E+03  0.18410420359E+03  0.00000000000E+00 0. -1.
          2   -1    0    0  502    0 -0.00000000000E+00 -0.00000000000E+00 -0.10108574653E+03  0.10108574653E+03  0.00000000000E+00 0. -1.
         23    2    1    2    0    0  0.87284435867E+01 -0.11148268686E+02 -0.19316200162E+02  0.10449566318E+03  0.10171410134E+03 0.  0.
         23    2    1    2    0    0 -0.76683060269E+01  0.53489485662E+02  0.67777142268E+02  0.12603054772E+03  0.91487867774E+02 0.  0.
        -11    1    3    3    0    0 -0.12795899760E+02 -0.41857081659E+02  0.21756404279E+02  0.48878333266E+02  0.00000000000E+00 0.  1.
         11    1    3    3    0    0  0.21524343346E+02  0.30708812974E+02 -0.41072604441E+02  0.55617329910E+02  0.00000000000E+00 0. -1.
        -13    1    4    4    0    0 -0.31184195071E+02  0.64716284022E+02  0.25233232734E+02  0.76140445717E+02  0.00000000000E+00 0. -1.
         13    1    4    4    0    0  0.23515889044E+02 -0.11226798360E+02  0.42543909535E+02  0.49890101999E+02  0.00000000000E+00 0.  1.
          2    1    1    2  501    0 -0.10601375599E+01 -0.42341216976E+02  0.34557514952E+02  0.54663739228E+02  0.00000000000E+00 0. -1.
<scales pt_clust_5="13000.00000" pt_clust_6="13000.00000" pt_clust_7="13000.00000" pt_clust_8="13000.00000" pt_clust_9="42.35449"></scales>
<clustering>
<clus scale="   42.354">  1  9  2 -1</clus>
<clus scale="   91.488">  7  8 -1 -1</clus>
<clus scale="   94.975">  1  7  2 -1</clus>
<clus scale="  101.714">  5  6 -1 -1</clus>
<clus scale="   42.354">  1  5  2 -1</clus>
</clustering>
</event>
<event>
 9    1  0.1504846E-005  0.1149738E+03  0.7546771E-02  0.1252657E+00
         21   -1    0    0  501  502  0.00000000000E+00  0.00000000000E+00  0.14744137418E+03  0.14744137418E+03  0.00000000000E+00 0.  1.
          3   -1    0    0  502    0 -0.00000000000E+00 -0.00000000000E+00 -0.10809474302E+03  0.10809474302E+03  0.00000000000E+00 0. -1.
         23    2    1    2    0    0 -0.25770194793E+02 -0.69696641861E+02 -0.56021084607E+01  0.12004422200E+03  0.94114328292E+02 0.  0.
         23    2    1    2    0    0  0.11805663781E+02  0.54514712521E+02  0.34527664240E+02  0.11238133665E+03  0.91247891209E+02 0.  0.
        -11    1    4    4    0    0  0.32899597896E+02  0.24732535983E+01  0.44451364037E+02  0.55357242433E+02  0.00000000000E+00 0.  1.
         11    1    4    4    0    0 -0.21093934115E+02  0.52041458922E+02 -0.99236997965E+01  0.57024094214E+02  0.00000000000E+00 0. -1.
        -11    1    3    3    0    0 -0.53053452406E+02 -0.34812687980E+02  0.22806505978E+02  0.67429435497E+02  0.00000000000E+00 0. -1.
         11    1    3    3    0    0  0.27283257612E+02 -0.34883953881E+02 -0.28408614439E+02  0.52614786502E+02  0.00000000000E+00 0.  1.
          3    1    1    2  501    0  0.13964531012E+02  0.15181929340E+02  0.10421075383E+02  0.23110558561E+02  0.00000000000E+00 0. -1.
<scales pt_clust_5="13000.00000" pt_clust_6="13000.00000" pt_clust_7="13000.00000" pt_clust_8="13000.00000" pt_clust_9="20.62763"></scales>
<clustering>
<clus scale="   20.628">  1  9  2 -1</clus>
<clus scale="   91.248">  5  6 -1 -1</clus>
<clus scale="   94.114">  7  8 -1 -1</clus>
<clus scale="  112.639">  1  5  2 -1</clus>
<clus scale="   20.628">  1  5  2 -1</clus>
</clustering>
</event>
<event>
 9    1  0.1504846E-005  0.9890814E+02  0.7546771E-02  0.1284154E+00
          3   -1    0    0  502    0 -0.00000000000E+00  0.00000000000E+00  0.35536269187E+03  0.35536269187E+03  0.00000000000E+00 0. -1.
         21   -1    0    0  501  502  0.00000000000E+00 -0.00000000000E+00 -0.77130910053E+02  0.77130910053E+02  0.00000000000E+00 0.  1.
         23    2    1    2    0    0  0.10460283277E+02  0.28548059181E+02  0.21348042314E+03  0.23319399292E+03  0.88775774051E+02 0.  0.
         23    2    1    2    0    0 -0.74170950442E+02 -0.35745567819E+02  0.32675946296E+02  0.12760801034E+03  0.91853205318E+02 0.  0.
        -11    1    4    4    0    0 -0.61051215751E+02 -0.62828326858E+00 -0.18840594918E+02  0.63895333957E+02  0.00000000000E+00 0.  1.
         11    1    4    4    0    0 -0.13119734691E+02 -0.35117284551E+02  0.51516541215E+02  0.63712676379E+02  0.00000000000E+00 0. -1.
        -13    1    3    3    0    0 -0.99888580765E+01 -0.24697699284E+02  0.12582920665E+03  0.12861859462E+03  0.00000000000E+00 0.  1.
         13    1    3    3    0    0  0.20449141354E+02  0.53245758465E+02  0.87651216491E+02  0.10457539830E+03  0.00000000000E+00 0. -1.
          3    1    1    2  501    0  0.63710667164E+02  0.71975086385E+01  0.32075412383E+02  0.71691598676E+02  0.00000000000E+00 0. -1.
<scales pt_clust_5="13000.00000" pt_clust_6="13000.00000" pt_clust_7="13000.00000" pt_clust_8="13000.00000" pt_clust_9="64.11594"></scales>
<clustering>
<clus scale="   64.116">  2  9  1 -1</clus>
<clus scale="   88.776">  7  8 -1 -1</clus>
<clus scale="   91.853">  5  6 -1 -1</clus>
<clus scale="   96.057">  1  7  2 -1</clus>
<clus scale="   64.116">  2  5  1 -1</clus>
</clustering>
</event>
<event>
 9    1  0.1504846E-005  0.1216721E+03  0.7546771E-02  0.1240780E+00
         21   -1    0    0  501  502  0.00000000000E+00  0.00000000000E+00  0.81169615542E+02  0.81169615542E+02  0.00000000000E+00 0. -1.
         -1   -1    0    0    0  501 -0.00000000000E+00 -0.00000000000E+00 -0.28025658885E+03  0.28025658885E+03  0.00000000000E+00 0.  1.
         23    2    1    2    0    0  0.78348937605E+01 -0.89970122975E+02 -0.15436943346E+03  0.20081823153E+03  0.91334722536E+02 0.  0.
         23    2    1    2    0    0  0.24076114596E+02  0.62957650989E+02 -0.34066513618E+02  0.11746367478E+03  0.89965895935E+02 0.  0.
        -11    1    4    4    0    0  0.35855743793E+02  0.81460009703E+02 -0.34683009775E+02  0.95521090398E+02  0.00000000000E+00 0.  1.
         11    1    4    4    0    0 -0.11779629197E+02 -0.18502358714E+02  0.61649615639E+00  0.21942584386E+02  0.00000000000E+00 0. -1.
        -13    1    3    3    0    0  0.18256690177E+02 -0.23419768094E+02 -0.12295810175E+03  0.12649303167E+03  0.00000000000E+00 0.  1.
         13    1    3    3    0    0 -0.10421796416E+02 -0.66550354881E+02 -0.31411331706E+02  0.74325199865E+02  0.00000000000E+00 0. -1.
         -1    1    1    2    0  502 -0.31911008357E+02  0.27012471986E+02 -0.10651026237E+02  0.43144298083E+02  0.00000000000E+00 0.  1.
<scales pt_clust_5="13000.00000" pt_clust_6="13000.00000" pt_clust_7="13000.00000" pt_clust_8="13000.00000" pt_clust_9="41.80892"></scales>
<clustering>
<clus scale="   41.809">  1  9  2 -1</clus>
<clus scale="   89.966">  5  6 -1 -1</clus>
<clus scale="   91.335">  7  8 -1 -1</clus>
<clus scale="  120.648">  1  5  2 -1</clus>
<clus scale="   41.809">  1  5  2 -1</clus>
</clustering>
</event>
<event>
 9    1  0.1504846E-005  0.1122365E+03  0.7546771E-02  0.1257320E+00
          3   -1    0    0  502    0 -0.00000000000E+00  0.00000000000E+00  0.56946622265E+03  0.56946622265E+03  0.00000000000E+00 0. -1.
         21   -1    0    0  501  502  0.00000000000E+00 -0.00000000000E+00 -0.57951330637E+02  0.57951330637E+02  0.00000000000E+00 0. -1.
         23    2    1    2    0    0  0.23966968928E+02  0.41602904982E+02  0.26602697612E+03  0.28457530936E+03  0.88924335102E+02 0.  0.
         23    2    1    2    0    0 -0.72501530496E+02 -0.67230598586E+02  0.25388611435E+03  0.28731826637E+03  0.91198694176E+02 0.  0.
        -11    1    4    4    0    0 -0.34885814253E+02  0.85431826595E+01  0.26295398384E+02  0.44513525835E+02  0.00000000000E+00 0.  1.
         11    1    4    4    0    0 -0.37615716244E+02 -0.75773781245E+02  0.22759071596E+03  0.24280474053E+03  0.00000000000E+00 0. -1.
        -13    1    3    3    0    0 -0.31526003529E+02 -0.20042182416E+00  0.78740359219E+02  0.84817293268E+02  0.00000000000E+00 0. -1.
         13    1    3    3    0    0  0.55492972457E+02  0.41803326806E+02  0.18728661690E+03  0.19975801610E+03  0.00000000000E+00 0.  1.
          3    1    1    2  501    0  0.48534561568E+02  0.25627693604E+02 -0.83981984563E+01  0.55523977554E+02  0.00000000000E+00 0. -1.
<scales pt_clust_5="13000.00000" pt_clust_6="13000.00000" pt_clust_7="13000.00000" pt_clust_8="13000.00000" pt_clust_9="54.88517"></scales>
<clustering>
<clus scale="   54.885">  2  9  1 -1</clus>
<clus scale="   88.924">  7  8 -1 -1</clus>
<clus scale="   91.199">  5  6 -1 -1</clus>
<clus scale="  110.396">  1  7  2 -1</clus>
<clus scale="   54.885">  2  5  1 -1</clus>
</clustering>
</event>
<event>
 9    1  0.1504846E-005  0.3171987E+03  0.7546771E-02  0.1120686E+00
         21   -1    0    0  501  502  0.00000000000E+00  0.00000000000E+00  0.84267763040E+03  0.84267763040E+03  0.00000000000E+00 0. -1.
          1   -1    0    0  502    0 -0.00000000000E+00 -0.00000000000E+00 -0.18416756660E+03  0.18416756660E+03  0.00000000000E+00 0. -1.
         23    2    1    2    0    0  0.24292994116E+02 -0.37503575718E+02  0.15614828272E+02  0.10285228039E+03  0.91313202575E+02 0.  0.
         23    2    1    2    0    0  0.26968723012E+03 -0.77484096857E+02  0.13060440578E+03  0.32225507391E+03  0.89754300721E+02 0.  0.
        -13    1    3    3    0    0 -0.43856263329E+01  0.25598443465E+02  0.20901829851E+02  0.33337674143E+02  0.00000000000E+00 0. -1.
         13    1    3    3    0    0  0.28678620449E+02 -0.63102019183E+02 -0.52870015786E+01  0.69514606246E+02  0.00000000000E+00 0.  1.
        -13    1    4    4    0    0  0.10531886226E+03  0.10914971016E+02  0.65947620753E+02  0.12474088353E+03  0.00000000000E+00 0.  1.
         13    1    4    4    0    0  0.16436836786E+03 -0.88399067874E+02  0.64656785026E+02  0.19751419038E+03  0.00000000000E+00 0. -1.
          1    1    1    2  501    0 -0.29398022423E+03  0.11498767258E+03  0.51229082975E+03  0.60173784270E+03  0.00000000000E+00 0. -1.
<scales pt_clust_5="13000.00000" pt_clust_6="13000.00000" pt_clust_7="13000.00000" pt_clust_8="13000.00000" pt_clust_9="304.23539"></scales>
<clustering>
<clus scale="   89.754">  7  8 -1 -1</clus>
<clus scale="   91.313">  5  6 -1 -1</clus>
<clus scale="  101.660">  2  5  1 -1</clus>
<clus scale="  304.235">  1  9  2 -1</clus>
<clus scale="  304.235">  1  5  2 -1</clus>
</clustering>
</event>
<event>
 9    1  0.1504846E-005  0.1167041E+03  0.7546771E-02  0.1248652E+00
         21   -1    0    0  501  502  0.00000000000E+00  0.00000000000E+00  0.10058397597E+03  0.10058397597E+03  0.00000000000E+00 0.  1.
          1   -1    0    0  502    0 -0.00000000000E+00 -0.00000000000E+00 -0.31219634509E+03  0.31219634509E+03  0.00000000000E+00 0. -1.
         23    2    1    2    0    0 -0.25624812350E+02 -0.59686771496E+02 -0.20019304690E+03  0.22980350339E+03  0.92267288043E+02 0.  0.
         23    2    1    2    0    0  0.53614886757E+02  0.76743340030E+02 -0.42126920432E+02  0.13806214987E+03  0.92316756227E+02 0.  0.
        -11    1    4    4    0    0 -0.21226553304E+02  0.38084553183E+02 -0.30077607145E+02  0.52968502036E+02  0.00000000000E+00 0. -1.
         11    1    4    4    0    0  0.74841440060E+02  0.38658786847E+02 -0.12049313286E+02  0.85093647833E+02  0.00000000000E+00 0.  1.
        -13    1    3    3    0    0 -0.43758610907E+02 -0.75110390127E+02 -0.17335478122E+03  0.19392850978E+03  0.00000000000E+00 0. -1.
         13    1    3    3    0    0  0.18133798557E+02  0.15423618630E+02 -0.26838265683E+02  0.35874993612E+02  0.00000000000E+00 0.  1.
          1    1    1    2  501    0 -0.27990074407E+02 -0.17056568534E+02  0.30707598213E+02  0.44914667798E+02  0.00000000000E+00 0. -1.
<scales pt_clust_5="13000.00000" pt_clust_6="13000.00000" pt_clust_7="13000.00000" pt_clust_8="13000.00000" pt_clust_9="32.77760"></scales>
<clustering>
<clus scale="   32.778">  1  9  2 -1</clus>
<clus scale="   92.267">  7  8 -1 -1</clus>
<clus scale="   92.317">  5  6 -1 -1</clus>
<clus scale="  116.665">  2  7  1 -1</clus>
<clus scale="   32.778">  1  5  2 -1</clus>
</clustering>
</event>
<event>
 9    1  0.1504846E-005  0.9750240E+02  0.7546771E-02  0.1286480E+00
          1   -1    0    0  502    0 -0.00000000000E+00  0.00000000000E+00  0.37631294221E+03  0.37631294221E+03  0.00000000000E+00 0. -1.
         21   -1    0    0  501  502  0.00000000000E+00 -0.00000000000E+00 -0.33297109754E+02  0.33297109754E+02  0.00000000000E+00 0. -1.
         23    2    1    2    0    0  0.34451708237E+02  0.12802215889E+02  0.17664365407E+03  0.20281483483E+03  0.92628612059E+02 0.  0.
         23    2    1    2    0    0 -0.14798007506E+02 -0.22812077485E+02  0.15547495710E+03  0.18219410510E+03  0.91010206805E+02 0.  0.
        -11    1    4    4    0    0  0.34103789369E+02 -0.20499970198E+02  0.38411659575E+02  0.55306173424E+02  0.00000000000E+00 0. -1.
         11    1    4    4    0    0 -0.48901796875E+02 -0.23121072863E+01  0.11706329752E+03  0.12688793167E+03  0.00000000000E+00 0.  1.
        -13    1    3    3    0    0  0.25099753362E+02 -0.26761050685E+02  0.14949057092E+03  0.15392719788E+03  0.00000000000E+00 0. -1.
         13    1    3    3    0    0  0.93519548747E+01  0.39563266574E+02  0.27153083143E+02  0.48887636946E+02  0.00000000000E+00 0.  1.
          1    1    1    2  501    0 -0.19653700731E+02  0.10009861595E+02  0.10897221289E+02  0.24601112036E+02  0.00000000000E+00 0. -1.
<scales pt_clust_5="13000.00000" pt_clust_6="13000.00000" pt_clust_7="13000.00000" pt_clust_8="13000.00000" pt_clust_9="22.05596"></scales>
<clustering>
<clus scale="   22.056">  2  9  1 -1</clus>
<clus scale="   91.010">  5  6 -1 -1</clus>
<clus scale="   92.629">  7  8 -1 -1</clus>
<clus scale="   95.966">  2  5  1 -1</clus>
<clus scale="   22.056">  2  5  1 -1</clus>
</clustering>
</event>
<event>
 9    1  0.1504846E-005  0.1025584E+03  0.7546771E-02  0.1281247E+00
         21   -1    0    0  501  502  0.00000000000E+00  0.00000000000E+00  0.33497183110E+02  0.33497183110E+02  0.00000000000E+00 0.  1.
          2   -1    0    0  502    0 -0.00000000000E+00 -0.00000000000E+00 -0.40224019654E+03  0.40224019654E+03  0.00000000000E+00 0. -1.
         23    2    1    2    0    0 -0.56555191008E+02  0.15485236368E+02 -0.22536370234E+03  0.25037701599E+03  0.91986790526E+02 0.  0.
         23    2    1    2    0    0  0.29172761377E+02 -0.13028925901E+02 -0.12833398659E+03  0.15402040988E+03  0.78942204351E+02 0.  0.
        -11    1    3    3    0    0 -0.19446236942E+02 -0.17034994121E+02 -0.73893310519E+01  0.26887717815E+02  0.00000000000E+00 0.  1.
         11    1    3    3    0    0 -0.37108954066E+02  0.32520230490E+02 -0.21797437129E+03  0.22348929818E+03  0.00000000000E+00 0. -1.
        -11    1    4    4    0    0 -0.27291252676E+02 -0.75745739395E+01 -0.39057044392E+02  0.48245614927E+02  0.00000000000E+00 0. -1.
         11    1    4    4    0    0  0.56464014054E+02 -0.54543519614E+01 -0.89276942201E+02  0.10577479495E+03  0.00000000000E+00 0.  1.
          2    1    1    2  501    0  0.27382429631E+02 -0.24563104675E+01 -0.15045324502E+02  0.31339953781E+02  0.00000000000E+00 0. -1.
<scales pt_clust_5="13000.00000" pt_clust_6="13000.00000" pt_clust_7="13000.00000" pt_clust_8="13000.00000" pt_clust_9="27.49238"></scales>
<clustering>
<clus scale="   27.492">  1  9  2 -1</clus>
<clus scale="   78.942">  7  8 -1 -1</clus>
<clus scale="   91.041">  1  7  2 -1</clus>
<clus scale="   91.987">  5  6 -1 -1</clus>
<clus scale="   27.492">  1  5  2 -1</clus>
</clustering>
</event>
<event>
 9    1  0.1504846E-005  0.1178632E+03  0.7546771E-02  0.1247355E+00
          1   -1    0    0  502    0 -0.00000000000E+00  0.00000000000E+00  0.61563690239E+03  0.61563690239E+03  0.00000000000E+00 0. -1.
         21   -1    0    0  501  502  0.00000000000E+00 -0.00000000000E+00 -0.79190705761E+02  0.79190705761E+02  0.00000000000E+00 0. -1.
         23    2    1    2    0    0  0.99914091121E+02  0.15828135345E+02  0.40001452970E+03  0.42311371894E+03  0.93702933305E+02 0.  0.
         23    2    1    2    0    0 -0.37946347770E+02  0.88763598216E+01  0.17000647191E+03  0.19703068611E+03  0.91652472435E+02 0.  0.
        -11    1    4    4    0    0 -0.44330162505E+02  0.44023599840E+02  0.12334700104E+03  0.13826685545E+03  0.00000000000E+00 0.  1.
         11    1    4    4    0    0  0.63838147345E+01 -0.35147240018E+02  0.46659470867E+02  0.58763830654E+02  0.00000000000E+00 0. -1.
        -13    1    3    3    0    0  0.71012249151E+02 -0.32403891042E+02  0.27829411411E+03  0.28903350261E+03  0.00000000000E+00 0. -1.
         13    1    3    3    0    0  0.28901841970E+02  0.48232026387E+02  0.12172041559E+03  0.13408021633E+03  0.00000000000E+00 0.  1.
          1    1    1    2  501    0 -0.61967743351E+02 -0.24704495167E+02 -0.33574804978E+02  0.74683203110E+02  0.00000000000E+00 0. -1.
<scales pt_clust_5="13000.00000" pt_clust_6="13000.00000" pt_clust_7="13000.00000" pt_clust_8="13000.00000" pt_clust_9="66.71067"></scales>
<clustering>
<clus scale="   66.711">  2  9  1 -1</clus>
<clus scale="   91.652">  5  6 -1 -1</clus>
<clus scale="   93.703">  7  8 -1 -1</clus>
<clus scale="  116.240">  2  5  1 -1</clus>
<clus scale="   66.711">  2  5  1 -1</clus>
</clustering>
</event>
<event>
 9    1  0.1504846E-005  0.3036429E+03  0.7546771E-02  0.1090406E+00
         21   -1    0    0  501  502  0.00000000000E+00  0.00000000000E+00  0.18123495284E+03  0.18123495284E+03  0.00000000000E+00 0. -1.
          1   -1    0    0  502    0 -0.00000000000E+00 -0.00000000000E+00 -0.11268223430E+04  0.11268223430E+04  0.00000000000E+00 0. -1.
         23    2    1    2    0    0  0.22704822512E+03  0.59458849571E+02 -0.20374385801E+03  0.32426540183E+03  0.92467506837E+02 0.  0.
         23    2    1    2    0    0  0.76932147363E+02 -0.23459365619E+03 -0.47661317857E+03  0.54399261272E+03  0.88403064961E+02 0.  0.
        -11    1    3    3    0    0  0.11864882649E+03 -0.80001033373E+01 -0.64257638376E+02  0.13516874554E+03  0.00000000000E+00 0. -1.
         11    1    3    3    0    0  0.10839939864E+03  0.67458952908E+02 -0.13948621963E+03  0.18909665629E+03  0.00000000000E+00 0.  1.
        -13    1    4    4    0    0  0.86037396100E+02 -0.14153309734E+03 -0.34316189577E+03  0.38104348554E+03  0.00000000000E+00 0. -1.
         13    1    4    4    0    0 -0.91052487375E+01 -0.93060558848E+02 -0.13345128280E+03  0.16294912718E+03  0.00000000000E+00 0.  1.
          1    1    1    2  501    0 -0.30398037249E+03  0.17513480662E+03 -0.26523035355E+03  0.43979928125E+03  0.00000000000E+00 0. -1.
<scales pt_clust_5="13000.00000" pt_clust_6="13000.00000" pt_clust_7="13000.00000" pt_clust_8="13000.00000" pt_clust_9="290.48914"></scales>
<clustering>
<clus scale="   88.403">  7  8 -1 -1</clus>
<clus scale="   92.468">  5  6 -1 -1</clus>
<clus scale="  252.263">  2  5  1 -1</clus>
<clus scale="  290.489">  1  9  2 -1</clus>
<clus scale="  290.489">  1  5  2 -1</clus>
</clustering>
</event>
<event>
 9    1  0.1504846E-005  0.1738093E+03  0.7546771E-02  0.1199160E+00
         -3   -1    0    0    0  501 -0.00000000000E+00  0.00000000000E+00  0.17031538821E+04  0.17031538821E+04  0.00000000000E+00 0.  1.
         21   -1    0    0  501  502  0.00000000000E+00 -0.00000000000E+00 -0.30039355345E+02  0.30039355345E+02  0.00000000000E+00 0.  1.
         23    2    1    2    0    0  0.36297306375E+02 -0.24389017418E+02  0.48260144216E+03  0.49269239935E+03  0.89046784202E+02 0.  0.
         23    2    1    2    0    0  0.10807126706E+03  0.77151257686E+02  0.87089027922E+03  0.88583920116E+03  0.92895083611E+02 0.  0.
        -11    1    4    4    0    0  0.96072951225E+02  0.98106550378E+02  0.76550844179E+03  0.77772622537E+03  0.00000000000E+00 0.  1.
         11    1    4    4    0    0  0.11998315836E+02 -0.20955292691E+02  0.10538183743E+03  0.10811297579E+03  0.00000000000E+00 0. -1.
        -13    1    3    3    0    0  0.28704235079E+02  0.30087616975E+02  0.15381522126E+03  0.15933712718E+03  0.00000000000E+00 0.  1.
         13    1    3    3    0    0  0.75930712960E+01 -0.54476634393E+02  0.32878622090E+03  0.33335527216E+03  0.00000000000E+00 0. -1.
         -3    1    1    2    0  502 -0.14436857344E+03 -0.52762240269E+02  0.31962280534E+03  0.35466163690E+03  0.00000000000E+00 0.  1.
<scales pt_clust_5="13000.00000" pt_clust_6="13000.00000" pt_clust_7="13000.00000" pt_clust_8="13000.00000" pt_clust_9="146.90196"></scales>
<clustering>
<clus scale="   89.047">  7  8 -1 -1</clus>
<clus scale="   92.895">  5  6 -1 -1</clus>
<clus scale="   99.205">  1  7  2 -1</clus>
<clus scale="  146.902">  2  9  1 -1</clus>
<clus scale="  146.902">  2  5  1 -1</clus>
</clustering>
</event>
<event>
 9    1  0.1504846E-005  0.1022375E+03  0.7546771E-02  0.1276352E+00
          2   -1    0    0  502    0 -0.00000000000E+00  0.00000000000E+00  0.63927636583E+03  0.63927636583E+03  0.00000000000E+00 0. -1.
         21   -1    0    0  501  502  0.00000000000E+00 -0.00000000000E+00 -0.68103700103E+02  0.68103700103E+02  0.00000000000E+00 0.  1.
         23    2    1    2    0    0  0.31662014456E+02  0.36647335798E+02  0.39675387279E+03  0.40992928178E+03  0.91010274711E+02 0.  0.
         23    2    1    2    0    0  0.17463266745E+02 -0.49173777621E+02  0.21012616306E+03  0.23544093591E+03  0.92500831391E+02 0.  0.
        -13    1    3    3    0    0  0.58445894654E+02  0.12875518554E+02  0.31561202383E+03  0.32123612992E+03  0.00000000000E+00 0.  1.
         13    1    3    3    0    0 -0.26783880198E+02  0.23771817244E+02  0.81141848963E+02  0.88693151859E+02  0.00000000000E+00 0. -1.
        -13    1    4    4    0    0  0.20177218992E+02  0.24911364585E+02  0.65076074638E+02  0.72543722968E+02  0.00000000000E+00 0.  1.
         13    1    4    4    0    0 -0.27139522478E+01 -0.74085142205E+02  0.14505008842E+03  0.16289721294E+03  0.00000000000E+00 0. -1.
          2    1    1    2  501    0 -0.49125281201E+02  0.12526441822E+02 -0.35707370128E+02  0.62009848244E+02  0.00000000000E+00 0. -1.
<scales pt_clust_5="13000.00000" pt_clust_6="13000.00000" pt_clust_7="13000.00000" pt_clust_8="13000.00000" pt_clust_9="50.69719"></scales>
<clustering>
<clus scale="   50.697">  2  9  1 -1</clus>
<clus scale="   91.010">  5  6 -1 -1</clus>
<clus scale="   92.501">  7  8 -1 -1</clus>
<clus scale="  100.891">  1  5  2 -1</clus>
<clus scale="   50.697">  2  5  1 -1</clus>
</clustering>
</event>
<event>
 9    1  0.1504846E-005  0.1151976E+03  0.7546771E-02  0.1256838E+00
         21   -1    0    0  501  502  0.00000000000E+00  0.00000000000E+00  0.86984642157E+02  0.86984642157E+02  0.00000000000E+00 0. -1.
          2   -1    0    0  502    0 -0.00000000000E+00 -0.00000000000E+00 -0.53712220479E+03  0.53712220479E+03  0.00000000000E+00 0. -1.
         23    2    1    2    0    0 -0.53779481309E+02  0.93293654733E+01 -0.40434909979E+03  0.42125201959E+03  0.10476545157E+03 0.  0.
         23    2    1    2    0    0  0.12215973685E+02 -0.52196927454E+02 -0.81225546634E+02  0.13342183849E+03  0.91269098334E+02 0.  0.
        -11    1    4    4    0    0  0.48535276455E+02 -0.49650078990E+02 -0.52528339250E+02  0.87063366743E+02  0.00000000000E+00 0.  1.
         11    1    4    4    0    0 -0.36319302771E+02 -0.25468484647E+01 -0.28697207384E+02  0.46358471745E+02  0.00000000000E+00 0. -1.
        -11    1    3    3    0    0 -0.11489990290E+02  0.51674544831E+02 -0.25344204550E+03  0.25891146921E+03  0.00000000000E+00 0. -1.
         11    1    3    3    0    0 -0.42289491019E+02 -0.42345179358E+02 -0.15090705429E+03  0.16234055038E+03  0.00000000000E+00 0.  1.
          2    1    1    2  501    0  0.41563507624E+02  0.42867561981E+02  0.35437083785E+02  0.69432988870E+02  0.00000000000E+00 0. -1.
<scales pt_clust_5="13000.00000" pt_clust_6="13000.00000" pt_clust_7="13000.00000" pt_clust_8="13000.00000" pt_clust_9="59.70890"></scales>
<clustering>
<clus scale="   59.709">  1  9  2 -1</clus>
<clus scale="   91.269">  5  6 -1 -1</clus>
<clus scale="  103.076">  1  5  2 -1</clus>
<clus scale="  104.765">  7  8 -1 -1</clus>
<clus scale="   59.709">  1  5  2 -1</clus>
</clustering>
</event>
<event>
 9    1  0.2182262E-005  0.1751027E+03  0.7546771E-02  0.1194659E+00
          1   -1    0    0  502    0 -0.00000000000E+00  0.00000000000E+00  0.34013307746E+03  0.34013307746E+03  0.00000000000E+00 0. -1.
         21   -1    0    0  501  502  0.00000000000E+00 -0.00000000000E+00 -0.43250930658E+03  0.43250930658E+03  0.00000000000E+00 0. -1.
         23    2    1    2    0    0  0.41256153083E+02  0.36295779417E+02  0.14616165623E+02  0.10803473065E+03  0.91860856510E+02 0.  0.
         23    2    1    2    0    0  0.54153661948E+02  0.80355753102E+02  0.24609371222E+03  0.28070608817E+03  0.94043216562E+02 0.  0.
        -13    1    4    4    0    0  0.45184759785E+02 -0.66806524865E+01  0.10753202213E+03  0.11683077256E+03  0.00000000000E+00 0.  1.
         13    1    4    4    0    0  0.89689021627E+01  0.87036405589E+02  0.13856169009E+03  0.16387531561E+03  0.00000000000E+00 0. -1.
        -13    1    3    3    0    0  0.34157810553E+02  0.62643283279E+02  0.29200497828E+02  0.77094786044E+02  0.00000000000E+00 0. -1.
         13    1    3    3    0    0  0.70983425303E+01 -0.26347503862E+02 -0.14584332205E+02  0.30939944608E+02  0.00000000000E+00 0.  1.
          1    1    1    2  501    0 -0.95409815031E+02 -0.11665153252E+03 -0.35308610697E+03  0.38390156522E+03  0.00000000000E+00 0. -1.
<scales pt_clust_5="13000.00000" pt_clust_6="13000.00000" pt_clust_7="13000.00000" pt_clust_8="13000.00000" pt_clust_9="147.70516"></scales>
<clustering>
<clus scale="   91.861">  7  8 -1 -1</clus>
<clus scale="   94.043">  5  6 -1 -1</clus>
<clus scale="  107.041">  1  7  2 -1</clus>
<clus scale="  147.705">  2  9  1 -1</clus>
<clus scale="  147.705">  2  5  1 -1</clus>
</clustering>
</event>
<event>
 9    1  0.1504846E-005  0.1002982E+03  0.7546771E-02  0.1280388E+00
         -3   -1    0    0    0  501 -0.00000000000E+00  0.00000000000E+00  0.63769139833E+02  0.63769139833E+02  0.00000000000E+00 0.  1.
         21   -1    0    0  501  502  0.00000000000E+00 -0.00000000000E+00 -0.27103662223E+03  0.27103662223E+03  0.00000000000E+00 0. -1.
         23    2    1    2    0    0 -0.12397026207E+02 -0.43606372253E+02 -0.15166740714E+02  0.10349000530E+03  0.91787522099E+02 0.  0.
         23    2    1    2    0    0  0.13006630562E+02  0.10051910069E+02 -0.15127530218E+03  0.17846700975E+03  0.93252577371E+02 0.  0.
        -13    1    4    4    0    0  0.39493804024E+02  0.51345720483E+01 -0.20207919679E+02  0.44659650739E+02  0.00000000000E+00 0.  1.
         13    1    4    4    0    0 -0.26487173461E+02  0.49173380204E+01 -0.13106738250E+03  0.13380735901E+03  0.00000000000E+00 0. -1.
        -13    1    3    3    0    0 -0.22566765011E+02  0.24271512411E+02 -0.10196963153E+02  0.34674821634E+02  0.00000000000E+00 0. -1.
         13    1    3    3    0    0  0.10169738804E+02 -0.67877884665E+02 -0.49697775606E+01  0.68815183665E+02  0.00000000000E+00 0.  1.
         -3    1    1    2    0  502 -0.60960435514E+00  0.33554462185E+02 -0.40825439509E+02  0.52848747015E+02  0.00000000000E+00 0.  1.
<scales pt_clust_5="13000.00000" pt_clust_6="13000.00000" pt_clust_7="13000.00000" pt_clust_8="13000.00000" pt_clust_9="33.56000"></scales>
<clustering>
<clus scale="   33.560">  2  9  1 -1</clus>
<clus scale="   91.788">  7  8 -1 -1</clus>
<clus scale="   93.253">  5  6 -1 -1</clus>
<clus scale="   98.938">  1  7  2 -1</clus>
<clus scale="   33.560">  2  5  1 -1</clus>
</clustering>
</event>
<event>
 9    1  0.1504846E-005  0.1046740E+03  0.7546771E-02  0.1272010E+00
          1   -1    0    0  502    0 -0.00000000000E+00  0.00000000000E+00  0.27991817553E+03  0.27991817553E+03  0.00000000000E+00 0. -1.
         21   -1    0    0  501  502  0.00000000000E+00 -0.00000000000E+00 -0.76533388934E+02  0.76533388934E+02  0.00000000000E+00 0.  1.
         23    2    1    2    0    0 -0.48513202339E+02  0.40238033006E+02  0.13434909370E+03  0.17366348060E+03  0.90203633044E+02 0.  0.
         23    2    1    2    0    0  0.26315900974E+02 -0.19134628266E+02  0.99183026661E+02  0.13981209509E+03  0.93013378133E+02 0.  0.
        -13    1    4    4    0    0  0.44753604339E+02 -0.46567383830E+02  0.74249810306E+02  0.98409555779E+02  0.00000000000E+00 0. -1.
         13    1    4    4    0    0 -0.18437703366E+02  0.27432755564E+02  0.24933216355E+02  0.41402539306E+02  0.00000000000E+00 0.  1.
        -13    1    3    3    0    0 -0.17343965287E+02  0.64479201772E+02  0.10513055764E+03  0.12454242146E+03  0.00000000000E+00 0.  1.
         13    1    3    3    0    0 -0.31169237052E+02 -0.24241168766E+02  0.29218536055E+02  0.49121059137E+02  0.00000000000E+00 0. -1.
          1    1    1    2  501    0  0.22197301365E+02 -0.21103404740E+02 -0.30147333757E+02  0.42975988787E+02  0.00000000000E+00 0. -1.
<scales pt_clust_5="13000.00000" pt_clust_6="13000.00000" pt_clust_7="13000.00000" pt_clust_8="13000.00000" pt_clust_9="30.62799"></scales>
<clustering>
<clus scale="   30.628">  2  9  1 -1</clus>
<clus scale="   90.204">  7  8 -1 -1</clus>
<clus scale="   93.013">  5  6 -1 -1</clus>
<clus scale="  102.185">  1  7  2 -1</clus>
<clus scale="   30.628">  2  5  1 -1</clus>
</clustering>
</event>
<event>
 9    1  0.1504846E-005  0.9987931E+02  0.7546771E-02  0.1284542E+00
         21   -1    0    0  501  502  0.00000000000E+00  0.00000000000E+00  0.10714488735E+03  0.10714488735E+03  0.00000000000E+00 0. -1.
          3   -1    0    0  502    0 -0.00000000000E+00 -0.00000000000E+00 -0.14213982773E+03  0.14213982773E+03  0.00000000000E+00 0. -1.
         23    2    1    2    0    0 -0.26058050585E+02 -0.15727462921E+02 -0.73856213103E+02  0.12586514964E+03  0.97267263710E+02 0.  0.
         23    2    1    2    0    0  0.48158857023E+01  0.40181594848E+01  0.18791842216E+02  0.91937516631E+02  0.89777699177E+02 0.  0.
        -13    1    4    4    0    0 -0.15424995117E+02 -0.26769835474E+02  0.39125717201E+02  0.49853548641E+02  0.00000000000E+00 0.  1.
         13    1    4    4    0    0  0.20240880819E+02  0.30787994958E+02 -0.20333874984E+02  0.42083967990E+02  0.00000000000E+00 0. -1.
        -13    1    3    3    0    0 -0.61287647751E+02 -0.47012033675E+01 -0.61464018114E+02  0.86925845424E+02  0.00000000000E+00 0. -1.
         13    1    3    3    0    0  0.35229597166E+02 -0.11026259553E+02 -0.12392194989E+02  0.38939304216E+02  0.00000000000E+00 0.  1.
          3    1    1    2  501    0  0.21242164883E+02  0.11709303436E+02  0.20069430506E+02  0.31482048801E+02  0.00000000000E+00 0. -1.
<scales pt_clust_5="13000.00000" pt_clust_6="13000.00000" pt_clust_7="13000.00000" pt_clust_8="13000.00000" pt_clust_9="24.25567"></scales>
<clustering>
<clus scale="   24.256">  1  9  2 -1</clus>
<clus scale="   89.778">  5  6 -1 -1</clus>
<clus scale="   92.601">  1  5  2 -1</clus>
<clus scale="   97.267">  7  8 -1 -1</clus>
<clus scale="   24.256">  1  5  2 -1</clus>
</clustering>
</event>
<event>
 9    1  0.1504846E-005  0.9537870E+02  0.7546771E-02  0.1292616E+00
         21   -1    0    0  501  502  0.00000000000E+00  0.00000000000E+00  0.52272826807E+02  0.52272826807E+02  0.00000000000E+00 0. -1.
          1   -1    0    0  502    0 -0.00000000000E+00 -0.00000000000E+00 -0.41335114871E+03  0.41335114871E+03  0.00000000000E+00 0. -1.
         23    2    1    2    0    0  0.78248105139E+01  0.23976577109E+02 -0.23918367634E+03  0.25687293310E+03  0.90215125231E+02 0.  0.
         23    2    1    2    0    0  0.22185130094E+02  0.29095307255E+01 -0.13519223747E+03  0.16632127362E+03  0.94261230735E+02 0.  0.
        -11    1    3    3    0    0  0.22877323881E+02  0.53778187149E+02 -0.12650741266E+03  0.13935419197E+03  0.00000000000E+00 0. -1.
         11    1    3    3    0    0 -0.15052513367E+02 -0.29801610040E+02 -0.11267626368E+03  0.11751874113E+03  0.00000000000E+00 0.  1.
        -13    1    4    4    0    0  0.29092182455E+01  0.47653636168E+02 -0.59195840397E+02  0.76049195335E+02  0.00000000000E+00 0. -1.
         13    1    4    4    0    0  0.19275911849E+02 -0.44744105443E+02 -0.75996397076E+02  0.90272078285E+02  0.00000000000E+00 0.  1.
          1    1    1    2  501    0 -0.30009940608E+02 -0.26886107834E+02  0.13297591910E+02  0.42429768800E+02  0.00000000000E+00 0. -1.
<scales pt_clust_5="13000.00000" pt_clust_6="13000.00000" pt_clust_7="13000.00000" pt_clust_8="13000.00000" pt_clust_9="40.29217"></scales>
<clustering>
<clus scale="   40.292">  1  9  2 -1</clus>
<clus scale="   90.215">  5  6 -1 -1</clus>
<clus scale="   91.382">  2  5  1 -1</clus>
<clus scale="   94.261">  7  8 -1 -1</clus>
<clus scale="   40.292">  1  5  2 -1</clus>
</clustering>
</event>
<event>
 9    1  0.1504846E-005  0.1018078E+03  0.7546771E-02  0.1282034E+00
          1   -1    0    0  502    0 -0.00000000000E+00  0.00000000000E+00  0.40663903261E+02  0.40663903261E+02  0.00000000000E+00 0. -1.
         21   -1    0    0  501  502  0.00000000000E+00 -0.00000000000E+00 -0.34244574180E+03  0.34244574180E+03  0.00000000000E+00 0.  1.
         23    2    1    2    0    0 -0.11400621094E+02 -0.63516385783E+01 -0.97033165581E+02  0.13315527761E+03  0.90247300559E+02 0.  0.
         23    2    1    2    0    0 -0.15593287760E+02  0.29140618779E+02 -0.13275584959E+03  0.16976100519E+03  0.10051048203E+03 0.  0.
        -13    1    4    4    0    0 -0.13489830585E+02  0.49507680529E+02 -0.13915075567E+03  0.14831021126E+03  0.00000000000E+00 0.  1.
         13    1    4    4    0    0 -0.21034571753E+01 -0.20367061750E+02  0.63949060846E+01  0.21450793930E+02  0.00000000000E+00 0. -1.
        -13    1    3    3    0    0 -0.11935062070E+02  0.40598438934E+02 -0.59661974054E+02  0.73145267095E+02  0.00000000000E+00 0.  1.
         13    1    3    3    0    0  0.53444097552E+00 -0.46950077512E+02 -0.37371191527E+02  0.60010010513E+02  0.00000000000E+00 0. -1.
          1    1    1    2  501    0  0.26993908855E+02 -0.22788980201E+02 -0.71992823374E+02  0.80193362264E+02  0.00000000000E+00 0. -1.
<scales pt_clust_5="13000.00000" pt_clust_6="13000.00000" pt_clust_7="13000.00000" pt_clust_8="13000.00000" pt_clust_9="35.32717"></scales>
<clustering>
<clus scale="   35.327">  2  9  1 -1</clus>
<clus scale="   90.247">  7  8 -1 -1</clus>
<clus scale="   91.690">  1  7  2 -1</clus>
<clus scale="  100.510">  5  6 -1 -1</clus>
<clus scale="   35.327">  2  5  1 -1</clus>
</clustering>
</event>
<event>
 9    1  0.1504846E-005  0.9456320E+02  0.7546771E-02  0.1293998E+00
         21   -1    0    0  501  502  0.00000000000E+00  0.00000000000E+00  0.54500969351E+03  0.54500969351E+03  0.00000000000E+00 0.  1.
          1   -1    0    0  502    0 -0.00000000000E+00 -0.00000000000E+00 -0.28736810836E+02  0.28736810836E+02  0.00000000000E+00 0. -1.
         23    2    1    2    0    0  0.54861596793E+01  0.19175146195E+02  0.87371311738E+02  0.12519338350E+03  0.87417692596E+02 0.  0.
         23    2    1    2    0    0 -0.19664591725E+02 -0.43941202989E+02  0.32995518975E+03  0.34557364786E+03  0.90736946002E+02 0.  0.
        -11    1    4    4    0    0 -0.11240837100E+02  0.24232793454E+02  0.16078325907E+03  0.16298724213E+03  0.00000000000E+00 0. -1.
         11    1    4    4    0    0 -0.84237546258E+01 -0.68173996443E+02  0.16917193067E+03  0.18258640574E+03  0.00000000000E+00 0.  1.
        -13    1    3    3    0    0 -0.16239184692E+02  0.28328775196E+02  0.94967851444E+02  0.10042471524E+03  0.00000000000E+00 0.  1.
         13    1    3    3    0    0  0.21725344372E+02 -0.91536290007E+01 -0.75965397063E+01  0.24768668262E+02  0.00000000000E+00 0. -1.
          1    1    1    2  501    0  0.14178432046E+02  0.24766056794E+02  0.98946381190E+02  0.10297947298E+03  0.00000000000E+00 0. -1.
<scales pt_clust_5="13000.00000" pt_clust_6="13000.00000" pt_clust_7="13000.00000" pt_clust_8="13000.00000" pt_clust_9="28.53744"></scales>
<clustering>
<clus scale="   28.537">  1  9  2 -1</clus>
<clus scale="   87.418">  7  8 -1 -1</clus>
<clus scale="   90.737">  5  6 -1 -1</clus>
<clus scale="   91.383">  2  7  1 -1</clus>
<clus scale="   28.537">  1  5  2 -1</clus>
</clustering>
</event>
<event>
 9    1  0.1504846E-005  0.1146434E+03  0.7546771E-02  0.1253944E+00
          2   -1    0    0  502    0 -0.00000000000E+00  0.00000000000E+00  0.29290814807E+03  0.29290814807E+03  0.00000000000E+00 0. -1.
         21   -1    0    0  501  502  0.00000000000E+00 -0.00000000000E+00 -0.11356986655E+03  0.11356986655E+03  0.00000000000E+00 0. -1.
         23    2    1    2    0    0  0.65811477727E+02 -0.64987033496E+02  0.10411522002E+03  0.16619723973E+03  0.90703243218E+02 0.  0.
         23    2    1    2    0    0  0.15265724762E+02  0.18426945367E+02 -0.26735702308E+02  0.10194443083E+03  0.95421562197E+02 0.  0.
        -13    1    4    4    0    0  0.48513583920E+02  0.10358832267E+02  0.11204220919E+02  0.50856737971E+02  0.00000000000E+00 0. -1.
         13    1    4    4    0    0 -0.33247859158E+02  0.80681131001E+01 -0.37939923227E+02  0.51087692863E+02  0.00000000000E+00 0.  1.
        -13    1    3    3    0    0 -0.22307311808E+02 -0.16232546561E+02  0.13458012160E+02  0.30695762236E+02  0.00000000000E+00 0.  1.
         13    1    3    3    0    0  0.88118789536E+02 -0.48754486935E+02  0.90657207864E+02  0.13550147749E+03  0.00000000000E+00 0. -1.
          2    1    1    2  501    0 -0.81077202489E+02  0.46560088129E+02  0.10195876380E+03  0.13833634405E+03  0.00000000000E+00 0. -1.
<scales pt_clust_5="13000.00000" pt_clust_6="13000.00000" pt_clust_7="13000.00000" pt_clust_8="13000.00000" pt_clust_9="93.49526"></scales>
<clustering>
<clus scale="   90.703">  7  8 -1 -1</clus>
<clus scale="   93.495">  2  9  1 -1</clus>
<clus scale="   95.422">  5  6 -1 -1</clus>
<clus scale="  110.747">  1  7  2 -1</clus>
<clus scale="   93.495">  2  5  1 -1</clus>
</clustering>
</event>
<event>
 9    1  0.1504846E-005  0.1339919E+03  0.7546771E-02  0.1223814E+00
         -4   -1    0    0    0  501 -0.00000000000E+00  0.00000000000E+00  0.17107565812E+03  0.17107565812E+03  0.00000000000E+00 0.  1.
         21   -1    0    0  501  502  0.00000000000E+00 -0.00000000000E+00 -0.15249422742E+03  0.15249422742E+03  0.00000000000E+00 0. -1.
         23    2    1    2    0    0  0.37903769844E+02  0.65933832728E+02  0.21160230262E+02  0.12102924433E+03  0.91740702918E+02 0.  0.
         23    2    1    2    0    0 -0.87642380345E+02 -0.69006646545E+02  0.13149216694E+02  0.15028413869E+03  0.99846463851E+02 0.  0.
        -13    1    3    3    0    0  0.28539911711E+02  0.27736999141E+02  0.55856199118E+02  0.68584128351E+02  0.00000000000E+00 0.  1.
         13    1    3    3    0    0  0.93638581332E+01  0.38196833587E+02 -0.34695968856E+02  0.52445115979E+02  0.00000000000E+00 0. -1.
        -13    1    4    4    0    0 -0.10709868737E+03 -0.39562430174E+02  0.63905196083E+01  0.11435100987E+03  0.00000000000E+00 0. -1.
         13    1    4    4    0    0  0.19456307025E+02 -0.29444216370E+02  0.67586970858E+01  0.35933128823E+02  0.00000000000E+00 0.  1.
         -4    1    1    2    0  502  0.49738610500E+02  0.30728138167E+01 -0.15728016253E+02  0.52256502509E+02  0.00000000000E+00 0.  1.
<scales pt_clust_5="13000.00000" pt_clust_6="13000.00000" pt_clust_7="13000.00000" pt_clust_8="13000.00000" pt_clust_9="49.83344"></scales>
<clustering>
<clus scale="   49.833">  2  9  1 -1</clus>
<clus scale="   91.741">  5  6 -1 -1</clus>
<clus scale="   99.846">  7  8 -1 -1</clus>
<clus scale="  128.066">  1  5  2 -1</clus>
<clus scale="   49.833">  2  5  1 -1</clus>
</clustering>
</event>
<event>
 9    1  0.1504846E-005  0.1270239E+03  0.7546771E-02  0.1232870E+00
          2   -1    0    0  502    0 -0.00000000000E+00  0.00000000000E+00  0.45991059000E+03  0.45991059000E+03  0.00000000000E+00 0. -1.
         21   -1    0    0  501  502  0.00000000000E+00 -0.00000000000E+00 -0.51715604319E+02  0.51715604319E+02  0.00000000000E+00 0. -1.
         23    2    1    2    0    0  0.36618510424E+02  0.72560116140E+02  0.22821116948E+03  0.25883512562E+03  0.91155902827E+02 0.  0.
         23    2    1    2    0    0 -0.72752020737E+02 -0.72389098228E+02  0.16612736789E+03  0.21409144371E+03  0.87771327007E+02 0.  0.
        -13    1    3    3    0    0  0.13350129956E+02 -0.21127573828E+02  0.37189584261E+02  0.44806980741E+02  0.00000000000E+00 0.  1.
         13    1    3    3    0    0  0.23268380468E+02  0.93687689968E+02  0.19102158522E+03  0.21402814488E+03  0.00000000000E+00 0. -1.
        -13    1    4    4    0    0 -0.55719001605E+02 -0.88535248015E+02  0.10327179970E+03  0.14699714927E+03  0.00000000000E+00 0. -1.
         13    1    4    4    0    0 -0.17033019132E+02  0.16146149787E+02  0.62855568189E+02  0.67094294438E+02  0.00000000000E+00 0.  1.
          2    1    1    2  501    0  0.36133510313E+02 -0.17101791226E+00  0.13856448319E+02  0.38699624994E+02  0.00000000000E+00 0. -1.
<scales pt_clust_5="13000.00000" pt_clust_6="13000.00000" pt_clust_7="13000.00000" pt_clust_8="13000.00000" pt_clust_9="36.13392"></scales>
<clustering>
<clus scale="   36.134">  2  9  1 -1</clus>
<clus scale="   87.771">  7  8 -1 -1</clus>
<clus scale="   91.156">  5  6 -1 -1</clus>
<clus scale="  124.617">  2  7  1 -1</clus>
<clus scale="   36.134">  2  5  1 -1</clus>
</clustering>
</event>
<event>
 9    1  0.1504846E-005  0.9783185E+02  0.7546771E-02  0.1285633E+00
          2   -1    0    0  502    0 -0.00000000000E+00  0.00000000000E+00  0.29859440360E+03  0.29859440360E+03  0.00000000000E+00 0. -1.
         21   -1    0    0  501  502  0.00000000000E+00 -0.00000000000E+00 -0.96196590934E+02  0.96196590934E+02  0.00000000000E+00 0.  1.
         23    2    1    2    0    0 -0.19932438949E+02 -0.17251058658E+02  0.19244570459E+03  0.21423841572E+03  0.90376149550E+02 0.  0.
         23    2    1    2    0    0  0.61906055093E+02  0.13648070131E+02  0.50180424356E+02  0.12230239933E+03  0.91766946222E+02 0.  0.
        -11    1    4    4    0    0  0.36859820509E+02  0.55693443384E+01 -0.23497266759E+02  0.44065695382E+02  0.00000000000E+00 0.  1.
         11    1    4    4    0    0  0.25046234584E+02  0.80787257927E+01  0.73677691116E+02  0.78236703953E+02  0.00000000000E+00 0. -1.
        -13    1    3    3    0    0  0.56080439491E+01  0.28531489487E+02  0.23624974525E+02  0.37465123389E+02  0.00000000000E+00 0.  1.
         13    1    3    3    0    0 -0.25540482898E+02 -0.45782548145E+02  0.16882073007E+03  0.17677329233E+03  0.00000000000E+00 0. -1.
          2    1    1    2  501    0 -0.41973616144E+02  0.36029885270E+01 -0.40228316281E+02  0.58250179479E+02  0.00000000000E+00 0. -1.
<scales pt_clust_5="13000.00000" pt_clust_6="13000.00000" pt_clust_7="13000.00000" pt_clust_8="13000.00000" pt_clust_9="42.12797"></scales>
<clustering>
<clus scale="   42.128">  2  9  1 -1</clus>
<clus scale="   90.376">  7  8 -1 -1</clus>
<clus scale="   91.767">  5  6 -1 -1</clus>
<clus scale="   96.528">  1  7  2 -1</clus>
<clus scale="   42.128">  2  5  1 -1</clus>
</clustering>
</event>
<event>
 9    1  0.1504846E-005  0.1859683E+03  0.7546771E-02  0.1162224E+00
         21   -1    0    0  501  502  0.00000000000E+00  0.00000000000E+00  0.51624205051E+02  0.51624205051E+02  0.00000000000E+00 0.  1.
          1   -1    0    0  502    0 -0.00000000000E+00 -0.00000000000E+00 -0.90918497816E+03  0.90918497816E+03  0.00000000000E+00 0. -1.
         23    2    1    2    0    0  0.15467915506E+03  0.44718533981E+02 -0.55194972453E+03  0.58198745944E+03  0.90197096660E+02 0.  0.
         23    2    1    2    0    0 -0.14889682050E+03 -0.75667988948E+02 -0.24121909059E+03  0.30714447209E+03  0.90857962567E+02 0.  0.
        -11    1    3    3    0    0  0.11378881297E+03  0.65460214200E+02 -0.47103028161E+03  0.48898104237E+03  0.00000000000E+00 0. -1.
         11    1    3    3    0    0  0.40890342087E+02 -0.20741680219E+02 -0.80919442921E+02  0.93006417074E+02  0.00000000000E+00 0.  1.
        -11    1    4    4    0    0 -0.10111196044E+03 -0.75055321310E+01 -0.95282858854E+02  0.13913584998E+03  0.00000000000E+00 0.  1.
         11    1    4    4    0    0 -0.47784860056E+02 -0.68162456817E+02 -0.14593623174E+03  0.16800862211E+03  0.00000000000E+00 0. -1.
          1    1    1    2  501    0 -0.57823345571E+01  0.30949454968E+02 -0.64391957983E+02  0.71677251682E+02  0.00000000000E+00 0. -1.
<scales pt_clust_5="13000.00000" pt_clust_6="13000.00000" pt_clust_7="13000.00000" pt_clust_8="13000.00000" pt_clust_9="31.48500"></scales>
<clustering>
<clus scale="   31.485">  1  9  2 -1</clus>
<clus scale="   90.197">  5  6 -1 -1</clus>
<clus scale="   90.858">  7  8 -1 -1</clus>
<clus scale="  185.646">  2  5  1 -1</clus>
<clus scale="   31.485">  1  5  2 -1</clus>
</clustering>
</event>
<event>
 9    1  0.1504846E-005  0.2431602E+03  0.7546771E-02  0.1158441E+00
         21   -1    0    0  501  502  0.00000000000E+00  0.00000000000E+00  0.62085927785E+03  0.62085927785E+03  0.00000000000E+00 0.  1.
         -1   -1    0    0    0  501 -0.00000000000E+00 -0.00000000000E+00 -0.22546298282E+03  0.22546298282E+03  0.00000000000E+00 0.  1.
         23    2    1    2    0    0  0.17616726056E+01  0.33710516765E+01  0.12990869258E+03  0.15843078677E+03  0.90606723309E+02 0.  0.
         23    2    1    2    0    0 -0.35318833360E+02  0.22031872453E+03 -0.97864316967E+02  0.25988701556E+03  0.90421656424E+02 0.  0.
        -11    1    4    4    0    0  0.29695051608E+02  0.93700386244E+02 -0.35797597679E+02  0.10460892157E+03  0.00000000000E+00 0. -1.
         11    1    4    4    0    0 -0.65013884968E+02  0.12661833829E+03 -0.62066719288E+02  0.15527809399E+03  0.00000000000E+00 0.  1.
        -13    1    3    3    0    0  0.39777575586E+02  0.14366507069E+02  0.10077373559E+03  0.10928859881E+03  0.00000000000E+00 0.  1.
         13    1    3    3    0    0 -0.38015902981E+02 -0.10995455392E+02  0.29134956991E+02  0.49142187961E+02  0.00000000000E+00 0. -1.
         -1    1    1    2    0  502  0.33557160755E+02 -0.22368977621E+03  0.36335191942E+03  0.42800445835E+03  0.00000000000E+00 0.  1.
<scales pt_clust_5="13000.00000" pt_clust_6="13000.00000" pt_clust_7="13000.00000" pt_clust_8="13000.00000" pt_clust_9="225.72284"></scales>
<clustering>
<clus scale="   90.422">  5  6 -1 -1</clus>
<clus scale="   90.607">  7  8 -1 -1</clus>
<clus scale="   90.687">  2  7  1 -1</clus>
<clus scale="  225.723">  1  9  2 -1</clus>
<clus scale="  225.723">  1  5  2 -1</clus>
</clustering>
</event>
<event>
 9    1  0.1504846E-005  0.3451500E+03  0.7546771E-02  0.1075693E+00
         21   -1    0    0  501  502  0.00000000000E+00  0.00000000000E+00  0.71949419961E+03  0.71949419961E+03  0.00000000000E+00 0. -1.
          1   -1    0    0  502    0 -0.00000000000E+00 -0.00000000000E+00 -0.34457379819E+03  0.34457379819E+03  0.00000000000E+00 0. -1.
         23    2    1    2    0    0  0.16798115265E+03 -0.16712662060E+03  0.20041415834E+02  0.25550601922E+03  0.93448876665E+02 0.  0.
         23    2    1    2    0    0  0.57574072995E+02  0.37740556960E+03  0.30203645704E+03  0.49569662570E+03  0.93484680533E+02 0.  0.
        -11    1    3    3    0    0  0.39995188452E+02  0.18008807760E+01 -0.10477044954E+02  0.41383894716E+02  0.00000000000E+00 0.  1.
         11    1    3    3    0    0  0.12798596420E+03 -0.16892750138E+03  0.30518460789E+02  0.21412212450E+03  0.00000000000E+00 0. -1.
        -13    1    4    4    0    0 -0.12017046432E+02  0.74012816492E+02  0.25125819833E+02  0.79079790290E+02  0.00000000000E+00 0.  1.
         13    1    4    4    0    0  0.69591119427E+02  0.30339275311E+03  0.27691063721E+03  0.41661683541E+03  0.00000000000E+00 0. -1.
          1    1    1    2  501    0 -0.22555522565E+03 -0.21027894900E+03  0.52842528545E+02  0.31286535288E+03  0.00000000000E+00 0. -1.
<scales pt_clust_5="13000.00000" pt_clust_6="13000.00000" pt_clust_7="13000.00000" pt_clust_8="13000.00000" pt_clust_9="332.24877"></scales>
<clustering>
<clus scale="   93.449">  5  6 -1 -1</clus>
<clus scale="   93.485">  7  8 -1 -1</clus>
<clus scale="  254.719">  2  5  1 -1</clus>
<clus scale="  332.249">  1  9  2 -1</clus>
<clus scale="  332.249">  1  5  2 -1</clus>
</clustering>
</event>
<event>
 9    1  0.1504846E-005  0.9747873E+02  0.7546771E-02  0.1285995E+00
         -3   -1    0    0    0  501 -0.00000000000E+00  0.00000000000E+00  0.89588106210E+02  0.89588106210E+02  0.00000000000E+00 0.  1.
         21   -1    0    0  501  502  0.00000000000E+00 -0.00000000000E+00 -0.37892039933E+03  0.37892039933E+03  0.00000000000E+00 0. -1.
         23    2    1    2    0    0  0.14136511082E+02 -0.24486635978E+02  0.43149629383E+02  0.10567894635E+03  0.92231843191E+02 0.  0.
         23    2    1    2    0    0 -0.25224916217E+02  0.56192903693E+02 -0.27361345965E+03  0.29505245348E+03  0.91638890084E+02 0.  0.
        -13    1    4    4    0    0  0.33691433727E+01  0.69215891481E+02 -0.23640528067E+03  0.24635268923E+03  0.00000000000E+00 0. -1.
         13    1    4    4    0    0 -0.28594059590E+02 -0.13022987788E+02 -0.37208178981E+02  0.48699764248E+02  0.00000000000E+00 0.  1.
        -13    1    3    3    0    0 -0.33591468034E+02  0.97355424733E+01  0.28588496001E+02  0.45171557595E+02  0.00000000000E+00 0. -1.
         13    1    3    3    0    0  0.47727979116E+02 -0.34222178451E+02  0.14561133382E+02  0.60507388754E+02  0.00000000000E+00 0.  1.
         -3    1    1    2    0  502  0.11088405135E+02 -0.31706267715E+02 -0.58868462851E+02  0.67777105717E+02  0.00000000000E+00 0.  1.
<scales pt_clust_5="13000.00000" pt_clust_6="13000.00000" pt_clust_7="13000.00000" pt_clust_8="13000.00000" pt_clust_9="33.58929"></scales>
<clustering>
<clus scale="   33.589">  2  9  1 -1</clus>
<clus scale="   91.639">  5  6 -1 -1</clus>
<clus scale="   92.232">  7  8 -1 -1</clus>
<clus scale="   96.918">  2  5  1 -1</clus>
<clus scale="   33.589">  2  5  1 -1</clus>
</clustering>
</event>
<event>
 9    1  0.1504846E-005  0.9425431E+02  0.7546771E-02  0.1295100E+00
         -1   -1    0    0    0  501 -0.00000000000E+00  0.00000000000E+00  0.40716615708E+03  0.40716615708E+03  0.00000000000E+00 0.  1.
         21   -1    0    0  501  502  0.00000000000E+00 -0.00000000000E+00 -0.48991978593E+02  0.48991978593E+02  0.00000000000E+00 0. -1.
         23    2    1    2    0    0 -0.50283706023E+00  0.10205064050E+02  0.16404321418E+03  0.18668885645E+03  0.88533365597E+02 0.  0.
         23    2    1    2    0    0 -0.32473782614E+02  0.50560637777E+02  0.15439386790E+03  0.18972616169E+03  0.92453368433E+02 0.  0.
        -11    1    3    3    0    0  0.43483481539E+02  0.68967918014E+01  0.95774309275E+02  0.10540918945E+03  0.00000000000E+00 0.  1.
         11    1    3    3    0    0 -0.43986318599E+02  0.33082722489E+01  0.68268904908E+02  0.81279666993E+02  0.00000000000E+00 0. -1.
        -13    1    4    4    0    0 -0.26517503349E+01 -0.25216003883E+02  0.59523968830E+02  0.64699161485E+02  0.00000000000E+00 0.  1.
         13    1    4    4    0    0 -0.29822032279E+02  0.75776641660E+02  0.94869899073E+02  0.12502700021E+03  0.00000000000E+00 0. -1.
         -1    1    1    2    0  502  0.32976619674E+02 -0.60765701827E+02  0.39737096399E+02  0.79743117533E+02  0.00000000000E+00 0.  1.
<scales pt_clust_5="13000.00000" pt_clust_6="13000.00000" pt_clust_7="13000.00000" pt_clust_8="13000.00000" pt_clust_9="69.13702"></scales>
<clustering>
<clus scale="   69.137">  2  9  1 -1</clus>
<clus scale="   88.533">  5  6 -1 -1</clus>
<clus scale="   90.412">  1  5  2 -1</clus>
<clus scale="   92.453">  7  8 -1 -1</clus>
<clus scale="   69.137">  2  5  1 -1</clus>
</clustering>
</event>
<event>
 9    1  0.1504846E-005  0.9174902E+02  0.7546771E-02  0.1299028E+00
         21   -1    0    0  501  502  0.00000000000E+00  0.00000000000E+00  0.12155239272E+03  0.12155239272E+03  0.00000000000E+00 0. -1.
          1   -1    0    0  502    0 -0.00000000000E+00 -0.00000000000E+00 -0.30797081477E+03  0.30797081477E+03  0.00000000000E+00 0. -1.
         23    2    1    2    0    0 -0.34797085423E-02 -0.62080829465E+01 -0.21186594266E+03  0.23064841850E+03  0.90955895864E+02 0.  0.
         23    2    1    2    0    0 -0.18386693732E+02 -0.50328478749E+01 -0.59757897663E+02  0.11098553875E+03  0.91560818119E+02 0.  0.
        -11    1    3    3    0    0  0.94996503665E+01  0.35002716565E+02 -0.41516730507E+02  0.55127782796E+02  0.00000000000E+00 0.  1.
         11    1    3    3    0    0 -0.95031300750E+01 -0.41210799511E+02 -0.17034921215E+03  0.17552063571E+03  0.00000000000E+00 0. -1.
        -13    1    4    4    0    0  0.22699396858E+02 -0.23234248922E+02  0.42703162185E+01  0.32761693199E+02  0.00000000000E+00 0.  1.
         13    1    4    4    0    0 -0.41086090590E+02  0.18201401047E+02 -0.64028213881E+02  0.78223845551E+02  0.00000000000E+00 0. -1.
          1    1    1    2  501    0  0.18390173440E+02  0.11240930821E+02  0.85205418268E+02  0.87889250236E+02  0.00000000000E+00 0. -1.
<scales pt_clust_5="13000.00000" pt_clust_6="13000.00000" pt_clust_7="13000.00000" pt_clust_8="13000.00000" pt_clust_9="21.55358"></scales>
<clustering>
<clus scale="   21.554">  1  9  2 -1</clus>
<clus scale="   90.956">  5  6 -1 -1</clus>
<clus scale="   91.145">  2  5  1 -1</clus>
<clus scale="   91.561">  7  8 -1 -1</clus>
<clus scale="   21.554">  1  5  2 -1</clus>
</clustering>
</event>
<event>
 9    1  0.1909326E-005  0.1044634E+03  0.7546771E-02  0.1273891E+00
         21   -1    0    0  501  502  0.00000000000E+00  0.00000000000E+00  0.46792911591E+03  0.46792911591E+03  0.00000000000E+00 0. -1.
          3   -1    0    0  502    0 -0.00000000000E+00 -0.00000000000E+00 -0.26500612964E+03  0.26500612964E+03  0.00000000000E+00 0. -1.
         23    2    1    2    0    0  0.32588222112E+02 -0.46631691091E+02 -0.12307521258E+03  0.16366231743E+03  0.91658820403E+02 0.  0.
         23    2    1    2    0    0 -0.39835263209E+02 -0.31192337841E+02 -0.92508296211E+02  0.14353029989E+03  0.97382503475E+02 0.  0.
        -11    1    3    3    0    0  0.44286329206E+02 -0.49786477327E+00 -0.17073337863E+02  0.47466047757E+02  0.00000000000E+00 0. -1.
         11    1    3    3    0    0 -0.11698107094E+02 -0.46133826318E+02 -0.10600187472E+03  0.11619626967E+03  0.00000000000E+00 0.  1.
        -13    1    4    4    0    0 -0.69871691309E+02 -0.64573632561E+01 -0.51807129182E+02  0.87222298873E+02  0.00000000000E+00 0.  1.
         13    1    4    4    0    0  0.30036428100E+02 -0.24734974585E+02 -0.40701167029E+02  0.56308001014E+02  0.00000000000E+00 0. -1.
          3    1    1    2  501    0  0.72470410965E+01  0.77824028932E+02  0.41850649507E+03  0.42574262824E+03  0.00000000000E+00 0. -1.
<scales pt_clust_5="13000.00000" pt_clust_6="13000.00000" pt_clust_7="13000.00000" pt_clust_8="13000.00000" pt_clust_9="78.16073"></scales>
<clustering>
<clus scale="   78.161">  1  9  2 -1</clus>
<clus scale="   91.659">  5  6 -1 -1</clus>
<clus scale="   97.383">  7  8 -1 -1</clus>
<clus scale="   99.149">  2  5  1 -1</clus>
<clus scale="   78.161">  1  5  2 -1</clus>
</clustering>
</event>
<event>
 9    1  0.1504846E-005  0.2220027E+03  0.7546771E-02  0.1132458E+00
         21   -1    0    0  501  502  0.00000000000E+00  0.00000000000E+00  0.48825996107E+03  0.48825996107E+03  0.00000000000E+00 0. -1.
          1   -1    0    0  502    0 -0.00000000000E+00 -0.00000000000E+00 -0.13236933389E+03  0.13236933389E+03  0.00000000000E+00 0. -1.
         23    2    1    2    0    0  0.84276255258E+02  0.17760509008E+03  0.78926534806E+02  0.23099312836E+03  0.92099794968E+02 0.  0.
         23    2    1    2    0    0 -0.60776721800E+02 -0.20552802112E+03  0.26085479883E+03  0.34974346691E+03  0.91321898764E+02 0.  0.
        -11    1    4    4    0    0 -0.74568232858E+01 -0.92926717399E+02  0.52530149454E+02  0.10700652140E+03  0.00000000000E+00 0.  1.
         11    1    4    4    0    0 -0.53319898514E+02 -0.11260130372E+03  0.20832464938E+03  0.24273694551E+03  0.00000000000E+00 0. -1.
        -13    1    3    3    0    0  0.15492630742E+02  0.38730151426E+02 -0.20892083429E+02  0.46653246263E+02  0.00000000000E+00 0.  1.
         13    1    3    3    0    0  0.68783624515E+02  0.13887493865E+03  0.99818618235E+02  0.18433988210E+03  0.00000000000E+00 0. -1.
          1    1    1    2  501    0 -0.23499533458E+02  0.27922931042E+02  0.16109293540E+02  0.39892699696E+02  0.00000000000E+00 0. -1.
<scales pt_clust_5="13000.00000" pt_clust_6="13000.00000" pt_clust_7="13000.00000" pt_clust_8="13000.00000" pt_clust_9="36.49547"></scales>
<clustering>
<clus scale="   36.495">  1  9  2 -1</clus>
<clus scale="   91.322">  5  6 -1 -1</clus>
<clus scale="   92.100">  7  8 -1 -1</clus>
<clus scale="  221.681">  1  5  2 -1</clus>
<clus scale="   36.495">  1  5  2 -1</clus>
</clustering>
</event>
<event>
 9    1  0.1504846E-005  0.1602589E+03  0.7546771E-02  0.1188503E+00
          2   -1    0    0  502    0 -0.00000000000E+00  0.00000000000E+00  0.30678944716E+03  0.30678944716E+03  0.00000000000E+00 0. -1.
         21   -1    0    0  501  502  0.00000000000E+00 -0.00000000000E+00 -0.33150752585E+03  0.33150752585E+03  0.00000000000E+00 0. -1.
         23    2    1    2    0    0  0.42853830293E+02 -0.11650472309E+03  0.18951209110E+03  0.24414580619E+03  0.91008465182E+02 0.  0.
         23    2    1    2    0    0 -0.48380628086E+02  0.14886547007E+03 -0.40430043985E+01  0.18141563162E+03  0.91616986188E+02 0.  0.
        -11    1    3    3    0    0  0.68645507119E+02 -0.80724060967E+02  0.15673015609E+03  0.18919017283E+03  0.00000000000E+00 0. -1.
         11    1    3    3    0    0 -0.25791676826E+02 -0.35780662123E+02  0.32781935014E+02  0.54955633366E+02  0.00000000000E+00 0.  1.
        -13    1    4    4    0    0 -0.10846605178E+02  0.12424286621E+03 -0.31711617490E+02  0.12868397465E+03  0.00000000000E+00 0.  1.
         13    1    4    4    0    0 -0.37534022908E+02  0.24622603864E+02  0.27668613091E+02  0.52731656973E+02  0.00000000000E+00 0. -1.
          2    1    1    2  501    0  0.55267977933E+01 -0.32360746981E+02 -0.21018716539E+03  0.21273553519E+03  0.00000000000E+00 0. -1.
<scales pt_clust_5="13000.00000" pt_clust_6="13000.00000" pt_clust_7="13000.00000" pt_clust_8="13000.00000" pt_clust_9="32.82931"></scales>
<clustering>
<clus scale="   32.829">  2  9  1 -1</clus>
<clus scale="   91.008">  5  6 -1 -1</clus>
<clus scale="   91.617">  7  8 -1 -1</clus>
<clus scale="  159.912">  1  5  2 -1</clus>
<clus scale="   32.829">  2  5  1 -1</clus>
</clustering>
</event>
<event>
 9    1  0.1504846E-005  0.9447559E+02  0.7546771E-02  0.1300765E+00
         21   -1    0    0  501  502  0.00000000000E+00  0.00000000000E+00  0.41702510988E+03  0.41702510988E+03  0.00000000000E+00 0. -1.
          2   -1    0    0  502    0 -0.00000000000E+00 -0.00000000000E+00 -0.13231058965E+03  0.13231058965E+03  0.00000000000E+00 0. -1.
         23    2    1    2    0    0 -0.41060120347E+00  0.86230598181E+01 -0.92523251323E+02  0.13168232570E+03  0.93301431456E+02 0.  0.
         23    2    1    2    0    0  0.55172540985E+01 -0.57017102901E+02  0.11559545146E+03  0.15152414775E+03  0.79472440740E+02 0.  0.
        -11    1    4    4    0    0  0.37545068306E+02 -0.46026095834E+02  0.49739592550E+02  0.77472967665E+02  0.00000000000E+00 0.  1.
         11    1    4    4    0    0 -0.32027814207E+02 -0.10991007068E+02  0.65855858912E+02  0.74051180087E+02  0.00000000000E+00 0. -1.
        -13    1    3    3    0    0  0.27066306468E+02 -0.82239906679E+01  0.52169006846E+01  0.28765170277E+02  0.00000000000E+00 0.  1.
         13    1    3    3    0    0 -0.27476907672E+02  0.16847050486E+02 -0.97740152008E+02  0.10291715542E+03  0.00000000000E+00 0. -1.
          2    1    1    2  501    0 -0.51066528950E+01  0.48394043083E+02  0.26164232009E+03  0.26612922608E+03  0.00000000000E+00 0. -1.
<scales pt_clust_5="13000.00000" pt_clust_6="13000.00000" pt_clust_7="13000.00000" pt_clust_8="13000.00000" pt_clust_9="48.66273"></scales>
<clustering>
<clus scale="   48.663">  1  9  2 -1</clus>
<clus scale="   79.472">  5  6 -1 -1</clus>
<clus scale="   80.848">  1  5  2 -1</clus>
<clus scale="   93.301">  7  8 -1 -1</clus>
<clus scale="   48.663">  1  5  2 -1</clus>
</clustering>
</event>
<event>
 9    1  0.1531280E-005  0.1647100E+03  0.7546771E-02  0.1202980E+00
         21   -1    0    0  501  502  0.00000000000E+00  0.00000000000E+00  0.37489555523E+03  0.37489555523E+03  0.00000000000E+00 0. -1.
          2   -1    0    0  502    0 -0.00000000000E+00 -0.00000000000E+00 -0.31205951809E+03  0.31205951809E+03  0.00000000000E+00 0. -1.
         23    2    1    2    0    0  0.50827256347E+02  0.39502441309E+01  0.13672902863E+03  0.17380898500E+03  0.94423098759E+02 0.  0.
         23    2    1    2    0    0  0.75574486584E+02 -0.67041766517E+02 -0.25177883061E+03  0.28598686537E+03  0.90497547700E+02 0.  0.
        -11    1    4    4    0    0  0.94847922442E+01  0.21180498787E+02 -0.26779825873E+02  0.35436335683E+02  0.00000000000E+00 0.  1.
         11    1    4    4    0    0  0.66089694340E+02 -0.88222265304E+02 -0.22499900474E+03  0.25055052969E+03  0.00000000000E+00 0. -1.
        -11    1    3    3    0    0  0.52835068474E+02 -0.37952103990E+02  0.76666214590E+02  0.10054658183E+03  0.00000000000E+00 0.  1.
         11    1    3    3    0    0 -0.20078121271E+01  0.41902348121E+02  0.60062814043E+02  0.73262403171E+02  0.00000000000E+00 0. -1.
          2    1    1    2  501    0 -0.12640174293E+03  0.63091522386E+02  0.17788583912E+03  0.22715922295E+03  0.00000000000E+00 0. -1.
<scales pt_clust_5="13000.00000" pt_clust_6="13000.00000" pt_clust_7="13000.00000" pt_clust_8="13000.00000" pt_clust_9="137.62114"></scales>
<clustering>
<clus scale="   90.498">  5  6 -1 -1</clus>
<clus scale="   94.423">  7  8 -1 -1</clus>
<clus scale="  107.307">  2  7  1 -1</clus>
<clus scale="  137.621">  1  9  2 -1</clus>
<clus scale="  137.621">  1  5  2 -1</clus>
</clustering>
</event>
<event>
 9    1  0.1504846E-005  0.1258787E+03  0.7546771E-02  0.1234964E+00
          1   -1    0    0  502    0 -0.00000000000E+00  0.00000000000E+00  0.60057300211E+03  0.60057300211E+03  0.00000000000E+00 0. -1.
         21   -1    0    0  501  502  0.00000000000E+00 -0.00000000000E+00 -0.50467447068E+02  0.50467447068E+02  0.00000000000E+00 0. -1.
         23    2    1    2    0    0 -0.30105722529E+02 -0.76730987150E+02  0.34514232212E+03  0.36606439751E+03  0.89921753124E+02 0.  0.
         23    2    1    2    0    0  0.22220608292E+02  0.95692949946E+02  0.22263437634E+03  0.25788361049E+03  0.85363897111E+02 0.  0.
        -13    1    3    3    0    0 -0.57292479340E+02 -0.55997816410E+02  0.17423578734E+03  0.19177146092E+03  0.00000000000E+00 0. -1.
         13    1    3    3    0    0  0.27186756811E+02 -0.20733170740E+02  0.17090653478E+03  0.17429293659E+03  0.00000000000E+00 0.  1.
        -13    1    4    4    0    0  0.53088066298E+02  0.70591646668E+02  0.13111756223E+03  0.15809281606E+03  0.00000000000E+00 0. -1.
         13    1    4    4    0    0 -0.30867458006E+02  0.25101303278E+02  0.91516814104E+02  0.99790794434E+02  0.00000000000E+00 0.  1.
          1    1    1    2  501    0  0.78851142368E+01 -0.18961962796E+02 -0.17671143415E+02  0.27092441182E+02  0.00000000000E+00 0. -1.
<scales pt_clust_5="13000.00000" pt_clust_6="13000.00000" pt_clust_7="13000.00000" pt_clust_8="13000.00000" pt_clust_9="20.53609"></scales>
<clustering>
<clus scale="   20.536">  2  9  1 -1</clus>
<clus scale="   85.364">  7  8 -1 -1</clus>
<clus scale="   89.922">  5  6 -1 -1</clus>
<clus scale="  122.664">  2  7  1 -1</clus>
<clus scale="   20.536">  2  5  1 -1</clus>
</clustering>
</event>
<event>
 9    1  0.1504846E-005  0.1332592E+03  0.7546771E-02  0.1223492E+00
         21   -1    0    0  501  502  0.00000000000E+00  0.00000000000E+00  0.88189992532E+02  0.88189992532E+02  0.00000000000E+00 0.  1.
          2   -1    0    0  502    0 -0.00000000000E+00 -0.00000000000E+00 -0.39997980109E+03  0.39997980109E+03  0.00000000000E+00 0. -1.
         23    2    1    2    0    0  0.68258639704E+02  0.30712645301E+02 -0.12111784179E+03  0.17109548062E+03  0.94876885558E+02 0.  0.
         23    2    1    2    0    0 -0.12119076398E+03  0.22688378697E+02 -0.18663222056E+03  0.24177624733E+03  0.91772567905E+02 0.  0.
        -13    1    4    4    0    0 -0.83497778986E+02 -0.22184936031E+02 -0.69792583760E+02  0.11106329380E+03  0.00000000000E+00 0.  1.
         13    1    4    4    0    0 -0.37692984992E+02  0.44873314728E+02 -0.11683963680E+03  0.13071295353E+03  0.00000000000E+00 0. -1.
        -13    1    3    3    0    0  0.39130267107E+02 -0.28700575743E+02 -0.25512094677E+02  0.54824883280E+02  0.00000000000E+00 0.  1.
         13    1    3    3    0    0  0.29128372597E+02  0.59413221044E+02 -0.95605747109E+02  0.11627059734E+03  0.00000000000E+00 0. -1.
          2    1    1    2  501    0  0.52932124274E+02 -0.53401023998E+02 -0.40397462064E+01  0.75298065670E+02  0.00000000000E+00 0. -1.
<scales pt_clust_5="13000.00000" pt_clust_6="13000.00000" pt_clust_7="13000.00000" pt_clust_8="13000.00000" pt_clust_9="75.18962"></scales>
<clustering>
<clus scale="   75.190">  1  9  2 -1</clus>
<clus scale="   91.773">  5  6 -1 -1</clus>
<clus scale="   94.877">  7  8 -1 -1</clus>
<clus scale="  131.067">  1  5  2 -1</clus>
<clus scale="   75.190">  1  5  2 -1</clus>
</clustering>
</event>
<event>
 9    1  0.1504846E-005  0.9311422E+02  0.7546771E-02  0.1295639E+00
          1   -1    0    0  502    0 -0.00000000000E+00  0.00000000000E+00  0.11092243828E+03  0.11092243828E+03  0.00000000000E+00 0. -1.
         21   -1    0    0  501  502  0.00000000000E+00 -0.00000000000E+00 -0.16101372121E+03  0.16101372121E+03  0.00000000000E+00 0.  1.
         23    2    1    2    0    0  0.78059087678E+01 -0.20266433510E+02  0.61484028153E+02  0.11193264514E+03  0.90977858799E+02 0.  0.
         23    2    1    2    0    0 -0.19914070352E+02  0.28335396489E+01 -0.96627339407E+02  0.13404286676E+03  0.90697564822E+02 0.  0.
        -11    1    3    3    0    0  0.41718148216E+02 -0.99960536386E+01  0.23101823464E+01  0.42961167598E+02  0.00000000000E+00 0. -1.
         11    1    3    3    0    0 -0.33912239448E+02 -0.10270379871E+02  0.59173845807E+02  0.68971477544E+02  0.00000000000E+00 0.  1.
        -11    1    4    4    0    0 -0.39806574220E+02  0.15704244674E+02 -0.96107725711E+01  0.43858335597E+02  0.00000000000E+00 0. -1.
         11    1    4    4    0    0  0.19892503868E+02 -0.12870705025E+02 -0.87016566836E+02  0.90184531168E+02  0.00000000000E+00 0.  1.
          1    1    1    2  501    0  0.12108161584E+02  0.17432893861E+02 -0.14947971681E+02  0.25960647579E+02  0.00000000000E+00 0. -1.
<scales pt_clust_5="13000.00000" pt_clust_6="13000.00000" pt_clust_7="13000.00000" pt_clust_8="13000.00000" pt_clust_9="21.22530"></scales>
<clustering>
<clus scale="   21.225">  2  9  1 -1</clus>
<clus scale="   90.698">  7  8 -1 -1</clus>
<clus scale="   90.978">  5  6 -1 -1</clus>
<clus scale="   92.840">  2  7  1 -1</clus>
<clus scale="   21.225">  2  5  1 -1</clus>
</clustering>
</event>
<event>
 9    1  0.1504846E-005  0.9422193E+02  0.7546771E-02  0.1294969E+00
         21   -1    0    0  501  502  0.00000000000E+00  0.00000000000E+00  0.70382633152E+02  0.70382633152E+02  0.00000000000E+00 0. -1.
          2   -1    0    0  502    0 -0.00000000000E+00 -0.00000000000E+00 -0.35083475286E+03  0.35083475286E+03  0.00000000000E+00 0. -1.
         23    2    1    2    0    0 -0.13379622115E+02 -0.14366736434E+02 -0.19750440871E+03  0.21959288103E+03  0.93955439107E+02 0.  0.
         23    2    1    2    0    0 -0.21371292229E+01 -0.21206673621E+02 -0.11740058587E+03  0.14972809218E+03  0.90450614701E+02 0.  0.
        -11    1    3    3    0    0  0.39395848308E+02 -0.17505137845E+02 -0.87491633977E+02  0.97535884324E+02  0.00000000000E+00 0.  1.
         11    1    3    3    0    0 -0.52775470423E+02  0.31384014115E+01 -0.11001277473E+03  0.12205699671E+03  0.00000000000E+00 0. -1.
        -13    1    4    4    0    0  0.23493746643E+02  0.27198155789E+02 -0.63002029836E+02  0.72532417394E+02  0.00000000000E+00 0.  1.
         13    1    4    4    0    0 -0.25630875866E+02 -0.48404829411E+02 -0.54398556031E+02  0.77195674789E+02  0.00000000000E+00 0. -1.
          2    1    1    2  501    0  0.15516751338E+02  0.35573410055E+02  0.34452874863E+02  0.51896412799E+02  0.00000000000E+00 0. -1.
<scales pt_clust_5="13000.00000" pt_clust_6="13000.00000" pt_clust_7="13000.00000" pt_clust_8="13000.00000" pt_clust_9="38.81027"></scales>
<clustering>
<clus scale="   38.810">  1  9  2 -1</clus>
<clus scale="   90.451">  7  8 -1 -1</clus>
<clus scale="   90.727">  1  7  2 -1</clus>
<clus scale="   93.955">  5  6 -1 -1</clus>
<clus scale="   38.810">  1  5  2 -1</clus>
</clustering>
</event>
<event>
 9    1  0.1504846E-005  0.2159896E+03  0.7546771E-02  0.1137385E+00
          1   -1    0    0  502    0 -0.00000000000E+00  0.00000000000E+00  0.47920138228E+03  0.47920138228E+03  0.00000000000E+00 0. -1.
         21   -1    0    0  501  502  0.00000000000E+00 -0.00000000000E+00 -0.55873958701E+03  0.55873958701E+03  0.00000000000E+00 0.  1.
         23    2    1    2    0    0  0.16300099133E+03 -0.10148852511E+03  0.42532972354E+03  0.47647843358E+03  0.96213720622E+02 0.  0.
         23    2    1    2    0    0 -0.15210378623E+03  0.78393039643E+02 -0.33474300985E+03  0.38943161292E+03  0.10160250021E+03 0.  0.
        -13    1    4    4    0    0 -0.15357689892E+03  0.51118156788E+02 -0.31947720303E+03  0.35814049351E+03  0.00000000000E+00 0.  1.
         13    1    4    4    0    0  0.14731126970E+01  0.27274882856E+02 -0.15265806815E+02  0.31291119404E+02  0.00000000000E+00 0. -1.
        -13    1    3    3    0    0  0.13909424252E+03 -0.11959309699E+03  0.34504641952E+03  0.39077710881E+03  0.00000000000E+00 0. -1.
         13    1    3    3    0    0  0.23906748802E+02  0.18104571884E+02  0.80283304026E+02  0.85701324766E+02  0.00000000000E+00 0.  1.
          1    1    1    2  501    0 -0.10897205100E+02  0.23095485465E+02 -0.17012491843E+03  0.17203092279E+03  0.00000000000E+00 0. -1.
<scales pt_clust_5="13000.00000" pt_clust_6="13000.00000" pt_clust_7="13000.00000" pt_clust_8="13000.00000" pt_clust_9="25.53724"></scales>
<clustering>
<clus scale="   25.537">  2  9  1 -1</clus>
<clus scale="   96.214">  7  8 -1 -1</clus>
<clus scale="  101.603">  5  6 -1 -1</clus>
<clus scale="  213.508">  1  7  2 -1</clus>
<clus scale="   25.537">  2  5  1 -1</clus>
</clustering>
</event>
<event>
 9    1  0.1504846E-005  0.9874888E+02  0.7546771E-02  0.1283372E+00
         21   -1    0    0  501  502  0.00000000000E+00  0.00000000000E+00  0.44404401416E+02  0.44404401416E+02  0.00000000000E+00 0. -1.
          1   -1    0    0  502    0 -0.00000000000E+00 -0.00000000000E+00 -0.79130732238E+03  0.79130732238E+03  0.00000000000E+00 0. -1.
         23    2    1    2    0    0  0.48405943781E+01 -0.26017914555E+02 -0.44351988677E+03  0.45364971405E+03  0.91584987152E+02 0.  0.
         23    2    1    2    0    0 -0.29046327003E+02  0.48026376404E+02 -0.32552150415E+03  0.34256008907E+03  0.90735566443E+02 0.  0.
        -11    1    4    4    0    0  0.18352114444E+02  0.29592492883E+02 -0.42205908619E+02  0.54716126160E+02  0.00000000000E+00 0.  1.
         11    1    4    4    0    0 -0.47398441448E+02  0.18433883521E+02 -0.28331559553E+03  0.28784396291E+03  0.00000000000E+00 0. -1.
        -11    1    3    3    0    0  0.11896645553E+01 -0.58651515331E+02 -0.34069867150E+03  0.34571230859E+03  0.00000000000E+00 0.  1.
         11    1    3    3    0    0  0.36509298227E+01  0.32633600776E+02 -0.10282121527E+03  0.10793740546E+03  0.00000000000E+00 0. -1.
          1    1    1    2  501    0  0.24205732625E+02 -0.22008461849E+02  0.22138469953E+02  0.39501920671E+02  0.00000000000E+00 0. -1.
<scales pt_clust_5="13000.00000" pt_clust_6="13000.00000" pt_clust_7="13000.00000" pt_clust_8="13000.00000" pt_clust_9="32.71529"></scales>
<clustering>
<clus scale="   32.715">  1  9  2 -1</clus>
<clus scale="   90.736">  5  6 -1 -1</clus>
<clus scale="   91.585">  7  8 -1 -1</clus>
<clus scale="   97.962">  1  5  2 -1</clus>
<clus scale="   32.715">  1  5  2 -1</clus>
</clustering>
</event>
<event>
 9    1  0.1504846E-005  0.1765086E+03  0.7546771E-02  0.1171817E+00
          2   -1    0    0  502    0 -0.00000000000E+00  0.00000000000E+00  0.12863517424E+04  0.12863517424E+04  0.00000000000E+00 0. -1.
         21   -1    0    0  501  502  0.00000000000E+00 -0.00000000000E+00 -0.86455251578E+02  0.86455251578E+02  0.00000000000E+00 0. -1.
         23    2    1    2    0    0 -0.11355726705E+03 -0.79552457440E+02  0.82527750756E+03  0.84176875529E+03  0.90927589466E+02 0.  0.
         23    2    1    2    0    0  0.18458666284E+03  0.44375664329E+02  0.39560338196E+03  0.44904478270E+03  0.95382101959E+02 0.  0.
        -13    1    4    4    0    0  0.12291650792E+03  0.71377619233E+02  0.30165742812E+03  0.33346729433E+03  0.00000000000E+00 0. -1.
         13    1    4    4    0    0  0.61670154921E+02 -0.27001954905E+02  0.93945953832E+02  0.11557748837E+03  0.00000000000E+00 0.  1.
        -13    1    3    3    0    0  0.17450172047E+01 -0.39667065406E+02  0.13217812069E+03  0.13801295864E+03  0.00000000000E+00 0.  1.
         13    1    3    3    0    0 -0.11530228426E+03 -0.39885392035E+02  0.69309938686E+03  0.70375579665E+03  0.00000000000E+00 0. -1.
          2    1    1    2  501    0 -0.71029395787E+02  0.35176793112E+02 -0.20984398670E+02  0.81993456001E+02  0.00000000000E+00 0. -1.
<scales pt_clust_5="13000.00000" pt_clust_6="13000.00000" pt_clust_7="13000.00000" pt_clust_8="13000.00000" pt_clust_9="79.26274"></scales>
<clustering>
<clus scale="   79.263">  2  9  1 -1</clus>
<clus scale="   90.928">  7  8 -1 -1</clus>
<clus scale="   95.382">  5  6 -1 -1</clus>
<clus scale="  174.142">  1  7  2 -1</clus>
<clus scale="   79.263">  2  5  1 -1</clus>
</clustering>
</event>
<event>
 9    1  0.1504846E-005  0.2258543E+03  0.7546771E-02  0.1168846E+00
         -1   -1    0    0    0  501 -0.00000000000E+00  0.00000000000E+00  0.34669299439E+03  0.34669299439E+03  0.00000000000E+00 0.  1.
         21   -1    0    0  501  502  0.00000000000E+00 -0.00000000000E+00 -0.35319691775E+03  0.35319691775E+03  0.00000000000E+00 0.  1.
         23    2    1    2    0    0  0.75199038023E+01 -0.12822284054E+02  0.19446308288E+03  0.21384690411E+03  0.87713441807E+02 0.  0.
         23    2    1    2    0    0 -0.49497214395E+02  0.21071607497E+03 -0.66799953098E+02  0.24329860493E+03  0.88773526133E+02 0.  0.
        -13    1    3    3    0    0  0.24908262610E+02 -0.33938925363E+02  0.17570673063E+03  0.18067962639E+03  0.00000000000E+00 0.  1.
         13    1    3    3    0    0 -0.17388358808E+02  0.21116641309E+02  0.18756352248E+02  0.33167277728E+02  0.00000000000E+00 0. -1.
        -13    1    4    4    0    0 -0.64776863578E+02  0.12860819500E+03 -0.69160920417E+02  0.15974774737E+03  0.00000000000E+00 0. -1.
         13    1    4    4    0    0  0.15279649183E+02  0.82107879968E+02  0.23609673186E+01  0.83550857558E+02  0.00000000000E+00 0.  1.
         -1    1    1    2    0  502  0.41977310592E+02 -0.19789379092E+03 -0.13416705315E+03  0.24274440310E+03  0.00000000000E+00 0.  1.
<scales pt_clust_5="13000.00000" pt_clust_6="13000.00000" pt_clust_7="13000.00000" pt_clust_8="13000.00000" pt_clust_9="207.67629"></scales>
<clustering>
<clus scale="   87.713">  5  6 -1 -1</clus>
<clus scale="   88.774">  7  8 -1 -1</clus>
<clus scale="   88.964">  1  5  2 -1</clus>
<clus scale="  207.676">  2  9  1 -1</clus>
<clus scale="  207.676">  2  5  1 -1</clus>
</clustering>
</event>
<event>
 9    1  0.1504846E-005  0.1248657E+03  0.7546771E-02  0.1236221E+00
          2   -1    0    0  502    0 -0.00000000000E+00  0.00000000000E+00  0.50537893716E+03  0.50537893716E+03  0.00000000000E+00 0. -1.
         21   -1    0    0  501  502  0.00000000000E+00 -0.00000000000E+00 -0.58119919061E+02  0.58119919061E+02  0.00000000000E+00 0. -1.
         23    2    1    2    0    0 -0.49796689274E+02 -0.65905702534E+02  0.23661466753E+03  0.26575609571E+03  0.88411139734E+02 0.  0.
         23    2    1    2    0    0  0.67901737197E+02  0.56536568582E+02  0.23420946977E+03  0.26658368039E+03  0.91682895995E+02 0.  0.
        -11    1    3    3    0    0 -0.10331923311E+02  0.17302219724E+02  0.13161119843E+02  0.24069285869E+02  0.00000000000E+00 0.  1.
         11    1    3    3    0    0 -0.39464765964E+02 -0.83207922258E+02  0.22345354768E+03  0.24168680984E+03  0.00000000000E+00 0. -1.
        -11    1    4    4    0    0  0.83814990577E+02  0.43825380341E+02  0.22531132433E+03  0.24435795359E+03  0.00000000000E+00 0. -1.
         11    1    4    4    0    0 -0.15913253380E+02  0.12711188241E+02  0.88981454335E+01  0.22225726800E+02  0.00000000000E+00 0.  1.
          2    1    1    2  501    0 -0.18105047922E+02  0.93691339523E+01 -0.23565119198E+02  0.31159080123E+02  0.00000000000E+00 0. -1.
<scales pt_clust_5="13000.00000" pt_clust_6="13000.00000" pt_clust_7="13000.00000" pt_clust_8="13000.00000" pt_clust_9="20.38562"></scales>
<clustering>
<clus scale="   20.386">  2  9  1 -1</clus>
<clus scale="   88.411">  5  6 -1 -1</clus>
<clus scale="   91.683">  7  8 -1 -1</clus>
<clus scale="  122.484">  1  5  2 -1</clus>
<clus scale="   20.386">  2  5  1 -1</clus>
</clustering>
</event>
<event>
 9    1  0.1504846E-005  0.9412321E+02  0.7546771E-02  0.1294667E+00
         21   -1    0    0  501  502  0.00000000000E+00  0.00000000000E+00  0.13121866416E+03  0.13121866416E+03  0.00000000000E+00 0.  1.
          1   -1    0    0  502    0 -0.00000000000E+00 -0.00000000000E+00 -0.28582567556E+03  0.28582567556E+03  0.00000000000E+00 0. -1.
         23    2    1    2    0    0  0.22809986325E+01  0.16825115978E+02 -0.23845209820E+03  0.25524589082E+03  0.89458225790E+02 0.  0.
         23    2    1    2    0    0  0.15906996972E+02 -0.43730360808E+02  0.49258796869E+02  0.11435472610E+03  0.92115130694E+02 0.  0.
        -11    1    4    4    0    0 -0.60683597779E+01 -0.67753536493E+02  0.20859497435E+02  0.71151144270E+02  0.00000000000E+00 0.  1.
         11    1    4    4    0    0  0.21975356750E+02  0.24023175686E+02  0.28399299434E+02  0.43203581827E+02  0.00000000000E+00 0. -1.
        -13    1    3    3    0    0  0.34299296165E+02  0.39111923571E+02 -0.13910008124E+03  0.14850931581E+03  0.00000000000E+00 0. -1.
         13    1    3    3    0    0 -0.32018297533E+02 -0.22286807593E+02 -0.99352016959E+02  0.10673657500E+03  0.00000000000E+00 0.  1.
          1    1    1    2  501    0 -0.18187995605E+02  0.26905244830E+02  0.34586289921E+02  0.47443722809E+02  0.00000000000E+00 0. -1.
<scales pt_clust_5="13000.00000" pt_clust_6="13000.00000" pt_clust_7="13000.00000" pt_clust_8="13000.00000" pt_clust_9="32.47607"></scales>
<clustering>
<clus scale="   32.476">  1  9  2 -1</clus>
<clus scale="   89.458">  7  8 -1 -1</clus>
<clus scale="   91.525">  2  7  1 -1</clus>
<clus scale="   92.115">  5  6 -1 -1</clus>
<clus scale="   32.476">  1  5  2 -1</clus>
</clustering>
</event>
<event>
 9    1  0.1504846E-005  0.1310238E+03  0.7546771E-02  0.1226894E+00
         21   -1    0    0  501  502  0.00000000000E+00  0.00000000000E+00  0.19398632170E+03  0.19398632170E+03  0.00000000000E+00 0.  1.
         -2   -1    0    0    0  501 -0.00000000000E+00 -0.00000000000E+00 -0.30946778979E+03  0.30946778979E+03  0.00000000000E+00 0.  1.
         23    2    1    2    0    0 -0.58330682880E+02 -0.78492445245E+02 -0.24561373747E+03  0.28026565758E+03  0.93054813206E+02 0.  0.
         23    2    1    2    0    0  0.37511414830E+02  0.58304293232E+02  0.27363036732E+02  0.11640587769E+03  0.89415299192E+02 0.  0.
        -11    1    4    4    0    0 -0.10895389869E+02  0.53257778222E+02  0.38331337357E+02  0.66516102449E+02  0.00000000000E+00 0.  1.
         11    1    4    4    0    0  0.48406804699E+02  0.50465150106E+01 -0.10968300625E+02  0.49889775240E+02  0.00000000000E+00 0. -1.
        -13    1    3    3    0    0 -0.66521801624E+02 -0.11532538926E+02 -0.12517530179E+03  0.14222167811E+03  0.00000000000E+00 0.  1.
         13    1    3    3    0    0  0.81911187443E+01 -0.66959906319E+02 -0.12043843567E+03  0.13804397947E+03  0.00000000000E+00 0. -1.
         -2    1    1    2    0  502  0.20819268050E+02  0.20188152012E+02  0.10276923265E+03  0.10678257622E+03  0.00000000000E+00 0.  1.
<scales pt_clust_5="13000.00000" pt_clust_6="13000.00000" pt_clust_7="13000.00000" pt_clust_8="13000.00000" pt_clust_9="29.00006"></scales>
<clustering>
<clus scale="   29.000">  1  9  2 -1</clus>
<clus scale="   89.415">  5  6 -1 -1</clus>
<clus scale="   93.055">  7  8 -1 -1</clus>
<clus scale="  128.465">  1  5  2 -1</clus>
<clus scale="   29.000">  1  5  2 -1</clus>
</clustering>
</event>
<event>
 9    1  0.1504846E-005  0.9611814E+02  0.7546771E-02  0.1290446E+00
         21   -1    0    0  501  502  0.00000000000E+00  0.00000000000E+00  0.28907202853E+03  0.28907202853E+03  0.00000000000E+00 0. -1.
          2   -1    0    0  502    0 -0.00000000000E+00 -0.00000000000E+00 -0.37849275291E+03  0.37849275291E+03  0.00000000000E+00 0. -1.
         23    2    1    2    0    0  0.15072978522E+02 -0.21859938080E+02 -0.35456894498E+03  0.36731264730E+03  0.92165028864E+02 0.  0.
         23    2    1    2    0    0 -0.47887146645E+02  0.24946569795E+02  0.16721731349E+03  0.19692372810E+03  0.88892151507E+02 0.  0.
        -11    1    4    4    0    0 -0.47325347267E+02 -0.12882358726E+02  0.37326608652E+02  0.61635374370E+02  0.00000000000E+00 0. -1.
         11    1    4    4    0    0 -0.56179937770E+00  0.37828928521E+02  0.12989070484E+03  0.13528835373E+03  0.00000000000E+00 0.  1.
        -13    1    3    3    0    0  0.51201736890E+02 -0.28895697681E+02 -0.20334448567E+03  0.21167323652E+03  0.00000000000E+00 0. -1.
         13    1    3    3    0    0 -0.36128758368E+02  0.70357596009E+01 -0.15122445931E+03  0.15563941078E+03  0.00000000000E+00 0.  1.
          2    1    1    2  501    0  0.32814168123E+02 -0.30866317156E+01  0.97930907115E+02  0.10332840603E+03  0.00000000000E+00 0. -1.
<scales pt_clust_5="13000.00000" pt_clust_6="13000.00000" pt_clust_7="13000.00000" pt_clust_8="13000.00000" pt_clust_9="32.95902"></scales>
<clustering>
<clus scale="   32.959">  1  9  2 -1</clus>
<clus scale="   88.892">  5  6 -1 -1</clus>
<clus scale="   92.165">  7  8 -1 -1</clus>
<clus scale="   92.985">  1  5  2 -1</clus>
<clus scale="   32.959">  1  5  2 -1</clus>
</clustering>
</event>
<event>
 9    1  0.1504846E-005  0.1013213E+03  0.7546771E-02  0.1277725E+00
          2   -1    0    0  502    0 -0.00000000000E+00  0.00000000000E+00  0.44252582157E+03  0.44252582157E+03  0.00000000000E+00 0. -1.
         21   -1    0    0  501  502  0.00000000000E+00 -0.00000000000E+00 -0.59413907042E+02  0.59413907042E+02  0.00000000000E+00 0.  1.
         23    2    1    2    0    0  0.19762677536E+01  0.37023977201E+02  0.30226810783E+03  0.31802500291E+03  0.91647220050E+02 0.  0.
         23    2    1    2    0    0 -0.11046352680E+02 -0.61356767143E+02  0.10201964434E+03  0.15040700709E+03  0.91255603484E+02 0.  0.
        -11    1    3    3    0    0  0.14201622725E+02 -0.24499273679E+02  0.16079742280E+03  0.16327189494E+03  0.00000000000E+00 0.  1.
         11    1    3    3    0    0 -0.12225354971E+02  0.61523250880E+02  0.14147068503E+03  0.15475310797E+03  0.00000000000E+00 0. -1.
        -11    1    4    4    0    0 -0.16285966784E+02 -0.84728470718E+02  0.84174108345E+02  0.12053807274E+03  0.00000000000E+00 0.  1.
         11    1    4    4    0    0  0.52396141044E+01  0.23371703575E+02  0.17845535998E+02  0.29868934346E+02  0.00000000000E+00 0. -1.
          2    1    1    2  501    0  0.90700849260E+01  0.24332789943E+02 -0.21175837643E+02  0.33507718616E+02  0.00000000000E+00 0. -1.
<scales pt_clust_5="13000.00000" pt_clust_6="13000.00000" pt_clust_7="13000.00000" pt_clust_8="13000.00000" pt_clust_9="25.96827"></scales>
<clustering>
<clus scale="   25.968">  2  9  1 -1</clus>
<clus scale="   91.256">  7  8 -1 -1</clus>
<clus scale="   91.647">  5  6 -1 -1</clus>
<clus scale="  100.967">  2  7  1 -1</clus>
<clus scale="   25.968">  2  5  1 -1</clus>
</clustering>
</event>
<event>
 9    1  0.1504846E-005  0.9667865E+02  0.7546771E-02  0.1287673E+00
         21   -1    0    0  501  502  0.00000000000E+00  0.00000000000E+00  0.19601358026E+03  0.19601358026E+03  0.00000000000E+00 0. -1.
          1   -1    0    0  502    0 -0.00000000000E+00 -0.00000000000E+00 -0.27718081964E+03  0.27718081964E+03  0.00000000000E+00 0. -1.
         23    2    1    2    0    0 -0.35813715800E+02 -0.66884687815E+00 -0.23773630048E+03  0.25650767737E+03  0.89412361516E+02 0.  0.
         23    2    1    2    0    0  0.33554478427E+02 -0.25814267817E+02  0.58951028172E+02  0.11551488914E+03  0.89867605097E+02 0.  0.
        -11    1    4    4    0    0  0.61169107533E+01 -0.51945827843E+02  0.57308464828E+02  0.77588953907E+02  0.00000000000E+00 0. -1.
         11    1    4    4    0    0  0.27437567673E+02  0.26131560026E+02  0.16425633440E+01  0.37925935236E+02  0.00000000000E+00 0.  1.
        -13    1    3    3    0    0  0.40294055255E+00  0.32428046789E+02 -0.16884854486E+03  0.17193478904E+03  0.00000000000E+00 0. -1.
         13    1    3    3    0    0 -0.36216656352E+02 -0.33096893667E+02 -0.68887755615E+02  0.84572888335E+02  0.00000000000E+00 0.  1.
          1    1    1    2  501    0  0.22592373731E+01  0.26483114695E+02  0.97618032931E+02  0.10117183339E+03  0.00000000000E+00 0. -1.
<scales pt_clust_5="13000.00000" pt_clust_6="13000.00000" pt_clust_7="13000.00000" pt_clust_8="13000.00000" pt_clust_9="26.57931"></scales>
<clustering>
<clus scale="   26.579">  1  9  2 -1</clus>
<clus scale="   89.412">  7  8 -1 -1</clus>
<clus scale="   89.868">  5  6 -1 -1</clus>
<clus scale="   96.256">  2  7  1 -1</clus>
<clus scale="   26.579">  1  5  2 -1</clus>
</clustering>
</event>
<event>
 9    1  0.1504846E-005  0.9391940E+02  0.7546771E-02  0.1294683E+00
          3   -1    0    0  502    0 -0.00000000000E+00  0.00000000000E+00  0.25286026669E+03  0.25286026669E+03  0.00000000000E+00 0. -1.
         21   -1    0    0  501  502  0.00000000000E+00 -0.00000000000E+00 -0.81987739118E+02  0.81987739118E+02  0.00000000000E+00 0.  1.
         23    2    1    2    0    0  0.18203408589E+02 -0.24597246969E+02  0.97311490153E+02  0.13753942370E+03  0.92256047565E+02 0.  0.
         23    2    1    2    0    0 -0.94755686031E+01 -0.35220116818E+02 -0.56781708021E+01  0.97643421094E+02  0.90397749033E+02 0.  0.
        -11    1    4    4    0    0 -0.37390582218E+02 -0.35709160687E+02 -0.30718469950E+02  0.60140038174E+02  0.00000000000E+00 0.  1.
         11    1    4    4    0    0  0.27915013615E+02  0.48904386891E+00  0.25040299148E+02  0.37503382920E+02  0.00000000000E+00 0. -1.
        -13    1    3    3    0    0  0.50113893976E+02 -0.33838056880E+02  0.44226144286E+02  0.74915741345E+02  0.00000000000E+00 0.  1.
         13    1    3    3    0    0 -0.31910485387E+02  0.92408099112E+01  0.53085345868E+02  0.62623682352E+02  0.00000000000E+00 0. -1.
          3    1    1    2  501    0 -0.87278399860E+01  0.59817363787E+02  0.79239208225E+02  0.99665161021E+02  0.00000000000E+00 0. -1.
<scales pt_clust_5="13000.00000" pt_clust_6="13000.00000" pt_clust_7="13000.00000" pt_clust_8="13000.00000" pt_clust_9="60.45077"></scales>
<clustering>
<clus scale="   60.451">  2  9  1 -1</clus>
<clus scale="   90.398">  5  6 -1 -1</clus>
<clus scale="   92.095">  2  5  1 -1</clus>
<clus scale="   92.256">  7  8 -1 -1</clus>
<clus scale="   60.451">  2  5  1 -1</clus>
</clustering>
</event>
<event>
 9    1  0.1504846E-005  0.1414288E+03  0.7546771E-02  0.1218536E+00
         21   -1    0    0  501  502  0.00000000000E+00  0.00000000000E+00  0.96484341939E+02  0.96484341939E+02  0.00000000000E+00 0.  1.
         -2   -1    0    0    0  501 -0.00000000000E+00 -0.00000000000E+00 -0.54250751678E+03  0.54250751678E+03  0.00000000000E+00 0.  1.
         23    2    1    2    0    0 -0.10219951993E+03 -0.14071921908E+02 -0.30386721625E+03  0.32815593431E+03  0.68616843793E+02 0.  0.
         23    2    1    2    0    0  0.78762214071E+02  0.74696300346E+02 -0.18235452398E+03  0.23441245141E+03  0.99564056322E+02 0.  0.
        -11    1    4    4    0    0  0.28135586288E+02  0.89870189361E+02 -0.12354785787E+03  0.15534585716E+03  0.00000000000E+00 0.  1.
         11    1    4    4    0    0  0.50626627783E+02 -0.15173889014E+02 -0.58806666104E+02  0.79066594253E+02  0.00000000000E+00 0. -1.
        -11    1    3    3    0    0 -0.23261875404E+02  0.19491779530E+02 -0.37068321202E+02  0.47907251574E+02  0.00000000000E+00 0. -1.
         11    1    3    3    0    0 -0.78937644524E+02 -0.33563701439E+02 -0.26679889505E+03  0.28024868273E+03  0.00000000000E+00 0.  1.
         -2    1    1    2    0  502  0.23437305857E+02 -0.60624378438E+02  0.40198565381E+02  0.76423473001E+02  0.00000000000E+00 0.  1.
<scales pt_clust_5="13000.00000" pt_clust_6="13000.00000" pt_clust_7="13000.00000" pt_clust_8="13000.00000" pt_clust_9="64.99710"></scales>
<clustering>
<clus scale="   64.997">  1  9  2 -1</clus>
<clus scale="   68.617">  7  8 -1 -1</clus>
<clus scale="   99.564">  5  6 -1 -1</clus>
<clus scale="  121.644">  2  7  1 -1</clus>
<clus scale="   64.997">  1  5  2 -1</clus>
</clustering>
</event>
<event>
 9    1  0.1504846E-005  0.1042799E+03  0.7546771E-02  0.1271758E+00
         -2   -1    0    0    0  501 -0.00000000000E+00  0.00000000000E+00  0.33638931724E+03  0.33638931724E+03  0.00000000000E+00 0.  1.
         21   -1    0    0  501  502  0.00000000000E+00 -0.00000000000E+00 -0.90812080144E+02  0.90812080144E+02  0.00000000000E+00 0.  1.
         23    2    1    2    0    0 -0.43615417590E+02 -0.19452619092E+02  0.23142062872E+03  0.25329885359E+03  0.91236466362E+02 0.  0.
         23    2    1    2    0    0  0.76367048606E+02 -0.21447046597E+02  0.44181570475E+01  0.12060817802E+03  0.90746408050E+02 0.  0.
        -11    1    3    3    0    0 -0.18536058164E+02  0.36226702602E+02  0.74041990190E+02  0.84487725410E+02  0.00000000000E+00 0. -1.
         11    1    3    3    0    0 -0.25079359426E+02 -0.55679321694E+02  0.15737863853E+03  0.16881112818E+03  0.00000000000E+00 0.  1.
        -13    1    4    4    0    0  0.40460598746E+02  0.79915957438E+01 -0.39201892189E+02  0.56900913918E+02  0.00000000000E+00 0. -1.
         13    1    4    4    0    0  0.35906449860E+02 -0.29438642341E+02  0.43620049237E+02  0.63707264106E+02  0.00000000000E+00 0.  1.
         -2    1    1    2    0  502 -0.32751631017E+02  0.40899665689E+02  0.97384513250E+01  0.53294365762E+02  0.00000000000E+00 0.  1.
<scales pt_clust_5="13000.00000" pt_clust_6="13000.00000" pt_clust_7="13000.00000" pt_clust_8="13000.00000" pt_clust_9="52.39706"></scales>
<clustering>
<clus scale="   52.397">  2  9  1 -1</clus>
<clus scale="   90.746">  7  8 -1 -1</clus>
<clus scale="   91.236">  5  6 -1 -1</clus>
<clus scale="  103.851">  2  7  1 -1</clus>
<clus scale="   52.397">  2  5  1 -1</clus>
</clustering>
</event>
<event>
 9    1  0.1504846E-005  0.1068883E+03  0.7546771E-02  0.1266646E+00
         -1   -1    0    0    0  501 -0.00000000000E+00  0.00000000000E+00  0.39632628564E+03  0.39632628564E+03  0.00000000000E+00 0.  1.
         21   -1    0    0  501  502  0.00000000000E+00 -0.00000000000E+00 -0.16221504931E+03  0.16221504931E+03  0.00000000000E+00 0.  1.
         23    2    1    2    0    0  0.21023630182E+02  0.50376852660E+02  0.29750902223E+03  0.31598011208E+03  0.91389236846E+02 0.  0.
         23    2    1    2    0    0  0.83676347471E+01 -0.60783071576E+02  0.52657996431E+02  0.12239017620E+03  0.91879766763E+02 0.  0.
        -11    1    4    4    0    0  0.56557033955E+01  0.23158209555E+02  0.11463842803E+01  0.23866374831E+02  0.00000000000E+00 0. -1.
         11    1    4    4    0    0  0.27119313516E+01 -0.83941281131E+02  0.51511612151E+02  0.98523801368E+02  0.00000000000E+00 0.  1.
        -13    1    3    3    0    0  0.43624679600E+02  0.65831003908E+02  0.22670936860E+03  0.24007076364E+03  0.00000000000E+00 0. -1.
         13    1    3    3    0    0 -0.22601049418E+02 -0.15454151249E+02  0.70799653630E+02  0.75909348434E+02  0.00000000000E+00 0.  1.
         -1    1    1    2    0  502 -0.29391264929E+02  0.10406218917E+02 -0.11605578233E+03  0.12017104667E+03  0.00000000000E+00 0.  1.
<scales pt_clust_5="13000.00000" pt_clust_6="13000.00000" pt_clust_7="13000.00000" pt_clust_8="13000.00000" pt_clust_9="31.17909"></scales>
<clustering>
<clus scale="   31.179">  2  9  1 -1</clus>
<clus scale="   91.389">  7  8 -1 -1</clus>
<clus scale="   91.880">  5  6 -1 -1</clus>
<clus scale="  106.467">  1  7  2 -1</clus>
<clus scale="   31.179">  2  5  1 -1</clus>
</clustering>
</event>
<event>
 9    1  0.1504846E-005  0.1382635E+03  0.7546771E-02  0.1216326E+00
          2   -1    0    0  502    0 -0.00000000000E+00  0.00000000000E+00  0.56064455294E+03  0.56064455294E+03  0.00000000000E+00 0. -1.
         21   -1    0    0  501  502  0.00000000000E+00 -0.00000000000E+00 -0.52935671821E+02  0.52935671821E+02  0.00000000000E+00 0. -1.
         23    2    1    2    0    0  0.44382292965E+02 -0.88857687060E+02  0.27038286686E+03  0.30256761936E+03  0.92600178803E+02 0.  0.
         23    2    1    2    0    0 -0.24394515930E+02  0.10530821836E+03  0.24633730788E+03  0.28360212158E+03  0.89795216179E+02 0.  0.
        -11    1    4    4    0    0  0.76853737205E+01  0.84092146836E+02  0.93445075461E+02  0.12594656111E+03  0.00000000000E+00 0.  1.
         11    1    4    4    0    0 -0.32079889651E+02  0.21216071521E+02  0.15289223242E+03  0.15765556046E+03  0.00000000000E+00 0. -1.
        -13    1    3    3    0    0 -0.27827262193E+02 -0.15366293592E+02  0.80196143869E+02  0.86266453453E+02  0.00000000000E+00 0. -1.
         13    1    3    3    0    0  0.72209555158E+02 -0.73491393468E+02  0.19018672299E+03  0.21630116591E+03  0.00000000000E+00 0.  1.
          2    1    1    2  501    0 -0.19987777035E+02 -0.16450531297E+02 -0.90112936224E+01  0.27410483825E+02  0.00000000000E+00 0. -1.
<scales pt_clust_5="13000.00000" pt_clust_6="13000.00000" pt_clust_7="13000.00000" pt_clust_8="13000.00000" pt_clust_9="25.88689"></scales>
<clustering>
<clus scale="   25.887">  2  9  1 -1</clus>
<clus scale="   89.795">  5  6 -1 -1</clus>
<clus scale="   92.600">  7  8 -1 -1</clus>
<clus scale="  136.401">  2  5  1 -1</clus>
<clus scale="   25.887">  2  5  1 -1</clus>
</clustering>
</event>
<event>
 9    1  0.1504846E-005  0.1473821E+03  0.7546771E-02  0.1203785E+00
         21   -1    0    0  501  502  0.00000000000E+00  0.00000000000E+00  0.90916693096E+02  0.90916693096E+02  0.00000000000E+00 0.  1.
          2   -1    0    0  502    0 -0.00000000000E+00 -0.00000000000E+00 -0.44112751925E+03  0.44112751925E+03  0.00000000000E+00 0. -1.
         23    2    1    2    0    0 -0.86413398672E+02  0.43431573833E+02 -0.18982594167E+03  0.23161681170E+03  0.90878392683E+02 0.  0.
         23    2    1    2    0    0  0.15149719584E+03 -0.43367303038E+02 -0.14750317974E+03  0.23408101339E+03  0.90579299369E+02 0.  0.
        -13    1    4    4    0    0  0.97543667258E+02 -0.51280868511E+02 -0.47141607450E+02  0.11986169384E+03  0.00000000000E+00 0.  1.
         13    1    4    4    0    0  0.53953528584E+02  0.79135654724E+01 -0.10036157229E+03  0.11421931955E+03  0.00000000000E+00 0. -1.
        -13    1    3    3    0    0 -0.77004374000E+02  0.14594887158E+01 -0.16465979070E+03  0.18178187588E+03  0.00000000000E+00 0. -1.
         13    1    3    3    0    0 -0.94090246729E+01  0.41972085117E+02 -0.25166150965E+02  0.49834935826E+02  0.00000000000E+00 0.  1.
          2    1    1    2  501    0 -0.65083797170E+02 -0.64270794335E-01 -0.12881704745E+02  0.66346387256E+02  0.00000000000E+00 0. -1.
<scales pt_clust_5="13000.00000" pt_clust_6="13000.00000" pt_clust_7="13000.00000" pt_clust_8="13000.00000" pt_clust_9="65.08383"></scales>
<clustering>
<clus scale="   65.084">  1  9  2 -1</clus>
<clus scale="   90.579">  5  6 -1 -1</clus>
<clus scale="   90.878">  7  8 -1 -1</clus>
<clus scale="  147.198">  1  5  2 -1</clus>
<clus scale="   65.084">  1  5  2 -1</clus>
</clustering>
</event>
<event>
 9    1  0.1504846E-005  0.1087953E+03  0.7546771E-02  0.1265490E+00
         -1   -1    0    0    0  501 -0.00000000000E+00  0.00000000000E+00  0.12140838564E+03  0.12140838564E+03  0.00000000000E+00 0.  1.
         21   -1    0    0  501  502  0.00000000000E+00 -0.00000000000E+00 -0.13395219779E+03  0.13395219779E+03  0.00000000000E+00 0. -1.
         23    2    1    2    0    0 -0.89507083470E+01 -0.37803174099E+02  0.31893723832E+02  0.10537131123E+03  0.92610520236E+02 0.  0.
         23    2    1    2    0    0  0.13831134904E+02  0.60426911003E+02 -0.48888297355E+02  0.12642104546E+03  0.98739572876E+02 0.  0.
        -11    1    4    4    0    0  0.28577565326E+02  0.82078260878E+02 -0.23710892736E+02  0.90087316438E+02  0.00000000000E+00 0. -1.
         11    1    4    4    0    0 -0.14746430422E+02 -0.21651349874E+02 -0.25177404619E+02  0.36333729026E+02  0.00000000000E+00 0.  1.
        -13    1    3    3    0    0 -0.40331856726E+02 -0.50114729552E+02  0.31575490210E+02  0.71660005352E+02  0.00000000000E+00 0.  1.
         13    1    3    3    0    0  0.31381148379E+02  0.12311555453E+02  0.31823362277E+00  0.33711305877E+02  0.00000000000E+00 0. -1.
         -1    1    1    2    0  502 -0.48804265566E+01 -0.22623736905E+02  0.44507613733E+01  0.23568226741E+02  0.00000000000E+00 0.  1.
<scales pt_clust_5="13000.00000" pt_clust_6="13000.00000" pt_clust_7="13000.00000" pt_clust_8="13000.00000" pt_clust_9="23.14417"></scales>
<clustering>
<clus scale="   23.144">  2  9  1 -1</clus>
<clus scale="   92.611">  7  8 -1 -1</clus>
<clus scale="   98.740">  5  6 -1 -1</clus>
<clus scale="  103.265">  1  7  2 -1</clus>
<clus scale="   23.144">  2  5  1 -1</clus>
</clustering>
</event>
<event>
 9    1  0.1504846E-005  0.9497786E+02  0.7546771E-02  0.1291594E+00
         21   -1    0    0  501  502  0.00000000000E+00  0.00000000000E+00  0.49503433811E+02  0.49503433811E+02  0.00000000000E+00 0.  1.
         -1   -1    0    0    0  501 -0.00000000000E+00 -0.00000000000E+00 -0.96212978903E+03  0.96212978903E+03  0.00000000000E+00 0.  1.
         23    2    1    2    0    0 -0.26076447381E+02 -0.12609482206E+02 -0.25691438736E+03  0.27396016463E+03  0.90610094493E+02 0.  0.
         23    2    1    2    0    0 -0.48387906869E+02  0.69494630330E+02 -0.66704222892E+02  0.14125794793E+03  0.91287793965E+02 0.  0.
        -11    1    4    4    0    0  0.85424147354E+00  0.35057758858E+02  0.16393526407E+02  0.38710772308E+02  0.00000000000E+00 0.  1.
         11    1    4    4    0    0 -0.49242148343E+02  0.34436871472E+02 -0.83097749299E+02  0.10254717563E+03  0.00000000000E+00 0. -1.
        -13    1    3    3    0    0  0.25839420567E+02  0.19401148910E+02 -0.11592294126E+03  0.12034204811E+03  0.00000000000E+00 0. -1.
         13    1    3    3    0    0 -0.51915867947E+02 -0.32010631117E+02 -0.14099144610E+03  0.15361811652E+03  0.00000000000E+00 0.  1.
         -1    1    1    2    0  502  0.74464354250E+02 -0.56885148124E+02 -0.58900774497E+03  0.59641511028E+03  0.00000000000E+00 0.  1.
<scales pt_clust_5="13000.00000" pt_clust_6="13000.00000" pt_clust_7="13000.00000" pt_clust_8="13000.00000" pt_clust_9="93.70629"></scales>
<clustering>
<clus scale="   90.610">  7  8 -1 -1</clus>
<clus scale="   91.288">  5  6 -1 -1</clus>
<clus scale="   93.706">  1  9  2 -1</clus>
<clus scale="   94.327">  2  7  1 -1</clus>
<clus scale="   93.706">  1  5  2 -1</clus>
</clustering>
</event>
<event>
 9    1  0.1504846E-005  0.9717523E+02  0.7546771E-02  0.1287221E+00
         21   -1    0    0  501  502  0.00000000000E+00  0.00000000000E+00  0.22410145926E+03  0.22410145926E+03  0.00000000000E+00 0. -1.
         -1   -1    0    0    0  501 -0.00000000000E+00 -0.00000000000E+00 -0.55845119610E+02  0.55845119610E+02  0.00000000000E+00 0.  1.
         23    2    1    2    0    0 -0.32434061125E+02 -0.11712276497E+02  0.66665699037E+02  0.11880317627E+03  0.92090898151E+02 0.  0.
         23    2    1    2    0    0  0.12173563462E+02  0.31265262554E+02  0.84344428600E+02  0.12812463736E+03  0.90422495942E+02 0.  0.
        -13    1    4    4    0    0 -0.16998949517E+01  0.61363931103E+02  0.42125562908E+02  0.74451223855E+02  0.00000000000E+00 0.  1.
         13    1    4    4    0    0  0.13873458413E+02 -0.30098668548E+02  0.42218865692E+02  0.53673413503E+02  0.00000000000E+00 0. -1.
        -13    1    3    3    0    0 -0.15569399432E+02 -0.40712007522E+02  0.72654000872E+02  0.84725896855E+02  0.00000000000E+00 0. -1.
         13    1    3    3    0    0 -0.16864661693E+02  0.28999731025E+02 -0.59883018353E+01  0.34077279416E+02  0.00000000000E+00 0.  1.
         -1    1    1    2    0  502  0.20260497663E+02 -0.19552986058E+02  0.17246212014E+02  0.33018765243E+02  0.00000000000E+00 0.  1.
<scales pt_clust_5="13000.00000" pt_clust_6="13000.00000" pt_clust_7="13000.00000" pt_clust_8="13000.00000" pt_clust_9="28.15684"></scales>
<clustering>
<clus scale="   28.157">  1  9  2 -1</clus>
<clus scale="   90.422">  5  6 -1 -1</clus>
<clus scale="   92.091">  7  8 -1 -1</clus>
<clus scale="   95.596">  1  5  2 -1</clus>
<clus scale="   28.157">  1  5  2 -1</clus>
</clustering>
</event>
<event>
 9    1  0.1504846E-005  0.9852768E+02  0.7546771E-02  0.1283993E+00
         21   -1    0    0  501  502  0.00000000000E+00  0.00000000000E+00  0.58408353581E+02  0.58408353581E+02  0.00000000000E+00 0.  1.
          2   -1    0    0  502    0 -0.00000000000E+00 -0.00000000000E+00 -0.23283914071E+03  0.23283914071E+03  0.00000000000E+00 0. -1.
         23    2    1    2    0    0  0.21635661061E+02  0.81587506326E+01 -0.69728361064E+02  0.11802551609E+03  0.92375922564E+02 0.  0.
         23    2    1    2    0    0 -0.49412148816E+02  0.41727625949E+01 -0.62470932383E+02  0.12119219299E+03  0.91246686795E+02 0.  0.
        -11    1    4    4    0    0 -0.64308294991E+02  0.31606263106E+02 -0.35641440222E+02  0.80030150151E+02  0.00000000000E+00 0. -1.
         11    1    4    4    0    0  0.14896146175E+02 -0.27433500511E+02 -0.26829492161E+02  0.41162042840E+02  0.00000000000E+00 0.  1.
        -13    1    3    3    0    0 -0.10770219579E+02 -0.26577158490E+02 -0.64057331623E+02  0.70183222481E+02  0.00000000000E+00 0. -1.
         13    1    3    3    0    0  0.32405880640E+02  0.34735909122E+02 -0.56710294410E+01  0.47842293606E+02  0.00000000000E+00 0.  1.
          2    1    1    2  501    0  0.27776487755E+02 -0.12331513228E+02 -0.42231493678E+02  0.52029785207E+02  0.00000000000E+00 0. -1.
<scales pt_clust_5="13000.00000" pt_clust_6="13000.00000" pt_clust_7="13000.00000" pt_clust_8="13000.00000" pt_clust_9="30.39079"></scales>
<clustering>
<clus scale="   30.391">  1  9  2 -1</clus>
<clus scale="   91.247">  5  6 -1 -1</clus>
<clus scale="   92.376">  7  8 -1 -1</clus>
<clus scale="   97.470">  1  5  2 -1</clus>
<clus scale="   30.391">  1  5  2 -1</clus>
</clustering>
</event>
<event>
 9    1  0.1504846E-005  0.1218633E+03  0.7546771E-02  0.1240657E+00
         21   -1    0    0  501  502  0.00000000000E+00  0.00000000000E+00  0.23655219313E+03  0.23655219313E+03  0.00000000000E+00 0.  1.
         -4   -1    0    0    0  501 -0.00000000000E+00 -0.00000000000E+00 -0.12361109052E+03  0.12361109052E+03  0.00000000000E+00 0.  1.
         23    2    1    2    0    0  0.10550519241E+03 -0.24580603892E+02 -0.16534262732E+02  0.14322323468E+03  0.92216925751E+02 0.  0.
         23    2    1    2    0    0 -0.41668337465E+02 -0.10349697926E+02  0.61415584974E+02  0.11730369146E+03  0.90249184803E+02 0.  0.
        -11    1    3    3    0    0  0.77521864420E+02 -0.47101481010E+02 -0.41222679835E+02  0.99636832091E+02  0.00000000000E+00 0.  1.
         11    1    3    3    0    0  0.27983327988E+02  0.22520877118E+02  0.24688417103E+02  0.43586402587E+02  0.00000000000E+00 0. -1.
        -11    1    4    4    0    0 -0.24696327285E+02  0.35906402934E+02  0.74203960127E+01  0.44206793935E+02  0.00000000000E+00 0. -1.
         11    1    4    4    0    0 -0.16972010180E+02 -0.46256100861E+02  0.53995188961E+02  0.73096897522E+02  0.00000000000E+00 0.  1.
         -4    1    1    2    0  502 -0.63836854943E+02  0.34930301818E+02  0.68059780368E+02  0.99636357510E+02  0.00000000000E+00 0.  1.
<scales pt_clust_5="13000.00000" pt_clust_6="13000.00000" pt_clust_7="13000.00000" pt_clust_8="13000.00000" pt_clust_9="72.76861"></scales>
<clustering>
<clus scale="   72.769">  1  9  2 -1</clus>
<clus scale="   90.249">  7  8 -1 -1</clus>
<clus scale="   92.217">  5  6 -1 -1</clus>
<clus scale="  120.381">  1  7  2 -1</clus>
<clus scale="   72.769">  1  5  2 -1</clus>
</clustering>
</event>
<event>
 9    1  0.1504846E-005  0.2044547E+03  0.7546771E-02  0.1173486E+00
         21   -1    0    0  501  502  0.00000000000E+00  0.00000000000E+00  0.26685505737E+03  0.26685505737E+03  0.00000000000E+00 0. -1.
          2   -1    0    0  502    0 -0.00000000000E+00 -0.00000000000E+00 -0.71381709168E+03  0.71381709168E+03  0.00000000000E+00 0. -1.
         23    2    1    2    0    0 -0.19504076850E+02 -0.46785911425E+02 -0.18598959832E+03  0.21500844308E+03  0.95221685514E+02 0.  0.
         23    2    1    2    0    0  0.36839237990E+02  0.22596973081E+03 -0.44482516440E+03  0.50835227078E+03  0.90184009820E+02 0.  0.
        -11    1    4    4    0    0  0.59019935146E+02  0.10013366626E+03 -0.24489414739E+03  0.27107793582E+03  0.00000000000E+00 0.  1.
         11    1    4    4    0    0 -0.22180697157E+02  0.12583606455E+03 -0.19993101700E+03  0.23727433496E+03  0.00000000000E+00 0. -1.
        -11    1    3    3    0    0 -0.51918848895E+02 -0.33878078047E+02 -0.68226031931E+02  0.92185044751E+02  0.00000000000E+00 0. -1.
         11    1    3    3    0    0  0.32414772045E+02 -0.12907833379E+02 -0.11776356638E+03  0.12282339833E+03  0.00000000000E+00 0.  1.
          2    1    1    2  501    0 -0.17335161140E+02 -0.17918381939E+03  0.18385272840E+03  0.25731143520E+03  0.00000000000E+00 0. -1.
<scales pt_clust_5="13000.00000" pt_clust_6="13000.00000" pt_clust_7="13000.00000" pt_clust_8="13000.00000" pt_clust_9="183.49001"></scales>
<clustering>
<clus scale="   90.184">  5  6 -1 -1</clus>
<clus scale="   95.222">  7  8 -1 -1</clus>
<clus scale="  107.873">  2  7  1 -1</clus>
<clus scale="  183.490">  1  9  2 -1</clus>
<clus scale="  183.490">  1  5  2 -1</clus>
</clustering>
</event>
<event>
 9    1  0.1504846E-005  0.1005732E+03  0.7546771E-02  0.1279283E+00
          2   -1    0    0  502    0 -0.00000000000E+00  0.00000000000E+00  0.48030971949E+03  0.48030971949E+03  0.00000000000E+00 0. -1.
         21   -1    0    0  501  502  0.00000000000E+00 -0.00000000000E+00 -0.34553636538E+02  0.34553636538E+02  0.00000000000E+00 0. -1.
         23    2    1    2    0    0  0.87141600754E+00 -0.38887071439E+02  0.22740351304E+03  0.24825963143E+03  0.91692546928E+02 0.  0.
         23    2    1    2    0    0  0.21422575553E+02  0.39591066022E+02  0.22151112788E+03  0.24407609364E+03  0.92084637495E+02 0.  0.
        -13    1    3    3    0    0 -0.43692743432E+02 -0.12786466130E+02  0.79678242756E+02  0.91766943468E+02  0.00000000000E+00 0.  1.
         13    1    3    3    0    0  0.44564159440E+02 -0.26100605309E+02  0.14772527029E+03  0.15649268796E+03  0.00000000000E+00 0. -1.
        -13    1    4    4    0    0  0.38578792435E+01  0.57483156773E+02  0.70730277330E+02  0.91224824889E+02  0.00000000000E+00 0.  1.
         13    1    4    4    0    0  0.17564696310E+02 -0.17892090752E+02  0.15078085055E+03  0.15285126876E+03  0.00000000000E+00 0. -1.
          2    1    1    2  501    0 -0.22293991561E+02 -0.70399458252E+00 -0.31585579665E+01  0.22527630957E+02  0.00000000000E+00 0. -1.
<scales pt_clust_5="13000.00000" pt_clust_6="13000.00000" pt_clust_7="13000.00000" pt_clust_8="13000.00000" pt_clust_9="22.30510"></scales>
<clustering>
<clus scale="   22.305">  2  9  1 -1</clus>
<clus scale="   91.693">  5  6 -1 -1</clus>
<clus scale="   92.085">  7  8 -1 -1</clus>
<clus scale="  100.214">  1  5  2 -1</clus>
<clus scale="   22.305">  2  5  1 -1</clus>
</clustering>
</event>
<event>
 9    1  0.1504846E-005  0.1121213E+03  0.7546771E-02  0.1260122E+00
         21   -1    0    0  501  502  0.00000000000E+00  0.00000000000E+00  0.36903135214E+02  0.36903135214E+02  0.00000000000E+00 0. -1.
         -3   -1    0    0    0  501 -0.00000000000E+00 -0.00000000000E+00 -0.59353070171E+03  0.59353070171E+03  0.00000000000E+00 0.  1.
         23    2    1    2    0    0  0.58087374527E+02  0.83522913816E+00 -0.35061820916E+03  0.36698592590E+03  0.91491532523E+02 0.  0.
         23    2    1    2    0    0 -0.27977648264E+02  0.52204123611E+00 -0.72280460123E+02  0.12636452127E+03  0.99802334593E+02 0.  0.
        -13    1    3    3    0    0  0.81036162832E+02  0.11214686077E+02 -0.29063362463E+03  0.30192802559E+03  0.00000000000E+00 0. -1.
         13    1    3    3    0    0 -0.22948788305E+02 -0.10379456939E+02 -0.59984584527E+02  0.65057900303E+02  0.00000000000E+00 0.  1.
        -13    1    4    4    0    0 -0.65692612171E+02  0.37369127354E+01 -0.45707459623E+02  0.80116513128E+02  0.00000000000E+00 0.  1.
         13    1    4    4    0    0  0.37714963907E+02 -0.32148714993E+01 -0.26573000501E+02  0.46248008140E+02  0.00000000000E+00 0. -1.
         -3    1    1    2    0  502 -0.30109726263E+02 -0.13572703743E+01 -0.13372889721E+03  0.13708338976E+03  0.00000000000E+00 0.  1.
<scales pt_clust_5="13000.00000" pt_clust_6="13000.00000" pt_clust_7="13000.00000" pt_clust_8="13000.00000" pt_clust_9="30.14032"></scales>
<clustering>
<clus scale="   30.140">  1  9  2 -1</clus>
<clus scale="   91.492">  5  6 -1 -1</clus>
<clus scale="   99.802">  7  8 -1 -1</clus>
<clus scale="  104.792">  2  5  1 -1</clus>
<clus scale="   30.140">  1  5  2 -1</clus>
</clustering>
</event>
<event>
 9    1  0.1504846E-005  0.1059294E+03  0.7546771E-02  0.1269176E+00
         21   -1    0    0  501  502  0.00000000000E+00  0.00000000000E+00  0.43955554206E+03  0.43955554206E+03  0.00000000000E+00 0.  1.
         -3   -1    0    0    0  501 -0.00000000000E+00 -0.00000000000E+00 -0.73868396833E+02  0.73868396833E+02  0.00000000000E+00 0.  1.
         23    2    1    2    0    0  0.53253479660E+02  0.21106299925E+02  0.22634550755E+01  0.10715318403E+03  0.90527745061E+02 0.  0.
         23    2    1    2    0    0 -0.58881396776E+02  0.41570408739E+02  0.18807263566E+03  0.21996982741E+03  0.88432408749E+02 0.  0.
        -11    1    4    4    0    0 -0.53905652335E+02 -0.16041204270E+02  0.90820257395E+02  0.10682442952E+03  0.00000000000E+00 0. -1.
         11    1    4    4    0    0 -0.49757444407E+01  0.57611613009E+02  0.97252378264E+02  0.11314539789E+03  0.00000000000E+00 0.  1.
        -11    1    3    3    0    0  0.55575833125E+02  0.47317554975E+02 -0.16502869623E+02  0.74832940222E+02  0.00000000000E+00 0.  1.
         11    1    3    3    0    0 -0.23223534652E+01 -0.26211255050E+02  0.18766324699E+02  0.32320243805E+02  0.00000000000E+00 0. -1.
         -3    1    1    2    0  502  0.56279171155E+01 -0.62676708664E+02  0.17535105450E+03  0.18630092746E+03  0.00000000000E+00 0.  1.
<scales pt_clust_5="13000.00000" pt_clust_6="13000.00000" pt_clust_7="13000.00000" pt_clust_8="13000.00000" pt_clust_9="62.92887"></scales>
<clustering>
<clus scale="   62.929">  1  9  2 -1</clus>
<clus scale="   88.432">  5  6 -1 -1</clus>
<clus scale="   90.528">  7  8 -1 -1</clus>
<clus scale="  104.144">  1  5  2 -1</clus>
<clus scale="   62.929">  1  5  2 -1</clus>
</clustering>
</event>
<event>
 9    1  0.1504846E-005  0.9792712E+02  0.7546771E-02  0.1290861E+00
         21   -1    0    0  501  502  0.00000000000E+00  0.00000000000E+00  0.17972189211E+02  0.17972189211E+02  0.00000000000E+00 0. -1.
         -1   -1    0    0    0  501 -0.00000000000E+00 -0.00000000000E+00 -0.69361486946E+03  0.69361486946E+03  0.00000000000E+00 0.  1.
         23    2    1    2    0    0 -0.32857492267E+02  0.90813428473E+01 -0.32961843299E+03  0.34490968909E+03  0.95667636477E+02 0.  0.
         23    2    1    2    0    0  0.48465941841E+01 -0.26536468365E+01 -0.19099847896E+03  0.20901026927E+03  0.84701489821E+02 0.  0.
        -13    1    3    3    0    0 -0.46003191516E+02 -0.25970530822E+02 -0.10887720191E+03  0.12101655753E+03  0.00000000000E+00 0. -1.
         13    1    3    3    0    0  0.13145699249E+02  0.35051873669E+02 -0.22074123109E+03  0.22389313156E+03  0.00000000000E+00 0.  1.
        -13    1    4    4    0    0 -0.16815639072E+02 -0.34475816485E+02 -0.50995738022E+02  0.63811542343E+02  0.00000000000E+00 0. -1.
         13    1    4    4    0    0  0.21662233256E+02  0.31822169649E+02 -0.14000274094E+03  0.14519872692E+03  0.00000000000E+00 0.  1.
         -1    1    1    2    0  502  0.28010898083E+02 -0.64276960108E+01 -0.15502576829E+03  0.15766710032E+03  0.00000000000E+00 0.  1.
<scales pt_clust_5="13000.00000" pt_clust_6="13000.00000" pt_clust_7="13000.00000" pt_clust_8="13000.00000" pt_clust_9="28.73894"></scales>
<clustering>
<clus scale="   28.739">  1  9  2 -1</clus>
<clus scale="   84.701">  7  8 -1 -1</clus>
<clus scale="   87.245">  1  7  2 -1</clus>
<clus scale="   95.668">  5  6 -1 -1</clus>
<clus scale="   28.739">  1  5  2 -1</clus>
</clustering>
</event>
<event>
 9    1  0.1504846E-005  0.1640266E+03  0.7546771E-02  0.1184843E+00
         21   -1    0    0  501  502  0.00000000000E+00  0.00000000000E+00  0.66129132872E+03  0.66129132872E+03  0.00000000000E+00 0.  1.
         -2   -1    0    0    0  501 -0.00000000000E+00 -0.00000000000E+00 -0.65801894791E+02  0.65801894791E+02  0.00000000000E+00 0.  1.
         23    2    1    2    0    0 -0.12104491613E+03 -0.71731191491E+02  0.12205762908E+03  0.20738531559E+03  0.91177676834E+02 0.  0.
         23    2    1    2    0    0  0.12741077064E+03  0.33976947003E+02  0.27113785118E+03  0.31382262245E+03  0.87068746486E+02 0.  0.
        -13    1    3    3    0    0 -0.56260309368E+02  0.69863207321E+01  0.13132526995E+02  0.58193593744E+02  0.00000000000E+00 0. -1.
         13    1    3    3    0    0 -0.64784606764E+02 -0.78717512223E+02  0.10892510208E+03  0.14919172185E+03  0.00000000000E+00 0.  1.
        -13    1    4    4    0    0  0.11084731877E+03  0.60745152795E+02  0.21172112708E+03  0.24658251624E+03  0.00000000000E+00 0.  1.
         13    1    4    4    0    0  0.16563451873E+02 -0.26768205792E+02  0.59416724098E+02  0.67240106201E+02  0.00000000000E+00 0. -1.
         -2    1    1    2    0  502 -0.63658545114E+01  0.37754244488E+02  0.20229395368E+03  0.20588528548E+03  0.00000000000E+00 0.  1.
<scales pt_clust_5="13000.00000" pt_clust_6="13000.00000" pt_clust_7="13000.00000" pt_clust_8="13000.00000" pt_clust_9="38.28717"></scales>
<clustering>
<clus scale="   38.287">  1  9  2 -1</clus>
<clus scale="   87.069">  7  8 -1 -1</clus>
<clus scale="   91.178">  5  6 -1 -1</clus>
<clus scale="  161.779">  1  7  2 -1</clus>
<clus scale="   38.287">  1  5  2 -1</clus>
</clustering>
</event>
<event>
 9    1  0.1504846E-005  0.2489682E+03  0.7546771E-02  0.1114090E+00
         21   -1    0    0  501  502  0.00000000000E+00  0.00000000000E+00  0.46401097044E+03  0.46401097044E+03  0.00000000000E+00 0.  1.
         -1   -1    0    0    0  501 -0.00000000000E+00 -0.00000000000E+00 -0.57517573366E+03  0.57517573366E+03  0.00000000000E+00 0.  1.
         23    2    1    2    0    0  0.77826191635E+02  0.19831906286E+03 -0.34482650583E+03  0.41532888522E+03  0.90583646283E+02 0.  0.
         23    2    1    2    0    0 -0.22778132470E+03 -0.30493055466E+03  0.13057630608E+03  0.41295699066E+03  0.92824185299E+02 0.  0.
        -11    1    3    3    0    0  0.34515776487E+02  0.18072575669E+03 -0.28784520858E+03  0.34162552900E+03  0.00000000000E+00 0.  1.
         11    1    3    3    0    0  0.43310415148E+02  0.17593306173E+02 -0.56981297250E+02  0.73703356224E+02  0.00000000000E+00 0. -1.
        -11    1    4    4    0    0 -0.20514992792E+03 -0.20926373941E+03  0.10593229020E+03  0.31160785559E+03  0.00000000000E+00 0.  1.
         11    1    4    4    0    0 -0.22631396779E+02 -0.95666815254E+02  0.24644015878E+02  0.10134913507E+03  0.00000000000E+00 0. -1.
         -1    1    1    2    0  502  0.14995513307E+03  0.10661149180E+03  0.10308543654E+03  0.21090082822E+03  0.00000000000E+00 0.  1.
<scales pt_clust_5="13000.00000" pt_clust_6="13000.00000" pt_clust_7="13000.00000" pt_clust_8="13000.00000" pt_clust_9="183.99063"></scales>
<clustering>
<clus scale="   90.584">  5  6 -1 -1</clus>
<clus scale="   92.824">  7  8 -1 -1</clus>
<clus scale="  183.991">  1  9  2 -1</clus>
<clus scale="  248.142">  2  5  1 -1</clus>
<clus scale="  183.991">  1  5  2 -1</clus>
</clustering>
</event>
<event>
 9    1  0.1504846E-005  0.1439286E+03  0.7546771E-02  0.1210271E+00
          1   -1    0    0  502    0 -0.00000000000E+00  0.00000000000E+00  0.57573452843E+03  0.57573452843E+03  0.00000000000E+00 0. -1.
         21   -1    0    0  501  502  0.00000000000E+00 -0.00000000000E+00 -0.93959017172E+02  0.93959017172E+02  0.00000000000E+00 0. -1.
         23    2    1    2    0    0  0.47618003792E+02  0.86994692429E+02  0.33048124399E+03  0.35528761311E+03  0.84710593212E+02 0.  0.
         23    2    1    2    0    0 -0.11831970673E+03 -0.84208425070E+02  0.16827883051E+03  0.24163939161E+03  0.94769293152E+02 0.  0.
        -11    1    3    3    0    0  0.62823564476E+02  0.40470955102E+02  0.25151769520E+03  0.26238492612E+03  0.00000000000E+00 0.  1.
         11    1    3    3    0    0 -0.15205560684E+02  0.46523737327E+02  0.78963548796E+02  0.92902686985E+02  0.00000000000E+00 0. -1.
        -11    1    4    4    0    0 -0.13264053079E+03 -0.62187047049E+02  0.13472837516E+03  0.19902882782E+03  0.00000000000E+00 0. -1.
         11    1    4    4    0    0  0.14320824067E+02 -0.22021378021E+02  0.33550455348E+02  0.42610563784E+02  0.00000000000E+00 0.  1.
          1    1    1    2  501    0  0.70701702935E+02 -0.27862673598E+01 -0.16984563248E+02  0.72766540886E+02  0.00000000000E+00 0. -1.
<scales pt_clust_5="13000.00000" pt_clust_6="13000.00000" pt_clust_7="13000.00000" pt_clust_8="13000.00000" pt_clust_9="70.75658"></scales>
<clustering>
<clus scale="   70.757">  2  9  1 -1</clus>
<clus scale="   84.711">  5  6 -1 -1</clus>
<clus scale="   94.769">  7  8 -1 -1</clus>
<clus scale="  137.514">  1  5  2 -1</clus>
<clus scale="   70.757">  2  5  1 -1</clus>
</clustering>
</event>
<event>
 9    1  0.1504846E-005  0.1276601E+03  0.7546771E-02  0.1231932E+00
          3   -1    0    0  502    0 -0.00000000000E+00  0.00000000000E+00  0.64894668073E+03  0.64894668073E+03  0.00000000000E+00 0. -1.
         21   -1    0    0  501  502  0.00000000000E+00 -0.00000000000E+00 -0.60777961599E+02  0.60777961599E+02  0.00000000000E+00 0.  1.
         23    2    1    2    0    0  0.97914785497E+02 -0.20447319583E+02  0.24260710741E+03  0.27795659323E+03  0.91631114011E+02 0.  0.
         23    2    1    2    0    0 -0.59035440283E+02 -0.77390838710E+02  0.11432073493E+03  0.17768882563E+03  0.95024013766E+02 0.  0.
        -11    1    3    3    0    0  0.15811646342E+01 -0.36881936164E+02  0.52189258581E+02  0.63925706943E+02  0.00000000000E+00 0.  1.
         11    1    3    3    0    0  0.96333620863E+02  0.16434616582E+02  0.19041784883E+03  0.21403088629E+03  0.00000000000E+00 0. -1.
        -13    1    4    4    0    0 -0.10455779703E+02  0.22536202794E+02  0.18630647075E+02  0.31053257092E+02  0.00000000000E+00 0. -1.
         13    1    4    4    0    0 -0.48579660581E+02 -0.99927041505E+02  0.95690087855E+02  0.14663556854E+03  0.00000000000E+00 0.  1.
          3    1    1    2  501    0 -0.38879345214E+02  0.97838158293E+02  0.23124087679E+03  0.25407922347E+03  0.00000000000E+00 0. -1.
<scales pt_clust_5="13000.00000" pt_clust_6="13000.00000" pt_clust_7="13000.00000" pt_clust_8="13000.00000" pt_clust_9="105.28020"></scales>
<clustering>
<clus scale="   91.631">  5  6 -1 -1</clus>
<clus scale="   95.024">  7  8 -1 -1</clus>
<clus scale="  105.280">  2  9  1 -1</clus>
<clus scale="  125.155">  1  5  2 -1</clus>
<clus scale="  105.280">  2  5  1 -1</clus>
</clustering>
</event>
<event>
 9    1  0.1504846E-005  0.1658316E+03  0.7546771E-02  0.1183366E+00
          1   -1    0    0  502    0 -0.00000000000E+00  0.00000000000E+00  0.28548267782E+03  0.28548267782E+03  0.00000000000E+00 0. -1.
         21   -1    0    0  501  502  0.00000000000E+00 -0.00000000000E+00 -0.15954957354E+03  0.15954957354E+03  0.00000000000E+00 0. -1.
         23    2    1    2    0    0 -0.12625492197E+03 -0.20859417442E+02  0.78814061399E+02  0.17583651352E+03  0.91276517216E+02 0.  0.
         23    2    1    2    0    0  0.14239929066E+03 -0.54481591465E+02  0.60061254835E+02  0.19106501973E+03  0.98248082124E+02 0.  0.
        -11    1    3    3    0    0 -0.12563517781E+03 -0.42698255889E+02  0.78113910836E+02  0.15397766729E+03  0.00000000000E+00 0. -1.
         11    1    3    3    0    0 -0.61974416000E+00  0.21838838447E+02  0.70015056283E+00  0.21858846226E+02  0.00000000000E+00 0.  1.
        -11    1    4    4    0    0  0.40220489226E+02 -0.67077240351E+02  0.30552906627E+02  0.83967398615E+02  0.00000000000E+00 0. -1.
         11    1    4    4    0    0  0.10217880144E+03  0.12595648886E+02  0.29508348208E+02  0.10709762111E+03  0.00000000000E+00 0.  1.
          1    1    1    2  501    0 -0.16144368696E+02  0.75341008907E+02 -0.12942211952E+02  0.78130718120E+02  0.00000000000E+00 0. -1.
<scales pt_clust_5="13000.00000" pt_clust_6="13000.00000" pt_clust_7="13000.00000" pt_clust_8="13000.00000" pt_clust_9="77.05134"></scales>
<clustering>
<clus scale="   77.051">  2  9  1 -1</clus>
<clus scale="   91.277">  5  6 -1 -1</clus>
<clus scale="   98.248">  7  8 -1 -1</clus>
<clus scale="  161.799">  1  5  2 -1</clus>
<clus scale="   77.051">  2  5  1 -1</clus>
</clustering>
</event>
<event>
 9    1  0.1504846E-005  0.9672126E+02  0.7546771E-02  0.1288807E+00
         21   -1    0    0  501  502  0.00000000000E+00  0.00000000000E+00  0.16196272131E+03  0.16196272131E+03  0.00000000000E+00 0. -1.
          1   -1    0    0  502    0 -0.00000000000E+00 -0.00000000000E+00 -0.12775603984E+03  0.12775603984E+03  0.00000000000E+00 0. -1.
         23    2    1    2    0    0  0.17170904902E+02 -0.13467760474E+02 -0.70234102976E+02  0.11766587981E+03  0.91848840511E+02 0.  0.
         23    2    1    2    0    0  0.55764443831E+01  0.27226553298E+02  0.47863757777E+02  0.10954123262E+03  0.94530208919E+02 0.  0.
        -11    1    3    3    0    0  0.44528874115E+02 -0.10370221908E+01 -0.75011458184E+02  0.87238838276E+02  0.00000000000E+00 0. -1.
         11    1    3    3    0    0 -0.27357969212E+02 -0.12430738284E+02  0.47773552082E+01  0.30427041533E+02  0.00000000000E+00 0.  1.
        -13    1    4    4    0    0 -0.40779410284E+01 -0.26776462606E+02 -0.10858344084E+02  0.29180681777E+02  0.00000000000E+00 0.  1.
         13    1    4    4    0    0  0.96543854114E+01  0.54003015904E+02  0.58722101861E+02  0.80360550840E+02  0.00000000000E+00 0. -1.
          1    1    1    2  501    0 -0.22747349286E+02 -0.13758792824E+02  0.56577026667E+02  0.62511648722E+02  0.00000000000E+00 0. -1.
<scales pt_clust_5="13000.00000" pt_clust_6="13000.00000" pt_clust_7="13000.00000" pt_clust_8="13000.00000" pt_clust_9="26.58470"></scales>
<clustering>
<clus scale="   26.585">  1  9  2 -1</clus>
<clus scale="   91.849">  5  6 -1 -1</clus>
<clus scale="   94.102">  2  5  1 -1</clus>
<clus scale="   94.530">  7  8 -1 -1</clus>
<clus scale="   26.585">  1  5  2 -1</clus>
</clustering>
</event>
<event>
 9    1  0.1504846E-005  0.1913336E+03  0.7546771E-02  0.1157462E+00
         21   -1    0    0  501  502  0.00000000000E+00  0.00000000000E+00  0.55260963831E+02  0.55260963831E+02  0.00000000000E+00 0.  1.
         -3   -1    0    0    0  501 -0.00000000000E+00 -0.00000000000E+00 -0.86583033281E+03  0.86583033281E+03  0.00000000000E+00 0.  1.
         23    2    1    2    0    0 -0.10945362188E+02 -0.17672761968E+03 -0.50319082733E+03  0.54134857546E+03  0.92221575222E+02 0.  0.
         23    2    1    2    0    0  0.31471038276E+02  0.15036597539E+03 -0.29171847227E+03  0.34284451741E+03  0.94033734641E+02 0.  0.
        -13    1    4    4    0    0 -0.28626179652E+02  0.72783449250E+02 -0.95378416997E+02  0.12334476509E+03  0.00000000000E+00 0. -1.
         13    1    4    4    0    0  0.60097217928E+02  0.77582526143E+02 -0.19634005527E+03  0.21949975232E+03  0.00000000000E+00 0.  1.
        -13    1    3    3    0    0 -0.12984206492E+02 -0.20250822177E+02 -0.14215273588E+02  0.27942072583E+02  0.00000000000E+00 0. -1.
         13    1    3    3    0    0  0.20388443035E+01 -0.15647679750E+03 -0.48897555374E+03  0.51340650288E+03  0.00000000000E+00 0.  1.
         -3    1    1    2    0  502 -0.20525676088E+02  0.26361644285E+02 -0.15660069386E+02  0.36898203770E+02  0.00000000000E+00 0.  1.
<scales pt_clust_5="13000.00000" pt_clust_6="13000.00000" pt_clust_7="13000.00000" pt_clust_8="13000.00000" pt_clust_9="33.41017"></scales>
<clustering>
<clus scale="   33.410">  1  9  2 -1</clus>
<clus scale="   92.222">  7  8 -1 -1</clus>
<clus scale="   94.034">  5  6 -1 -1</clus>
<clus scale="  190.450">  2  7  1 -1</clus>
<clus scale="   33.410">  1  5  2 -1</clus>
</clustering>
</event>
<event>
 9    1  0.1504846E-005  0.1319053E+03  0.7546771E-02  0.1225446E+00
          2   -1    0    0  502    0 -0.00000000000E+00  0.00000000000E+00  0.52330960152E+03  0.52330960152E+03  0.00000000000E+00 0. -1.
         21   -1    0    0  501  502  0.00000000000E+00 -0.00000000000E+00 -0.22665389963E+03  0.22665389963E+03  0.00000000000E+00 0.  1.
         23    2    1    2    0    0  0.88329538460E+02 -0.29339841487E+02  0.45333176482E+03  0.47227221697E+03  0.94172311576E+02 0.  0.
         23    2    1    2    0    0 -0.67843841379E+02  0.67148559521E+02 -0.18851090201E+02  0.13331370262E+03  0.91134317612E+02 0.  0.
        -11    1    3    3    0    0  0.55496436610E+02  0.29891463726E+02  0.18161397353E+03  0.19224200754E+03  0.00000000000E+00 0.  1.
         11    1    3    3    0    0  0.32833101850E+02 -0.59231305213E+02  0.27171779129E+03  0.28003020944E+03  0.00000000000E+00 0. -1.
        -13    1    4    4    0    0 -0.47803192052E+02  0.63294017888E+02 -0.51672946324E+02  0.94664519502E+02  0.00000000000E+00 0.  1.
         13    1    4    4    0    0 -0.20040649327E+02  0.38545416334E+01  0.32821856123E+02  0.38649183122E+02  0.00000000000E+00 0. -1.
          2    1    1    2  501    0 -0.20485697081E+02 -0.37808718035E+02 -0.13782497274E+03  0.14437758155E+03  0.00000000000E+00 0. -1.
<scales pt_clust_5="13000.00000" pt_clust_6="13000.00000" pt_clust_7="13000.00000" pt_clust_8="13000.00000" pt_clust_9="43.00189"></scales>
<clustering>
<clus scale="   43.002">  2  9  1 -1</clus>
<clus scale="   91.134">  7  8 -1 -1</clus>
<clus scale="   94.172">  5  6 -1 -1</clus>
<clus scale="  129.754">  2  7  1 -1</clus>
<clus scale="   43.002">  2  5  1 -1</clus>
</clustering>
</event>
<event>
 9    1  0.1504846E-005  0.9547211E+02  0.7546771E-02  0.1292915E+00
         21   -1    0    0  501  502  0.00000000000E+00  0.00000000000E+00  0.89893309634E+02  0.89893309634E+02  0.00000000000E+00 0. -1.
          1   -1    0    0  502    0 -0.00000000000E+00 -0.00000000000E+00 -0.26144238281E+03  0.26144238281E+03  0.00000000000E+00 0. -1.
         23    2    1    2    0    0 -0.70956171173E+01  0.23001830515E+02 -0.17061652330E+03  0.19326009564E+03  0.87521623351E+02 0.  0.
         23    2    1    2    0    0  0.47364043774E+02  0.86137050247E+00  0.21504519675E+02  0.10616778778E+03  0.92547610412E+02 0.  0.
        -11    1    3    3    0    0  0.26113830166E+02 -0.13902928012E+02 -0.11483581268E+03  0.11858535916E+03  0.00000000000E+00 0.  1.
         11    1    3    3    0    0 -0.33209447283E+02  0.36904758528E+02 -0.55780710617E+02  0.74674736476E+02  0.00000000000E+00 0. -1.
        -13    1    4    4    0    0  0.67079669982E+02  0.24487201378E+02  0.23900899005E+02  0.75303108365E+02  0.00000000000E+00 0. -1.
         13    1    4    4    0    0 -0.19715626207E+02 -0.23625830875E+02 -0.23963793295E+01  0.30864679411E+02  0.00000000000E+00 0.  1.
          1    1    1    2  501    0 -0.40268426657E+02 -0.23863201018E+02 -0.22437069553E+02  0.51907809031E+02  0.00000000000E+00 0. -1.
<scales pt_clust_5="13000.00000" pt_clust_6="13000.00000" pt_clust_7="13000.00000" pt_clust_8="13000.00000" pt_clust_9="46.80810"></scales>
<clustering>
<clus scale="   46.808">  1  9  2 -1</clus>
<clus scale="   87.522">  5  6 -1 -1</clus>
<clus scale="   90.608">  2  5  1 -1</clus>
<clus scale="   92.548">  7  8 -1 -1</clus>
<clus scale="   46.808">  1  5  2 -1</clus>
</clustering>
</event>
<event>
 9    1  0.1504846E-005  0.9254528E+02  0.7546771E-02  0.1306182E+00
          3   -1    0    0  502    0 -0.00000000000E+00  0.00000000000E+00  0.16519393888E+02  0.16519393888E+02  0.00000000000E+00 0. -1.
         21   -1    0    0  501  502  0.00000000000E+00 -0.00000000000E+00 -0.72174302179E+03  0.72174302179E+03  0.00000000000E+00 0.  1.
         23    2    1    2    0    0 -0.96063839523E+01  0.21545611922E+02 -0.18322403750E+03  0.20552173116E+03  0.90064632651E+02 0.  0.
         23    2    1    2    0    0  0.26847959347E+02 -0.11527963706E+01 -0.37850985165E+03  0.38678711664E+03  0.74916112725E+02 0.  0.
        -11    1    3    3    0    0 -0.86465876865E+01 -0.31684126599E+02 -0.11125582541E+03  0.11600218121E+03  0.00000000000E+00 0. -1.
         11    1    3    3    0    0 -0.95979626577E+00  0.53229738522E+02 -0.71968212084E+02  0.89519549946E+02  0.00000000000E+00 0.  1.
        -13    1    4    4    0    0  0.10490661092E+02 -0.36889272639E+02 -0.22944231643E+03  0.23262555529E+03  0.00000000000E+00 0. -1.
         13    1    4    4    0    0  0.16357298255E+02  0.35736476268E+02 -0.14906753521E+03  0.15416156135E+03  0.00000000000E+00 0.  1.
          3    1    1    2  501    0 -0.17241575395E+02 -0.20392815552E+02 -0.14348973876E+03  0.14595356788E+03  0.00000000000E+00 0. -1.
<scales pt_clust_5="13000.00000" pt_clust_6="13000.00000" pt_clust_7="13000.00000" pt_clust_8="13000.00000" pt_clust_9="26.70466"></scales>
<clustering>
<clus scale="   26.705">  2  9  1 -1</clus>
<clus scale="   74.916">  7  8 -1 -1</clus>
<clus scale="   77.881">  2  7  1 -1</clus>
<clus scale="   90.065">  5  6 -1 -1</clus>
<clus scale="   26.705">  2  5  1 -1</clus>
</clustering>
</event>
<event>
 9    1  0.1504846E-005  0.1252572E+03  0.7546771E-02  0.1235432E+00
         21   -1    0    0  501  502  0.00000000000E+00  0.00000000000E+00  0.25725738727E+03  0.25725738727E+03  0.00000000000E+00 0. -1.
          1   -1    0    0  502    0 -0.00000000000E+00 -0.00000000000E+00 -0.31633520810E+03  0.31633520810E+03  0.00000000000E+00 0. -1.
         23    2    1    2    0    0  0.92673745513E+02 -0.32212922836E+02 -0.17180127942E+03  0.21696028920E+03  0.89050502374E+02 0.  0.
         23    2    1    2    0    0 -0.67129330399E+02  0.36775683057E+02 -0.93684073178E+02  0.14860008489E+03  0.86292999708E+02 0.  0.
        -11    1    3    3    0    0  0.90136256291E+02 -0.56493415958E+02 -0.12470490514E+03  0.16391267221E+03  0.00000000000E+00 0. -1.
         11    1    3    3    0    0  0.25374892225E+01  0.24280493123E+02 -0.47096374275E+02  0.53047616984E+02  0.00000000000E+00 0.  1.
        -13    1    4    4    0    0 -0.13694739065E+02 -0.26352281449E+02 -0.40677719675E+02  0.50365320346E+02  0.00000000000E+00 0.  1.
         13    1    4    4    0    0 -0.53434591335E+02  0.63127964506E+02 -0.53006353503E+02  0.98234764546E+02  0.00000000000E+00 0. -1.
          1    1    1    2  501    0 -0.25544415114E+02 -0.45627602218E+01  0.20640753176E+03  0.20803222128E+03  0.00000000000E+00 0. -1.
<scales pt_clust_5="13000.00000" pt_clust_6="13000.00000" pt_clust_7="13000.00000" pt_clust_8="13000.00000" pt_clust_9="25.94872"></scales>
<clustering>
<clus scale="   25.949">  1  9  2 -1</clus>
<clus scale="   86.293">  7  8 -1 -1</clus>
<clus scale="   89.051">  5  6 -1 -1</clus>
<clus scale="  123.312">  1  7  2 -1</clus>
<clus scale="   25.949">  1  5  2 -1</clus>
</clustering>
</event>
<event>
 9    1  0.1504846E-005  0.1277397E+03  0.7546771E-02  0.1230951E+00
          1   -1    0    0  502    0 -0.00000000000E+00  0.00000000000E+00  0.52698643680E+03  0.52698643680E+03  0.00000000000E+00 0. -1.
         21   -1    0    0  501  502  0.00000000000E+00 -0.00000000000E+00 -0.53568682484E+02  0.53568682484E+02  0.00000000000E+00 0.  1.
         23    2    1    2    0    0  0.90771587435E+02 -0.31242541317E+02  0.39339501938E+03  0.41507182141E+03  0.91155900408E+02 0.  0.
         23    2    1    2    0    0 -0.65324576507E+02  0.24389981734E+02  0.78084132972E+02  0.13905857241E+03  0.91531323790E+02 0.  0.
        -11    1    4    4    0    0 -0.15415680062E+02 -0.18638834844E+02  0.68278624615E+02  0.72436316413E+02  0.00000000000E+00 0. -1.
         11    1    4    4    0    0 -0.49908896445E+02  0.43028816578E+02  0.98055083570E+01  0.66622256000E+02  0.00000000000E+00 0.  1.
        -13    1    3    3    0    0  0.59738097173E+02  0.26167714034E+02  0.16157349680E+03  0.17423944553E+03  0.00000000000E+00 0.  1.
         13    1    3    3    0    0  0.31033490262E+02 -0.57410255351E+02  0.23182152258E+03  0.24083237588E+03  0.00000000000E+00 0. -1.
          1    1    1    2  501    0 -0.25447010928E+02  0.68525595836E+01  0.19386019570E+01  0.26424725458E+02  0.00000000000E+00 0. -1.
<scales pt_clust_5="13000.00000" pt_clust_6="13000.00000" pt_clust_7="13000.00000" pt_clust_8="13000.00000" pt_clust_9="26.35352"></scales>
<clustering>
<clus scale="   26.354">  2  9  1 -1</clus>
<clus scale="   91.156">  7  8 -1 -1</clus>
<clus scale="   91.531">  5  6 -1 -1</clus>
<clus scale="  127.471">  1  7  2 -1</clus>
<clus scale="   26.354">  2  5  1 -1</clus>
</clustering>
</event>
<event>
 9    1  0.1504846E-005  0.1034864E+03  0.7546771E-02  0.1273543E+00
         21   -1    0    0  501  502  0.00000000000E+00  0.00000000000E+00  0.62611786729E+02  0.62611786729E+02  0.00000000000E+00 0.  1.
         -1   -1    0    0    0  501 -0.00000000000E+00 -0.00000000000E+00 -0.53839336332E+03  0.53839336332E+03  0.00000000000E+00 0.  1.
         23    2    1    2    0    0  0.30197243712E+02 -0.35645917482E+02 -0.42569529685E+03  0.43757889876E+03  0.89868247568E+02 0.  0.
         23    2    1    2    0    0 -0.49983311677E+02  0.42151864812E+02 -0.72107921574E+02  0.13311505623E+03  0.90801732854E+02 0.  0.
        -11    1    4    4    0    0 -0.55983770520E+02  0.65964764534E+02 -0.62557822919E+02  0.10676616472E+03  0.00000000000E+00 0.  1.
         11    1    4    4    0    0  0.60004588435E+01 -0.23812899722E+02 -0.95500986555E+01  0.26348891510E+02  0.00000000000E+00 0. -1.
        -11    1    3    3    0    0  0.51921215672E+01  0.25328058366E+02 -0.51510851592E+02  0.57635375411E+02  0.00000000000E+00 0.  1.
         11    1    3    3    0    0  0.25005122144E+02 -0.60973975848E+02 -0.37418444526E+03  0.37994352335E+03  0.00000000000E+00 0. -1.
         -1    1    1    2    0  502  0.19786067965E+02 -0.65059473300E+01  0.22021641836E+02  0.30311195050E+02  0.00000000000E+00 0.  1.
<scales pt_clust_5="13000.00000" pt_clust_6="13000.00000" pt_clust_7="13000.00000" pt_clust_8="13000.00000" pt_clust_9="20.82825"></scales>
<clustering>
<clus scale="   20.828">  1  9  2 -1</clus>
<clus scale="   89.868">  7  8 -1 -1</clus>
<clus scale="   90.802">  5  6 -1 -1</clus>
<clus scale="  102.668">  2  7  1 -1</clus>
<clus scale="   20.828">  1  5  2 -1</clus>
</clustering>
</event>
<event>
 9    1  0.1504846E-005  0.1059894E+03  0.7546771E-02  0.1268519E+00
         21   -1    0    0  501  502  0.00000000000E+00  0.00000000000E+00  0.15400077329E+03  0.15400077329E+03  0.00000000000E+00 0. -1.
         -4   -1    0    0    0  501 -0.00000000000E+00 -0.00000000000E+00 -0.15901935078E+03  0.15901935078E+03  0.00000000000E+00 0.  1.
         23    2    1    2    0    0  0.40966362738E+02 -0.25670569829E+02 -0.85538363434E+02  0.13363658351E+03  0.90579820061E+02 0.  0.
         23    2    1    2    0    0 -0.59400654496E+02  0.35138750902E+02  0.21084888898E+02  0.11643930689E+03  0.91380359380E+02 0.  0.
        -13    1    4    4    0    0 -0.51812079890E+02  0.65185836798E+02  0.18799913634E+02  0.85364639601E+02  0.00000000000E+00 0. -1.
         13    1    4    4    0    0 -0.75885746062E+01 -0.30047085895E+02  0.22849752636E+01  0.31074667292E+02  0.00000000000E+00 0.  1.
        -13    1    3    3    0    0  0.18577372576E+02  0.17442411315E+02  0.92622490747E+01  0.27113571182E+02  0.00000000000E+00 0.  1.
         13    1    3    3    0    0  0.22388990163E+02 -0.43112981145E+02 -0.94800612508E+02  0.10652301233E+03  0.00000000000E+00 0. -1.
         -4    1    1    2    0  502  0.18434291758E+02 -0.94681810729E+01  0.59434897045E+02  0.62944233669E+02  0.00000000000E+00 0.  1.
<scales pt_clust_5="13000.00000" pt_clust_6="13000.00000" pt_clust_7="13000.00000" pt_clust_8="13000.00000" pt_clust_9="20.72365"></scales>
<clustering>
<clus scale="   20.724">  1  9  2 -1</clus>
<clus scale="   90.580">  7  8 -1 -1</clus>
<clus scale="   91.380">  5  6 -1 -1</clus>
<clus scale="  105.300">  2  7  1 -1</clus>
<clus scale="   20.724">  1  5  2 -1</clus>
</clustering>
</event>
<event>
 9    1  0.1504846E-005  0.1427869E+03  0.7546771E-02  0.1210033E+00
         21   -1    0    0  501  502  0.00000000000E+00  0.00000000000E+00  0.13726030691E+03  0.13726030691E+03  0.00000000000E+00 0.  1.
         -2   -1    0    0    0  501 -0.00000000000E+00 -0.00000000000E+00 -0.43728007738E+03  0.43728007738E+03  0.00000000000E+00 0.  1.
         23    2    1    2    0    0  0.68370452486E+01  0.11459785010E+03 -0.19994921991E+03  0.24836560880E+03  0.92338359608E+02 0.  0.
         23    2    1    2    0    0 -0.10423086486E+03 -0.70613785286E+02 -0.14151858104E+03  0.21155325356E+03  0.94217251346E+02 0.  0.
        -11    1    4    4    0    0 -0.47148944643E+02 -0.17737729814E+02 -0.12102552387E+03  0.13109091299E+03  0.00000000000E+00 0. -1.
         11    1    4    4    0    0 -0.57081920220E+02 -0.52876055472E+02 -0.20493057164E+02  0.80462340571E+02  0.00000000000E+00 0.  1.
        -13    1    3    3    0    0 -0.42569453564E+02  0.57289459623E+02 -0.89290682864E+02  0.11431127069E+03  0.00000000000E+00 0.  1.
         13    1    3    3    0    0  0.49406498812E+02  0.57308390481E+02 -0.11065853705E+03  0.13405433811E+03  0.00000000000E+00 0. -1.
         -2    1    1    2    0  502  0.97393819615E+02 -0.43984064818E+02  0.41448030486E+02  0.11462152192E+03  0.00000000000E+00 0.  1.
<scales pt_clust_5="13000.00000" pt_clust_6="13000.00000" pt_clust_7="13000.00000" pt_clust_8="13000.00000" pt_clust_9="106.86512"></scales>
<clustering>
<clus scale="   92.338">  7  8 -1 -1</clus>
<clus scale="   94.217">  5  6 -1 -1</clus>
<clus scale="  106.865">  1  9  2 -1</clus>
<clus scale="  141.554">  2  7  1 -1</clus>
<clus scale="  106.865">  1  5  2 -1</clus>
</clustering>
</event>
<event>
 9    1  0.1504846E-005  0.1908638E+03  0.7546771E-02  0.1191687E+00
         21   -1    0    0  501  502  0.00000000000E+00  0.00000000000E+00  0.33707538797E+03  0.33707538797E+03  0.00000000000E+00 0.  1.
         -1   -1    0    0    0  501 -0.00000000000E+00 -0.00000000000E+00 -0.35934771692E+03  0.35934771692E+03  0.00000000000E+00 0.  1.
         23    2    1    2    0    0 -0.78763001184E+01  0.16440546700E+02  0.69171482293E+02  0.11211426768E+03  0.86328369467E+02 0.  0.
         23    2    1    2    0    0 -0.74038337623E+01 -0.18113152620E+03 -0.27180898902E+03  0.33958818305E+03  0.92609724181E+02 0.  0.
        -11    1    4    4    0    0  0.33811058697E+02 -0.50006865341E+02 -0.12299673293E+03  0.13701120605E+03  0.00000000000E+00 0. -1.
         11    1    4    4    0    0 -0.41214892459E+02 -0.13112466086E+03 -0.14881225609E+03  0.20257697700E+03  0.00000000000E+00 0.  1.
        -13    1    3    3    0    0 -0.11880239346E+01 -0.32988250024E+02  0.47230579022E+02  0.57622596568E+02  0.00000000000E+00 0.  1.
         13    1    3    3    0    0 -0.66882761838E+01  0.49428796724E+02  0.21940903271E+02  0.54491671109E+02  0.00000000000E+00 0. -1.
         -1    1    1    2    0  502  0.15280133881E+02  0.16469097950E+03  0.18036517777E+03  0.24472065416E+03  0.00000000000E+00 0.  1.
<scales pt_clust_5="13000.00000" pt_clust_6="13000.00000" pt_clust_7="13000.00000" pt_clust_8="13000.00000" pt_clust_9="166.89042"></scales>
<clustering>
<clus scale="   86.328">  7  8 -1 -1</clus>
<clus scale="   88.232">  2  7  1 -1</clus>
<clus scale="   92.610">  5  6 -1 -1</clus>
<clus scale="  166.890">  1  9  2 -1</clus>
<clus scale="  166.890">  1  5  2 -1</clus>
</clustering>
</event>
<event>
 9    1  0.1504846E-005  0.1740672E+03  0.7546771E-02  0.1173840E+00
          1   -1    0    0  502    0 -0.00000000000E+00  0.00000000000E+00  0.15831687221E+03  0.15831687221E+03  0.00000000000E+00 0. -1.
         21   -1    0    0  501  502  0.00000000000E+00 -0.00000000000E+00 -0.60330502394E+03  0.60330502394E+03  0.00000000000E+00 0.  1.
         23    2    1    2    0    0  0.15276793240E+03  0.16713162388E+02  0.52411179009E+02  0.18568162545E+03  0.90074210398E+02 0.  0.
         23    2    1    2    0    0 -0.12530469885E+03 -0.59724615838E+02 -0.14704283197E+03  0.22188675700E+03  0.91344628796E+02 0.  0.
        -11    1    3    3    0    0  0.44867525513E+02  0.44161907658E+02  0.37691297864E+02  0.73375764857E+02  0.00000000000E+00 0. -1.
         11    1    3    3    0    0  0.10790040688E+03 -0.27448745270E+02  0.14719881145E+02  0.11230586059E+03  0.00000000000E+00 0.  1.
        -13    1    4    4    0    0 -0.10579826916E+03 -0.27250534050E+01 -0.97205912936E+02  0.14369999716E+03  0.00000000000E+00 0. -1.
         13    1    4    4    0    0 -0.19506429688E+02 -0.56999562433E+02 -0.49836919032E+02  0.78186759847E+02  0.00000000000E+00 0.  1.
          1    1    1    2  501    0 -0.27463233550E+02  0.43011453449E+02 -0.35035649877E+03  0.35405351369E+03  0.00000000000E+00 0. -1.
<scales pt_clust_5="13000.00000" pt_clust_6="13000.00000" pt_clust_7="13000.00000" pt_clust_8="13000.00000" pt_clust_9="51.03150"></scales>
<clustering>
<clus scale="   51.032">  2  9  1 -1</clus>
<clus scale="   90.074">  5  6 -1 -1</clus>
<clus scale="   91.345">  7  8 -1 -1</clus>
<clus scale="  173.404">  1  5  2 -1</clus>
<clus scale="   51.032">  2  5  1 -1</clus>
</clustering>
</event>
<event>
 9    1  0.1504846E-005  0.9498370E+02  0.7546771E-02  0.1291771E+00
         -3   -1    0    0    0  501 -0.00000000000E+00  0.00000000000E+00  0.44520191095E+03  0.44520191095E+03  0.00000000000E+00 0.  1.
         21   -1    0    0  501  502  0.00000000000E+00 -0.00000000000E+00 -0.14228362120E+03  0.14228362120E+03  0.00000000000E+00 0.  1.
         23    2    1    2    0    0  0.15822042026E+02  0.31489162392E+02  0.24898436025E+03  0.26704074831E+03  0.89864593966E+02 0.  0.
         23    2    1    2    0    0 -0.19191888164E+02 -0.84953646378E+01  0.17438675384E+03  0.19777060771E+03  0.90895399048E+02 0.  0.
        -11    1    4    4    0    0  0.15461766010E+02 -0.26514053537E+02  0.14674545252E+03  0.14992094276E+03  0.00000000000E+00 0. -1.
         11    1    4    4    0    0 -0.34653654174E+02  0.18018688899E+02  0.27641301321E+02  0.47849664951E+02  0.00000000000E+00 0.  1.
        -11    1    3    3    0    0  0.48929389737E+02  0.24318873714E+02  0.20106564385E+03  0.20835759150E+03  0.00000000000E+00 0. -1.
         11    1    3    3    0    0 -0.33107347711E+02  0.71702886775E+01  0.47918716399E+02  0.58683156813E+02  0.00000000000E+00 0.  1.
         -3    1    1    2    0  502  0.33698461381E+01 -0.22993797754E+02 -0.12045282434E+03  0.12267417613E+03  0.00000000000E+00 0.  1.
<scales pt_clust_5="13000.00000" pt_clust_6="13000.00000" pt_clust_7="13000.00000" pt_clust_8="13000.00000" pt_clust_9="23.23942"></scales>
<clustering>
<clus scale="   23.239">  2  9  1 -1</clus>
<clus scale="   89.865">  7  8 -1 -1</clus>
<clus scale="   90.895">  5  6 -1 -1</clus>
<clus scale="   93.998">  1  7  2 -1</clus>
<clus scale="   23.239">  2  5  1 -1</clus>
</clustering>
</event>
<event>
 9    1  0.1504846E-005  0.1100925E+03  0.7546771E-02  0.1262127E+00
         21   -1    0    0  501  502  0.00000000000E+00  0.00000000000E+00  0.63196626099E+02  0.63196626099E+02  0.00000000000E+00 0. -1.
         -1   -1    0    0    0  501 -0.00000000000E+00 -0.00000000000E+00 -0.56241875455E+03  0.56241875455E+03  0.00000000000E+00 0.  1.
         23    2    1    2    0    0 -0.53547816013E+02 -0.45244994615E+01 -0.28159915433E+03  0.30078680889E+03  0.91031758107E+02 0.  0.
         23    2    1    2    0    0  0.72267996614E+02 -0.56705500659E+01 -0.25663532378E+03  0.28037244032E+03  0.86557480344E+02 0.  0.
        -11    1    4    4    0    0  0.39908772696E+02 -0.45871600708E+02 -0.12566964032E+03  0.13960577491E+03  0.00000000000E+00 0.  1.
         11    1    4    4    0    0  0.32359223919E+02  0.40201050643E+02 -0.13096568346E+03  0.14076666541E+03  0.00000000000E+00 0. -1.
        -13    1    3    3    0    0 -0.14194011901E+02 -0.35602309575E+02 -0.20941961644E+03  0.21289802763E+03  0.00000000000E+00 0.  1.
         13    1    3    3    0    0 -0.39353804112E+02  0.31077810114E+02 -0.72179537894E+02  0.87888781253E+02  0.00000000000E+00 0. -1.
         -1    1    1    2    0  502 -0.18720180602E+02  0.10195049527E+02  0.39012349665E+02  0.44456131445E+02  0.00000000000E+00 0.  1.
<scales pt_clust_5="13000.00000" pt_clust_6="13000.00000" pt_clust_7="13000.00000" pt_clust_8="13000.00000" pt_clust_9="21.31629"></scales>
<clustering>
<clus scale="   21.316">  1  9  2 -1</clus>
<clus scale="   86.557">  5  6 -1 -1</clus>
<clus scale="   91.032">  7  8 -1 -1</clus>
<clus scale="  106.423">  1  5  2 -1</clus>
<clus scale="   21.316">  1  5  2 -1</clus>
</clustering>
</event>
<event>
 9    1  0.1504846E-005  0.1096675E+03  0.7546771E-02  0.1264769E+00
         21   -1    0    0  501  502  0.00000000000E+00  0.00000000000E+00  0.12065474600E+03  0.12065474600E+03  0.00000000000E+00 0. -1.
         -1   -1    0    0    0  501 -0.00000000000E+00 -0.00000000000E+00 -0.12574634982E+03  0.12574634982E+03  0.00000000000E+00 0.  1.
         23    2    1    2    0    0  0.30361934209E+02  0.46849658332E+02 -0.32662100263E+02  0.11861712874E+03  0.99430744250E+02 0.  0.
         23    2    1    2    0    0 -0.71173918873E+01 -0.32962449210E+02  0.26139516329E+02  0.10066919198E+03  0.91180214820E+02 0.  0.
        -11    1    4    4    0    0 -0.59305292080E+01  0.31841727371E+02  0.79663426419E+01  0.33354600788E+02  0.00000000000E+00 0.  1.
         11    1    4    4    0    0 -0.11868626794E+01 -0.64804176581E+02  0.18173173687E+02  0.67314591191E+02  0.00000000000E+00 0. -1.
        -13    1    3    3    0    0  0.62849649519E+01  0.75036803014E+02 -0.12222124466E+02  0.76285011093E+02  0.00000000000E+00 0.  1.
         13    1    3    3    0    0  0.24076969257E+02 -0.28187144682E+02 -0.20439975798E+02  0.42332117647E+02  0.00000000000E+00 0. -1.
         -1    1    1    2    0  502 -0.23244542321E+02 -0.13887209122E+02  0.14309801170E+01  0.27114775106E+02  0.00000000000E+00 0.  1.
<scales pt_clust_5="13000.00000" pt_clust_6="13000.00000" pt_clust_7="13000.00000" pt_clust_8="13000.00000" pt_clust_9="27.07699"></scales>
<clustering>
<clus scale="   27.077">  1  9  2 -1</clus>
<clus scale="   91.180">  5  6 -1 -1</clus>
<clus scale="   99.431">  7  8 -1 -1</clus>
<clus scale="  102.246">  1  5  2 -1</clus>
<clus scale="   27.077">  1  5  2 -1</clus>
</clustering>
</event>
<event>
 9    1  0.1504846E-005  0.1021645E+03  0.7546771E-02  0.1276115E+00
          1   -1    0    0  502    0 -0.00000000000E+00  0.00000000000E+00  0.43442239111E+02  0.43442239111E+02  0.00000000000E+00 0. -1.
         21   -1    0    0  501  502  0.00000000000E+00 -0.00000000000E+00 -0.30790030804E+03  0.30790030804E+03  0.00000000000E+00 0.  1.
         23    2    1    2    0    0 -0.27969167345E+02 -0.25693880918E+02 -0.89202789118E+02  0.13420209954E+03  0.92793405449E+02 0.  0.
         23    2    1    2    0    0  0.48468138207E+02  0.17241065220E+02 -0.13708013073E+03  0.17299296856E+03  0.92136801438E+02 0.  0.
        -11    1    3    3    0    0 -0.39916972093E+02  0.85923330680E+01 -0.33275495730E+01  0.40966638070E+02  0.00000000000E+00 0. -1.
         11    1    3    3    0    0  0.11947804748E+02 -0.34286213986E+02 -0.85875239545E+02  0.93235461466E+02  0.00000000000E+00 0.  1.
        -13    1    4    4    0    0  0.71388928762E+02  0.28547973193E+02 -0.11903592826E+03  0.14170715627E+03  0.00000000000E+00 0.  1.
         13    1    4    4    0    0 -0.22920790555E+02 -0.11306907973E+02 -0.18044202477E+02  0.31285812290E+02  0.00000000000E+00 0. -1.
          1    1    1    2  501    0 -0.20498970862E+02  0.84528156982E+01 -0.38175149077E+02  0.44147479053E+02  0.00000000000E+00 0. -1.
<scales pt_clust_5="13000.00000" pt_clust_6="13000.00000" pt_clust_7="13000.00000" pt_clust_8="13000.00000" pt_clust_9="22.17336"></scales>
<clustering>
<clus scale="   22.173">  2  9  1 -1</clus>
<clus scale="   92.137">  7  8 -1 -1</clus>
<clus scale="   92.793">  5  6 -1 -1</clus>
<clus scale="  101.568">  2  7  1 -1</clus>
<clus scale="   22.173">  2  5  1 -1</clus>
</clustering>
</event>
<event>
 9    1  0.1504846E-005  0.1179775E+03  0.7546771E-02  0.1246816E+00
          2   -1    0    0  502    0 -0.00000000000E+00  0.00000000000E+00  0.12361194770E+03  0.12361194770E+03  0.00000000000E+00 0. -1.
         21   -1    0    0  501  502  0.00000000000E+00 -0.00000000000E+00 -0.44530110892E+03  0.44530110892E+03  0.00000000000E+00 0. -1.
         23    2    1    2    0    0 -0.42631802268E+02  0.51163920573E+02  0.25830211412E+02  0.11554422256E+03  0.90818776765E+02 0.  0.
         23    2    1    2    0    0  0.23471136894E+02 -0.94754020700E+02 -0.34877953478E+02  0.13712227693E+03  0.89759837826E+02 0.  0.
        -11    1    3    3    0    0 -0.28180094230E+02  0.77524607708E+02  0.17116869614E+02  0.84244701533E+02  0.00000000000E+00 0. -1.
         11    1    3    3    0    0 -0.14451708038E+02 -0.26360687134E+02  0.87133417989E+01  0.31299521030E+02  0.00000000000E+00 0.  1.
        -13    1    4    4    0    0  0.28889271503E+02  0.63286033979E+01  0.13550941221E+01  0.29605362843E+02  0.00000000000E+00 0.  1.
         13    1    4    4    0    0 -0.54181346092E+01 -0.10108262410E+03 -0.36233047600E+02  0.10751691409E+03  0.00000000000E+00 0. -1.
          2    1    1    2  501    0  0.19160665373E+02  0.43590100127E+02 -0.31264141915E+03  0.31624655713E+03  0.00000000000E+00 0. -1.
<scales pt_clust_5="13000.00000" pt_clust_6="13000.00000" pt_clust_7="13000.00000" pt_clust_8="13000.00000" pt_clust_9="47.61542"></scales>
<clustering>
<clus scale="   47.615">  2  9  1 -1</clus>
<clus scale="   89.760">  7  8 -1 -1</clus>
<clus scale="   90.819">  5  6 -1 -1</clus>
<clus scale="  117.164">  2  7  1 -1</clus>
<clus scale="   47.615">  2  5  1 -1</clus>
</clustering>
</event>
<event>
 9    1  0.1504846E-005  0.2726878E+03  0.7546771E-02  0.1099904E+00
         21   -1    0    0  501  502  0.00000000000E+00  0.00000000000E+00  0.26203034069E+03  0.26203034069E+03  0.00000000000E+00 0. -1.
          1   -1    0    0  502    0 -0.00000000000E+00 -0.00000000000E+00 -0.54150136794E+03  0.54150136794E+03  0.00000000000E+00 0. -1.
         23    2    1    2    0    0 -0.13907146768E+03 -0.23584395087E+03 -0.33098722579E+03  0.43978519208E+03  0.94314523024E+02 0.  0.
         23    2    1    2    0    0  0.13323752082E+03  0.18039582387E+03 -0.50686694592E+02  0.24732503621E+03  0.91135296680E+02 0.  0.
        -11    1    4    4    0    0  0.17145085652E+02  0.69363604873E+02 -0.49065249923E+02  0.86675615908E+02  0.00000000000E+00 0.  1.
         11    1    4    4    0    0  0.11609243517E+03  0.11103221900E+03 -0.16214446682E+01  0.16064942030E+03  0.00000000000E+00 0. -1.
        -13    1    3    3    0    0 -0.14710093999E+03 -0.17681993564E+03 -0.26166363543E+03  0.34838460686E+03  0.00000000000E+00 0. -1.
         13    1    3    3    0    0  0.80294723135E+01 -0.59024015229E+02 -0.69323590352E+02  0.91400585221E+02  0.00000000000E+00 0.  1.
          1    1    1    2  501    0  0.58339468534E+01  0.55448127001E+02  0.10220289313E+03  0.11642148035E+03  0.00000000000E+00 0. -1.
<scales pt_clust_5="13000.00000" pt_clust_6="13000.00000" pt_clust_7="13000.00000" pt_clust_8="13000.00000" pt_clust_9="55.75419"></scales>
<clustering>
<clus scale="   55.754">  1  9  2 -1</clus>
<clus scale="   91.135">  5  6 -1 -1</clus>
<clus scale="   94.315">  7  8 -1 -1</clus>
<clus scale="  271.605">  1  5  2 -1</clus>
<clus scale="   55.754">  1  5  2 -1</clus>
</clustering>
</event>
<event>
 9    1  0.1504846E-005  0.2213866E+03  0.7546771E-02  0.1147152E+00
          1   -1    0    0  502    0 -0.00000000000E+00  0.00000000000E+00  0.39359795017E+03  0.39359795017E+03  0.00000000000E+00 0. -1.
         21   -1    0    0  501  502  0.00000000000E+00 -0.00000000000E+00 -0.85803532404E+03  0.85803532404E+03  0.00000000000E+00 0.  1.
         23    2    1    2    0    0  0.75183102592E+02  0.10331742099E+03  0.31329524955E+03  0.35034567582E+03  0.90891092954E+02 0.  0.
         23    2    1    2    0    0 -0.84996262572E+02  0.13010920262E+03 -0.16343817790E+03  0.24406468908E+03  0.93288612393E+02 0.  0.
        -11    1    3    3    0    0  0.40554350105E+02  0.79794272823E+01  0.16890669939E+03  0.17389019429E+03  0.00000000000E+00 0.  1.
         11    1    3    3    0    0  0.34628752487E+02  0.95337993712E+02  0.14438855017E+03  0.17645548153E+03  0.00000000000E+00 0. -1.
        -11    1    4    4    0    0  0.10441296440E+02  0.60805158485E+02 -0.41113555295E+02  0.74139142150E+02  0.00000000000E+00 0. -1.
         11    1    4    4    0    0 -0.95437559012E+02  0.69304044135E+02 -0.12232462260E+03  0.16992554693E+03  0.00000000000E+00 0.  1.
          1    1    1    2  501    0  0.98131599796E+01 -0.23342662361E+03 -0.61429444553E+03  0.65722290931E+03  0.00000000000E+00 0. -1.
<scales pt_clust_5="13000.00000" pt_clust_6="13000.00000" pt_clust_7="13000.00000" pt_clust_8="13000.00000" pt_clust_9="200.77168"></scales>
<clustering>
<clus scale="   90.891">  5  6 -1 -1</clus>
<clus scale="   93.289">  7  8 -1 -1</clus>
<clus scale="  156.806">  1  5  2 -1</clus>
<clus scale="  200.772">  2  9  1 -1</clus>
<clus scale="  200.772">  2  5  1 -1</clus>
</clustering>
</event>
<event>
 9    1  0.1504846E-005  0.9417851E+02  0.7546771E-02  0.1293053E+00
         21   -1    0    0  501  502  0.00000000000E+00  0.00000000000E+00  0.44105887464E+02  0.44105887464E+02  0.00000000000E+00 0. -1.
          1   -1    0    0  502    0 -0.00000000000E+00 -0.00000000000E+00 -0.63665925663E+03  0.63665925663E+03  0.00000000000E+00 0. -1.
         23    2    1    2    0    0 -0.70372272770E+01 -0.41805201994E+02 -0.38743743758E+03  0.40040851174E+03  0.91771513859E+02 0.  0.
         23    2    1    2    0    0 -0.29704345709E+02 -0.35717990122E+02 -0.13388178468E+03  0.16884837173E+03  0.91800421540E+02 0.  0.
        -11    1    4    4    0    0  0.21703031615E+02 -0.33061084170E+02 -0.20987054148E+02  0.44771791449E+02  0.00000000000E+00 0.  1.
         11    1    4    4    0    0 -0.51407377324E+02 -0.26569059523E+01 -0.11289473053E+03  0.12407658028E+03  0.00000000000E+00 0. -1.
        -13    1    3    3    0    0 -0.36834771158E+01 -0.64874494483E+02 -0.35229277335E+03  0.35823521071E+03  0.00000000000E+00 0. -1.
         13    1    3    3    0    0 -0.33537501612E+01  0.23069292489E+02 -0.35144664226E+02  0.42173301028E+02  0.00000000000E+00 0.  1.
          1    1    1    2  501    0  0.36741572986E+02  0.77523192116E+02 -0.71234146908E+02  0.11150826062E+03  0.00000000000E+00 0. -1.
<scales pt_clust_5="13000.00000" pt_clust_6="13000.00000" pt_clust_7="13000.00000" pt_clust_8="13000.00000" pt_clust_9="85.78921"></scales>
<clustering>
<clus scale="   85.789">  1  9  2 -1</clus>
<clus scale="   91.772">  7  8 -1 -1</clus>
<clus scale="   91.800">  5  6 -1 -1</clus>
<clus scale="   94.150">  2  7  1 -1</clus>
<clus scale="   85.789">  1  5  2 -1</clus>
</clustering>
</event>
<event>
 9    1  0.3084104E-005  0.9163017E+02  0.7546771E-02  0.1300523E+00
          1   -1    0    0  502    0 -0.00000000000E+00  0.00000000000E+00  0.45395065071E+03  0.45395065071E+03  0.00000000000E+00 0. -1.
         21   -1    0    0  501  502  0.00000000000E+00 -0.00000000000E+00 -0.57179666759E+03  0.57179666759E+03  0.00000000000E+00 0. -1.
         23    2    1    2    0    0  0.97641722249E+01  0.14051861139E+02  0.33709470969E+03  0.34934545979E+03  0.90092247788E+02 0.  0.
         23    2    1    2    0    0  0.55392419317E+02 -0.27157862792E+02  0.82346323801E+02  0.13501980931E+03  0.87427468408E+02 0.  0.
        -11    1    4    4    0    0  0.21059398424E+01  0.23945418988E+02  0.47805417302E+02  0.53508653473E+02  0.00000000000E+00 0. -1.
         11    1    4    4    0    0  0.53286479475E+02 -0.51103281779E+02  0.34540906500E+02  0.81511155833E+02  0.00000000000E+00 0.  1.
        -11    1    3    3    0    0  0.46928193174E+02  0.10468402757E+02  0.25005664648E+03  0.25463732881E+03  0.00000000000E+00 0.  1.
         11    1    3    3    0    0 -0.37164020949E+02  0.35834583821E+01  0.87038063210E+02  0.94708130983E+02  0.00000000000E+00 0. -1.
          1    1    1    2  501    0 -0.65156591542E+02  0.13106001652E+02 -0.53728705038E+03  0.54138204921E+03  0.00000000000E+00 0. -1.
<scales pt_clust_5="13000.00000" pt_clust_6="13000.00000" pt_clust_7="13000.00000" pt_clust_8="13000.00000" pt_clust_9="66.46163"></scales>
<clustering>
<clus scale="   66.462">  2  9  1 -1</clus>
<clus scale="   87.427">  5  6 -1 -1</clus>
<clus scale="   89.011">  2  5  1 -1</clus>
<clus scale="   90.092">  7  8 -1 -1</clus>
<clus scale="   66.462">  2  5  1 -1</clus>
</clustering>
</event>
<event>
 9    1  0.1504846E-005  0.1267681E+03  0.7546771E-02  0.1234800E+00
          2   -1    0    0  502    0 -0.00000000000E+00  0.00000000000E+00  0.71130663422E+03  0.71130663422E+03  0.00000000000E+00 0. -1.
         21   -1    0    0  501  502  0.00000000000E+00 -0.00000000000E+00 -0.42334625732E+02  0.42334625732E+02  0.00000000000E+00 0.  1.
         23    2    1    2    0    0  0.45391158781E+02  0.86419969906E+02  0.40789857450E+03  0.42930694692E+03  0.91621171687E+02 0.  0.
         23    2    1    2    0    0 -0.44125940585E+02 -0.14339249695E+02  0.10337343496E+03  0.15093730989E+03  0.99716055618E+02 0.  0.
        -11    1    3    3    0    0  0.43619169204E+02  0.17769357765E+02  0.28191195022E+03  0.28581940045E+03  0.00000000000E+00 0.  1.
         11    1    3    3    0    0  0.17719895776E+01  0.68650612141E+02  0.12598662428E+03  0.14348754647E+03  0.00000000000E+00 0. -1.
        -13    1    4    4    0    0 -0.72050928067E+02  0.34796815369E+01  0.48780293724E+02  0.87080201393E+02  0.00000000000E+00 0.  1.
         13    1    4    4    0    0  0.27924987481E+02 -0.17818931231E+02  0.54593141233E+02  0.63857108498E+02  0.00000000000E+00 0. -1.
          2    1    1    2  501    0 -0.12652181959E+01 -0.72080720212E+02  0.15769999903E+03  0.17339700314E+03  0.00000000000E+00 0. -1.
<scales pt_clust_5="13000.00000" pt_clust_6="13000.00000" pt_clust_7="13000.00000" pt_clust_8="13000.00000" pt_clust_9="72.09186"></scales>
<clustering>
<clus scale="   72.092">  2  9  1 -1</clus>
<clus scale="   91.621">  5  6 -1 -1</clus>
<clus scale="   99.716">  7  8 -1 -1</clus>
<clus scale="  120.504">  1  5  2 -1</clus>
<clus scale="   72.092">  2  5  1 -1</clus>
</clustering>
</event>
<event>
 9    1  0.1504846E-005  0.1024470E+03  0.7546771E-02  0.1277148E+00
         21   -1    0    0  501  502  0.00000000000E+00  0.00000000000E+00  0.13838136002E+03  0.13838136002E+03  0.00000000000E+00 0. -1.
          1   -1    0    0  502    0 -0.00000000000E+00 -0.00000000000E+00 -0.38525937113E+03  0.38525937113E+03  0.00000000000E+00 0. -1.
         23    2    1    2    0    0  0.21128231611E+02  0.11511943677E+02 -0.26391439664E+03  0.28214589955E+03  0.96832705528E+02 0.  0.
         23    2    1    2    0    0 -0.36133716338E+02 -0.67603391868E+02 -0.68150689701E+02  0.13840141319E+03  0.92922390290E+02 0.  0.
        -11    1    3    3    0    0  0.10619017772E+02 -0.42917330854E+02 -0.12431905899E+03  0.13194653938E+03  0.00000000000E+00 0.  1.
         11    1    3    3    0    0  0.10509213839E+02  0.54429274532E+02 -0.13959533766E+03  0.15019936018E+03  0.00000000000E+00 0. -1.
        -13    1    4    4    0    0  0.67080542168E+01 -0.35485889539E+02  0.15323164822E+02  0.39230673304E+02  0.00000000000E+00 0.  1.
         13    1    4    4    0    0 -0.42841770555E+02 -0.32117502329E+02 -0.83473854523E+02  0.99170739884E+02  0.00000000000E+00 0. -1.
          1    1    1    2  501    0  0.15005484727E+02  0.56091448191E+02  0.85187075232E+02  0.10309341841E+03  0.00000000000E+00 0. -1.
<scales pt_clust_5="13000.00000" pt_clust_6="13000.00000" pt_clust_7="13000.00000" pt_clust_8="13000.00000" pt_clust_9="58.06389"></scales>
<clustering>
<clus scale="   58.064">  1  9  2 -1</clus>
<clus scale="   92.922">  7  8 -1 -1</clus>
<clus scale="   96.833">  5  6 -1 -1</clus>
<clus scale="   98.759">  1  7  2 -1</clus>
<clus scale="   58.064">  1  5  2 -1</clus>
</clustering>
</event>
<event>
 9    1  0.1504846E-005  0.9899500E+02  0.7546771E-02  0.1283449E+00
         -1   -1    0    0    0  501 -0.00000000000E+00  0.00000000000E+00  0.12212272476E+03  0.12212272476E+03  0.00000000000E+00 0.  1.
         21   -1    0    0  501  502  0.00000000000E+00 -0.00000000000E+00 -0.20054512683E+03  0.20054512683E+03  0.00000000000E+00 0. -1.
         23    2    1    2    0    0  0.25888493565E+02  0.17675157551E+01  0.65848303259E+02  0.11633896720E+03  0.92333190334E+02 0.  0.
         23    2    1    2    0    0 -0.43673241993E+02 -0.31921153055E+02 -0.87249669371E+02  0.13941896239E+03  0.94333611134E+02 0.  0.
        -11    1    4    4    0    0 -0.62453110923E+01 -0.58594639900E+02 -0.30372500677E+02  0.66293472779E+02  0.00000000000E+00 0.  1.
         11    1    4    4    0    0 -0.37427930901E+02  0.26673486846E+02 -0.56877168693E+02  0.73125489609E+02  0.00000000000E+00 0. -1.
        -13    1    3    3    0    0  0.50827927070E+02  0.29158054788E+02  0.36058903118E+02  0.68803450664E+02  0.00000000000E+00 0.  1.
         13    1    3    3    0    0 -0.24939433505E+02 -0.27390539033E+02  0.29789400141E+02  0.47535516541E+02  0.00000000000E+00 0. -1.
         -1    1    1    2    0  502  0.17784748429E+02  0.30153637300E+02 -0.57021035960E+02  0.66909921992E+02  0.00000000000E+00 0.  1.
<scales pt_clust_5="13000.00000" pt_clust_6="13000.00000" pt_clust_7="13000.00000" pt_clust_8="13000.00000" pt_clust_9="35.00770"></scales>
<clustering>
<clus scale="   35.008">  2  9  1 -1</clus>
<clus scale="   92.333">  7  8 -1 -1</clus>
<clus scale="   94.334">  5  6 -1 -1</clus>
<clus scale="   97.091">  1  7  2 -1</clus>
<clus scale="   35.008">  2  5  1 -1</clus>
</clustering>
</event>
<event>
 9    1  0.1504846E-005  0.2558024E+03  0.7546771E-02  0.1111779E+00
          2   -1    0    0  502    0 -0.00000000000E+00  0.00000000000E+00  0.76526090526E+03  0.76526090526E+03  0.00000000000E+00 0.  1.
         21   -1    0    0  501  502  0.00000000000E+00 -0.00000000000E+00 -0.11031787094E+03  0.11031787094E+03  0.00000000000E+00 0. -1.
         23    2    1    2    0    0  0.21454023148E+03  0.22352075776E+02  0.41249053051E+03  0.48056107726E+03  0.11942941430E+03 0.  0.
         23    2    1    2    0    0 -0.23931875758E+03 -0.46232848994E+02  0.24979156415E+03  0.35983064889E+03  0.87586107928E+02 0.  0.
        -11    1    3    3    0    0  0.88269199567E+02 -0.47530090133E+02  0.13973391759E+03  0.17197711704E+03  0.00000000000E+00 0. -1.
         11    1    3    3    0    0  0.12627103191E+03  0.69882165908E+02  0.27275661292E+03  0.30858396022E+03  0.00000000000E+00 0.  1.
        -11    1    4    4    0    0 -0.91866354099E+02 -0.53938002239E+02  0.71329980914E+02  0.12820569909E+03  0.00000000000E+00 0. -1.
         11    1    4    4    0    0 -0.14745240348E+03  0.77051532453E+01  0.17846158324E+03  0.23162494980E+03  0.00000000000E+00 0.  1.
          2    1    1    2  501    0  0.24778526098E+02  0.23880773218E+02 -0.73390603459E+01  0.35187050059E+02  0.00000000000E+00 0.  1.
<scales pt_clust_5="13000.00000" pt_clust_6="13000.00000" pt_clust_7="13000.00000" pt_clust_8="13000.00000" pt_clust_9="34.41318"></scales>
<clustering>
<clus scale="   34.413">  2  9  1 -1</clus>
<clus scale="   87.586">  7  8 -1 -1</clus>
<clus scale="  119.429">  5  6 -1 -1</clus>
<clus scale="  242.575">  2  7  1 -1</clus>
<clus scale="   34.413">  2  5  1 -1</clus>
</clustering>
</event>
<event>
 9    1  0.1504846E-005  0.1154753E+03  0.7546771E-02  0.1250900E+00
         21   -1    0    0  501  502  0.00000000000E+00  0.00000000000E+00  0.28069810999E+03  0.28069810999E+03  0.00000000000E+00 0. -1.
          2   -1    0    0  502    0 -0.00000000000E+00 -0.00000000000E+00 -0.16831272663E+03  0.16831272663E+03  0.00000000000E+00 0. -1.
         23    2    1    2    0    0 -0.39767555227E+02 -0.13795603046E+02 -0.20757576770E+02  0.10205199298E+03  0.90619838693E+02 0.  0.
         23    2    1    2    0    0  0.12139887307E+03 -0.36129171578E+02 -0.29492324041E+02  0.15826228610E+03  0.90189526017E+02 0.  0.
        -13    1    3    3    0    0 -0.10298769303E+02  0.38372016331E+02 -0.45957359578E+01  0.39994963126E+02  0.00000000000E+00 0. -1.
         13    1    3    3    0    0 -0.29468785924E+02 -0.52167619377E+02 -0.16161840812E+02  0.62057029849E+02  0.00000000000E+00 0.  1.
        -13    1    4    4    0    0  0.55681943567E+02 -0.48171169575E+02 -0.49262499501E+02  0.88587438583E+02  0.00000000000E+00 0. -1.
         13    1    4    4    0    0  0.65716929503E+02  0.12041997997E+02  0.19770175459E+02  0.69674847519E+02  0.00000000000E+00 0.  1.
          2    1    1    2  501    0 -0.81631317843E+02  0.49924774624E+02  0.16263528417E+03  0.18869655755E+03  0.00000000000E+00 0. -1.
<scales pt_clust_5="13000.00000" pt_clust_6="13000.00000" pt_clust_7="13000.00000" pt_clust_8="13000.00000" pt_clust_9="95.68780"></scales>
<clustering>
<clus scale="   90.190">  7  8 -1 -1</clus>
<clus scale="   90.620">  5  6 -1 -1</clus>
<clus scale="   95.688">  1  9  2 -1</clus>
<clus scale="  115.138">  1  7  2 -1</clus>
<clus scale="   95.688">  1  5  2 -1</clus>
</clustering>
</event>
<event>
 9    1  0.1504846E-005  0.1055026E+03  0.7546771E-02  0.1269938E+00
          2   -1    0    0  502    0 -0.00000000000E+00  0.00000000000E+00  0.25701065381E+03  0.25701065381E+03  0.00000000000E+00 0. -1.
         21   -1    0    0  501  502  0.00000000000E+00 -0.00000000000E+00 -0.74181683234E+02  0.74181683234E+02  0.00000000000E+00 0.  1.
         23    2    1    2    0    0  0.47960566185E+02  0.20407492035E+02  0.12641750555E+03  0.16378503620E+03  0.90152486019E+02 0.  0.
         23    2    1    2    0    0 -0.54404384746E+02  0.48367230342E+01  0.78926479247E+02  0.13297302928E+03  0.92028291415E+02 0.  0.
        -13    1    3    3    0    0  0.21053452317E+02  0.34005322745E+01 -0.10106127329E+02  0.23599688215E+02  0.00000000000E+00 0.  1.
         13    1    3    3    0    0  0.26907113867E+02  0.17006959761E+02  0.13652363288E+03  0.14018534799E+03  0.00000000000E+00 0. -1.
        -13    1    4    4    0    0 -0.19645686977E+02  0.29369330440E+02 -0.79688559372E+01  0.36221723485E+02  0.00000000000E+00 0.  1.
         13    1    4    4    0    0 -0.34758697769E+02 -0.24532607405E+02  0.86895335184E+02  0.96751305797E+02  0.00000000000E+00 0. -1.
          2    1    1    2  501    0  0.64438185618E+01 -0.25244215070E+02 -0.22515014221E+02  0.34434271555E+02  0.00000000000E+00 0. -1.
<scales pt_clust_5="13000.00000" pt_clust_6="13000.00000" pt_clust_7="13000.00000" pt_clust_8="13000.00000" pt_clust_9="26.05366"></scales>
<clustering>
<clus scale="   26.054">  2  9  1 -1</clus>
<clus scale="   90.152">  5  6 -1 -1</clus>
<clus scale="   92.028">  7  8 -1 -1</clus>
<clus scale="  103.870">  1  5  2 -1</clus>
<clus scale="   26.054">  2  5  1 -1</clus>
</clustering>
</event>
<event>
 9    1  0.1504846E-005  0.1000095E+03  0.7546771E-02  0.1280605E+00
         21   -1    0    0  501  502  0.00000000000E+00  0.00000000000E+00  0.95028459235E+02  0.95028459235E+02  0.00000000000E+00 0.  1.
          1   -1    0    0  502    0 -0.00000000000E+00 -0.00000000000E+00 -0.19165065687E+03  0.19165065687E+03  0.00000000000E+00 0. -1.
         23    2    1    2    0    0  0.94822388450E+01 -0.47372736882E+02 -0.12140541343E+03  0.15835316736E+03  0.89455922929E+02 0.  0.
         23    2    1    2    0    0 -0.17695023900E+02  0.26795056273E+02  0.83429832806E+00  0.95700170212E+02  0.90148419917E+02 0.  0.
        -11    1    4    4    0    0  0.29312116664E+02  0.22323027563E+02  0.23107729658E+02  0.43491205005E+02  0.00000000000E+00 0.  1.
         11    1    4    4    0    0 -0.47007140564E+02  0.44720287097E+01 -0.22273431330E+02  0.52208965207E+02  0.00000000000E+00 0. -1.
        -11    1    3    3    0    0 -0.19173133502E+02 -0.17232813477E+02 -0.11302718856E+03  0.11592982473E+03  0.00000000000E+00 0. -1.
         11    1    3    3    0    0  0.28655372347E+02 -0.30139923405E+02 -0.83782248727E+01  0.42423342622E+02  0.00000000000E+00 0.  1.
          1    1    1    2  501    0  0.82127850552E+01  0.20577680609E+02  0.23948917467E+02  0.32625778542E+02  0.00000000000E+00 0. -1.
<scales pt_clust_5="13000.00000" pt_clust_6="13000.00000" pt_clust_7="13000.00000" pt_clust_8="13000.00000" pt_clust_9="22.15606"></scales>
<clustering>
<clus scale="   22.156">  1  9  2 -1</clus>
<clus scale="   89.456">  7  8 -1 -1</clus>
<clus scale="   90.148">  5  6 -1 -1</clus>
<clus scale="   99.386">  2  7  1 -1</clus>
<clus scale="   22.156">  1  5  2 -1</clus>
</clustering>
</event>
<event>
 9    1  0.1504846E-005  0.9424835E+02  0.7546771E-02  0.1293301E+00
          1   -1    0    0  502    0 -0.00000000000E+00  0.00000000000E+00  0.49063698945E+03  0.49063698945E+03  0.00000000000E+00 0. -1.
         21   -1    0    0  501  502  0.00000000000E+00 -0.00000000000E+00 -0.62777537528E+02  0.62777537528E+02  0.00000000000E+00 0.  1.
         23    2    1    2    0    0  0.15704820926E+01  0.15026189460E+02  0.40920372830E+03  0.42001286603E+03  0.93460492152E+02 0.  0.
         23    2    1    2    0    0  0.85849133100E+01  0.38734222012E+01  0.41542329161E+02  0.10203090881E+03  0.92713737413E+02 0.  0.
        -11    1    4    4    0    0  0.41879948374E+02  0.25952800362E+02  0.81005924624E+01  0.49930927496E+02  0.00000000000E+00 0. -1.
         11    1    4    4    0    0 -0.33295035064E+02 -0.22079378160E+02  0.33441736698E+02  0.52099981317E+02  0.00000000000E+00 0.  1.
        -11    1    3    3    0    0 -0.10338087366E+02  0.53395539063E+02  0.22519597086E+03  0.23167042308E+03  0.00000000000E+00 0.  1.
         11    1    3    3    0    0  0.11908569459E+02 -0.38369349604E+02  0.18400775744E+03  0.18834244295E+03  0.00000000000E+00 0. -1.
          1    1    1    2  501    0 -0.10155395403E+02 -0.18899611661E+02 -0.22886605535E+02  0.31370752137E+02  0.00000000000E+00 0. -1.
<scales pt_clust_5="13000.00000" pt_clust_6="13000.00000" pt_clust_7="13000.00000" pt_clust_8="13000.00000" pt_clust_9="21.45524"></scales>
<clustering>
<clus scale="   21.455">  2  9  1 -1</clus>
<clus scale="   92.714">  5  6 -1 -1</clus>
<clus scale="   93.460">  7  8 -1 -1</clus>
<clus scale="   93.508">  2  5  1 -1</clus>
<clus scale="   21.455">  2  5  1 -1</clus>
</clustering>
</event>
<event>
 9    1  0.1504846E-005  0.1004169E+03  0.7546771E-02  0.1279578E+00
         21   -1    0    0  501  502  0.00000000000E+00  0.00000000000E+00  0.71712228485E+03  0.71712228485E+03  0.00000000000E+00 0. -1.
          1   -1    0    0  502    0 -0.00000000000E+00 -0.00000000000E+00 -0.14655136502E+03  0.14655136502E+03  0.00000000000E+00 0. -1.
         23    2    1    2    0    0  0.18262990976E+02 -0.39438236730E+02 -0.12075401175E+03  0.15757260812E+03  0.91425839450E+02 0.  0.
         23    2    1    2    0    0 -0.17699469860E+02 -0.45898059213E+01  0.35718312752E+03  0.36907058123E+03  0.91098681624E+02 0.  0.
        -11    1    3    3    0    0  0.88840195318E+01 -0.68000515336E+02 -0.66387656006E+02  0.95447979335E+02  0.00000000000E+00 0. -1.
         11    1    3    3    0    0  0.93789714440E+01  0.28562278606E+02 -0.54366355742E+02  0.62124628781E+02  0.00000000000E+00 0.  1.
        -11    1    4    4    0    0  0.20851957849E+02  0.32871368185E+02  0.13724925831E+03  0.14266285395E+03  0.00000000000E+00 0.  1.
         11    1    4    4    0    0 -0.38551427708E+02 -0.37461174106E+02  0.21993386922E+03  0.22640772728E+03  0.00000000000E+00 0. -1.
          1    1    1    2  501    0 -0.56352111600E+00  0.44028042652E+02  0.33414180406E+03  0.33703046052E+03  0.00000000000E+00 0. -1.
<scales pt_clust_5="13000.00000" pt_clust_6="13000.00000" pt_clust_7="13000.00000" pt_clust_8="13000.00000" pt_clust_9="44.03165"></scales>
<clustering>
<clus scale="   44.032">  1  9  2 -1</clus>
<clus scale="   91.099">  7  8 -1 -1</clus>
<clus scale="   91.426">  5  6 -1 -1</clus>
<clus scale="  100.119">  1  7  2 -1</clus>
<clus scale="   44.032">  1  5  2 -1</clus>
</clustering>
</event>
<event>
 9    1  0.1504846E-005  0.1047797E+03  0.7546771E-02  0.1270623E+00
         21   -1    0    0  501  502  0.00000000000E+00  0.00000000000E+00  0.36986178825E+02  0.36986178825E+02  0.00000000000E+00 0.  1.
          1   -1    0    0  502    0 -0.00000000000E+00 -0.00000000000E+00 -0.50260225844E+03  0.50260225844E+03  0.00000000000E+00 0. -1.
         23    2    1    2    0    0  0.82053133984E+01 -0.47485027414E+02 -0.32765028617E+03  0.34327387225E+03  0.90333196262E+02 0.  0.
         23    2    1    2    0    0 -0.24954973241E+02  0.60967753671E+02 -0.13374165045E+03  0.17440159177E+03  0.90494577024E+02 0.  0.
        -11    1    4    4    0    0  0.22469606271E+02 -0.98065551935E+01 -0.45870497765E+02  0.52011097815E+02  0.00000000000E+00 0. -1.
         11    1    4    4    0    0 -0.47424579512E+02  0.70774308864E+02 -0.87871152686E+02  0.12239049396E+03  0.00000000000E+00 0.  1.
        -13    1    3    3    0    0 -0.24950265066E+02  0.16591378563E+02 -0.10792991157E+03  0.11201185375E+03  0.00000000000E+00 0.  1.
         13    1    3    3    0    0  0.33155578464E+02 -0.64076405977E+02 -0.21972037461E+03  0.23126201851E+03  0.00000000000E+00 0. -1.
          1    1    1    2  501    0  0.16749659842E+02 -0.13482726257E+02 -0.42241429933E+01  0.21912973239E+02  0.00000000000E+00 0. -1.
<scales pt_clust_5="13000.00000" pt_clust_6="13000.00000" pt_clust_7="13000.00000" pt_clust_8="13000.00000" pt_clust_9="21.50198"></scales>
<clustering>
<clus scale="   21.502">  1  9  2 -1</clus>
<clus scale="   90.333">  7  8 -1 -1</clus>
<clus scale="   90.495">  5  6 -1 -1</clus>
<clus scale="  104.640">  2  7  1 -1</clus>
<clus scale="   21.502">  1  5  2 -1</clus>
</clustering>
</event>
<event>
 9    1  0.1504846E-005  0.1101039E+03  0.7546771E-02  0.1268242E+00
         -3   -1    0    0    0  501 -0.00000000000E+00  0.00000000000E+00  0.23444702328E+03  0.23444702328E+03  0.00000000000E+00 0.  1.
         21   -1    0    0  501  502  0.00000000000E+00 -0.00000000000E+00 -0.20782717764E+03  0.20782717764E+03  0.00000000000E+00 0.  1.
         23    2    1    2    0    0 -0.32274103509E+02  0.20182249782E+02  0.14887146507E+03  0.18708277148E+03  0.10671602180E+03 0.  0.
         23    2    1    2    0    0  0.14170737287E+02  0.10896164184E+02  0.31379325395E+02  0.97406554072E+02  0.90464570550E+02 0.  0.
        -11    1    3    3    0    0  0.25630026514E+02 -0.26705531168E+02  0.34607655586E+02  0.50673202773E+02  0.00000000000E+00 0. -1.
         11    1    3    3    0    0 -0.57904130024E+02  0.46887780950E+02  0.11426380949E+03  0.13640956871E+03  0.00000000000E+00 0.  1.
        -13    1    4    4    0    0 -0.81828425770E+01  0.47865854859E+02  0.11793130577E+02  0.49971761054E+02  0.00000000000E+00 0.  1.
         13    1    4    4    0    0  0.22353579864E+02 -0.36969690674E+02  0.19586194818E+02  0.47434793019E+02  0.00000000000E+00 0. -1.
         -3    1    1    2    0  502  0.18103366223E+02 -0.31078413966E+02 -0.15363094483E+03  0.15778487536E+03  0.00000000000E+00 0.  1.
<scales pt_clust_5="13000.00000" pt_clust_6="13000.00000" pt_clust_7="13000.00000" pt_clust_8="13000.00000" pt_clust_9="35.96665"></scales>
<clustering>
<clus scale="   35.967">  2  9  1 -1</clus>
<clus scale="   90.465">  7  8 -1 -1</clus>
<clus scale="   94.437">  2  7  1 -1</clus>
<clus scale="  106.716">  5  6 -1 -1</clus>
<clus scale="   35.967">  2  5  1 -1</clus>
</clustering>
</event>
<event>
 9    1  0.1504846E-005  0.4586182E+03  0.7546771E-02  0.1025218E+00
         21   -1    0    0  501  502  0.00000000000E+00  0.00000000000E+00  0.31140794427E+03  0.31140794427E+03  0.00000000000E+00 0. -1.
          1   -1    0    0  502    0 -0.00000000000E+00 -0.00000000000E+00 -0.82312778600E+03  0.82312778600E+03  0.00000000000E+00 0. -1.
         23    2    1    2    0    0 -0.41696721502E+03  0.66427850339E+02 -0.25226339903E+03  0.50041247362E+03  0.92203598442E+02 0.  0.
         23    2    1    2    0    0  0.46416172038E+03 -0.13289024540E+03 -0.25057692823E+03  0.55212681117E+03  0.94600732914E+02 0.  0.
        -11    1    4    4    0    0  0.10614428489E+03  0.95547086039E+01 -0.49656822429E+02  0.11757423904E+03  0.00000000000E+00 0.  1.
         11    1    4    4    0    0  0.35801743548E+03 -0.14244495401E+03 -0.20092010580E+03  0.43455257213E+03  0.00000000000E+00 0. -1.
        -13    1    3    3    0    0 -0.11130858894E+03  0.48477345077E+02 -0.10562952661E+03  0.16092623108E+03  0.00000000000E+00 0.  1.
         13    1    3    3    0    0 -0.30565862607E+03  0.17950505262E+02 -0.14663387242E+03  0.33948624254E+03  0.00000000000E+00 0. -1.
          1    1    1    2  501    0 -0.47194505357E+02  0.66462395065E+02 -0.88795144724E+01  0.81996445477E+02  0.00000000000E+00 0. -1.
<scales pt_clust_5="13000.00000" pt_clust_6="13000.00000" pt_clust_7="13000.00000" pt_clust_8="13000.00000" pt_clust_9="81.51424"></scales>
<clustering>
<clus scale="   81.514">  1  9  2 -1</clus>
<clus scale="   92.204">  7  8 -1 -1</clus>
<clus scale="   94.601">  5  6 -1 -1</clus>
<clus scale="  458.130">  2  7  1 -1</clus>
<clus scale="   81.514">  1  5  2 -1</clus>
</clustering>
</event>
<event>
 9    1  0.1504846E-005  0.1455661E+03  0.7546771E-02  0.1206695E+00
         21   -1    0    0  501  502  0.00000000000E+00  0.00000000000E+00  0.58273587364E+02  0.58273587364E+02  0.00000000000E+00 0.  1.
          1   -1    0    0  502    0 -0.00000000000E+00 -0.00000000000E+00 -0.57530047730E+03  0.57530047730E+03  0.00000000000E+00 0. -1.
         23    2    1    2    0    0 -0.93393754197E+02  0.71735651860E+02 -0.42963329196E+03  0.45524836308E+03  0.93797171923E+02 0.  0.
         23    2    1    2    0    0  0.76227014016E+02 -0.53034048372E+02 -0.77381527587E+02  0.15103672038E+03  0.90559495026E+02 0.  0.
        -11    1    3    3    0    0 -0.11240612599E+02  0.61915721833E+02 -0.13044012522E+03  0.14482587562E+03  0.00000000000E+00 0.  1.
         11    1    3    3    0    0 -0.82153141598E+02  0.98199300269E+01 -0.29919316674E+03  0.31042248746E+03  0.00000000000E+00 0. -1.
        -13    1    4    4    0    0  0.26785379517E+02 -0.79664729036E+01  0.18942322636E+02  0.33759929402E+02  0.00000000000E+00 0.  1.
         13    1    4    4    0    0  0.49441634499E+02 -0.45067575469E+02 -0.96323850223E+02  0.11727679098E+03  0.00000000000E+00 0. -1.
          1    1    1    2  501    0  0.17166740181E+02 -0.18701603488E+02 -0.10012070394E+02  0.27288981202E+02  0.00000000000E+00 0. -1.
<scales pt_clust_5="13000.00000" pt_clust_6="13000.00000" pt_clust_7="13000.00000" pt_clust_8="13000.00000" pt_clust_9="25.38596"></scales>
<clustering>
<clus scale="   25.386">  1  9  2 -1</clus>
<clus scale="   90.559">  7  8 -1 -1</clus>
<clus scale="   93.797">  5  6 -1 -1</clus>
<clus scale="  143.501">  1  7  2 -1</clus>
<clus scale="   25.386">  1  5  2 -1</clus>
</clustering>
</event>
<event>
 9    1  0.1504846E-005  0.1088638E+03  0.7546771E-02  0.1267841E+00
         21   -1    0    0  501  502  0.00000000000E+00  0.00000000000E+00  0.24837734579E+03  0.24837734579E+03  0.00000000000E+00 0.  1.
          1   -1    0    0  502    0 -0.00000000000E+00 -0.00000000000E+00 -0.15020050821E+03  0.15020050821E+03  0.00000000000E+00 0. -1.
         23    2    1    2    0    0 -0.37602096708E+02 -0.21381747957E+02 -0.26109686268E+02  0.10521324008E+03  0.92287666291E+02 0.  0.
         23    2    1    2    0    0  0.73292296403E+02  0.10381315450E+03  0.13634829293E+03  0.20273231606E+03  0.79753390091E+02 0.  0.
        -11    1    3    3    0    0 -0.86119777389E+01  0.28735344582E+02  0.15642166885E+02  0.33831399227E+02  0.00000000000E+00 0.  1.
         11    1    3    3    0    0 -0.28990118969E+02 -0.50117092539E+02 -0.41751853152E+02  0.71381840857E+02  0.00000000000E+00 0. -1.
        -13    1    4    4    0    0  0.76254071714E+02  0.76938858126E+02  0.64755550722E+02  0.12620440837E+03  0.00000000000E+00 0.  1.
         13    1    4    4    0    0 -0.29617753114E+01  0.26874296377E+02  0.71592742210E+02  0.76527907693E+02  0.00000000000E+00 0. -1.
          1    1    1    2  501    0 -0.35690199694E+02 -0.82431406546E+02 -0.12061769084E+02  0.90632297846E+02  0.00000000000E+00 0. -1.
<scales pt_clust_5="13000.00000" pt_clust_6="13000.00000" pt_clust_7="13000.00000" pt_clust_8="13000.00000" pt_clust_9="89.82614"></scales>
<clustering>
<clus scale="   79.753">  7  8 -1 -1</clus>
<clus scale="   89.826">  1  9  2 -1</clus>
<clus scale="   92.288">  5  6 -1 -1</clus>
<clus scale="   98.463">  1  7  2 -1</clus>
<clus scale="   89.826">  1  5  2 -1</clus>
</clustering>
</event>
<event>
 9    1  0.1504846E-005  0.1335284E+03  0.7546771E-02  0.1223283E+00
         21   -1    0    0  501  502  0.00000000000E+00  0.00000000000E+00  0.48812733248E+02  0.48812733248E+02  0.00000000000E+00 0. -1.
          2   -1    0    0  502    0 -0.00000000000E+00 -0.00000000000E+00 -0.92897511690E+03  0.92897511690E+03  0.00000000000E+00 0. -1.
         23    2    1    2    0    0 -0.58336572908E+02  0.95533338324E+02 -0.71276833755E+03  0.72718423700E+03  0.90710732830E+02 0.  0.
         23    2    1    2    0    0 -0.36642872929E+01 -0.40638161753E+02 -0.81773630154E+02  0.13148836348E+03  0.94537695926E+02 0.  0.
        -11    1    4    4    0    0 -0.27226478755E+02  0.22068710386E+02 -0.19926031453E+02  0.40315702312E+02  0.00000000000E+00 0.  1.
         11    1    4    4    0    0  0.23562191462E+02 -0.62706872139E+02 -0.61847598701E+02  0.91172661171E+02  0.00000000000E+00 0. -1.
        -13    1    3    3    0    0 -0.57375349439E+02  0.11411010036E+02 -0.34426504350E+03  0.34919988839E+03  0.00000000000E+00 0.  1.
         13    1    3    3    0    0 -0.96122346878E+00  0.84122328289E+02 -0.36850329406E+03  0.37798434861E+03  0.00000000000E+00 0. -1.
          2    1    1    2  501    0  0.62000860201E+02 -0.54895176571E+02 -0.85620415948E+02  0.11911524967E+03  0.00000000000E+00 0. -1.
<scales pt_clust_5="13000.00000" pt_clust_6="13000.00000" pt_clust_7="13000.00000" pt_clust_8="13000.00000" pt_clust_9="82.81055"></scales>
<clustering>
<clus scale="   82.811">  1  9  2 -1</clus>
<clus scale="   90.711">  7  8 -1 -1</clus>
<clus scale="   94.538">  5  6 -1 -1</clus>
<clus scale="  130.847">  2  7  1 -1</clus>
<clus scale="   82.811">  1  5  2 -1</clus>
</clustering>
</event>
<event>
 9    1  0.1504846E-005  0.1595559E+03  0.7546771E-02  0.1208581E+00
         21   -1    0    0  501  502  0.00000000000E+00  0.00000000000E+00  0.49088440451E+03  0.49088440451E+03  0.00000000000E+00 0. -1.
          2   -1    0    0  502    0 -0.00000000000E+00 -0.00000000000E+00 -0.24953929917E+03  0.24953929917E+03  0.00000000000E+00 0. -1.
         23    2    1    2    0    0 -0.35790042048E+02 -0.33049683771E+02  0.93865764722E+02  0.14057780662E+03  0.92618190541E+02 0.  0.
         23    2    1    2    0    0  0.13963771994E+03  0.10857758205E+03 -0.16729007379E+03  0.25989209451E+03  0.90940353227E+02 0.  0.
        -11    1    3    3    0    0 -0.60800582343E+01  0.27130828556E+02  0.35118385683E+01  0.28024667284E+02  0.00000000000E+00 0. -1.
         11    1    3    3    0    0 -0.29709983814E+02 -0.60180512327E+02  0.90353926154E+02  0.11255313933E+03  0.00000000000E+00 0.  1.
        -13    1    4    4    0    0  0.12438827148E+03  0.54973355662E+02 -0.14781147754E+03  0.20085503431E+03  0.00000000000E+00 0. -1.
         13    1    4    4    0    0  0.15249448455E+02  0.53604226384E+02 -0.19478596248E+02  0.59037060193E+02  0.00000000000E+00 0.  1.
          2    1    1    2  501    0 -0.10384767789E+03 -0.75527898275E+02  0.31476941441E+03  0.33995380255E+03  0.00000000000E+00 0. -1.
<scales pt_clust_5="13000.00000" pt_clust_6="13000.00000" pt_clust_7="13000.00000" pt_clust_8="13000.00000" pt_clust_9="131.10276"></scales>
<clustering>
<clus scale="   90.940">  7  8 -1 -1</clus>
<clus scale="   92.618">  5  6 -1 -1</clus>
<clus scale="  104.649">  2  5  1 -1</clus>
<clus scale="  131.103">  1  9  2 -1</clus>
<clus scale="  131.103">  1  5  2 -1</clus>
</clustering>
</event>
<event>
 9    1  0.1504846E-005  0.9378625E+02  0.7546771E-02  0.1294777E+00
         21   -1    0    0  501  502  0.00000000000E+00  0.00000000000E+00  0.96115722763E+02  0.96115722763E+02  0.00000000000E+00 0. -1.
          1   -1    0    0  502    0 -0.00000000000E+00 -0.00000000000E+00 -0.16089829993E+03  0.16089829993E+03  0.00000000000E+00 0. -1.
         23    2    1    2    0    0 -0.20329929412E+02 -0.61441218638E+01 -0.74263598229E+02  0.11889855233E+03  0.90392076315E+02 0.  0.
         23    2    1    2    0    0  0.15486703735E+02 -0.18889388522E+02 -0.22017167561E+02  0.97590547612E+02  0.91883144943E+02 0.  0.
        -13    1    3    3    0    0 -0.55992410905E+02 -0.10046989614E+02 -0.42955844682E+02  0.71283214515E+02  0.00000000000E+00 0. -1.
         13    1    3    3    0    0  0.35662481493E+02  0.39028677502E+01 -0.31307753547E+02  0.47615337813E+02  0.00000000000E+00 0.  1.
        -13    1    4    4    0    0  0.31225723200E+02  0.21042882539E+02  0.15368251843E+02  0.40669790504E+02  0.00000000000E+00 0.  1.
         13    1    4    4    0    0 -0.15739019465E+02 -0.39932271060E+02 -0.37385419405E+02  0.56920757109E+02  0.00000000000E+00 0. -1.
          1    1    1    2  501    0  0.48432256767E+01  0.25033510385E+02  0.31498188626E+02  0.40524922750E+02  0.00000000000E+00 0. -1.
<scales pt_clust_5="13000.00000" pt_clust_6="13000.00000" pt_clust_7="13000.00000" pt_clust_8="13000.00000" pt_clust_9="25.49772"></scales>
<clustering>
<clus scale="   25.498">  1  9  2 -1</clus>
<clus scale="   90.392">  5  6 -1 -1</clus>
<clus scale="   91.883">  7  8 -1 -1</clus>
<clus scale="   92.326">  2  5  1 -1</clus>
<clus scale="   25.498">  1  5  2 -1</clus>
</clustering>
</event>
<event>
 9    1  0.1504846E-005  0.1196601E+03  0.7546771E-02  0.1244377E+00
         21   -1    0    0  501  502  0.00000000000E+00  0.00000000000E+00  0.14084744886E+03  0.14084744886E+03  0.00000000000E+00 0.  1.
          3   -1    0    0  502    0 -0.00000000000E+00 -0.00000000000E+00 -0.14019875133E+03  0.14019875133E+03  0.00000000000E+00 0. -1.
         23    2    1    2    0    0  0.84996487564E+02 -0.39791815204E+02 -0.19869527352E+02  0.13061087749E+03  0.88637530126E+02 0.  0.
         23    2    1    2    0    0 -0.61239097562E+02  0.97094441238E+01  0.90148966279E+01  0.11041421339E+03  0.90914959070E+02 0.  0.
        -11    1    4    4    0    0 -0.61315008680E+02 -0.30100186088E+02 -0.42915604440E+01  0.68439527928E+02  0.00000000000E+00 0.  1.
         11    1    4    4    0    0  0.75911118430E-01  0.39809630212E+02  0.13306457072E+02  0.41974685465E+02  0.00000000000E+00 0. -1.
        -11    1    3    3    0    0  0.37126333784E+02 -0.61771954583E+02  0.52329519028E+01  0.72260105306E+02  0.00000000000E+00 0.  1.
         11    1    3    3    0    0  0.47870153780E+02  0.21980139379E+02 -0.25102479255E+02  0.58350772187E+02  0.00000000000E+00 0. -1.
          3    1    1    2  501    0 -0.23757390002E+02  0.30082371080E+02  0.11503328253E+02  0.40021109310E+02  0.00000000000E+00 0. -1.
<scales pt_clust_5="13000.00000" pt_clust_6="13000.00000" pt_clust_7="13000.00000" pt_clust_8="13000.00000" pt_clust_9="38.33227"></scales>
<clustering>
<clus scale="   38.332">  1  9  2 -1</clus>
<clus scale="   88.638">  7  8 -1 -1</clus>
<clus scale="   90.915">  5  6 -1 -1</clus>
<clus scale="  117.939">  2  7  1 -1</clus>
<clus scale="   38.332">  1  5  2 -1</clus>
</clustering>
</event>
<event>
 9    1  0.1504846E-005  0.2661514E+03  0.7546771E-02  0.1103944E+00
          1   -1    0    0  502    0 -0.00000000000E+00  0.00000000000E+00  0.11456779932E+04  0.11456779932E+04  0.00000000000E+00 0. -1.
         21   -1    0    0  501  502  0.00000000000E+00 -0.00000000000E+00 -0.32268695271E+03  0.32268695271E+03  0.00000000000E+00 0. -1.
         23    2    1    2    0    0  0.87405246372E+02  0.23685703769E+03  0.97972098301E+03  0.10158544667E+04  0.91466712398E+02 0.  0.
         23    2    1    2    0    0 -0.50589991117E+02 -0.23137356032E+03  0.38582946308E+02  0.25368252326E+03  0.82298889701E+02 0.  0.
        -11    1    4    4    0    0 -0.67093873542E+02 -0.19690707417E+03  0.14534427271E+02  0.20853113269E+03  0.00000000000E+00 0.  1.
         11    1    4    4    0    0  0.16503882425E+02 -0.34466486150E+02  0.24048519037E+02  0.45151390571E+02  0.00000000000E+00 0. -1.
        -11    1    3    3    0    0  0.40126762277E+02  0.16122916415E+03  0.47271485994E+03  0.50106320882E+03  0.00000000000E+00 0. -1.
         11    1    3    3    0    0  0.47278484094E+02  0.75627873538E+02  0.50700612307E+03  0.51479125783E+03  0.00000000000E+00 0.  1.
          1    1    1    2  501    0 -0.36815255254E+02 -0.54834773724E+01 -0.19531288883E+03  0.19882795599E+03  0.00000000000E+00 0. -1.
<scales pt_clust_5="13000.00000" pt_clust_6="13000.00000" pt_clust_7="13000.00000" pt_clust_8="13000.00000" pt_clust_9="37.22139"></scales>
<clustering>
<clus scale="   37.221">  2  9  1 -1</clus>
<clus scale="   82.299">  5  6 -1 -1</clus>
<clus scale="   91.467">  7  8 -1 -1</clus>
<clus scale="  263.142">  2  5  1 -1</clus>
<clus scale="   37.221">  2  5  1 -1</clus>
</clustering>
</event>
<event>
 9    1  0.1504846E-005  0.1283375E+03  0.7546771E-02  0.1230861E+00
          2   -1    0    0  502    0 -0.00000000000E+00  0.00000000000E+00  0.71920693311E+03  0.71920693311E+03  0.00000000000E+00 0. -1.
         21   -1    0    0  501  502  0.00000000000E+00 -0.00000000000E+00 -0.11271883693E+03  0.11271883693E+03  0.00000000000E+00 0. -1.
         23    2    1    2    0    0  0.27379602430E+02 -0.77648529560E+02  0.55042987347E+03  0.56384716095E+03  0.90397115717E+02 0.  0.
         23    2    1    2    0    0 -0.86117351272E+02  0.97788608544E+02  0.10258234519E+03  0.19048840421E+03  0.93722379636E+02 0.  0.
        -11    1    3    3    0    0  0.59546723640E+02 -0.36924475107E+02  0.33587646605E+03  0.34310673209E+03  0.00000000000E+00 0.  1.
         11    1    3    3    0    0 -0.32167121210E+02 -0.40724054452E+02  0.21455340742E+03  0.22074042886E+03  0.00000000000E+00 0. -1.
        -13    1    4    4    0    0 -0.10711815432E+02  0.61413005260E+02  0.59355373748E+01  0.62622127151E+02  0.00000000000E+00 0.  1.
         13    1    4    4    0    0 -0.75405535839E+02  0.36375603283E+02  0.96646807813E+02  0.12786627706E+03  0.00000000000E+00 0. -1.
          2    1    1    2  501    0  0.58737748842E+02 -0.20140078984E+02 -0.46524122484E+02  0.77590204881E+02  0.00000000000E+00 0. -1.
<scales pt_clust_5="13000.00000" pt_clust_6="13000.00000" pt_clust_7="13000.00000" pt_clust_8="13000.00000" pt_clust_9="62.09465"></scales>
<clustering>
<clus scale="   62.095">  2  9  1 -1</clus>
<clus scale="   90.397">  5  6 -1 -1</clus>
<clus scale="   93.722">  7  8 -1 -1</clus>
<clus scale="  125.930">  1  5  2 -1</clus>
<clus scale="   62.095">  2  5  1 -1</clus>
</clustering>
</event>
<event>
 9    1  0.1504846E-005  0.1035064E+03  0.7546771E-02  0.1287397E+00
          2   -1    0    0  502    0 -0.00000000000E+00  0.00000000000E+00  0.74729074737E+03  0.74729074737E+03  0.00000000000E+00 0. -1.
         21   -1    0    0  501  502  0.00000000000E+00 -0.00000000000E+00 -0.23665496067E+02  0.23665496067E+02  0.00000000000E+00 0. -1.
         23    2    1    2    0    0  0.62932699419E+01  0.66049130536E+02  0.52774047490E+03  0.53931853204E+03  0.89176102539E+02 0.  0.
         23    2    1    2    0    0  0.17096998724E+02 -0.35876595062E+02  0.17334217264E+03  0.18730199724E+03  0.58780029927E+02 0.  0.
        -11    1    4    4    0    0  0.38155950970E+02 -0.29629647462E+02  0.13054374801E+03  0.13919577130E+03  0.00000000000E+00 0. -1.
         11    1    4    4    0    0 -0.21058952246E+02 -0.62469475996E+01  0.42798424629E+02  0.48106225945E+02  0.00000000000E+00 0.  1.
        -13    1    3    3    0    0  0.46098285935E+02  0.43737719803E+02  0.35557098467E+03  0.36120460302E+03  0.00000000000E+00 0. -1.
         13    1    3    3    0    0 -0.39805015993E+02  0.22311410733E+02  0.17216949022E+03  0.17811392902E+03  0.00000000000E+00 0.  1.
          2    1    1    2  501    0 -0.23390268666E+02 -0.30172535474E+02  0.22542603774E+02  0.44335714160E+02  0.00000000000E+00 0. -1.
<scales pt_clust_5="13000.00000" pt_clust_6="13000.00000" pt_clust_7="13000.00000" pt_clust_8="13000.00000" pt_clust_9="38.17704"></scales>
<clustering>
<clus scale="   38.177">  2  9  1 -1</clus>
<clus scale="   58.780">  5  6 -1 -1</clus>
<clus scale="   78.843">  2  5  1 -1</clus>
<clus scale="   89.176">  7  8 -1 -1</clus>
<clus scale="   38.177">  2  5  1 -1</clus>
</clustering>
</event>
<event>
 9    1  0.1826496E-005  0.2354188E+03  0.7546771E-02  0.1122947E+00
         21   -1    0    0  501  502  0.00000000000E+00  0.00000000000E+00  0.11867834200E+03  0.11867834200E+03  0.00000000000E+00 0.  1.
          1   -1    0    0  502    0 -0.00000000000E+00 -0.00000000000E+00 -0.14241322919E+04  0.14241322919E+04  0.00000000000E+00 0. -1.
         23    2    1    2    0    0  0.11033082135E+03 -0.19479486837E+03 -0.12603440894E+04  0.12834720485E+04  0.93356010787E+02 0.  0.
         23    2    1    2    0    0 -0.86555468714E+02  0.13218927444E+03 -0.90255437736E+01  0.18326752850E+03  0.92410351797E+02 0.  0.
        -11    1    3    3    0    0 -0.13271371886E+02 -0.22706112263E+02 -0.78577040280E+02  0.82861620217E+02  0.00000000000E+00 0.  1.
         11    1    3    3    0    0  0.12360219324E+03 -0.17208875611E+03 -0.11817670491E+04  0.12006104283E+04  0.00000000000E+00 0. -1.
        -13    1    4    4    0    0  0.50864509717E+01  0.43587334029E+02  0.26085212166E+02  0.51050621593E+02  0.00000000000E+00 0.  1.
         13    1    4    4    0    0 -0.91641919686E+02  0.88601940414E+02 -0.35110755940E+02  0.13221690691E+03  0.00000000000E+00 0. -1.
          1    1    1    2  501    0 -0.23775352636E+02  0.62605593928E+02 -0.36084316734E+02  0.76071056902E+02  0.00000000000E+00 0. -1.
<scales pt_clust_5="13000.00000" pt_clust_6="13000.00000" pt_clust_7="13000.00000" pt_clust_8="13000.00000" pt_clust_9="66.96811"></scales>
<clustering>
<clus scale="   66.968">  1  9  2 -1</clus>
<clus scale="   92.410">  7  8 -1 -1</clus>
<clus scale="   93.356">  5  6 -1 -1</clus>
<clus scale="  235.045">  1  7  2 -1</clus>
<clus scale="   66.968">  1  5  2 -1</clus>
</clustering>
</event>
<event>
 9    1  0.1504846E-005  0.1955817E+03  0.7546771E-02  0.1153656E+00
          3   -1    0    0  502    0 -0.00000000000E+00  0.00000000000E+00  0.18261818417E+03  0.18261818417E+03  0.00000000000E+00 0. -1.
         21   -1    0    0  501  502  0.00000000000E+00 -0.00000000000E+00 -0.37526066062E+03  0.37526066062E+03  0.00000000000E+00 0.  1.
         23    2    1    2    0    0 -0.16894700841E+03  0.99638035230E+02  0.96914996186E+01  0.21651092445E+03  0.91171407388E+02 0.  0.
         23    2    1    2    0    0  0.71783530298E+02 -0.12204944633E+03 -0.16396260560E+03  0.23452516252E+03  0.89829690238E+02 0.  0.
        -13    1    4    4    0    0  0.56757442851E+02 -0.86034203376E+02 -0.16605837997E+03  0.19544481837E+03  0.00000000000E+00 0.  1.
         13    1    4    4    0    0  0.15026087447E+02 -0.36015242950E+02  0.20957743661E+01  0.39080344150E+02  0.00000000000E+00 0. -1.
        -13    1    3    3    0    0 -0.14330239697E+03  0.40258110135E+02 -0.91814955988E+01  0.14913280078E+03  0.00000000000E+00 0.  1.
         13    1    3    3    0    0 -0.25644611448E+02  0.59379925095E+02  0.18872995217E+02  0.67378123669E+02  0.00000000000E+00 0. -1.
          3    1    1    2  501    0  0.97163478116E+02  0.22411411096E+02 -0.38371370461E+02  0.10684275782E+03  0.00000000000E+00 0. -1.
<scales pt_clust_5="13000.00000" pt_clust_6="13000.00000" pt_clust_7="13000.00000" pt_clust_8="13000.00000" pt_clust_9="99.71466"></scales>
<clustering>
<clus scale="   89.830">  5  6 -1 -1</clus>
<clus scale="   91.171">  7  8 -1 -1</clus>
<clus scale="   99.715">  2  9  1 -1</clus>
<clus scale="  194.960">  2  5  1 -1</clus>
<clus scale="   99.715">  2  5  1 -1</clus>
</clustering>
</event>
<event>
 9    1  0.1504846E-005  0.1156186E+03  0.7546771E-02  0.1254448E+00
          1   -1    0    0  502    0 -0.00000000000E+00  0.00000000000E+00  0.89648213220E+03  0.89648213220E+03  0.00000000000E+00 0. -1.
         21   -1    0    0  501  502  0.00000000000E+00 -0.00000000000E+00 -0.11110172332E+03  0.11110172332E+03  0.00000000000E+00 0. -1.
         23    2    1    2    0    0  0.62315124651E+02 -0.68553318454E+02  0.65468251626E+03  0.66744542449E+03  0.91057483730E+02 0.  0.
         23    2    1    2    0    0 -0.26122176409E+02  0.32450012466E+02  0.21976149245E+03  0.23744615762E+03  0.79688096939E+02 0.  0.
        -11    1    3    3    0    0  0.53734839603E+02  0.58749322553E+01  0.31436187871E+03  0.31897545141E+03  0.00000000000E+00 0.  1.
         11    1    3    3    0    0  0.85802850486E+01 -0.74428250710E+02  0.34032063755E+03  0.34846997308E+03  0.00000000000E+00 0. -1.
        -13    1    4    4    0    0  0.10401680510E+02  0.38313674055E+02  0.50748945839E+02  0.64432818352E+02  0.00000000000E+00 0.  1.
         13    1    4    4    0    0 -0.36523856919E+02 -0.58636615888E+01  0.16901254661E+03  0.17301333927E+03  0.00000000000E+00 0. -1.
          1    1    1    2  501    0 -0.36192948242E+02  0.36103305988E+02 -0.89063599826E+02  0.10269227342E+03  0.00000000000E+00 0. -1.
<scales pt_clust_5="13000.00000" pt_clust_6="13000.00000" pt_clust_7="13000.00000" pt_clust_8="13000.00000" pt_clust_9="51.12121"></scales>
<clustering>
<clus scale="   51.121">  2  9  1 -1</clus>
<clus scale="   79.688">  7  8 -1 -1</clus>
<clus scale="   91.057">  5  6 -1 -1</clus>
<clus scale="  106.894">  2  7  1 -1</clus>
<clus scale="   51.121">  2  5  1 -1</clus>
</clustering>
</event>
<event>
 9    1  0.1504846E-005  0.1287864E+03  0.7546771E-02  0.1229872E+00
         21   -1    0    0  501  502  0.00000000000E+00  0.00000000000E+00  0.26802254460E+03  0.26802254460E+03  0.00000000000E+00 0. -1.
          1   -1    0    0  502    0 -0.00000000000E+00 -0.00000000000E+00 -0.18418962514E+03  0.18418962514E+03  0.00000000000E+00 0. -1.
         23    2    1    2    0    0 -0.21192016220E+02 -0.80505674647E+02 -0.10746582380E+03  0.16406665947E+03  0.91862398530E+02 0.  0.
         23    2    1    2    0    0  0.55802799380E+02  0.95110659970E+02  0.69608545676E+02  0.16078886106E+03  0.94062309942E+02 0.  0.
        -11    1    3    3    0    0  0.31582843961E+02 -0.63061197599E+01 -0.36099064081E+02  0.48377532043E+02  0.00000000000E+00 0. -1.
         11    1    3    3    0    0 -0.52774860181E+02 -0.74199554887E+02 -0.71366759722E+02  0.11568912743E+03  0.00000000000E+00 0.  1.
        -13    1    4    4    0    0  0.65612093080E+01  0.94355150059E+02  0.55039455913E+02  0.10943164770E+03  0.00000000000E+00 0.  1.
         13    1    4    4    0    0  0.49241590072E+02  0.75550991046E+00  0.14569089763E+02  0.51357213365E+02  0.00000000000E+00 0. -1.
          1    1    1    2  501    0 -0.34610783160E+02 -0.14604985322E+02  0.12169019759E+03  0.12735664921E+03  0.00000000000E+00 0. -1.
<scales pt_clust_5="13000.00000" pt_clust_6="13000.00000" pt_clust_7="13000.00000" pt_clust_8="13000.00000" pt_clust_9="37.56610"></scales>
<clustering>
<clus scale="   37.566">  1  9  2 -1</clus>
<clus scale="   91.862">  5  6 -1 -1</clus>
<clus scale="   94.062">  7  8 -1 -1</clus>
<clus scale="  127.189">  2  5  1 -1</clus>
<clus scale="   37.566">  1  5  2 -1</clus>
</clustering>
</event>
<event>
 9    1  0.1504846E-005  0.1021683E+03  0.7546771E-02  0.1276802E+00
         21   -1    0    0  501  502  0.00000000000E+00  0.00000000000E+00  0.62255973760E+02  0.62255973760E+02  0.00000000000E+00 0. -1.
          1   -1    0    0  502    0 -0.00000000000E+00 -0.00000000000E+00 -0.31616871466E+03  0.31616871466E+03  0.00000000000E+00 0. -1.
         23    2    1    2    0    0  0.23385048344E+02 -0.14629749472E+02 -0.13604650997E+03  0.16569727216E+03  0.90476754308E+02 0.  0.
         23    2    1    2    0    0 -0.61331975687E+02  0.24571337718E+02 -0.12894939569E+03  0.17196418513E+03  0.92619503559E+02 0.  0.
        -11    1    3    3    0    0 -0.31264304141E+02  0.67856213183E+01 -0.72199504469E+02  0.78970056450E+02  0.00000000000E+00 0.  1.
         11    1    3    3    0    0  0.54649352485E+02 -0.21415370790E+02 -0.63847005497E+02  0.86727215706E+02  0.00000000000E+00 0. -1.
        -13    1    4    4    0    0 -0.81866788326E+02  0.29352723538E+02 -0.77996353824E+02  0.11682116512E+03  0.00000000000E+00 0. -1.
         13    1    4    4    0    0  0.20534812640E+02 -0.47813858193E+01 -0.50953041863E+02  0.55143020008E+02  0.00000000000E+00 0.  1.
          1    1    1    2  501    0  0.37946927343E+02 -0.99415882467E+01  0.11083164755E+02  0.40763231136E+02  0.00000000000E+00 0. -1.
<scales pt_clust_5="13000.00000" pt_clust_6="13000.00000" pt_clust_7="13000.00000" pt_clust_8="13000.00000" pt_clust_9="39.22760"></scales>
<clustering>
<clus scale="   39.228">  1  9  2 -1</clus>
<clus scale="   90.477">  5  6 -1 -1</clus>
<clus scale="   92.620">  7  8 -1 -1</clus>
<clus scale="  100.230">  2  5  1 -1</clus>
<clus scale="   39.228">  1  5  2 -1</clus>
</clustering>
</event>
<event>
 9    1  0.1504846E-005  0.1164166E+03  0.7546771E-02  0.1249578E+00
          2   -1    0    0  502    0 -0.00000000000E+00  0.00000000000E+00  0.59944099639E+03  0.59944099639E+03  0.00000000000E+00 0. -1.
         21   -1    0    0  501  502  0.00000000000E+00 -0.00000000000E+00 -0.49791784416E+02  0.49791784416E+02  0.00000000000E+00 0. -1.
         23    2    1    2    0    0 -0.51875577968E+01 -0.75455940132E+02  0.48546590638E+03  0.49990108988E+03  0.92214119047E+02 0.  0.
         23    2    1    2    0    0  0.13862088289E+02  0.47359519377E+02  0.38728658591E+02  0.11043959157E+03  0.90895064891E+02 0.  0.
        -11    1    3    3    0    0  0.24344341232E+02  0.75493415500E+01  0.56524952127E+02  0.62005723291E+02  0.00000000000E+00 0.  1.
         11    1    3    3    0    0 -0.29531899029E+02 -0.83005281682E+02  0.42894095425E+03  0.43789536659E+03  0.00000000000E+00 0. -1.
        -13    1    4    4    0    0 -0.34540942811E+02  0.19046940086E+02  0.37387905649E+02  0.54348119984E+02  0.00000000000E+00 0. -1.
         13    1    4    4    0    0  0.48403031100E+02  0.28312579291E+02  0.13407529413E+01  0.56091471582E+02  0.00000000000E+00 0.  1.
          2    1    1    2  501    0 -0.86745304922E+01  0.28096420755E+02  0.25454647008E+02  0.38892099362E+02  0.00000000000E+00 0. -1.
<scales pt_clust_5="13000.00000" pt_clust_6="13000.00000" pt_clust_7="13000.00000" pt_clust_8="13000.00000" pt_clust_9="29.40504"></scales>
<clustering>
<clus scale="   29.405">  2  9  1 -1</clus>
<clus scale="   90.895">  7  8 -1 -1</clus>
<clus scale="   92.214">  5  6 -1 -1</clus>
<clus scale="  115.375">  2  7  1 -1</clus>
<clus scale="   29.405">  2  5  1 -1</clus>
</clustering>
</event>
<event>
 9    1  0.1504846E-005  0.1027115E+03  0.7546771E-02  0.1274911E+00
         21   -1    0    0  501  502  0.00000000000E+00  0.00000000000E+00  0.13876130291E+03  0.13876130291E+03  0.00000000000E+00 0. -1.
          1   -1    0    0  502    0 -0.00000000000E+00 -0.00000000000E+00 -0.25655090759E+03  0.25655090759E+03  0.00000000000E+00 0. -1.
         23    2    1    2    0    0 -0.37448397611E+02  0.11869929545E+02 -0.15532021222E+03  0.18425528645E+03  0.91007497219E+02 0.  0.
         23    2    1    2    0    0  0.57853293772E+02 -0.80831159231E+02  0.16306842510E+02  0.13607386471E+03  0.91484991339E+02 0.  0.
        -11    1    3    3    0    0  0.26357780251E+02  0.17104931115E+02 -0.76562257928E+02  0.82759232641E+02  0.00000000000E+00 0.  1.
         11    1    3    3    0    0 -0.63806177862E+02 -0.52350015692E+01 -0.78757954287E+02  0.10149605381E+03  0.00000000000E+00 0. -1.
        -11    1    4    4    0    0  0.81741764911E+02 -0.49131022404E+02  0.12802478323E+02  0.96226175984E+02  0.00000000000E+00 0.  1.
         11    1    4    4    0    0 -0.23888471138E+02 -0.31700136827E+02  0.35043641872E+01  0.39847688722E+02  0.00000000000E+00 0. -1.
          1    1    1    2  501    0 -0.20404896162E+02  0.68961229686E+02  0.21223765027E+02  0.74983059347E+02  0.00000000000E+00 0. -1.
<scales pt_clust_5="13000.00000" pt_clust_6="13000.00000" pt_clust_7="13000.00000" pt_clust_8="13000.00000" pt_clust_9="71.91669"></scales>
<clustering>
<clus scale="   71.917">  1  9  2 -1</clus>
<clus scale="   91.007">  5  6 -1 -1</clus>
<clus scale="   91.485">  7  8 -1 -1</clus>
<clus scale="  102.286">  2  5  1 -1</clus>
<clus scale="   71.917">  1  5  2 -1</clus>
</clustering>
</event>
<event>
 9    1  0.1818910E-005  0.1358093E+03  0.7546771E-02  0.1244009E+00
         -4   -1    0    0    0  501 -0.00000000000E+00  0.00000000000E+00  0.27949920109E+03  0.27949920109E+03  0.00000000000E+00 0.  1.
         21   -1    0    0  501  502  0.00000000000E+00 -0.00000000000E+00 -0.26666669243E+03  0.26666669243E+03  0.00000000000E+00 0.  1.
         23    2    1    2    0    0  0.13953471913E+01  0.31749386392E+02  0.17135334202E+03  0.18965010767E+03  0.74801236523E+02 0.  0.
         23    2    1    2    0    0  0.72627593354E+02 -0.95789066922E+02  0.20566983139E+02  0.15242530976E+03  0.91433919322E+02 0.  0.
        -11    1    4    4    0    0  0.74043005252E+02 -0.44058780528E+02  0.42677047245E+02  0.96150263286E+02  0.00000000000E+00 0.  1.
         11    1    4    4    0    0 -0.14154118981E+01 -0.51730286394E+02 -0.22110064106E+02  0.56275046477E+02  0.00000000000E+00 0. -1.
        -13    1    3    3    0    0  0.30027849400E+02  0.18602649067E+02  0.14288727890E+03  0.14718867064E+03  0.00000000000E+00 0.  1.
         13    1    3    3    0    0 -0.28632502208E+02  0.13146737325E+02  0.28466063122E+02  0.42461437030E+02  0.00000000000E+00 0. -1.
         -4    1    1    2    0  502 -0.74022940545E+02  0.64039680530E+02 -0.17908781651E+03  0.20409047609E+03  0.00000000000E+00 0.  1.
<scales pt_clust_5="13000.00000" pt_clust_6="13000.00000" pt_clust_7="13000.00000" pt_clust_8="13000.00000" pt_clust_9="100.41914"></scales>
<clustering>
<clus scale="   74.801">  7  8 -1 -1</clus>
<clus scale="   81.272">  1  7  2 -1</clus>
<clus scale="   91.434">  5  6 -1 -1</clus>
<clus scale="  100.419">  2  9  1 -1</clus>
<clus scale="  100.419">  2  5  1 -1</clus>
</clustering>
</event>
<event>
 9    1  0.1504846E-005  0.1067330E+03  0.7546771E-02  0.1267106E+00
         -1   -1    0    0    0  501 -0.00000000000E+00  0.00000000000E+00  0.18365120478E+02  0.18365120478E+02  0.00000000000E+00 0.  1.
         21   -1    0    0  501  502  0.00000000000E+00 -0.00000000000E+00 -0.11724051211E+04  0.11724051211E+04  0.00000000000E+00 0. -1.
         23    2    1    2    0    0  0.41625713573E+02 -0.70943077445E+01 -0.27648427174E+03  0.29396820950E+03  0.90502632238E+02 0.  0.
         23    2    1    2    0    0 -0.61773808128E+02  0.56829985275E+02 -0.48616158125E+03  0.50174638773E+03  0.91382186008E+02 0.  0.
        -11    1    4    4    0    0 -0.17481124963E+02 -0.15164505748E+02 -0.30366329510E+02  0.38179391462E+02  0.00000000000E+00 0.  1.
         11    1    4    4    0    0 -0.44292683165E+02  0.71994491023E+02 -0.45579525174E+03  0.46356699626E+03  0.00000000000E+00 0. -1.
        -13    1    3    3    0    0 -0.27552291014E+02  0.66659101653E+01 -0.99120363375E+02  0.10309417798E+03  0.00000000000E+00 0. -1.
         13    1    3    3    0    0  0.69178004586E+02 -0.13760217910E+02 -0.17736390837E+03  0.19087403151E+03  0.00000000000E+00 0.  1.
         -1    1    1    2    0  502  0.20148094555E+02 -0.49735677530E+02 -0.39139414762E+03  0.39505564434E+03  0.00000000000E+00 0.  1.
<scales pt_clust_5="13000.00000" pt_clust_6="13000.00000" pt_clust_7="13000.00000" pt_clust_8="13000.00000" pt_clust_9="53.66175"></scales>
<clustering>
<clus scale="   53.662">  2  9  1 -1</clus>
<clus scale="   90.503">  7  8 -1 -1</clus>
<clus scale="   91.382">  5  6 -1 -1</clus>
<clus scale="  105.981">  1  7  2 -1</clus>
<clus scale="   53.662">  2  5  1 -1</clus>
</clustering>
</event>
<event>
 9    1  0.1504846E-005  0.1198084E+03  0.7546771E-02  0.1243603E+00
          2   -1    0    0  502    0 -0.00000000000E+00  0.00000000000E+00  0.23022123800E+03  0.23022123800E+03  0.00000000000E+00 0. -1.
         21   -1    0    0  501  502  0.00000000000E+00 -0.00000000000E+00 -0.14009090993E+03  0.14009090993E+03  0.00000000000E+00 0.  1.
         23    2    1    2    0    0 -0.91381400881E+02  0.32310857329E+01  0.97736551752E+02  0.16243610313E+03  0.92043759748E+02 0.  0.
         23    2    1    2    0    0  0.34511485922E+02  0.59630181631E+02 -0.31751988620E+02  0.11973556531E+03  0.92637009860E+02 0.  0.
        -11    1    4    4    0    0  0.47195499694E+02 -0.50608703867E+01 -0.22692690145E+01  0.47520281799E+02  0.00000000000E+00 0. -1.
         11    1    4    4    0    0 -0.12684013772E+02  0.64691052018E+02 -0.29482719605E+02  0.72215283506E+02  0.00000000000E+00 0.  1.
        -13    1    3    3    0    0 -0.10001381910E+01  0.33731504445E+02  0.32663714427E+02  0.46965230849E+02  0.00000000000E+00 0.  1.
         13    1    3    3    0    0 -0.90381262690E+02 -0.30500418712E+02  0.65072837325E+02  0.11547087228E+03  0.00000000000E+00 0. -1.
          2    1    1    2  501    0  0.56869914958E+02 -0.62861267364E+02  0.24145764932E+02  0.88140479498E+02  0.00000000000E+00 0. -1.
<scales pt_clust_5="13000.00000" pt_clust_6="13000.00000" pt_clust_7="13000.00000" pt_clust_8="13000.00000" pt_clust_9="84.76871"></scales>
<clustering>
<clus scale="   84.769">  2  9  1 -1</clus>
<clus scale="   92.044">  7  8 -1 -1</clus>
<clus scale="   92.637">  5  6 -1 -1</clus>
<clus scale="  119.350">  1  7  2 -1</clus>
<clus scale="   84.769">  2  5  1 -1</clus>
</clustering>
</event>
<event>
 9    1  0.1504846E-005  0.3210177E+03  0.7546771E-02  0.1075241E+00
         21   -1    0    0  501  502  0.00000000000E+00  0.00000000000E+00  0.20337164438E+03  0.20337164438E+03  0.00000000000E+00 0. -1.
         -4   -1    0    0    0  501 -0.00000000000E+00 -0.00000000000E+00 -0.85146830381E+03  0.85146830381E+03  0.00000000000E+00 0.  1.
         23    2    1    2    0    0  0.18745499788E+03 -0.21079073357E+03 -0.43544421545E+03  0.52750416540E+03  0.95272609675E+02 0.  0.
         23    2    1    2    0    0 -0.25575712219E+03  0.25554877216E+03 -0.23678117392E+03  0.44218498824E+03  0.93516624179E+02 0.  0.
        -11    1    3    3    0    0  0.14343803000E+03 -0.13750956211E+03 -0.22399062289E+03  0.29942469381E+03  0.00000000000E+00 0. -1.
         11    1    3    3    0    0  0.44016967878E+02 -0.73281171463E+02 -0.21145359256E+03  0.22807947159E+03  0.00000000000E+00 0.  1.
        -11    1    4    4    0    0 -0.12958186209E+03  0.78940261945E+02 -0.13223460854E+03  0.20126851625E+03  0.00000000000E+00 0.  1.
         11    1    4    4    0    0 -0.12617526010E+03  0.17660851021E+03 -0.10454656538E+03  0.24091647198E+03  0.00000000000E+00 0. -1.
         -4    1    1    2    0  502  0.68302124307E+02 -0.44758038590E+02  0.24128729948E+02  0.85150794549E+02  0.00000000000E+00 0.  1.
<scales pt_clust_5="13000.00000" pt_clust_6="13000.00000" pt_clust_7="13000.00000" pt_clust_8="13000.00000" pt_clust_9="81.66065"></scales>
<clustering>
<clus scale="   81.661">  1  9  2 -1</clus>
<clus scale="   93.517">  7  8 -1 -1</clus>
<clus scale="   95.273">  5  6 -1 -1</clus>
<clus scale="  320.501">  1  7  2 -1</clus>
<clus scale="   81.661">  1  5  2 -1</clus>
</clustering>
</event>
<event>
 9    1  0.1504846E-005  0.1249233E+03  0.7546771E-02  0.1235216E+00
         21   -1    0    0  501  502  0.00000000000E+00  0.00000000000E+00  0.91222734947E+02  0.91222734947E+02  0.00000000000E+00 0.  1.
          4   -1    0    0  502    0 -0.00000000000E+00 -0.00000000000E+00 -0.35207525965E+03  0.35207525965E+03  0.00000000000E+00 0. -1.
         23    2    1    2    0    0 -0.92881976064E+02  0.33032722818E+02 -0.19719638191E+03  0.23853902057E+03  0.91083637622E+02 0.  0.
         23    2    1    2    0    0  0.71017209214E+02 -0.18808000970E+00 -0.98704173430E+02  0.15198395113E+03  0.91176357519E+02 0.  0.
        -11    1    4    4    0    0  0.79928789192E+02 -0.26836796514E+02 -0.57286877030E+02  0.10193434784E+03  0.00000000000E+00 0. -1.
         11    1    4    4    0    0 -0.89115799773E+01  0.26648716505E+02 -0.41417296400E+02  0.50049603297E+02  0.00000000000E+00 0.  1.
        -11    1    3    3    0    0 -0.16244579277E+02  0.12250162999E+02  0.53047396387E+01  0.21026010369E+02  0.00000000000E+00 0.  1.
         11    1    3    3    0    0 -0.76637396787E+02  0.20782559819E+02 -0.20250112155E+03  0.21751301020E+03  0.00000000000E+00 0. -1.
          4    1    1    2  501    0  0.21864766850E+02 -0.32844642808E+02  0.35048030633E+02  0.52775022898E+02  0.00000000000E+00 0. -1.
<scales pt_clust_5="13000.00000" pt_clust_6="13000.00000" pt_clust_7="13000.00000" pt_clust_8="13000.00000" pt_clust_9="39.45679"></scales>
<clustering>
<clus scale="   39.457">  1  9  2 -1</clus>
<clus scale="   91.084">  7  8 -1 -1</clus>
<clus scale="   91.176">  5  6 -1 -1</clus>
<clus scale="  124.856">  2  7  1 -1</clus>
<clus scale="   39.457">  1  5  2 -1</clus>
</clustering>
</event>
<event>
 9    1  0.1504846E-005  0.1173528E+03  0.7546771E-02  0.1253454E+00
          4   -1    0    0  502    0 -0.00000000000E+00  0.00000000000E+00  0.68571819148E+02  0.68571819148E+02  0.00000000000E+00 0. -1.
         21   -1    0    0  501  502  0.00000000000E+00 -0.00000000000E+00 -0.88937144223E+03  0.88937144223E+03  0.00000000000E+00 0. -1.
         23    2    1    2    0    0 -0.58414216947E+02  0.58386724914E+02 -0.37818564603E+02  0.12949208060E+03  0.92286102540E+02 0.  0.
         23    2    1    2    0    0  0.83658005916E+02  0.34263333601E+02 -0.16195316812E+03  0.20004293542E+03  0.74938036840E+02 0.  0.
        -11    1    3    3    0    0 -0.20433784339E+02 -0.15418881916E+02 -0.38797653389E+02  0.46481602494E+02  0.00000000000E+00 0.  1.
         11    1    3    3    0    0 -0.37980432608E+02  0.73805606830E+02  0.97908878588E+00  0.83010478107E+02  0.00000000000E+00 0. -1.
        -11    1    4    4    0    0  0.53114011942E+02 -0.93839428621E+01 -0.12219508590E+03  0.13356944136E+03  0.00000000000E+00 0.  1.
         11    1    4    4    0    0  0.30543993974E+02  0.43647276463E+02 -0.39758082215E+02  0.66473494055E+02  0.00000000000E+00 0. -1.
          4    1    1    2  501    0 -0.25243788969E+02 -0.92650058515E+02 -0.62102789036E+03  0.62840824535E+03  0.00000000000E+00 0. -1.
<scales pt_clust_5="13000.00000" pt_clust_6="13000.00000" pt_clust_7="13000.00000" pt_clust_8="13000.00000" pt_clust_9="96.02751"></scales>
<clustering>
<clus scale="   74.938">  7  8 -1 -1</clus>
<clus scale="   92.286">  5  6 -1 -1</clus>
<clus scale="   96.028">  2  9  1 -1</clus>
<clus scale="  104.262">  2  7  1 -1</clus>
<clus scale="   96.028">  2  5  1 -1</clus>
</clustering>
</event>
<event>
 9    1  0.1504846E-005  0.1115439E+03  0.7546771E-02  0.1259009E+00
          1   -1    0    0  502    0 -0.00000000000E+00  0.00000000000E+00  0.53522784942E+03  0.53522784942E+03  0.00000000000E+00 0. -1.
         21   -1    0    0  501  502  0.00000000000E+00 -0.00000000000E+00 -0.34691540362E+02  0.34691540362E+02  0.00000000000E+00 0. -1.
         23    2    1    2    0    0  0.34474997778E+02  0.35029633033E+02  0.18331078383E+03  0.21162074062E+03  0.93621011173E+02 0.  0.
         23    2    1    2    0    0 -0.76714828027E+02 -0.17544981511E+02  0.21058304058E+03  0.24227048090E+03  0.90314880923E+02 0.  0.
        -11    1    4    4    0    0 -0.61505006270E+02  0.25004285346E+02  0.79274481116E+02  0.10340465869E+03  0.00000000000E+00 0. -1.
         11    1    4    4    0    0 -0.15209821757E+02 -0.42549266857E+02  0.13130855947E+03  0.13886582221E+03  0.00000000000E+00 0.  1.
        -11    1    3    3    0    0  0.46133006739E+02  0.19625375232E+01  0.16641115316E+03  0.17269851696E+03  0.00000000000E+00 0. -1.
         11    1    3    3    0    0 -0.11658008961E+02  0.33067095509E+02  0.16899630669E+02  0.38922223666E+02  0.00000000000E+00 0.  1.
          1    1    1    2  501    0  0.42239830249E+02 -0.17484651522E+02  0.10664248465E+03  0.11602816826E+03  0.00000000000E+00 0. -1.
<scales pt_clust_5="13000.00000" pt_clust_6="13000.00000" pt_clust_7="13000.00000" pt_clust_8="13000.00000" pt_clust_9="45.71563"></scales>
<clustering>
<clus scale="   45.716">  2  9  1 -1</clus>
<clus scale="   90.315">  5  6 -1 -1</clus>
<clus scale="   93.621">  7  8 -1 -1</clus>
<clus scale="  108.784">  2  5  1 -1</clus>
<clus scale="   45.716">  2  5  1 -1</clus>
</clustering>
</event>
<event>
 9    1  0.1504846E-005  0.1425352E+03  0.7546771E-02  0.1210383E+00
          1   -1    0    0  502    0 -0.00000000000E+00  0.00000000000E+00  0.74825397341E+03  0.74825397341E+03  0.00000000000E+00 0. -1.
         21   -1    0    0  501  502  0.00000000000E+00 -0.00000000000E+00 -0.11246152508E+03  0.11246152508E+03  0.00000000000E+00 0. -1.
         23    2    1    2    0    0  0.11491167624E+03  0.36236136918E+02  0.51182392154E+03  0.53384924219E+03  0.92268823405E+02 0.  0.
         23    2    1    2    0    0 -0.74196303051E+02 -0.42969187882E+02  0.20187026551E+03  0.23870869007E+03  0.94227342765E+02 0.  0.
        -11    1    4    4    0    0 -0.24759454410E+02 -0.48680701290E+02  0.17246200858E+03  0.18090324946E+03  0.00000000000E+00 0. -1.
         11    1    4    4    0    0 -0.49436848641E+02  0.57115134085E+01  0.29408256932E+02  0.57805440616E+02  0.00000000000E+00 0.  1.
        -13    1    3    3    0    0  0.41570494685E+01  0.23626195741E+02  0.25896286720E+02  0.35300082880E+02  0.00000000000E+00 0.  1.
         13    1    3    3    0    0  0.11075462677E+03  0.12609941177E+02  0.48592763482E+03  0.49854915931E+03  0.00000000000E+00 0. -1.
          1    1    1    2  501    0 -0.40715373188E+02  0.67330509636E+01 -0.77901738711E+02  0.88157566229E+02  0.00000000000E+00 0. -1.
<scales pt_clust_5="13000.00000" pt_clust_6="13000.00000" pt_clust_7="13000.00000" pt_clust_8="13000.00000" pt_clust_9="41.26834"></scales>
<clustering>
<clus scale="   41.268">  2  9  1 -1</clus>
<clus scale="   92.269">  7  8 -1 -1</clus>
<clus scale="   94.227">  5  6 -1 -1</clus>
<clus scale="  141.248">  1  7  2 -1</clus>
<clus scale="   41.268">  2  5  1 -1</clus>
</clustering>
</event>
<event>
 9    1  0.1504846E-005  0.1115769E+03  0.7546771E-02  0.1258049E+00
         -2   -1    0    0    0  501 -0.00000000000E+00  0.00000000000E+00  0.27880586352E+03  0.27880586352E+03  0.00000000000E+00 0.  1.
         21   -1    0    0  501  502  0.00000000000E+00 -0.00000000000E+00 -0.14534637418E+03  0.14534637418E+03  0.00000000000E+00 0. -1.
         23    2    1    2    0    0 -0.50022614406E+02 -0.19527925701E+02  0.15845179932E+03  0.19061725417E+03  0.91347485153E+02 0.  0.
         23    2    1    2    0    0  0.60480235176E+02  0.78239719368E+02  0.44065826216E+02  0.14229100991E+03  0.92334294432E+02 0.  0.
        -11    1    4    4    0    0  0.34993292837E+02 -0.15371380264E+02  0.14313517590E+02  0.40812824708E+02  0.00000000000E+00 0.  1.
         11    1    4    4    0    0  0.25486942339E+02  0.93611099632E+02  0.29752308626E+02  0.10147818521E+03  0.00000000000E+00 0. -1.
        -13    1    3    3    0    0 -0.29942132887E+02 -0.54932842343E+02  0.11605720722E+03  0.13184621283E+03  0.00000000000E+00 0.  1.
         13    1    3    3    0    0 -0.20080481519E+02  0.35404916642E+02  0.42394592101E+02  0.58771041337E+02  0.00000000000E+00 0. -1.
         -2    1    1    2    0  502 -0.10457620770E+02 -0.58711793667E+02 -0.69058136198E+02  0.91243973625E+02  0.00000000000E+00 0.  1.
<scales pt_clust_5="13000.00000" pt_clust_6="13000.00000" pt_clust_7="13000.00000" pt_clust_8="13000.00000" pt_clust_9="59.63587"></scales>
<clustering>
<clus scale="   59.636">  2  9  1 -1</clus>
<clus scale="   91.347">  7  8 -1 -1</clus>
<clus scale="   92.334">  5  6 -1 -1</clus>
<clus scale="  110.762">  1  7  2 -1</clus>
<clus scale="   59.636">  2  5  1 -1</clus>
</clustering>
</event>
<event>
 9    1  0.1504846E-005  0.1103655E+03  0.7546771E-02  0.1263550E+00
         21   -1    0    0  501  502  0.00000000000E+00  0.00000000000E+00  0.43764907201E+03  0.43764907201E+03  0.00000000000E+00 0. -1.
          1   -1    0    0  502    0 -0.00000000000E+00 -0.00000000000E+00 -0.76745021988E+02  0.76745021988E+02  0.00000000000E+00 0. -1.
         23    2    1    2    0    0 -0.56261492888E+02 -0.25705668437E+02  0.20407236898E+02  0.11935342502E+03  0.10001323800E+03 0.  0.
         23    2    1    2    0    0  0.30852091317E+02 -0.71116516251E+01  0.65468788663E+02  0.11689856784E+03  0.91524235846E+02 0.  0.
        -11    1    3    3    0    0 -0.46781736255E+00 -0.31063706154E+02  0.47767583950E+02  0.56981705569E+02  0.00000000000E+00 0.  1.
         11    1    3    3    0    0 -0.55793675525E+02  0.53580377169E+01 -0.27360347052E+02  0.62371719454E+02  0.00000000000E+00 0. -1.
        -13    1    4    4    0    0  0.40953301553E+02 -0.26638144952E+02  0.10868835276E+01  0.48866604040E+02  0.00000000000E+00 0. -1.
         13    1    4    4    0    0 -0.10101210237E+02  0.19526493327E+02  0.64381905136E+02  0.68031963802E+02  0.00000000000E+00 0.  1.
          1    1    1    2  501    0  0.25409401571E+02  0.32817320062E+02  0.27502802446E+03  0.27814210113E+03  0.00000000000E+00 0. -1.
<scales pt_clust_5="13000.00000" pt_clust_6="13000.00000" pt_clust_7="13000.00000" pt_clust_8="13000.00000" pt_clust_9="41.50439"></scales>
<clustering>
<clus scale="   41.504">  1  9  2 -1</clus>
<clus scale="   91.524">  7  8 -1 -1</clus>
<clus scale="  100.013">  5  6 -1 -1</clus>
<clus scale="  102.736">  1  7  2 -1</clus>
<clus scale="   41.504">  1  5  2 -1</clus>
</clustering>
</event>
<event>
 9    1  0.1504846E-005  0.1091366E+03  0.7546771E-02  0.1262460E+00
         21   -1    0    0  501  502  0.00000000000E+00  0.00000000000E+00  0.33961049881E+03  0.33961049881E+03  0.00000000000E+00 0. -1.
         -1   -1    0    0    0  501 -0.00000000000E+00 -0.00000000000E+00 -0.95015657798E+02  0.95015657798E+02  0.00000000000E+00 0.  1.
         23    2    1    2    0    0 -0.30527154899E+02  0.38128103477E+02  0.18697283745E+02  0.10498623852E+03  0.91032205279E+02 0.  0.
         23    2    1    2    0    0  0.30670469749E+02 -0.66577963092E+02  0.15517566878E+02  0.11734494545E+03  0.90309127208E+02 0.  0.
        -11    1    4    4    0    0  0.59088211758E+02 -0.31143483742E+02  0.24310101134E+02  0.71079633971E+02  0.00000000000E+00 0. -1.
         11    1    4    4    0    0 -0.28417742009E+02 -0.35434479350E+02 -0.87925342557E+01  0.46265311480E+02  0.00000000000E+00 0.  1.
        -13    1    3    3    0    0 -0.53560310463E+02 -0.10880305377E+01 -0.48162671438E+01  0.53787425079E+02  0.00000000000E+00 0.  1.
         13    1    3    3    0    0  0.23033155564E+02  0.39216134014E+02  0.23513550889E+02  0.51198813440E+02  0.00000000000E+00 0. -1.
         -1    1    1    2    0  502 -0.14331484936E+00  0.28449859616E+02  0.21037999039E+03  0.21229497264E+03  0.00000000000E+00 0.  1.
<scales pt_clust_5="13000.00000" pt_clust_6="13000.00000" pt_clust_7="13000.00000" pt_clust_8="13000.00000" pt_clust_9="28.45022"></scales>
<clustering>
<clus scale="   28.450">  1  9  2 -1</clus>
<clus scale="   90.309">  5  6 -1 -1</clus>
<clus scale="   91.032">  7  8 -1 -1</clus>
<clus scale="  108.534">  1  5  2 -1</clus>
<clus scale="   28.450">  1  5  2 -1</clus>
</clustering>
</event>
<event>
 9    1  0.1504846E-005  0.1311859E+03  0.7546771E-02  0.1227246E+00
          1   -1    0    0  502    0 -0.00000000000E+00  0.00000000000E+00  0.70054094559E+03  0.70054094559E+03  0.00000000000E+00 0. -1.
         21   -1    0    0  501  502  0.00000000000E+00 -0.00000000000E+00 -0.10099891387E+03  0.10099891387E+03  0.00000000000E+00 0. -1.
         23    2    1    2    0    0 -0.16743598783E+02 -0.10147684970E+03  0.51396356242E+03  0.53131584434E+03  0.86948742543E+02 0.  0.
         23    2    1    2    0    0 -0.14102482512E+02  0.71049632521E+02  0.15115502860E+03  0.19162642351E+03  0.92875794592E+02 0.  0.
        -11    1    3    3    0    0  0.10237319722E+02 -0.10417724343E+03  0.44650748906E+03  0.45861382290E+03  0.00000000000E+00 0. -1.
         11    1    3    3    0    0 -0.26980918504E+02  0.27003937267E+01  0.67456073356E+02  0.72702021445E+02  0.00000000000E+00 0.  1.
        -13    1    4    4    0    0 -0.22062537368E+02  0.39391057750E+02  0.15241170051E+03  0.15895828836E+03  0.00000000000E+00 0. -1.
         13    1    4    4    0    0  0.79600548565E+01  0.31658574771E+02 -0.12566719088E+01  0.32668135149E+02  0.00000000000E+00 0.  1.
          1    1    1    2  501    0  0.30846081294E+02  0.30427217180E+02 -0.65576559297E+02  0.78597591603E+02  0.00000000000E+00 0. -1.
<scales pt_clust_5="13000.00000" pt_clust_6="13000.00000" pt_clust_7="13000.00000" pt_clust_8="13000.00000" pt_clust_9="43.32778"></scales>
<clustering>
<clus scale="   43.328">  2  9  1 -1</clus>
<clus scale="   86.949">  5  6 -1 -1</clus>
<clus scale="   92.876">  7  8 -1 -1</clus>
<clus scale="  127.059">  1  5  2 -1</clus>
<clus scale="   43.328">  2  5  1 -1</clus>
</clustering>
</event>
<event>
 9    1  0.1504846E-005  0.1107247E+03  0.7546771E-02  0.1259651E+00
         -1   -1    0    0    0  501 -0.00000000000E+00  0.00000000000E+00  0.21283391754E+03  0.21283391754E+03  0.00000000000E+00 0.  1.
         21   -1    0    0  501  502  0.00000000000E+00 -0.00000000000E+00 -0.12748135427E+03  0.12748135427E+03  0.00000000000E+00 0. -1.
         23    2    1    2    0    0 -0.65408618488E+02  0.19603807113E+02  0.13739998782E+03  0.18005502026E+03  0.94225564697E+02 0.  0.
         23    2    1    2    0    0  0.32810742873E+02  0.18034689593E+02 -0.24469298229E+02  0.10334073837E+03  0.93159898966E+02 0.  0.
        -11    1    4    4    0    0  0.38276586711E+02 -0.19166835736E+02 -0.43643811726E+02  0.61133026953E+02  0.00000000000E+00 0. -1.
         11    1    4    4    0    0 -0.54658438385E+01  0.37201525329E+02  0.19174513497E+02  0.42207711422E+02  0.00000000000E+00 0.  1.
        -11    1    3    3    0    0 -0.62457933700E+02 -0.25928668857E+02  0.61031852955E+02  0.91094327078E+02  0.00000000000E+00 0.  1.
         11    1    3    3    0    0 -0.29506847871E+01  0.45532475970E+02  0.76368134866E+02  0.88960693183E+02  0.00000000000E+00 0. -1.
         -1    1    1    2    0  502  0.32597875615E+02 -0.37638496706E+02 -0.27578126314E+02  0.56919513173E+02  0.00000000000E+00 0.  1.
<scales pt_clust_5="13000.00000" pt_clust_6="13000.00000" pt_clust_7="13000.00000" pt_clust_8="13000.00000" pt_clust_9="49.79235"></scales>
<clustering>
<clus scale="   49.792">  2  9  1 -1</clus>
<clus scale="   93.160">  5  6 -1 -1</clus>
<clus scale="   94.226">  7  8 -1 -1</clus>
<clus scale="  109.819">  2  5  1 -1</clus>
<clus scale="   49.792">  2  5  1 -1</clus>
</clustering>
</event>
<event>
 9    1  0.1504846E-005  0.1608326E+03  0.7546771E-02  0.1188206E+00
         21   -1    0    0  501  502  0.00000000000E+00  0.00000000000E+00  0.24639734606E+03  0.24639734606E+03  0.00000000000E+00 0. -1.
         -1   -1    0    0    0  501 -0.00000000000E+00 -0.00000000000E+00 -0.15497003216E+03  0.15497003216E+03  0.00000000000E+00 0.  1.
         23    2    1    2    0    0 -0.10933830831E+03 -0.85994310748E+02 -0.21000008031E+01  0.16757168185E+03  0.93412908156E+02 0.  0.
         23    2    1    2    0    0  0.88233502060E+02  0.79409531356E+02  0.16444033706E+02  0.15360464715E+03  0.96088276209E+02 0.  0.
        -11    1    4    4    0    0  0.28140874576E+02  0.43121837613E+02  0.53475933618E+02  0.74236629620E+02  0.00000000000E+00 0. -1.
         11    1    4    4    0    0  0.60092627484E+02  0.36287693744E+02 -0.37031899912E+02  0.79368017527E+02  0.00000000000E+00 0.  1.
        -11    1    3    3    0    0  0.16392265674E+02 -0.18608207954E+02 -0.24673091138E+01  0.24921063209E+02  0.00000000000E+00 0.  1.
         11    1    3    3    0    0 -0.12573057398E+03 -0.67386102794E+02  0.36730831075E+00  0.14265061864E+03  0.00000000000E+00 0. -1.
         -1    1    1    2    0  502  0.21104806246E+02  0.65847793915E+01  0.77083280994E+02  0.80191049221E+02  0.00000000000E+00 0.  1.
<scales pt_clust_5="13000.00000" pt_clust_6="13000.00000" pt_clust_7="13000.00000" pt_clust_8="13000.00000" pt_clust_9="22.10819"></scales>
<clustering>
<clus scale="   22.108">  1  9  2 -1</clus>
<clus scale="   93.413">  7  8 -1 -1</clus>
<clus scale="   96.088">  5  6 -1 -1</clus>
<clus scale="  159.249">  2  7  1 -1</clus>
<clus scale="   22.108">  1  5  2 -1</clus>
</clustering>
</event>
<event>
 9    1  0.1504846E-005  0.1127094E+03  0.7546771E-02  0.1256440E+00
         21   -1    0    0  501  502  0.00000000000E+00  0.00000000000E+00  0.13445244115E+03  0.13445244115E+03  0.00000000000E+00 0.  1.
         -2   -1    0    0    0  501 -0.00000000000E+00 -0.00000000000E+00 -0.27171520069E+03  0.27171520069E+03  0.00000000000E+00 0.  1.
         23    2    1    2    0    0  0.40224476293E+02  0.56672026162E+02 -0.21956032776E+03  0.24712483757E+03  0.89633814894E+02 0.  0.
         23    2    1    2    0    0 -0.36171366242E+02 -0.23093768438E+02  0.53474081383E+02  0.11460497708E+03  0.91832094142E+02 0.  0.
        -11    1    4    4    0    0 -0.22031021889E+02 -0.58799810665E+02  0.29947024734E+02  0.69567290807E+02  0.00000000000E+00 0.  1.
         11    1    4    4    0    0 -0.14140344353E+02  0.35706042228E+02  0.23527056649E+02  0.45037686270E+02  0.00000000000E+00 0. -1.
        -11    1    3    3    0    0  0.24113904823E+02  0.19951652968E+02 -0.86984157365E+01  0.32484016044E+02  0.00000000000E+00 0. -1.
         11    1    3    3    0    0  0.16110571470E+02  0.36720373194E+02 -0.21086191203E+03  0.21464082152E+03  0.00000000000E+00 0.  1.
         -2    1    1    2    0  502 -0.40531100511E+01 -0.33578257724E+02  0.28823486840E+02  0.44437827203E+02  0.00000000000E+00 0.  1.
<scales pt_clust_5="13000.00000" pt_clust_6="13000.00000" pt_clust_7="13000.00000" pt_clust_8="13000.00000" pt_clust_9="33.82199"></scales>
<clustering>
<clus scale="   33.822">  1  9  2 -1</clus>
<clus scale="   89.634">  7  8 -1 -1</clus>
<clus scale="   91.832">  5  6 -1 -1</clus>
<clus scale="  110.926">  2  7  1 -1</clus>
<clus scale="   33.822">  1  5  2 -1</clus>
</clustering>
</event>
<event>
 9    1  0.1504846E-005  0.1006999E+03  0.7546771E-02  0.1281641E+00
          1   -1    0    0  502    0 -0.00000000000E+00  0.00000000000E+00  0.25849532546E+03  0.25849532546E+03  0.00000000000E+00 0. -1.
         21   -1    0    0  501  502  0.00000000000E+00 -0.00000000000E+00 -0.65315812150E+02  0.65315812150E+02  0.00000000000E+00 0.  1.
         23    2    1    2    0    0 -0.54894969814E+01 -0.46779412382E+02  0.14588664806E+03  0.17553630338E+03  0.85508079878E+02 0.  0.
         23    2    1    2    0    0 -0.28632949364E+02  0.31921937253E+02  0.46397317997E+02  0.11104731864E+03  0.91323271911E+02 0.  0.
        -11    1    3    3    0    0 -0.42612103775E+02 -0.42295010641E+02  0.84496093112E+02  0.10365446958E+03  0.00000000000E+00 0. -1.
         11    1    3    3    0    0  0.37122606794E+02 -0.44844017410E+01  0.61390554944E+02  0.71881833800E+02  0.00000000000E+00 0.  1.
        -13    1    4    4    0    0  0.23107500884E+02  0.33144492444E+02  0.43264956801E+02  0.59197723465E+02  0.00000000000E+00 0. -1.
         13    1    4    4    0    0 -0.51740450248E+02 -0.12225551902E+01  0.31323611954E+01  0.51849595174E+02  0.00000000000E+00 0.  1.
          1    1    1    2  501    0  0.34122446345E+02  0.14857475129E+02  0.89554725517E+00  0.37227515585E+02  0.00000000000E+00 0. -1.
<scales pt_clust_5="13000.00000" pt_clust_6="13000.00000" pt_clust_7="13000.00000" pt_clust_8="13000.00000" pt_clust_9="37.21674"></scales>
<clustering>
<clus scale="   37.217">  2  9  1 -1</clus>
<clus scale="   85.508">  5  6 -1 -1</clus>
<clus scale="   91.323">  7  8 -1 -1</clus>
<clus scale="   95.458">  1  5  2 -1</clus>
<clus scale="   37.217">  2  5  1 -1</clus>
</clustering>
</event>
<event>
 9    1  0.1504846E-005  0.9043094E+02  0.7546771E-02  0.1302640E+00
         -3   -1    0    0    0  501 -0.00000000000E+00  0.00000000000E+00  0.62969785657E+03  0.62969785657E+03  0.00000000000E+00 0.  1.
         21   -1    0    0  501  502  0.00000000000E+00 -0.00000000000E+00 -0.24085085789E+02  0.24085085789E+02  0.00000000000E+00 0.  1.
         23    2    1    2    0    0  0.34137408249E+01  0.14897763087E+02  0.39756458765E+03  0.40789635102E+03  0.89934614321E+02 0.  0.
         23    2    1    2    0    0  0.12946794853E+02  0.12961017242E+01  0.20364577659E+03  0.22244966388E+03  0.88560438476E+02 0.  0.
        -13    1    4    4    0    0 -0.28941467890E+02  0.91512268739E+01  0.26642288314E+02  0.40387684305E+02  0.00000000000E+00 0.  1.
         13    1    4    4    0    0  0.41888262743E+02 -0.78551251497E+01  0.17700348827E+03  0.18206197958E+03  0.00000000000E+00 0. -1.
        -13    1    3    3    0    0  0.20244752178E+02  0.49089188683E+02  0.23504718085E+03  0.24097048711E+03  0.00000000000E+00 0.  1.
         13    1    3    3    0    0 -0.16831011353E+02 -0.34191425596E+02  0.16251740680E+03  0.16692586391E+03  0.00000000000E+00 0. -1.
         -3    1    1    2    0  502 -0.16360535678E+02 -0.16193864811E+02  0.44024065478E+01  0.23436927457E+02  0.00000000000E+00 0.  1.
<scales pt_clust_5="13000.00000" pt_clust_6="13000.00000" pt_clust_7="13000.00000" pt_clust_8="13000.00000" pt_clust_9="23.01974"></scales>
<clustering>
<clus scale="   23.020">  2  9  1 -1</clus>
<clus scale="   88.560">  5  6 -1 -1</clus>
<clus scale="   89.064">  2  5  1 -1</clus>
<clus scale="   89.935">  7  8 -1 -1</clus>
<clus scale="   23.020">  2  5  1 -1</clus>
</clustering>
</event>
<event>
 9    1  0.1504846E-005  0.1637856E+03  0.7546771E-02  0.1185499E+00
         21   -1    0    0  501  502  0.00000000000E+00  0.00000000000E+00  0.15440131230E+03  0.15440131230E+03  0.00000000000E+00 0. -1.
          1   -1    0    0  502    0 -0.00000000000E+00 -0.00000000000E+00 -0.42730365330E+03  0.42730365330E+03  0.00000000000E+00 0. -1.
         23    2    1    2    0    0  0.12259561041E+03  0.96803296351E+02 -0.28037934125E+03  0.33357268315E+03  0.90871326975E+02 0.  0.
         23    2    1    2    0    0 -0.73862403278E+02  0.81394248292E+01  0.38692280949E+02  0.12828949395E+03  0.97155528914E+02 0.  0.
        -13    1    4    4    0    0 -0.12908974026E+02 -0.29677362511E+02  0.45937473933E+02  0.56192872923E+02  0.00000000000E+00 0.  1.
         13    1    4    4    0    0 -0.60953429252E+02  0.37816787340E+02 -0.72451929836E+01  0.72096621028E+02  0.00000000000E+00 0. -1.
        -13    1    3    3    0    0  0.10228566473E+03  0.10798352559E+03 -0.19588093879E+03  0.24595150170E+03  0.00000000000E+00 0. -1.
         13    1    3    3    0    0  0.20309945680E+02 -0.11180229241E+02 -0.84498402462E+02  0.87621181447E+02  0.00000000000E+00 0.  1.
          1    1    1    2  501    0 -0.48733207133E+02 -0.10494272118E+03 -0.31215280706E+02  0.11984278850E+03  0.00000000000E+00 0. -1.
<scales pt_clust_5="13000.00000" pt_clust_6="13000.00000" pt_clust_7="13000.00000" pt_clust_8="13000.00000" pt_clust_9="115.70609"></scales>
<clustering>
<clus scale="   90.871">  7  8 -1 -1</clus>
<clus scale="   97.156">  5  6 -1 -1</clus>
<clus scale="  115.706">  1  9  2 -1</clus>
<clus scale="  160.138">  2  7  1 -1</clus>
<clus scale="  115.706">  1  5  2 -1</clus>
</clustering>
</event>
<event>
 9    1  0.1504846E-005  0.1051798E+03  0.7546771E-02  0.1269812E+00
         21   -1    0    0  501  502  0.00000000000E+00  0.00000000000E+00  0.25930827560E+03  0.25930827560E+03  0.00000000000E+00 0. -1.
          3   -1    0    0  502    0 -0.00000000000E+00 -0.00000000000E+00 -0.14609919517E+03  0.14609919517E+03  0.00000000000E+00 0. -1.
         23    2    1    2    0    0 -0.53136471805E+02  0.66883656145E+01 -0.10305646672E+03  0.14791702302E+03  0.91600171914E+02 0.  0.
         23    2    1    2    0    0  0.37535098396E+02 -0.23299438757E+02  0.11394839135E+03  0.15266616157E+03  0.91493024536E+02 0.  0.
        -13    1    4    4    0    0  0.35288747301E+02 -0.56460514104E+02  0.88791061625E+02  0.11098170103E+03  0.00000000000E+00 0.  1.
         13    1    4    4    0    0  0.22463510949E+01  0.33161075347E+02  0.25157329721E+02  0.41684460535E+02  0.00000000000E+00 0. -1.
        -13    1    3    3    0    0 -0.27129577207E+02  0.28867730526E+02 -0.10643688896E+03  0.11357011560E+03  0.00000000000E+00 0. -1.
         13    1    3    3    0    0 -0.26006894598E+02 -0.22179364912E+02  0.33804222436E+01  0.34346907416E+02  0.00000000000E+00 0.  1.
          3    1    1    2  501    0  0.15601373409E+02  0.16611073143E+02  0.10231715580E+03  0.10482428619E+03  0.00000000000E+00 0. -1.
<scales pt_clust_5="13000.00000" pt_clust_6="13000.00000" pt_clust_7="13000.00000" pt_clust_8="13000.00000" pt_clust_9="22.78883"></scales>
<clustering>
<clus scale="   22.789">  1  9  2 -1</clus>
<clus scale="   91.493">  5  6 -1 -1</clus>
<clus scale="   91.600">  7  8 -1 -1</clus>
<clus scale="  105.086">  1  5  2 -1</clus>
<clus scale="   22.789">  1  5  2 -1</clus>
</clustering>
</event>
<event>
 9    1  0.1504846E-005  0.1043276E+03  0.7546771E-02  0.1274635E+00
         21   -1    0    0  501  502  0.00000000000E+00  0.00000000000E+00  0.21486423611E+03  0.21486423611E+03  0.00000000000E+00 0.  1.
         -2   -1    0    0    0  501 -0.00000000000E+00 -0.00000000000E+00 -0.29243901905E+03  0.29243901905E+03  0.00000000000E+00 0.  1.
         23    2    1    2    0    0  0.37942833486E+02  0.20522183168E+02 -0.20398761327E+03  0.22741505589E+03  0.90806622347E+02 0.  0.
         23    2    1    2    0    0 -0.17571993703E+02 -0.10780018299E+02 -0.43332640313E+02  0.10864741648E+03  0.97475943877E+02 0.  0.
        -11    1    4    4    0    0  0.83942799259E+01 -0.50548060480E+02 -0.15205370344E+02  0.53448794570E+02  0.00000000000E+00 0. -1.
         11    1    4    4    0    0 -0.25966273629E+02  0.39768042181E+02 -0.28127269969E+02  0.55198621912E+02  0.00000000000E+00 0.  1.
        -11    1    3    3    0    0  0.52211609604E+02  0.39396023534E+02 -0.18748840274E+03  0.19856988696E+03  0.00000000000E+00 0.  1.
         11    1    3    3    0    0 -0.14268776118E+02 -0.18873840367E+02 -0.16499210532E+02  0.28845168924E+02  0.00000000000E+00 0. -1.
         -2    1    1    2    0  502 -0.20370839783E+02 -0.97421648692E+01  0.16974547064E+03  0.17124078279E+03  0.00000000000E+00 0.  1.
<scales pt_clust_5="13000.00000" pt_clust_6="13000.00000" pt_clust_7="13000.00000" pt_clust_8="13000.00000" pt_clust_9="22.58054"></scales>
<clustering>
<clus scale="   22.581">  1  9  2 -1</clus>
<clus scale="   90.807">  7  8 -1 -1</clus>
<clus scale="   97.476">  5  6 -1 -1</clus>
<clus scale="   98.125">  2  7  1 -1</clus>
<clus scale="   22.581">  1  5  2 -1</clus>
</clustering>
</event>
<event>
 9    1  0.1504846E-005  0.1995847E+03  0.7546771E-02  0.1150659E+00
          2   -1    0    0  502    0 -0.00000000000E+00  0.00000000000E+00  0.51003739430E+03  0.51003739430E+03  0.00000000000E+00 0. -1.
         21   -1    0    0  501  502  0.00000000000E+00 -0.00000000000E+00 -0.13559891327E+03  0.13559891327E+03  0.00000000000E+00 0. -1.
         23    2    1    2    0    0  0.17758108412E+03  0.52784348876E+02  0.26146710451E+03  0.33430520598E+03  0.95255945096E+02 0.  0.
         23    2    1    2    0    0 -0.14636841433E+03 -0.77270699444E+02  0.16197431653E+03  0.24828270551E+03  0.89521779093E+02 0.  0.
        -13    1    3    3    0    0  0.11806337213E+03  0.62084023105E+02  0.11568934312E+03  0.17657126005E+03  0.00000000000E+00 0.  1.
         13    1    3    3    0    0  0.59517711994E+02 -0.92996742290E+01  0.14577776139E+03  0.15773394593E+03  0.00000000000E+00 0. -1.
        -13    1    4    4    0    0 -0.56872083857E+02 -0.80546142632E+02  0.83326716211E+02  0.12909475841E+03  0.00000000000E+00 0. -1.
         13    1    4    4    0    0 -0.89496330477E+02  0.32754431882E+01  0.78647600319E+02  0.11918794710E+03  0.00000000000E+00 0.  1.
          2    1    1    2  501    0 -0.31212669788E+02  0.24486350568E+02 -0.49002940008E+02  0.63048396084E+02  0.00000000000E+00 0. -1.
<scales pt_clust_5="13000.00000" pt_clust_6="13000.00000" pt_clust_7="13000.00000" pt_clust_8="13000.00000" pt_clust_9="39.67130"></scales>
<clustering>
<clus scale="   39.671">  2  9  1 -1</clus>
<clus scale="   89.522">  7  8 -1 -1</clus>
<clus scale="   95.256">  5  6 -1 -1</clus>
<clus scale="  196.912">  2  7  1 -1</clus>
<clus scale="   39.671">  2  5  1 -1</clus>
</clustering>
</event>
<event>
 9    1  0.1504846E-005  0.1310397E+03  0.7546771E-02  0.1226131E+00
         21   -1    0    0  501  502  0.00000000000E+00  0.00000000000E+00  0.27276607187E+03  0.27276607187E+03  0.00000000000E+00 0. -1.
          3   -1    0    0  502    0 -0.00000000000E+00 -0.00000000000E+00 -0.98735718779E+02  0.98735718779E+02  0.00000000000E+00 0. -1.
         23    2    1    2    0    0 -0.10805846699E+03 -0.30281809128E+02  0.35452053551E+02  0.14904230263E+03  0.91450202957E+02 0.  0.
         23    2    1    2    0    0  0.75047429475E+02  0.10872569082E+02  0.54623434476E+02  0.13018345340E+03  0.90629368941E+02 0.  0.
        -11    1    3    3    0    0 -0.43042961055E+00 -0.30355107519E+02  0.27764854526E+02  0.41140065252E+02  0.00000000000E+00 0.  1.
         11    1    3    3    0    0 -0.10762803738E+03  0.73298390664E-01  0.76871990247E+01  0.10790223738E+03  0.00000000000E+00 0. -1.
        -13    1    4    4    0    0  0.59355605499E+02  0.48187192926E+02  0.44484667401E+02  0.88453259409E+02  0.00000000000E+00 0.  1.
         13    1    4    4    0    0  0.15691823976E+02 -0.37314623844E+02  0.10138767075E+02  0.41730193986E+02  0.00000000000E+00 0. -1.
          3    1    1    2  501    0  0.33011037517E+02  0.19409240046E+02  0.83954865060E+02  0.92276034616E+02  0.00000000000E+00 0. -1.
<scales pt_clust_5="13000.00000" pt_clust_6="13000.00000" pt_clust_7="13000.00000" pt_clust_8="13000.00000" pt_clust_9="38.29422"></scales>
<clustering>
<clus scale="   38.294">  1  9  2 -1</clus>
<clus scale="   90.629">  7  8 -1 -1</clus>
<clus scale="   91.450">  5  6 -1 -1</clus>
<clus scale="  130.468">  1  7  2 -1</clus>
<clus scale="   38.294">  1  5  2 -1</clus>
</clustering>
</event>
<event>
 9    1  0.1504846E-005  0.1691550E+03  0.7546771E-02  0.1178844E+00
         21   -1    0    0  501  502  0.00000000000E+00  0.00000000000E+00  0.52718433688E+02  0.52718433688E+02  0.00000000000E+00 0. -1.
         -3   -1    0    0    0  501 -0.00000000000E+00 -0.00000000000E+00 -0.92757952671E+03  0.92757952671E+03  0.00000000000E+00 0.  1.
         23    2    1    2    0    0  0.11017958287E+03 -0.77845262134E+02 -0.50306580337E+03  0.52882103194E+03  0.91526258440E+02 0.  0.
         23    2    1    2    0    0 -0.13814053179E+03  0.69593720752E+02 -0.38084301427E+03  0.42095212018E+03  0.90736946591E+02 0.  0.
        -11    1    4    4    0    0 -0.27594709177E+02  0.24898752813E+02 -0.20596220734E+03  0.20928890730E+03  0.00000000000E+00 0.  1.
         11    1    4    4    0    0 -0.11054582261E+03  0.44694967939E+02 -0.17488080694E+03  0.21166321289E+03  0.00000000000E+00 0. -1.
        -13    1    3    3    0    0  0.68070193038E+02  0.53096491131E+01 -0.17763202865E+03  0.19030207869E+03  0.00000000000E+00 0. -1.
         13    1    3    3    0    0  0.42109389829E+02 -0.83154911247E+02 -0.32543377473E+03  0.33851895325E+03  0.00000000000E+00 0.  1.
         -3    1    1    2    0  502  0.27960948918E+02  0.82515413824E+01  0.90477246185E+01  0.30524808277E+02  0.00000000000E+00 0.  1.
<scales pt_clust_5="13000.00000" pt_clust_6="13000.00000" pt_clust_7="13000.00000" pt_clust_8="13000.00000" pt_clust_9="29.15309"></scales>
<clustering>
<clus scale="   29.153">  1  9  2 -1</clus>
<clus scale="   90.737">  5  6 -1 -1</clus>
<clus scale="   91.526">  7  8 -1 -1</clus>
<clus scale="  168.729">  1  5  2 -1</clus>
<clus scale="   29.153">  1  5  2 -1</clus>
</clustering>
</event>
<event>
 9    1  0.1504846E-005  0.1223962E+03  0.7546771E-02  0.1274118E+00
         21   -1    0    0  501  502  0.00000000000E+00  0.00000000000E+00  0.83047186276E+02  0.83047186276E+02  0.00000000000E+00 0.  1.
         -3   -1    0    0    0  501 -0.00000000000E+00 -0.00000000000E+00 -0.25196341932E+03  0.25196341932E+03  0.00000000000E+00 0.  1.
         23    2    1    2    0    0  0.77957206616E+01 -0.13827085207E+02 -0.58319013346E+02  0.84663573781E+02  0.59286186095E+02 0.  0.
         23    2    1    2    0    0  0.89068042566E+01 -0.70333624377E+02 -0.11741016943E+03  0.16427487802E+03  0.90415362528E+02 0.  0.
        -11    1    3    3    0    0 -0.22492586950E+02 -0.58740240274E+01 -0.65361933491E+01  0.24148342583E+02  0.00000000000E+00 0.  1.
         11    1    3    3    0    0  0.30288307612E+02 -0.79530611794E+01 -0.51782819997E+02  0.60515231198E+02  0.00000000000E+00 0. -1.
        -13    1    4    4    0    0  0.28198079346E+02 -0.85446000737E+02 -0.97745513557E+02  0.13285456763E+03  0.00000000000E+00 0.  1.
         13    1    4    4    0    0 -0.19291275090E+02  0.15112376359E+02 -0.19664655876E+02  0.31420310382E+02  0.00000000000E+00 0. -1.
         -3    1    1    2    0  502 -0.16702524918E+02  0.84160709584E+02  0.68129497311E+01  0.86072153804E+02  0.00000000000E+00 0.  1.
<scales pt_clust_5="13000.00000" pt_clust_6="13000.00000" pt_clust_7="13000.00000" pt_clust_8="13000.00000" pt_clust_9="82.49785"></scales>
<clustering>
<clus scale="   59.286">  5  6 -1 -1</clus>
<clus scale="   61.374">  2  5  1 -1</clus>
<clus scale="   82.498">  1  9  2 -1</clus>
<clus scale="   90.415">  7  8 -1 -1</clus>
<clus scale="   82.498">  1  5  2 -1</clus>
</clustering>
</event>
<event>
 9    1  0.1504846E-005  0.1095508E+03  0.7546771E-02  0.1262704E+00
          2   -1    0    0  502    0 -0.00000000000E+00  0.00000000000E+00  0.30219161155E+03  0.30219161155E+03  0.00000000000E+00 0. -1.
         21   -1    0    0  501  502  0.00000000000E+00 -0.00000000000E+00 -0.12729135410E+03  0.12729135410E+03  0.00000000000E+00 0.  1.
         23    2    1    2    0    0 -0.55196787415E+02 -0.34409808129E+02  0.18691515649E+03  0.21928050037E+03  0.94424265311E+02 0.  0.
         23    2    1    2    0    0 -0.31377781153E+02  0.66897988320E+02 -0.71588958732E+01  0.11760538897E+03  0.91213330902E+02 0.  0.
        -11    1    4    4    0    0 -0.53094198592E+02  0.61967700797E+02 -0.28816828941E+02  0.86541316701E+02  0.00000000000E+00 0.  1.
         11    1    4    4    0    0  0.21716417439E+02  0.49302875238E+01  0.21657933067E+02  0.31064072273E+02  0.00000000000E+00 0. -1.
        -13    1    3    3    0    0 -0.26614968498E+02  0.18776382705E+02  0.12805412649E+02  0.34998395516E+02  0.00000000000E+00 0. -1.
         13    1    3    3    0    0 -0.28581818918E+02 -0.53186190833E+02  0.17410974384E+03  0.18428210485E+03  0.00000000000E+00 0.  1.
          2    1    1    2  501    0  0.86574568568E+02 -0.32488180192E+02 -0.48560031685E+01  0.92597076313E+02  0.00000000000E+00 0. -1.
<scales pt_clust_5="13000.00000" pt_clust_6="13000.00000" pt_clust_7="13000.00000" pt_clust_8="13000.00000" pt_clust_9="92.46966"></scales>
<clustering>
<clus scale="   91.213">  5  6 -1 -1</clus>
<clus scale="   92.470">  2  9  1 -1</clus>
<clus scale="   94.424">  7  8 -1 -1</clus>
<clus scale="  106.796">  2  5  1 -1</clus>
<clus scale="   92.470">  2  5  1 -1</clus>
</clustering>
</event>
<event>
 9    1  0.1504846E-005  0.9596172E+02  0.7546771E-02  0.1295182E+00
          3   -1    0    0  502    0 -0.00000000000E+00  0.00000000000E+00  0.19084952364E+03  0.19084952364E+03  0.00000000000E+00 0. -1.
         21   -1    0    0  501  502  0.00000000000E+00 -0.00000000000E+00 -0.16222412754E+03  0.16222412754E+03  0.00000000000E+00 0. -1.
         23    2    1    2    0    0  0.78635852259E+01 -0.12956204315E+02  0.58989660132E+02  0.10203023510E+03  0.81857740432E+02 0.  0.
         23    2    1    2    0    0  0.49793182314E+02  0.25055414794E+02  0.74101654865E+02  0.13111084358E+03  0.92692304077E+02 0.  0.
        -11    1    4    4    0    0  0.25266034237E+02  0.36572057011E+02 -0.75437228878E+01  0.45086534521E+02  0.00000000000E+00 0.  1.
         11    1    4    4    0    0  0.24527148077E+02 -0.11516642217E+02  0.81645377753E+02  0.86024309059E+02  0.00000000000E+00 0. -1.
        -11    1    3    3    0    0 -0.15841194499E+02 -0.21440330203E+02  0.69734435176E+02  0.74656028904E+02  0.00000000000E+00 0.  1.
         11    1    3    3    0    0  0.23704779725E+02  0.84841258873E+01 -0.10744775045E+02  0.27374206192E+02  0.00000000000E+00 0. -1.
          3    1    1    2  501    0 -0.57656767540E+02 -0.12099210479E+02 -0.10446591889E+03  0.11993257250E+03  0.00000000000E+00 0. -1.
<scales pt_clust_5="13000.00000" pt_clust_6="13000.00000" pt_clust_7="13000.00000" pt_clust_8="13000.00000" pt_clust_9="58.91259"></scales>
<clustering>
<clus scale="   58.913">  2  9  1 -1</clus>
<clus scale="   81.858">  7  8 -1 -1</clus>
<clus scale="   85.542">  1  7  2 -1</clus>
<clus scale="   92.692">  5  6 -1 -1</clus>
<clus scale="   58.913">  2  5  1 -1</clus>
</clustering>
</event>
<event>
 9    1  0.1504846E-005  0.1184041E+03  0.7546771E-02  0.1247041E+00
         -1   -1    0    0    0  501 -0.00000000000E+00  0.00000000000E+00  0.79617288790E+03  0.79617288790E+03  0.00000000000E+00 0.  1.
         21   -1    0    0  501  502  0.00000000000E+00 -0.00000000000E+00 -0.62030256737E+02  0.62030256737E+02  0.00000000000E+00 0. -1.
         23    2    1    2    0    0 -0.65807080944E+02 -0.64365062010E+02  0.12420387407E+03  0.18039175420E+03  0.92957783639E+02 0.  0.
         23    2    1    2    0    0 -0.79342227189E+00  0.52798362471E+02  0.63396791063E+02  0.12710499298E+03  0.96686242688E+02 0.  0.
        -11    1    4    4    0    0 -0.30284729130E+02 -0.43882018291E+01 -0.73535004675E+01  0.31472132163E+02  0.00000000000E+00 0. -1.
         11    1    4    4    0    0  0.29491306858E+02  0.57186564300E+02  0.70750291531E+02  0.95632860818E+02  0.00000000000E+00 0.  1.
        -13    1    3    3    0    0 -0.37743168678E+02  0.13191108180E+01  0.96766394550E+02  0.10387503044E+03  0.00000000000E+00 0. -1.
         13    1    3    3    0    0 -0.28063912266E+02 -0.65684172828E+02  0.27437479515E+02  0.76516723753E+02  0.00000000000E+00 0.  1.
         -1    1    1    2    0  502  0.66600503216E+02  0.11566699539E+02  0.54654196604E+03  0.55070639746E+03  0.00000000000E+00 0.  1.
<scales pt_clust_5="13000.00000" pt_clust_6="13000.00000" pt_clust_7="13000.00000" pt_clust_8="13000.00000" pt_clust_9="67.59749"></scales>
<clustering>
<clus scale="   67.597">  2  9  1 -1</clus>
<clus scale="   92.958">  7  8 -1 -1</clus>
<clus scale="   96.686">  5  6 -1 -1</clus>
<clus scale="  115.380">  1  7  2 -1</clus>
<clus scale="   67.597">  2  5  1 -1</clus>
</clustering>
</event>
<event>
 9    1  0.1504846E-005  0.1011394E+03  0.7546771E-02  0.1286753E+00
         21   -1    0    0  501  502  0.00000000000E+00  0.00000000000E+00  0.11186241063E+03  0.11186241063E+03  0.00000000000E+00 0. -1.
         -1   -1    0    0    0  501 -0.00000000000E+00 -0.00000000000E+00 -0.24377143197E+03  0.24377143197E+03  0.00000000000E+00 0.  1.
         23    2    1    2    0    0 -0.47785995375E+02 -0.18323274100E+01 -0.13206339282E+03  0.17206710836E+03  0.99395630079E+02 0.  0.
         23    2    1    2    0    0 -0.35356151047E+02  0.15163423970E+02 -0.25784373930E+02  0.95457976660E+02  0.83470980140E+02 0.  0.
        -11    1    3    3    0    0 -0.30743146465E+02 -0.41227268743E+02 -0.11481706105E+03  0.12580853012E+03  0.00000000000E+00 0. -1.
         11    1    3    3    0    0 -0.17042848910E+02  0.39394941333E+02 -0.17246331775E+02  0.46258578246E+02  0.00000000000E+00 0.  1.
        -11    1    4    4    0    0 -0.38678840558E+02 -0.65188082497E+01  0.20485737738E+02  0.44251700742E+02  0.00000000000E+00 0. -1.
         11    1    4    4    0    0  0.33226895101E+01  0.21682232220E+02 -0.46270111668E+02  0.51206275918E+02  0.00000000000E+00 0.  1.
         -1    1    1    2    0  502  0.83142146422E+02 -0.13331096560E+02  0.25938745413E+02  0.88108757572E+02  0.00000000000E+00 0.  1.
<scales pt_clust_5="13000.00000" pt_clust_6="13000.00000" pt_clust_7="13000.00000" pt_clust_8="13000.00000" pt_clust_9="84.20412"></scales>
<clustering>
<clus scale="   83.471">  7  8 -1 -1</clus>
<clus scale="   84.204">  1  9  2 -1</clus>
<clus scale="   85.540">  1  7  2 -1</clus>
<clus scale="   99.396">  5  6 -1 -1</clus>
<clus scale="   84.204">  1  5  2 -1</clus>
</clustering>
</event>
<event>
 9    1  0.1504846E-005  0.1248990E+03  0.7546771E-02  0.1236911E+00
          3   -1    0    0  502    0 -0.00000000000E+00  0.00000000000E+00  0.58451922042E+03  0.58451922042E+03  0.00000000000E+00 0. -1.
         21   -1    0    0  501  502  0.00000000000E+00 -0.00000000000E+00 -0.30627245090E+02  0.30627245090E+02  0.00000000000E+00 0.  1.
         23    2    1    2    0    0 -0.23683371699E+02  0.89849425948E+02  0.30041818948E+03  0.32633477496E+03  0.87232306730E+02 0.  0.
         23    2    1    2    0    0  0.19083191196E+02 -0.69722320453E+02  0.21483343236E+03  0.24500142972E+03  0.92988852827E+02 0.  0.
        -11    1    4    4    0    0  0.16686627448E+02  0.12602113980E+02  0.80264480216E+01  0.22398229399E+02  0.00000000000E+00 0.  1.
         11    1    4    4    0    0  0.23965637482E+01 -0.82324434433E+02  0.20680698433E+03  0.22260320032E+03  0.00000000000E+00 0. -1.
        -13    1    3    3    0    0 -0.50149508127E+02  0.78578583440E+02  0.18213383984E+03  0.20460279215E+03  0.00000000000E+00 0.  1.
         13    1    3    3    0    0  0.26466136428E+02  0.11270842508E+02  0.11828434964E+03  0.12173198280E+03  0.00000000000E+00 0. -1.
          3    1    1    2  501    0  0.46001805028E+01 -0.20127105495E+02  0.38640353491E+02  0.43810260832E+02  0.00000000000E+00 0. -1.
<scales pt_clust_5="13000.00000" pt_clust_6="13000.00000" pt_clust_7="13000.00000" pt_clust_8="13000.00000" pt_clust_9="20.64611"></scales>
<clustering>
<clus scale="   20.646">  2  9  1 -1</clus>
<clus scale="   87.232">  7  8 -1 -1</clus>
<clus scale="   92.989">  5  6 -1 -1</clus>
<clus scale="  120.674">  1  7  2 -1</clus>
<clus scale="   20.646">  2  5  1 -1</clus>
</clustering>
</event>
<event>
 9    1  0.1504846E-005  0.1263615E+03  0.7546771E-02  0.1235129E+00
         21   -1    0    0  501  502  0.00000000000E+00  0.00000000000E+00  0.88052404382E+03  0.88052404382E+03  0.00000000000E+00 0.  1.
          3   -1    0    0  502    0 -0.00000000000E+00 -0.00000000000E+00 -0.25607417044E+02  0.25607417044E+02  0.00000000000E+00 0. -1.
         23    2    1    2    0    0  0.39444808604E+02 -0.79046241459E+02  0.21735186494E+03  0.25139234792E+03  0.90288859686E+02 0.  0.
         23    2    1    2    0    0 -0.20580704503E+02  0.62394643709E+02  0.43495569531E+03  0.45057358214E+03  0.97536860107E+02 0.  0.
        -11    1    3    3    0    0  0.12671525802E+02 -0.36890543515E+02  0.19097032620E+03  0.19491317364E+03  0.00000000000E+00 0.  1.
         11    1    3    3    0    0  0.26773282802E+02 -0.42155697944E+02  0.26381538736E+02  0.56479174279E+02  0.00000000000E+00 0. -1.
        -11    1    4    4    0    0  0.39100250668E+02  0.28255327772E+02  0.20220878804E+03  0.20788359029E+03  0.00000000000E+00 0.  1.
         11    1    4    4    0    0 -0.59680955171E+02  0.34139315937E+02  0.23274690727E+03  0.24268999185E+03  0.00000000000E+00 0. -1.
          3    1    1    2  501    0 -0.18864104101E+02  0.16651597750E+02  0.20260906653E+03  0.20416553081E+03  0.00000000000E+00 0. -1.
<scales pt_clust_5="13000.00000" pt_clust_6="13000.00000" pt_clust_7="13000.00000" pt_clust_8="13000.00000" pt_clust_9="25.16208"></scales>
<clustering>
<clus scale="   25.162">  1  9  2 -1</clus>
<clus scale="   90.289">  5  6 -1 -1</clus>
<clus scale="   97.537">  7  8 -1 -1</clus>
<clus scale="  120.855">  2  5  1 -1</clus>
<clus scale="   25.162">  1  5  2 -1</clus>
</clustering>
</event>
<event>
 9    1  0.1504846E-005  0.1373556E+03  0.7546771E-02  0.1217005E+00
          1   -1    0    0  502    0 -0.00000000000E+00  0.00000000000E+00  0.44338126934E+03  0.44338126934E+03  0.00000000000E+00 0. -1.
         21   -1    0    0  501  502  0.00000000000E+00 -0.00000000000E+00 -0.17035077151E+03  0.17035077151E+03  0.00000000000E+00 0. -1.
         23    2    1    2    0    0  0.82050066254E+02 -0.80876441950E+02  0.34007827522E+03  0.37022314859E+03  0.90214933581E+02 0.  0.
         23    2    1    2    0    0 -0.22365622298E+02  0.72894460224E+02  0.36378598749E+02  0.12383032207E+03  0.90535754396E+02 0.  0.
        -11    1    3    3    0    0  0.56642861429E+02 -0.43384562592E+01  0.81383301560E+02  0.99249572928E+02  0.00000000000E+00 0.  1.
         11    1    3    3    0    0  0.25407204825E+02 -0.76537985691E+02  0.25869497366E+03  0.27097357566E+03  0.00000000000E+00 0. -1.
        -11    1    4    4    0    0 -0.46892263017E+02  0.28292996955E+02  0.46605421109E+02  0.71912747718E+02  0.00000000000E+00 0.  1.
         11    1    4    4    0    0  0.24526640719E+02  0.44601463269E+02 -0.10226822361E+02  0.51917574349E+02  0.00000000000E+00 0. -1.
          1    1    1    2  501    0 -0.59684443956E+02  0.79819817259E+01 -0.10342637614E+03  0.11967857020E+03  0.00000000000E+00 0. -1.
<scales pt_clust_5="13000.00000" pt_clust_6="13000.00000" pt_clust_7="13000.00000" pt_clust_8="13000.00000" pt_clust_9="60.21582"></scales>
<clustering>
<clus scale="   60.216">  2  9  1 -1</clus>
<clus scale="   90.215">  5  6 -1 -1</clus>
<clus scale="   90.536">  7  8 -1 -1</clus>
<clus scale="  137.144">  1  5  2 -1</clus>
<clus scale="   60.216">  2  5  1 -1</clus>
</clustering>
</event>
<event>
 9    1  0.1504846E-005  0.1084616E+03  0.7546771E-02  0.1264528E+00
         21   -1    0    0  501  502  0.00000000000E+00  0.00000000000E+00  0.14581323265E+03  0.14581323265E+03  0.00000000000E+00 0. -1.
         -1   -1    0    0    0  501 -0.00000000000E+00 -0.00000000000E+00 -0.19362419555E+03  0.19362419555E+03  0.00000000000E+00 0.  1.
         23    2    1    2    0    0 -0.20545905386E+01  0.49567532620E+02 -0.12138535794E+03  0.16036042802E+03  0.92303305040E+02 0.  0.
         23    2    1    2    0    0 -0.23709300524E+02 -0.69476208798E+02  0.82143815546E+02  0.14540849207E+03  0.94904945151E+02 0.  0.
        -13    1    3    3    0    0 -0.43879928252E+02  0.42922608739E+02 -0.82781883009E+02  0.10305648257E+03  0.00000000000E+00 0.  1.
         13    1    3    3    0    0  0.41825337713E+02  0.66449238809E+01 -0.38603474926E+02  0.57303945454E+02  0.00000000000E+00 0. -1.
        -13    1    4    4    0    0  0.29632736106E+02 -0.39956165558E+02  0.96250211762E+01  0.50667891686E+02  0.00000000000E+00 0.  1.
         13    1    4    4    0    0 -0.53342036631E+02 -0.29520043240E+02  0.72518794370E+02  0.94740600387E+02  0.00000000000E+00 0. -1.
         -1    1    1    2    0  502  0.25763891063E+02  0.19908676178E+02 -0.85694205101E+01  0.33668508101E+02  0.00000000000E+00 0.  1.
<scales pt_clust_5="13000.00000" pt_clust_6="13000.00000" pt_clust_7="13000.00000" pt_clust_8="13000.00000" pt_clust_9="32.55971"></scales>
<clustering>
<clus scale="   32.560">  1  9  2 -1</clus>
<clus scale="   92.303">  5  6 -1 -1</clus>
<clus scale="   94.905">  7  8 -1 -1</clus>
<clus scale="  106.193">  2  5  1 -1</clus>
<clus scale="   32.560">  1  5  2 -1</clus>
</clustering>
</event>
<event>
 9    1  0.1504846E-005  0.1013808E+03  0.7546771E-02  0.1280966E+00
         -1   -1    0    0    0  501 -0.00000000000E+00  0.00000000000E+00  0.19302741604E+03  0.19302741604E+03  0.00000000000E+00 0.  1.
         21   -1    0    0  501  502  0.00000000000E+00 -0.00000000000E+00 -0.74387917588E+02  0.74387917588E+02  0.00000000000E+00 0.  1.
         23    2    1    2    0    0 -0.13506259805E+02  0.28458397778E+02  0.70690979637E+02  0.12450718485E+03  0.97532174272E+02 0.  0.
         23    2    1    2    0    0  0.32480001728E+02 -0.23677781795E+01  0.53518207630E+02  0.11017063594E+03  0.90624574976E+02 0.  0.
        -11    1    4    4    0    0  0.18680298209E+01  0.26138024604E+02  0.62160356887E+02  0.67458104287E+02  0.00000000000E+00 0.  1.
         11    1    4    4    0    0  0.30611971907E+02 -0.28505802784E+02 -0.86421492568E+01  0.42712531653E+02  0.00000000000E+00 0. -1.
        -13    1    3    3    0    0  0.27694111918E+02  0.39829516792E+01  0.71287406534E+02  0.76581473408E+02  0.00000000000E+00 0.  1.
         13    1    3    3    0    0 -0.41200371723E+02  0.24475446099E+02 -0.59642689627E+00  0.47925711439E+02  0.00000000000E+00 0. -1.
         -1    1    1    2    0  502 -0.18973741923E+02 -0.26090619598E+02 -0.55696888158E+01  0.32737512842E+02  0.00000000000E+00 0.  1.
<scales pt_clust_5="13000.00000" pt_clust_6="13000.00000" pt_clust_7="13000.00000" pt_clust_8="13000.00000" pt_clust_9="32.26024"></scales>
<clustering>
<clus scale="   32.260">  2  9  1 -1</clus>
<clus scale="   90.625">  5  6 -1 -1</clus>
<clus scale="   94.754">  2  5  1 -1</clus>
<clus scale="   97.532">  7  8 -1 -1</clus>
<clus scale="   32.260">  2  5  1 -1</clus>
</clustering>
</event>
<event>
 9    1  0.1504846E-005  0.1095516E+03  0.7546771E-02  0.1275094E+00
         21   -1    0    0  501  502  0.00000000000E+00  0.00000000000E+00  0.53090295965E+02  0.53090295965E+02  0.00000000000E+00 0.  1.
         -1   -1    0    0    0  501 -0.00000000000E+00 -0.00000000000E+00 -0.45275719874E+03  0.45275719874E+03  0.00000000000E+00 0.  1.
         23    2    1    2    0    0  0.59458283967E+02 -0.24754413162E+02 -0.37165516103E+03  0.38768228835E+03  0.89565224721E+02 0.  0.
         23    2    1    2    0    0 -0.63318609365E+02 -0.53671005574E+01 -0.22519585048E+02  0.87304689735E+02  0.55470037666E+02 0.  0.
        -11    1    4    4    0    0 -0.11665858844E+02 -0.25865835104E+02 -0.11685231315E+02  0.30686777594E+02  0.00000000000E+00 0.  1.
         11    1    4    4    0    0 -0.51652750521E+02  0.20498734547E+02 -0.10834353733E+02  0.56617912141E+02  0.00000000000E+00 0. -1.
        -13    1    3    3    0    0 -0.22141907833E+02 -0.39545482774E+01 -0.12607314555E+03  0.12806381442E+03  0.00000000000E+00 0.  1.
         13    1    3    3    0    0  0.81600191800E+02 -0.20799864884E+02 -0.24558201548E+03  0.25961847393E+03  0.00000000000E+00 0. -1.
         -1    1    1    2    0  502  0.38603253977E+01  0.30121513719E+02 -0.54921567022E+01  0.30860516622E+02  0.00000000000E+00 0.  1.
<scales pt_clust_5="13000.00000" pt_clust_6="13000.00000" pt_clust_7="13000.00000" pt_clust_8="13000.00000" pt_clust_9="30.36787"></scales>
<clustering>
<clus scale="   30.368">  1  9  2 -1</clus>
<clus scale="   55.470">  5  6 -1 -1</clus>
<clus scale="   84.003">  1  5  2 -1</clus>
<clus scale="   89.565">  7  8 -1 -1</clus>
<clus scale="   30.368">  1  5  2 -1</clus>
</clustering>
</event>
<event>
 9    1  0.1504846E-005  0.9971585E+02  0.7546771E-02  0.1281211E+00
          4   -1    0    0  502    0 -0.00000000000E+00  0.00000000000E+00  0.21568662742E+03  0.21568662742E+03  0.00000000000E+00 0. -1.
         21   -1    0    0  501  502  0.00000000000E+00 -0.00000000000E+00 -0.13944314623E+03  0.13944314623E+03  0.00000000000E+00 0. -1.
         23    2    1    2    0    0  0.32829611632E+02  0.24141982330E+02  0.15750589026E+03  0.18711947756E+03  0.92439032364E+02 0.  0.
         23    2    1    2    0    0  0.31608554976E+01 -0.37656330367E+02 -0.29547565435E+02  0.10357136082E+03  0.91793125749E+02 0.  0.
        -13    1    4    4    0    0 -0.15164944382E+02 -0.59527535308E+02  0.14424360336E+01  0.61445777883E+02  0.00000000000E+00 0.  1.
         13    1    4    4    0    0  0.18325799879E+02  0.21871204941E+02 -0.30990001469E+02  0.42125582937E+02  0.00000000000E+00 0. -1.
        -13    1    3    3    0    0 -0.27680204344E+02  0.77648191995E+01  0.92276534353E+02  0.96651150649E+02  0.00000000000E+00 0.  1.
         13    1    3    3    0    0  0.60509815976E+02  0.16377163130E+02  0.65229355910E+02  0.90468326911E+02  0.00000000000E+00 0. -1.
          4    1    1    2  501    0 -0.35990467130E+02  0.13514348037E+02 -0.51714843628E+02  0.64438935269E+02  0.00000000000E+00 0. -1.
<scales pt_clust_5="13000.00000" pt_clust_6="13000.00000" pt_clust_7="13000.00000" pt_clust_8="13000.00000" pt_clust_9="38.44413"></scales>
<clustering>
<clus scale="   38.444">  2  9  1 -1</clus>
<clus scale="   91.793">  5  6 -1 -1</clus>
<clus scale="   92.439">  7  8 -1 -1</clus>
<clus scale="   99.117">  2  5  1 -1</clus>
<clus scale="   38.444">  2  5  1 -1</clus>
</clustering>
</event>
<event>
 9    1  0.1504846E-005  0.9275605E+02  0.7546771E-02  0.1297257E+00
         21   -1    0    0  501  502  0.00000000000E+00  0.00000000000E+00  0.67536917085E+02  0.67536917085E+02  0.00000000000E+00 0. -1.
         -1   -1    0    0    0  501 -0.00000000000E+00 -0.00000000000E+00 -0.17734245487E+03  0.17734245487E+03  0.00000000000E+00 0.  1.
         23    2    1    2    0    0  0.22480661125E+02  0.10311279470E+02 -0.66645469021E+02  0.11561065172E+03  0.91172921650E+02 0.  0.
         23    2    1    2    0    0  0.58225403155E+01 -0.18444107516E+02 -0.38888810702E+02  0.99512078130E+02  0.89533384937E+02 0.  0.
        -13    1    4    4    0    0  0.28637462232E+02 -0.42545754042E+02 -0.41268977980E+01  0.51451693029E+02  0.00000000000E+00 0. -1.
         13    1    4    4    0    0 -0.22814921916E+02  0.24101646527E+02 -0.34761912904E+02  0.48060385101E+02  0.00000000000E+00 0.  1.
        -13    1    3    3    0    0 -0.22331011420E+02 -0.75105924607E+01 -0.62983967288E+02  0.67246287671E+02  0.00000000000E+00 0.  1.
         13    1    3    3    0    0  0.44811672545E+02  0.17821871931E+02 -0.36615017323E+01  0.48364364053E+02  0.00000000000E+00 0. -1.
         -1    1    1    2    0  502 -0.28303201440E+02  0.81328280459E+01 -0.42712580646E+01  0.29756642103E+02  0.00000000000E+00 0.  1.
<scales pt_clust_5="13000.00000" pt_clust_6="13000.00000" pt_clust_7="13000.00000" pt_clust_8="13000.00000" pt_clust_9="29.44850"></scales>
<clustering>
<clus scale="   29.448">  1  9  2 -1</clus>
<clus scale="   89.533">  5  6 -1 -1</clus>
<clus scale="   91.145">  1  5  2 -1</clus>
<clus scale="   91.173">  7  8 -1 -1</clus>
<clus scale="   29.448">  1  5  2 -1</clus>
</clustering>
</event>
<event>
 9    1  0.1504846E-005  0.9554206E+02  0.7546771E-02  0.1290193E+00
         -4   -1    0    0    0  501 -0.00000000000E+00  0.00000000000E+00  0.84956576372E+02  0.84956576372E+02  0.00000000000E+00 0.  1.
         21   -1    0    0  501  502  0.00000000000E+00 -0.00000000000E+00 -0.27681922838E+03  0.27681922838E+03  0.00000000000E+00 0.  1.
         23    2    1    2    0    0 -0.10892557904E+02  0.27744922377E+02 -0.72989169356E+01  0.96958098639E+02  0.91973747167E+02 0.  0.
         23    2    1    2    0    0  0.24630491626E+02 -0.48678771986E+01 -0.19639038738E+02  0.97748123363E+02  0.92404796587E+02 0.  0.
        -13    1    3    3    0    0  0.36852101482E+02  0.74831898218E+00  0.12076887879E+02  0.38787737570E+02  0.00000000000E+00 0.  1.
         13    1    3    3    0    0 -0.47744659386E+02  0.26996603394E+02 -0.19375804814E+02  0.58170361069E+02  0.00000000000E+00 0. -1.
        -13    1    4    4    0    0 -0.17504608438E+01  0.39625501494E+02  0.58320010307E+01  0.40090606354E+02  0.00000000000E+00 0.  1.
         13    1    4    4    0    0  0.26380952470E+02 -0.44493378693E+02 -0.25471039769E+02  0.57657517009E+02  0.00000000000E+00 0. -1.
         -4    1    1    2    0  502 -0.13737933722E+02 -0.22877045178E+02 -0.16492469633E+03  0.16706958275E+03  0.00000000000E+00 0.  1.
<scales pt_clust_5="13000.00000" pt_clust_6="13000.00000" pt_clust_7="13000.00000" pt_clust_8="13000.00000" pt_clust_9="26.68501"></scales>
<clustering>
<clus scale="   26.685">  2  9  1 -1</clus>
<clus scale="   91.974">  5  6 -1 -1</clus>
<clus scale="   92.405">  7  8 -1 -1</clus>
<clus scale="   95.125">  1  5  2 -1</clus>
<clus scale="   26.685">  2  5  1 -1</clus>
</clustering>
</event>
<event>
 9    1  0.1504846E-005  0.1000567E+03  0.7546771E-02  0.1280302E+00
         21   -1    0    0  501  502  0.00000000000E+00  0.00000000000E+00  0.20478770840E+02  0.20478770840E+02  0.00000000000E+00 0. -1.
          2   -1    0    0  502    0 -0.00000000000E+00 -0.00000000000E+00 -0.87162587371E+03  0.87162587371E+03  0.00000000000E+00 0. -1.
         23    2    1    2    0    0 -0.50462910247E+02  0.85876706735E+01 -0.48535565486E+03  0.49672536298E+03  0.92443069652E+02 0.  0.
         23    2    1    2    0    0  0.12446663893E+02  0.17598322378E+02 -0.17375323039E+03  0.19787075455E+03  0.92184760358E+02 0.  0.
        -11    1    4    4    0    0 -0.45380645321E+01 -0.34476471029E+02 -0.38136783388E+02  0.51610418827E+02  0.00000000000E+00 0. -1.
         11    1    4    4    0    0  0.16984728425E+02  0.52074793407E+02 -0.13561644700E+03  0.14626033572E+03  0.00000000000E+00 0.  1.
        -13    1    3    3    0    0 -0.70681516240E+02  0.28540316386E+02 -0.38237532553E+03  0.38989910999E+03  0.00000000000E+00 0. -1.
         13    1    3    3    0    0  0.20218605993E+02 -0.19952645712E+02 -0.10298032933E+03  0.10682625299E+03  0.00000000000E+00 0.  1.
          2    1    1    2  501    0  0.38016246353E+02 -0.26185993051E+02 -0.19203821762E+03  0.19750852702E+03  0.00000000000E+00 0. -1.
<scales pt_clust_5="13000.00000" pt_clust_6="13000.00000" pt_clust_7="13000.00000" pt_clust_8="13000.00000" pt_clust_9="46.16214"></scales>
<clustering>
<clus scale="   46.162">  1  9  2 -1</clus>
<clus scale="   92.185">  5  6 -1 -1</clus>
<clus scale="   92.443">  7  8 -1 -1</clus>
<clus scale="   99.818">  1  5  2 -1</clus>
<clus scale="   46.162">  1  5  2 -1</clus>
</clustering>
</event>
<event>
 9    1  0.1504846E-005  0.1444374E+03  0.7546771E-02  0.1209388E+00
         21   -1    0    0  501  502  0.00000000000E+00  0.00000000000E+00  0.15065060683E+03  0.15065060683E+03  0.00000000000E+00 0.  1.
         -2   -1    0    0    0  501 -0.00000000000E+00 -0.00000000000E+00 -0.23010431741E+03  0.23010431741E+03  0.00000000000E+00 0.  1.
         23    2    1    2    0    0 -0.80039311347E+02 -0.87745837233E+02 -0.12109008669E+03  0.19097477316E+03  0.87766346499E+02 0.  0.
         23    2    1    2    0    0  0.25337466251E+02  0.83632522401E+02  0.28580309028E+02  0.13339156976E+03  0.96644145291E+02 0.  0.
        -11    1    4    4    0    0 -0.26798760425E+02  0.44698772116E+02  0.42022707638E+02  0.66948201965E+02  0.00000000000E+00 0.  1.
         11    1    4    4    0    0  0.52136226677E+02  0.38933750285E+02 -0.13442398610E+02  0.66443367793E+02  0.00000000000E+00 0. -1.
        -11    1    3    3    0    0 -0.51538553276E+02 -0.53825043878E+02 -0.12601139641E+03  0.14639750629E+03  0.00000000000E+00 0.  1.
         11    1    3    3    0    0 -0.28500758071E+02 -0.33920793355E+02  0.49213097239E+01  0.44577266873E+02  0.00000000000E+00 0. -1.
         -2    1    1    2    0  502  0.54701845095E+02  0.41133148317E+01  0.13056067076E+02  0.56388581320E+02  0.00000000000E+00 0.  1.
<scales pt_clust_5="13000.00000" pt_clust_6="13000.00000" pt_clust_7="13000.00000" pt_clust_8="13000.00000" pt_clust_9="54.85628"></scales>
<clustering>
<clus scale="   54.856">  1  9  2 -1</clus>
<clus scale="   87.766">  7  8 -1 -1</clus>
<clus scale="   96.644">  5  6 -1 -1</clus>
<clus scale="  138.654">  2  7  1 -1</clus>
<clus scale="   54.856">  1  5  2 -1</clus>
</clustering>
</event>
<event>
 9    1  0.1504846E-005  0.1083987E+03  0.7546771E-02  0.1264351E+00
          2   -1    0    0  502    0 -0.00000000000E+00  0.00000000000E+00  0.25913103898E+03  0.25913103898E+03  0.00000000000E+00 0. -1.
         21   -1    0    0  501  502  0.00000000000E+00 -0.00000000000E+00 -0.80879529470E+02  0.80879529470E+02  0.00000000000E+00 0. -1.
         23    2    1    2    0    0  0.26797190150E+02 -0.52511349264E+02  0.14475537474E+03  0.18164303009E+03  0.92544803540E+02 0.  0.
         23    2    1    2    0    0 -0.44317340980E+02  0.33821613390E+02  0.59478573799E+02  0.12187988223E+03  0.90603955247E+02 0.  0.
        -11    1    4    4    0    0  0.14834730183E+02  0.38459314784E+02  0.44554069847E+02  0.60698049830E+02  0.00000000000E+00 0.  1.
         11    1    4    4    0    0 -0.59152071163E+02 -0.46377013939E+01  0.14924503952E+02  0.61181832395E+02  0.00000000000E+00 0. -1.
        -13    1    3    3    0    0  0.29302333089E+02 -0.78040714537E+02  0.11899752771E+03  0.14529071357E+03  0.00000000000E+00 0. -1.
         13    1    3    3    0    0 -0.25051429386E+01  0.25529365272E+02  0.25757847031E+02  0.36352316515E+02  0.00000000000E+00 0.  1.
          2    1    1    2  501    0  0.17520150829E+02  0.18689735874E+02 -0.25982439030E+02  0.36487656133E+02  0.00000000000E+00 0. -1.
<scales pt_clust_5="13000.00000" pt_clust_6="13000.00000" pt_clust_7="13000.00000" pt_clust_8="13000.00000" pt_clust_9="25.61761"></scales>
<clustering>
<clus scale="   25.618">  2  9  1 -1</clus>
<clus scale="   90.604">  5  6 -1 -1</clus>
<clus scale="   92.545">  7  8 -1 -1</clus>
<clus scale="  106.746">  2  5  1 -1</clus>
<clus scale="   25.618">  2  5  1 -1</clus>
</clustering>
</event>
<event>
 9    1  0.1504846E-005  0.1157490E+03  0.7546771E-02  0.1250993E+00
         21   -1    0    0  501  502  0.00000000000E+00  0.00000000000E+00  0.47243824004E+02  0.47243824004E+02  0.00000000000E+00 0.  1.
          3   -1    0    0  502    0 -0.00000000000E+00 -0.00000000000E+00 -0.44514853883E+03  0.44514853883E+03  0.00000000000E+00 0. -1.
         23    2    1    2    0    0  0.28728870064E+02 -0.78516219005E+02 -0.23182330159E+03  0.26281197578E+03  0.91312358594E+02 0.  0.
         23    2    1    2    0    0 -0.36438116354E+02  0.40335338441E+02 -0.15528229137E+03  0.18915968503E+03  0.93349454077E+02 0.  0.
        -11    1    4    4    0    0  0.19007219238E+02  0.48338738561E+02 -0.77882382335E+02  0.93613960001E+02  0.00000000000E+00 0. -1.
         11    1    4    4    0    0 -0.55445335593E+02 -0.80034001199E+01 -0.77399909037E+02  0.95545725030E+02  0.00000000000E+00 0.  1.
        -11    1    3    3    0    0  0.36730907235E+02 -0.16615774462E+02 -0.17090468778E+03  0.17559514746E+03  0.00000000000E+00 0. -1.
         11    1    3    3    0    0 -0.80020371713E+01 -0.61900444542E+02 -0.60918613810E+02  0.87216828319E+02  0.00000000000E+00 0.  1.
          3    1    1    2  501    0  0.77092462905E+01  0.38180880563E+02 -0.10799121863E+02  0.40420702022E+02  0.00000000000E+00 0. -1.
<scales pt_clust_5="13000.00000" pt_clust_6="13000.00000" pt_clust_7="13000.00000" pt_clust_8="13000.00000" pt_clust_9="38.95141"></scales>
<clustering>
<clus scale="   38.951">  1  9  2 -1</clus>
<clus scale="   91.312">  7  8 -1 -1</clus>
<clus scale="   93.349">  5  6 -1 -1</clus>
<clus scale="  114.113">  2  7  1 -1</clus>
<clus scale="   38.951">  1  5  2 -1</clus>
</clustering>
</event>
<event>
 9    1  0.1504846E-005  0.1055518E+03  0.7546771E-02  0.1269052E+00
          1   -1    0    0  502    0 -0.00000000000E+00  0.00000000000E+00  0.12481483488E+03  0.12481483488E+03  0.00000000000E+00 0. -1.
         21   -1    0    0  501  502  0.00000000000E+00 -0.00000000000E+00 -0.13672864692E+03  0.13672864692E+03  0.00000000000E+00 0.  1.
         23    2    1    2    0    0  0.40722317871E+02 -0.48732421251E+02  0.31173023850E+02  0.11612555353E+03  0.92088168149E+02 0.  0.
         23    2    1    2    0    0 -0.37099543243E+02  0.10210633597E+02 -0.25874727156E+02  0.10307044538E+03  0.92050975324E+02 0.  0.
        -11    1    4    4    0    0  0.12734964804E+02  0.16294647779E+02 -0.44858888670E+02  0.49396505621E+02  0.00000000000E+00 0.  1.
         11    1    4    4    0    0 -0.49834508047E+02 -0.60840141819E+01  0.18984161514E+02  0.53673939759E+02  0.00000000000E+00 0. -1.
        -13    1    3    3    0    0  0.96419573898E+01 -0.67575128370E+02  0.39463075263E+02  0.78846050159E+02  0.00000000000E+00 0.  1.
         13    1    3    3    0    0  0.31080360481E+02  0.18842707119E+02 -0.82900514130E+01  0.37279503372E+02  0.00000000000E+00 0. -1.
          1    1    1    2  501    0 -0.36227746287E+01  0.38521787654E+02 -0.17212108736E+02  0.42347482891E+02  0.00000000000E+00 0. -1.
<scales pt_clust_5="13000.00000" pt_clust_6="13000.00000" pt_clust_7="13000.00000" pt_clust_8="13000.00000" pt_clust_9="38.69176"></scales>
<clustering>
<clus scale="   38.692">  2  9  1 -1</clus>
<clus scale="   92.051">  5  6 -1 -1</clus>
<clus scale="   92.088">  7  8 -1 -1</clus>
<clus scale="  105.519">  2  5  1 -1</clus>
<clus scale="   38.692">  2  5  1 -1</clus>
</clustering>
</event>
<event>
 9    1  0.1504846E-005  0.1082836E+03  0.7546771E-02  0.1264355E+00
         21   -1    0    0  501  502  0.00000000000E+00  0.00000000000E+00  0.60312272527E+02  0.60312272527E+02  0.00000000000E+00 0. -1.
         -1   -1    0    0    0  501 -0.00000000000E+00 -0.00000000000E+00 -0.24209426370E+03  0.24209426370E+03  0.00000000000E+00 0.  1.
         23    2    1    2    0    0 -0.66170870595E+02  0.31312969362E+01 -0.12132112221E+03  0.16507210901E+03  0.90230800397E+02 0.  0.
         23    2    1    2    0    0  0.45089423706E+02 -0.36338298207E+01 -0.50768047387E+02  0.11412600780E+03  0.91657461074E+02 0.  0.
        -11    1    4    4    0    0  0.71271400702E+02 -0.12437372683E+02 -0.46934338674E+02  0.86238813443E+02  0.00000000000E+00 0. -1.
         11    1    4    4    0    0 -0.26181976996E+02  0.88035428621E+01 -0.38337087132E+01  0.27887194352E+02  0.00000000000E+00 0.  1.
        -11    1    3    3    0    0 -0.35691673910E+02 -0.43328328715E+02 -0.66330841599E+02  0.86896606395E+02  0.00000000000E+00 0.  1.
         11    1    3    3    0    0 -0.30479196685E+02  0.46459625651E+02 -0.54990280615E+02  0.78175502610E+02  0.00000000000E+00 0. -1.
         -1    1    1    2    0  502  0.21081446889E+02  0.50253288445E+00 -0.96928215713E+01  0.23208419426E+02  0.00000000000E+00 0.  1.
<scales pt_clust_5="13000.00000" pt_clust_6="13000.00000" pt_clust_7="13000.00000" pt_clust_8="13000.00000" pt_clust_9="21.08744"></scales>
<clustering>
<clus scale="   21.087">  1  9  2 -1</clus>
<clus scale="   90.231">  7  8 -1 -1</clus>
<clus scale="   91.657">  5  6 -1 -1</clus>
<clus scale="  107.079">  2  7  1 -1</clus>
<clus scale="   21.087">  1  5  2 -1</clus>
</clustering>
</event>
<event>
 9    1  0.1504846E-005  0.9602190E+02  0.7546771E-02  0.1291666E+00
          1   -1    0    0  502    0 -0.00000000000E+00  0.00000000000E+00  0.38827183064E+03  0.38827183064E+03  0.00000000000E+00 0. -1.
         21   -1    0    0  501  502  0.00000000000E+00 -0.00000000000E+00 -0.64038788454E+02  0.64038788454E+02  0.00000000000E+00 0.  1.
         23    2    1    2    0    0 -0.17084813844E+02  0.21819407632E+02  0.22665306288E+03  0.24751585436E+03  0.95522300207E+02 0.  0.
         23    2    1    2    0    0 -0.13116966991E+02  0.11262409615E+02  0.12263539742E+03  0.15346905798E+03  0.90633406440E+02 0.  0.
        -11    1    3    3    0    0 -0.34026893459E+02  0.48238670900E+02  0.19149422542E+03  0.20038671916E+03  0.00000000000E+00 0.  1.
         11    1    3    3    0    0  0.16942079615E+02 -0.26419263268E+02  0.35158837456E+02  0.47129135199E+02  0.00000000000E+00 0. -1.
        -13    1    4    4    0    0  0.68884647845E+00 -0.37461326753E+02  0.75499710430E+02  0.84285418588E+02  0.00000000000E+00 0. -1.
         13    1    4    4    0    0 -0.13805813469E+02  0.48723736368E+02  0.47135686988E+02  0.69183639389E+02  0.00000000000E+00 0.  1.
          1    1    1    2  501    0  0.30201780835E+02 -0.33081817246E+02 -0.25055418103E+02  0.51325706758E+02  0.00000000000E+00 0. -1.
<scales pt_clust_5="13000.00000" pt_clust_6="13000.00000" pt_clust_7="13000.00000" pt_clust_8="13000.00000" pt_clust_9="44.79458"></scales>
<clustering>
<clus scale="   44.795">  2  9  1 -1</clus>
<clus scale="   90.633">  7  8 -1 -1</clus>
<clus scale="   91.160">  2  7  1 -1</clus>
<clus scale="   95.522">  5  6 -1 -1</clus>
<clus scale="   44.795">  2  5  1 -1</clus>
</clustering>
</event>
<event>
 9    1  0.1504846E-005  0.1211279E+03  0.7546771E-02  0.1247340E+00
          1   -1    0    0  502    0 -0.00000000000E+00  0.00000000000E+00  0.15590405105E+03  0.15590405105E+03  0.00000000000E+00 0. -1.
         21   -1    0    0  501  502  0.00000000000E+00 -0.00000000000E+00 -0.19342856434E+03  0.19342856434E+03  0.00000000000E+00 0. -1.
         23    2    1    2    0    0 -0.66882169840E+02  0.43993601429E+01  0.84335176856E+02  0.15262897479E+03  0.10812309132E+03 0.  0.
         23    2    1    2    0    0  0.23421951954E+02 -0.22807933241E+02 -0.47712836901E+02  0.10880926110E+03  0.92163717608E+02 0.  0.
        -11    1    3    3    0    0 -0.96186785215E+02 -0.47892843342E+01  0.67503002899E+02  0.11760735647E+03  0.00000000000E+00 0. -1.
         11    1    3    3    0    0  0.29304615375E+02  0.91886444770E+01  0.16832173956E+02  0.35021618319E+02  0.00000000000E+00 0.  1.
        -13    1    4    4    0    0  0.56094528061E+02 -0.25087502508E+02 -0.16638770126E+02  0.63661821618E+02  0.00000000000E+00 0.  1.
         13    1    4    4    0    0 -0.32672576107E+02  0.22795692672E+01 -0.31074066775E+02  0.45147439479E+02  0.00000000000E+00 0. -1.
          1    1    1    2  501    0  0.43460217886E+02  0.18408573098E+02 -0.74146853248E+02  0.87894379506E+02  0.00000000000E+00 0. -1.
<scales pt_clust_5="13000.00000" pt_clust_6="13000.00000" pt_clust_7="13000.00000" pt_clust_8="13000.00000" pt_clust_9="47.19816"></scales>
<clustering>
<clus scale="   47.198">  2  9  1 -1</clus>
<clus scale="   92.164">  7  8 -1 -1</clus>
<clus scale="  107.124">  2  7  1 -1</clus>
<clus scale="  108.123">  5  6 -1 -1</clus>
<clus scale="   47.198">  2  5  1 -1</clus>
</clustering>
</event>
<event>
 9    1  0.1504846E-005  0.9441055E+02  0.7546771E-02  0.1294272E+00
         -2   -1    0    0    0  501 -0.00000000000E+00  0.00000000000E+00  0.72038802812E+02  0.72038802812E+02  0.00000000000E+00 0.  1.
         21   -1    0    0  501  502  0.00000000000E+00 -0.00000000000E+00 -0.22828689901E+03  0.22828689901E+03  0.00000000000E+00 0.  1.
         23    2    1    2    0    0  0.16064367648E+02  0.28345769092E+02  0.16029771241E+01  0.97415291877E+02  0.91791192510E+02 0.  0.
         23    2    1    2    0    0 -0.44213629895E+01  0.79076084180E+01 -0.10399301010E+03  0.13695165077E+03  0.88651733071E+02 0.  0.
        -11    1    4    4    0    0 -0.44887856079E+02  0.14226278963E+02 -0.66077483973E+02  0.81139019742E+02  0.00000000000E+00 0.  1.
         11    1    4    4    0    0  0.40466493089E+02 -0.63186705452E+01 -0.37915526127E+02  0.55812631025E+02  0.00000000000E+00 0. -1.
        -11    1    3    3    0    0 -0.22789030789E+02  0.45572755973E+02  0.14542911711E+02  0.52987850422E+02  0.00000000000E+00 0.  1.
         11    1    3    3    0    0  0.38853398436E+02 -0.17226986882E+02 -0.12939934587E+02  0.44427441455E+02  0.00000000000E+00 0. -1.
         -2    1    1    2    0  502 -0.11643004658E+02 -0.36253377510E+02 -0.53858063217E+02  0.65958759175E+02  0.00000000000E+00 0.  1.
<scales pt_clust_5="13000.00000" pt_clust_6="13000.00000" pt_clust_7="13000.00000" pt_clust_8="13000.00000" pt_clust_9="38.07712"></scales>
<clustering>
<clus scale="   38.077">  2  9  1 -1</clus>
<clus scale="   88.652">  5  6 -1 -1</clus>
<clus scale="   91.361">  2  5  1 -1</clus>
<clus scale="   91.791">  7  8 -1 -1</clus>
<clus scale="   38.077">  2  5  1 -1</clus>
</clustering>
</event>
<event>
 9    1  0.1504846E-005  0.1295152E+03  0.7546771E-02  0.1228575E+00
         21   -1    0    0  501  502  0.00000000000E+00  0.00000000000E+00  0.83347578432E+02  0.83347578432E+02  0.00000000000E+00 0.  1.
         -1   -1    0    0    0  501 -0.00000000000E+00 -0.00000000000E+00 -0.30656573920E+03  0.30656573920E+03  0.00000000000E+00 0.  1.
         23    2    1    2    0    0 -0.18925729686E+02  0.84494393851E+02 -0.10482442176E+03  0.16346688653E+03  0.90751185977E+02 0.  0.
         23    2    1    2    0    0  0.69999222062E+02 -0.77791355804E+02 -0.71381701122E+02  0.15670717352E+03  0.92251855537E+02 0.  0.
        -11    1    4    4    0    0  0.13633877938E+02  0.20768848687E+02 -0.20837340137E+02  0.32425644904E+02  0.00000000000E+00 0. -1.
         11    1    4    4    0    0  0.56365344124E+02 -0.98560204492E+02 -0.50544360985E+02  0.12428152862E+03  0.00000000000E+00 0.  1.
        -13    1    3    3    0    0 -0.51537576041E+02  0.71107107043E+02 -0.59637731431E+02  0.10615555297E+03  0.00000000000E+00 0. -1.
         13    1    3    3    0    0  0.32611846355E+02  0.13387286809E+02 -0.45186690333E+02  0.57311333556E+02  0.00000000000E+00 0.  1.
         -1    1    1    2    0  502 -0.51073492377E+02 -0.67030380468E+01 -0.47012037880E+02  0.69739257583E+02  0.00000000000E+00 0.  1.
<scales pt_clust_5="13000.00000" pt_clust_6="13000.00000" pt_clust_7="13000.00000" pt_clust_8="13000.00000" pt_clust_9="51.51150"></scales>
<clustering>
<clus scale="   51.512">  1  9  2 -1</clus>
<clus scale="   90.751">  7  8 -1 -1</clus>
<clus scale="   92.252">  5  6 -1 -1</clus>
<clus scale="  128.451">  2  7  1 -1</clus>
<clus scale="   51.512">  1  5  2 -1</clus>
</clustering>
</event>
<event>
 9    1  0.1504846E-005  0.1096390E+03  0.7546771E-02  0.1261467E+00
          1   -1    0    0  502    0 -0.00000000000E+00  0.00000000000E+00  0.25371347384E+03  0.25371347384E+03  0.00000000000E+00 0. -1.
         21   -1    0    0  501  502  0.00000000000E+00 -0.00000000000E+00 -0.74063904438E+02  0.74063904438E+02  0.00000000000E+00 0. -1.
         23    2    1    2    0    0  0.43954841390E+02  0.50257617707E+02  0.78797806651E+02  0.13820572159E+03  0.91836109060E+02 0.  0.
         23    2    1    2    0    0 -0.62670952202E+02 -0.42821815703E+01  0.72645572352E+02  0.13247855108E+03  0.91253503954E+02 0.  0.
        -13    1    4    4    0    0  0.79808304989E+01 -0.33402901372E+02  0.21269592969E+02  0.40396077292E+02  0.00000000000E+00 0.  1.
         13    1    4    4    0    0 -0.70651782701E+02  0.29120719802E+02  0.51375979383E+02  0.92082473784E+02  0.00000000000E+00 0. -1.
        -13    1    3    3    0    0  0.40533222181E+02 -0.18590339445E+02  0.32077740676E+02  0.54931996759E+02  0.00000000000E+00 0.  1.
         13    1    3    3    0    0  0.34216192092E+01  0.68847957153E+02  0.46720065975E+02  0.83273724828E+02  0.00000000000E+00 0. -1.
          1    1    1    2  501    0  0.18716110812E+02 -0.45975436137E+02  0.28206190400E+02  0.57093105615E+02  0.00000000000E+00 0. -1.
<scales pt_clust_5="13000.00000" pt_clust_6="13000.00000" pt_clust_7="13000.00000" pt_clust_8="13000.00000" pt_clust_9="49.63903"></scales>
<clustering>
<clus scale="   49.639">  2  9  1 -1</clus>
<clus scale="   91.254">  5  6 -1 -1</clus>
<clus scale="   91.836">  7  8 -1 -1</clus>
<clus scale="  109.151">  2  5  1 -1</clus>
<clus scale="   49.639">  2  5  1 -1</clus>
</clustering>
</event>
<event>
 9    1  0.1504846E-005  0.9427404E+02  0.7546771E-02  0.1294848E+00
          1   -1    0    0  502    0 -0.00000000000E+00  0.00000000000E+00  0.26431908487E+03  0.26431908487E+03  0.00000000000E+00 0. -1.
         21   -1    0    0  501  502  0.00000000000E+00 -0.00000000000E+00 -0.52778413260E+02  0.52778413260E+02  0.00000000000E+00 0.  1.
         23    2    1    2    0    0 -0.91672378484E+01 -0.15248035415E+02  0.11658897706E+03  0.14748911445E+03  0.88563584353E+02 0.  0.
         23    2    1    2    0    0 -0.16847854097E+02  0.25519530569E+02  0.10194703642E+03  0.14077743800E+03  0.92141153598E+02 0.  0.
        -11    1    4    4    0    0  0.36758549733E+02  0.90596015713E+01  0.59181357804E+02  0.70254540569E+02  0.00000000000E+00 0. -1.
         11    1    4    4    0    0 -0.53606403830E+02  0.16459928997E+02  0.42765678612E+02  0.70522897426E+02  0.00000000000E+00 0.  1.
        -13    1    3    3    0    0 -0.26970264592E+02  0.14566104741E+02  0.55548147859E+01  0.31151605846E+02  0.00000000000E+00 0.  1.
         13    1    3    3    0    0  0.17803026744E+02 -0.29814140157E+02  0.11103416228E+03  0.11633750860E+03  0.00000000000E+00 0. -1.
          1    1    1    2  501    0  0.26015091946E+02 -0.10271495153E+02 -0.69953418672E+01  0.28830945691E+02  0.00000000000E+00 0. -1.
<scales pt_clust_5="13000.00000" pt_clust_6="13000.00000" pt_clust_7="13000.00000" pt_clust_8="13000.00000" pt_clust_9="27.96942"></scales>
<clustering>
<clus scale="   27.969">  2  9  1 -1</clus>
<clus scale="   88.564">  7  8 -1 -1</clus>
<clus scale="   90.781">  1  7  2 -1</clus>
<clus scale="   92.141">  5  6 -1 -1</clus>
<clus scale="   27.969">  2  5  1 -1</clus>
</clustering>
</event>
<event>
 9    1  0.1504846E-005  0.9515628E+02  0.7546771E-02  0.1292251E+00
          1   -1    0    0  502    0 -0.00000000000E+00  0.00000000000E+00  0.34647949870E+03  0.34647949870E+03  0.00000000000E+00 0. -1.
         21   -1    0    0  501  502  0.00000000000E+00 -0.00000000000E+00 -0.12177270827E+03  0.12177270827E+03  0.00000000000E+00 0.  1.
         23    2    1    2    0    0 -0.13163907434E+02  0.28423831575E+02  0.25772738165E+03  0.27567768866E+03  0.92701575569E+02 0.  0.
         23    2    1    2    0    0  0.20428582821E+02  0.41535068568E+02  0.21506160830E+02  0.10357906951E+03  0.90131125428E+02 0.  0.
        -11    1    4    4    0    0  0.34782151247E+02 -0.14689056906E+02  0.25265082345E+02  0.45430065200E+02  0.00000000000E+00 0. -1.
         11    1    4    4    0    0 -0.14353568426E+02  0.56224125474E+02 -0.37589215151E+01  0.58149004315E+02  0.00000000000E+00 0.  1.
        -13    1    3    3    0    0 -0.45459776923E+02 -0.77841432571E+01  0.90799918094E+02  0.10184208035E+03  0.00000000000E+00 0.  1.
         13    1    3    3    0    0  0.32295869489E+02  0.36207974832E+02  0.16692746355E+03  0.17383560831E+03  0.00000000000E+00 0. -1.
          1    1    1    2  501    0 -0.72646753876E+01 -0.69958900144E+02 -0.54526752045E+02  0.88995448796E+02  0.00000000000E+00 0. -1.
<scales pt_clust_5="13000.00000" pt_clust_6="13000.00000" pt_clust_7="13000.00000" pt_clust_8="13000.00000" pt_clust_9="70.33508"></scales>
<clustering>
<clus scale="   70.335">  2  9  1 -1</clus>
<clus scale="   90.131">  5  6 -1 -1</clus>
<clus scale="   92.654">  2  5  1 -1</clus>
<clus scale="   92.702">  7  8 -1 -1</clus>
<clus scale="   70.335">  2  5  1 -1</clus>
</clustering>
</event>
<event>
 9    1  0.1504846E-005  0.1866843E+03  0.7546771E-02  0.1161605E+00
          1   -1    0    0  502    0 -0.00000000000E+00  0.00000000000E+00  0.27840096356E+03  0.27840096356E+03  0.00000000000E+00 0. -1.
         21   -1    0    0  501  502  0.00000000000E+00 -0.00000000000E+00 -0.24842623429E+03  0.24842623429E+03  0.00000000000E+00 0. -1.
         23    2    1    2    0    0 -0.15684431807E+03  0.75493396607E+02  0.18365638491E+03  0.26924715016E+03  0.92005255898E+02 0.  0.
         23    2    1    2    0    0  0.10781942257E+03 -0.61599506933E+02 -0.99948167635E+02  0.18352757790E+03  0.90957179473E+02 0.  0.
        -11    1    4    4    0    0  0.48162668646E+02 -0.54683879713E+01  0.68286570558E+01  0.48950755615E+02  0.00000000000E+00 0.  1.
         11    1    4    4    0    0  0.59656753924E+02 -0.56131118961E+02 -0.10677682469E+03  0.13457682228E+03  0.00000000000E+00 0. -1.
        -13    1    3    3    0    0 -0.46589195376E+02 -0.15414675164E+02  0.22883548978E+02  0.54146303198E+02  0.00000000000E+00 0. -1.
         13    1    3    3    0    0 -0.11025512269E+03  0.90908071771E+02  0.16077283593E+03  0.21510084697E+03  0.00000000000E+00 0.  1.
          1    1    1    2  501    0  0.49024895500E+02 -0.13893889674E+02 -0.53733487999E+02  0.74052469787E+02  0.00000000000E+00 0. -1.
<scales pt_clust_5="13000.00000" pt_clust_6="13000.00000" pt_clust_7="13000.00000" pt_clust_8="13000.00000" pt_clust_9="50.95567"></scales>
<clustering>
<clus scale="   50.956">  2  9  1 -1</clus>
<clus scale="   90.957">  5  6 -1 -1</clus>
<clus scale="   92.005">  7  8 -1 -1</clus>
<clus scale="  186.170">  2  5  1 -1</clus>
<clus scale="   50.956">  2  5  1 -1</clus>
</clustering>
</event>
<event>
 9    1  0.1504846E-005  0.9817588E+02  0.7546771E-02  0.1284254E+00
         -1   -1    0    0    0  501 -0.00000000000E+00  0.00000000000E+00  0.15954955915E+03  0.15954955915E+03  0.00000000000E+00 0.  1.
         21   -1    0    0  501  502  0.00000000000E+00 -0.00000000000E+00 -0.79106344812E+02  0.79106344812E+02  0.00000000000E+00 0. -1.
         23    2    1    2    0    0  0.37209740064E+02  0.23890518096E+02  0.44402791727E+02  0.11019086964E+03  0.90637179056E+02 0.  0.
         23    2    1    2    0    0 -0.12221694258E+02 -0.32431842650E+02  0.28105244702E+02  0.10089106641E+03  0.90487061358E+02 0.  0.
        -11    1    4    4    0    0  0.19316946956E+02 -0.40863238654E+02  0.45300820027E+02  0.63993070000E+02  0.00000000000E+00 0.  1.
         11    1    4    4    0    0 -0.31538641214E+02  0.84313960039E+01 -0.17195575324E+02  0.36897996408E+02  0.00000000000E+00 0. -1.
        -11    1    3    3    0    0 -0.21313589130E+02 -0.12985563136E+02 -0.46549449057E+01  0.25388234354E+02  0.00000000000E+00 0. -1.
         11    1    3    3    0    0  0.58523329195E+02  0.36876081231E+02  0.49057736633E+02  0.84802635281E+02  0.00000000000E+00 0.  1.
         -1    1    1    2    0  502 -0.24988045806E+02  0.85413245538E+01  0.79351779105E+01  0.27573967920E+02  0.00000000000E+00 0.  1.
<scales pt_clust_5="13000.00000" pt_clust_6="13000.00000" pt_clust_7="13000.00000" pt_clust_8="13000.00000" pt_clust_9="26.40751"></scales>
<clustering>
<clus scale="   26.408">  2  9  1 -1</clus>
<clus scale="   90.487">  5  6 -1 -1</clus>
<clus scale="   90.637">  7  8 -1 -1</clus>
<clus scale="   98.037">  2  5  1 -1</clus>
<clus scale="   26.408">  2  5  1 -1</clus>
</clustering>
</event>
<event>
 9    1  0.1504846E-005  0.9883268E+02  0.7546771E-02  0.1284095E+00
          1   -1    0    0  502    0 -0.00000000000E+00  0.00000000000E+00  0.40992668182E+03  0.40992668182E+03  0.00000000000E+00 0. -1.
         21   -1    0    0  501  502  0.00000000000E+00 -0.00000000000E+00 -0.20131350532E+03  0.20131350532E+03  0.00000000000E+00 0.  1.
         23    2    1    2    0    0 -0.48600294134E+01  0.20066229394E+02  0.36248337116E+03  0.37492592401E+03  0.93535986046E+02 0.  0.
         23    2    1    2    0    0  0.25742102963E+02 -0.71915403936E+02 -0.95570092888E+02  0.15554731591E+03  0.96056460701E+02 0.  0.
        -11    1    3    3    0    0 -0.38463200844E+02 -0.11615352655E+02  0.90066908842E+02  0.98622422931E+02  0.00000000000E+00 0.  1.
         11    1    3    3    0    0  0.33603171430E+02  0.31681582049E+02  0.27241646231E+03  0.27630350108E+03  0.00000000000E+00 0. -1.
        -13    1    4    4    0    0  0.30507952246E+02 -0.39161474276E+02  0.47873443484E+01  0.49872586494E+02  0.00000000000E+00 0. -1.
         13    1    4    4    0    0 -0.47658492822E+01 -0.32753929661E+02 -0.10035743724E+03  0.10567472941E+03  0.00000000000E+00 0.  1.
          1    1    1    2  501    0 -0.20882073550E+02  0.51849174542E+02 -0.58300101767E+02  0.80766947216E+02  0.00000000000E+00 0. -1.
<scales pt_clust_5="13000.00000" pt_clust_6="13000.00000" pt_clust_7="13000.00000" pt_clust_8="13000.00000" pt_clust_9="55.89631"></scales>
<clustering>
<clus scale="   55.896">  2  9  1 -1</clus>
<clus scale="   93.536">  5  6 -1 -1</clus>
<clus scale="   96.056">  7  8 -1 -1</clus>
<clus scale="   96.385">  1  5  2 -1</clus>
<clus scale="   55.896">  2  5  1 -1</clus>
</clustering>
</event>
<event>
 9    1  0.1504846E-005  0.9959619E+02  0.7546771E-02  0.1281153E+00
         21   -1    0    0  501  502  0.00000000000E+00  0.00000000000E+00  0.90340126783E+02  0.90340126783E+02  0.00000000000E+00 0. -1.
         -1   -1    0    0    0  501 -0.00000000000E+00 -0.00000000000E+00 -0.16076181689E+03  0.16076181689E+03  0.00000000000E+00 0.  1.
         23    2    1    2    0    0  0.58085737090E+01 -0.28478503269E+02 -0.59984592565E+02  0.11440897275E+03  0.92986542170E+02 0.  0.
         23    2    1    2    0    0  0.62791014917E+01  0.45958520635E+02 -0.29621022683E+02  0.10806281405E+03  0.92997602446E+02 0.  0.
        -11    1    4    4    0    0 -0.13285812590E+02 -0.26083524898E+02 -0.82592445546E+01  0.30415098354E+02  0.00000000000E+00 0.  1.
         11    1    4    4    0    0  0.19564914082E+02  0.72042045533E+02 -0.21361778129E+02  0.77647715694E+02  0.00000000000E+00 0. -1.
        -11    1    3    3    0    0  0.67302500913E+01 -0.62749062301E+02 -0.37481044006E+02  0.73400066387E+02  0.00000000000E+00 0.  1.
         11    1    3    3    0    0 -0.92167638226E+00  0.34270559032E+02 -0.22503548558E+02  0.41008906367E+02  0.00000000000E+00 0. -1.
         -1    1    1    2    0  502 -0.12087675201E+02 -0.17480017367E+02  0.19183925137E+02  0.28630156873E+02  0.00000000000E+00 0.  1.
<scales pt_clust_5="13000.00000" pt_clust_6="13000.00000" pt_clust_7="13000.00000" pt_clust_8="13000.00000" pt_clust_9="21.25236"></scales>
<clustering>
<clus scale="   21.252">  1  9  2 -1</clus>
<clus scale="   92.987">  7  8 -1 -1</clus>
<clus scale="   92.998">  5  6 -1 -1</clus>
<clus scale="   99.586">  2  7  1 -1</clus>
<clus scale="   21.252">  1  5  2 -1</clus>
</clustering>
</event>
<event>
 9    1  0.1504846E-005  0.1084230E+03  0.7546771E-02  0.1263638E+00
         21   -1    0    0  501  502  0.00000000000E+00  0.00000000000E+00  0.65876059615E+02  0.65876059615E+02  0.00000000000E+00 0.  1.
          1   -1    0    0  502    0 -0.00000000000E+00 -0.00000000000E+00 -0.21967016548E+03  0.21967016548E+03  0.00000000000E+00 0. -1.
         23    2    1    2    0    0 -0.50428921599E+02  0.44951166592E+02 -0.96310265691E+02  0.14849672369E+03  0.90619678645E+02 0.  0.
         23    2    1    2    0    0  0.29913455182E+02 -0.40258423025E+02 -0.49285044179E+02  0.11446352212E+03  0.90317921202E+02 0.  0.
        -11    1    4    4    0    0  0.81005111152E+01 -0.61602114067E+02 -0.55509435557E+02  0.83317082124E+02  0.00000000000E+00 0. -1.
         11    1    4    4    0    0  0.21812944067E+02  0.21343691042E+02  0.62243913780E+01  0.31146439992E+02  0.00000000000E+00 0.  1.
        -13    1    3    3    0    0 -0.18866510653E+02  0.70112230724E+02 -0.59588916172E+02  0.93928212226E+02  0.00000000000E+00 0.  1.
         13    1    3    3    0    0 -0.31562410946E+02 -0.25161064132E+02 -0.36721349519E+02  0.54568511465E+02  0.00000000000E+00 0. -1.
          1    1    1    2  501    0  0.20515466417E+02 -0.46927435677E+01 -0.81987959903E+01  0.22585979284E+02  0.00000000000E+00 0. -1.
<scales pt_clust_5="13000.00000" pt_clust_6="13000.00000" pt_clust_7="13000.00000" pt_clust_8="13000.00000" pt_clust_9="21.04534"></scales>
<clustering>
<clus scale="   21.045">  1  9  2 -1</clus>
<clus scale="   90.318">  5  6 -1 -1</clus>
<clus scale="   90.620">  7  8 -1 -1</clus>
<clus scale="  108.171">  1  5  2 -1</clus>
<clus scale="   21.045">  1  5  2 -1</clus>
</clustering>
</event>
<event>
 9    1  0.1504846E-005  0.9265300E+02  0.7546771E-02  0.1297775E+00
         21   -1    0    0  501  502  0.00000000000E+00  0.00000000000E+00  0.54852213179E+02  0.54852213179E+02  0.00000000000E+00 0. -1.
          1   -1    0    0  502    0 -0.00000000000E+00 -0.00000000000E+00 -0.29913210705E+03  0.29913210705E+03  0.00000000000E+00 0. -1.
         23    2    1    2    0    0  0.31867905381E+02  0.87264221360E+01 -0.20645045457E+03  0.22635777269E+03  0.86742937620E+02 0.  0.
         23    2    1    2    0    0 -0.34311351681E+02  0.16869323217E+02 -0.41549765160E+02  0.10164668159E+03  0.84521133298E+02 0.  0.
        -11    1    3    3    0    0  0.72236443034E+01 -0.38540862588E+02 -0.78547142746E+02  0.87790846673E+02  0.00000000000E+00 0.  1.
         11    1    3    3    0    0  0.24644261077E+02  0.47267284724E+02 -0.12790331183E+03  0.13856692602E+03  0.00000000000E+00 0. -1.
        -13    1    4    4    0    0  0.11073581374E+02 -0.27165083182E+02 -0.10132366456E+02  0.31035959768E+02  0.00000000000E+00 0.  1.
         13    1    4    4    0    0 -0.45384933055E+02  0.44034406398E+02 -0.31417398704E+02  0.70610721825E+02  0.00000000000E+00 0. -1.
          1    1    1    2  501    0  0.24434463002E+01 -0.25595745353E+02  0.37203258638E+01  0.25979865945E+02  0.00000000000E+00 0. -1.
<scales pt_clust_5="13000.00000" pt_clust_6="13000.00000" pt_clust_7="13000.00000" pt_clust_8="13000.00000" pt_clust_9="25.71211"></scales>
<clustering>
<clus scale="   25.712">  1  9  2 -1</clus>
<clus scale="   84.521">  7  8 -1 -1</clus>
<clus scale="   86.743">  5  6 -1 -1</clus>
<clus scale="   90.576">  1  7  2 -1</clus>
<clus scale="   25.712">  1  5  2 -1</clus>
</clustering>
</event>
<event>
 9    1  0.1504846E-005  0.2280886E+03  0.7546771E-02  0.1154233E+00
         21   -1    0    0  501  502  0.00000000000E+00  0.00000000000E+00  0.71696380246E+03  0.71696380246E+03  0.00000000000E+00 0. -1.
          1   -1    0    0  502    0 -0.00000000000E+00 -0.00000000000E+00 -0.24039112517E+03  0.24039112517E+03  0.00000000000E+00 0. -1.
         23    2    1    2    0    0 -0.50902175436E+02 -0.56443292598E+02 -0.14009300900E+03  0.18528629595E+03  0.94488536629E+02 0.  0.
         23    2    1    2    0    0 -0.19022420399E+03  0.19486896013E+02  0.36183568501E+03  0.41929953489E+03  0.91225271208E+02 0.  0.
        -13    1    3    3    0    0 -0.97367462200E+01 -0.60686386894E+02 -0.12828892691E+03  0.14225220754E+03  0.00000000000E+00 0. -1.
         13    1    3    3    0    0 -0.41165429216E+02  0.42430942961E+01 -0.11804082085E+02  0.43034088414E+02  0.00000000000E+00 0.  1.
        -13    1    4    4    0    0 -0.17842503995E+02  0.16963447792E+02  0.11881187258E+03  0.12133579264E+03  0.00000000000E+00 0.  1.
         13    1    4    4    0    0 -0.17238169999E+03  0.25234482210E+01  0.24302381244E+03  0.29796374225E+03  0.00000000000E+00 0. -1.
          1    1    1    2  501    0  0.24112637942E+03  0.36956396585E+02  0.25483000127E+03  0.35276909679E+03  0.00000000000E+00 0. -1.
<scales pt_clust_5="13000.00000" pt_clust_6="13000.00000" pt_clust_7="13000.00000" pt_clust_8="13000.00000" pt_clust_9="209.05115"></scales>
<clustering>
<clus scale="   91.225">  7  8 -1 -1</clus>
<clus scale="   94.489">  5  6 -1 -1</clus>
<clus scale="  121.264">  2  5  1 -1</clus>
<clus scale="  209.051">  1  9  2 -1</clus>
<clus scale="  209.051">  1  5  2 -1</clus>
</clustering>
</event>
<event>
 9    1  0.1504846E-005  0.1136740E+03  0.7546771E-02  0.1253961E+00
         21   -1    0    0  501  502  0.00000000000E+00  0.00000000000E+00  0.82851883592E+02  0.82851883592E+02  0.00000000000E+00 0.  1.
          1   -1    0    0  502    0 -0.00000000000E+00 -0.00000000000E+00 -0.23842187930E+03  0.23842187930E+03  0.00000000000E+00 0. -1.
         23    2    1    2    0    0 -0.24175211240E+02  0.61081127220E+02 -0.14136552279E+03  0.18114772076E+03  0.92276436658E+02 0.  0.
         23    2    1    2    0    0  0.33700426677E+01 -0.70897719605E+02 -0.10009670877E+02  0.11674192595E+03  0.92144668490E+02 0.  0.
        -11    1    4    4    0    0 -0.38830684732E+02 -0.59929756546E+02  0.22598050290E+01  0.71445815239E+02  0.00000000000E+00 0. -1.
         11    1    4    4    0    0  0.42200727399E+02 -0.10967963059E+02 -0.12269475906E+02  0.45296110713E+02  0.00000000000E+00 0.  1.
        -13    1    3    3    0    0 -0.40510232284E+02 -0.42464986880E+00 -0.92271626798E+02  0.10077356975E+03  0.00000000000E+00 0. -1.
         13    1    3    3    0    0  0.16335021044E+02  0.61505777089E+02 -0.49093895989E+02  0.80374151014E+02  0.00000000000E+00 0.  1.
          1    1    1    2  501    0  0.20805168572E+02  0.98165923854E+01 -0.41948020443E+01  0.23384116181E+02  0.00000000000E+00 0. -1.
<scales pt_clust_5="13000.00000" pt_clust_6="13000.00000" pt_clust_7="13000.00000" pt_clust_8="13000.00000" pt_clust_9="23.00479"></scales>
<clustering>
<clus scale="   23.005">  1  9  2 -1</clus>
<clus scale="   92.145">  5  6 -1 -1</clus>
<clus scale="   92.276">  7  8 -1 -1</clus>
<clus scale="  113.567">  1  5  2 -1</clus>
<clus scale="   23.005">  1  5  2 -1</clus>
</clustering>
</event>
<event>
 9    1  0.1504846E-005  0.1033519E+03  0.7546771E-02  0.1274188E+00
         21   -1    0    0  501  502  0.00000000000E+00  0.00000000000E+00  0.95176084077E+02  0.95176084077E+02  0.00000000000E+00 0. -1.
          1   -1    0    0  502    0 -0.00000000000E+00 -0.00000000000E+00 -0.43694620931E+03  0.43694620931E+03  0.00000000000E+00 0. -1.
         23    2    1    2    0    0  0.24815610256E+02 -0.55595166653E+02 -0.22261695674E+03  0.24823731527E+03  0.91415634309E+02 0.  0.
         23    2    1    2    0    0  0.19189767146E+02  0.40562078127E+02 -0.18075652648E+03  0.20670051917E+03  0.89658537878E+02 0.  0.
        -11    1    4    4    0    0  0.55360984274E+02  0.24461837344E+02 -0.10381571527E+03  0.12017039071E+03  0.00000000000E+00 0.  1.
         11    1    4    4    0    0 -0.36171217127E+02  0.16100240783E+02 -0.76940811209E+02  0.86530128459E+02  0.00000000000E+00 0. -1.
        -11    1    3    3    0    0  0.74576758088E+01  0.21476933702E+02 -0.18321813118E+02  0.29198706232E+02  0.00000000000E+00 0.  1.
         11    1    3    3    0    0  0.17357934447E+02 -0.77072100355E+02 -0.20429514362E+03  0.21903860903E+03  0.00000000000E+00 0. -1.
          1    1    1    2  501    0 -0.44005377403E+02  0.15033088526E+02  0.61603357976E+02  0.77184458960E+02  0.00000000000E+00 0. -1.
<scales pt_clust_5="13000.00000" pt_clust_6="13000.00000" pt_clust_7="13000.00000" pt_clust_8="13000.00000" pt_clust_9="46.50233"></scales>
<clustering>
<clus scale="   46.502">  1  9  2 -1</clus>
<clus scale="   89.659">  5  6 -1 -1</clus>
<clus scale="   91.416">  7  8 -1 -1</clus>
<clus scale="  101.801">  1  5  2 -1</clus>
<clus scale="   46.502">  1  5  2 -1</clus>
</clustering>
</event>
<event>
 9    1  0.1504846E-005  0.9505876E+02  0.7546771E-02  0.1291841E+00
          3   -1    0    0  502    0 -0.00000000000E+00  0.00000000000E+00  0.54960339198E+02  0.54960339198E+02  0.00000000000E+00 0. -1.
         21   -1    0    0  501  502  0.00000000000E+00 -0.00000000000E+00 -0.37936635198E+03  0.37936635198E+03  0.00000000000E+00 0. -1.
         23    2    1    2    0    0 -0.13863970649E+02  0.38520170601E+02 -0.26737834763E+02  0.10222884198E+03  0.89776450695E+02 0.  0.
         23    2    1    2    0    0 -0.54043942352E+01  0.65558507262E+01 -0.14295725304E+03  0.16980617384E+03  0.91242390481E+02 0.  0.
        -11    1    3    3    0    0  0.11281496988E+02 -0.21096113620E+02 -0.28866789847E+02  0.37491462231E+02  0.00000000000E+00 0.  1.
         11    1    3    3    0    0 -0.25145467636E+02  0.59616284221E+02  0.21289550833E+01  0.64737379749E+02  0.00000000000E+00 0. -1.
        -11    1    4    4    0    0  0.31528970760E+02 -0.24567491362E+02 -0.87934527606E+02  0.96592539952E+02  0.00000000000E+00 0. -1.
         11    1    4    4    0    0 -0.36933364995E+02  0.31123342088E+02 -0.55022725435E+02  0.73213633887E+02  0.00000000000E+00 0.  1.
          3    1    1    2  501    0  0.19268364884E+02 -0.45076021327E+02 -0.15471092498E+03  0.16229167536E+03  0.00000000000E+00 0. -1.
<scales pt_clust_5="13000.00000" pt_clust_6="13000.00000" pt_clust_7="13000.00000" pt_clust_8="13000.00000" pt_clust_9="49.02160"></scales>
<clustering>
<clus scale="   49.022">  2  9  1 -1</clus>
<clus scale="   89.776">  5  6 -1 -1</clus>
<clus scale="   91.242">  7  8 -1 -1</clus>
<clus scale="   93.653">  1  5  2 -1</clus>
<clus scale="   49.022">  2  5  1 -1</clus>
</clustering>
</event>
<event>
 9    1  0.1504846E-005  0.1348404E+03  0.7546771E-02  0.1220466E+00
         21   -1    0    0  501  502  0.00000000000E+00  0.00000000000E+00  0.22615607416E+03  0.22615607416E+03  0.00000000000E+00 0.  1.
         -2   -1    0    0    0  501 -0.00000000000E+00 -0.00000000000E+00 -0.36342237854E+03  0.36342237854E+03  0.00000000000E+00 0.  1.
         23    2    1    2    0    0 -0.10657240073E+03 -0.18767960482E+02 -0.30441733769E+03  0.33552103717E+03  0.90523687303E+02 0.  0.
         23    2    1    2    0    0  0.56648484950E+02  0.20592587246E+02  0.37263004487E+02  0.11489338764E+03  0.90437014119E+02 0.  0.
        -11    1    4    4    0    0  0.70956966450E+02 -0.58028126783E+01  0.44568088271E+02  0.83993322442E+02  0.00000000000E+00 0. -1.
         11    1    4    4    0    0 -0.14308481499E+02  0.26395399924E+02 -0.73050837837E+01  0.30900065195E+02  0.00000000000E+00 0.  1.
        -11    1    3    3    0    0 -0.24069166339E+02  0.29938148078E+02 -0.14051334297E+03  0.14566954737E+03  0.00000000000E+00 0. -1.
         11    1    3    3    0    0 -0.82503234386E+02 -0.48706108560E+02 -0.16390399472E+03  0.18985148980E+03  0.00000000000E+00 0.  1.
         -2    1    1    2    0  502  0.49923915775E+02 -0.18246267639E+01  0.12988802882E+03  0.13916402789E+03  0.00000000000E+00 0.  1.
<scales pt_clust_5="13000.00000" pt_clust_6="13000.00000" pt_clust_7="13000.00000" pt_clust_8="13000.00000" pt_clust_9="49.95725"></scales>
<clustering>
<clus scale="   49.957">  1  9  2 -1</clus>
<clus scale="   90.437">  5  6 -1 -1</clus>
<clus scale="   90.524">  7  8 -1 -1</clus>
<clus scale="  134.782">  1  5  2 -1</clus>
<clus scale="   49.957">  1  5  2 -1</clus>
</clustering>
</event>
<event>
 9    1  0.1504846E-005  0.1068330E+03  0.7546771E-02  0.1267304E+00
         21   -1    0    0  501  502  0.00000000000E+00  0.00000000000E+00  0.52428167535E+02  0.52428167535E+02  0.00000000000E+00 0.  1.
          2   -1    0    0  502    0 -0.00000000000E+00 -0.00000000000E+00 -0.41416816600E+03  0.41416816600E+03  0.00000000000E+00 0. -1.
         23    2    1    2    0    0 -0.23614407302E+02 -0.31157813115E+02 -0.15925317881E+03  0.18687331375E+03  0.89619255069E+02 0.  0.
         23    2    1    2    0    0  0.45656665093E+02  0.56512752871E+02 -0.21434325406E+03  0.24409565481E+03  0.91440887099E+02 0.  0.
        -11    1    4    4    0    0 -0.17255527352E+02  0.19116026796E+02 -0.11037871832E+02  0.28018035607E+02  0.00000000000E+00 0.  1.
         11    1    4    4    0    0  0.62912192446E+02  0.37396726075E+02 -0.20330538223E+03  0.21607761921E+03  0.00000000000E+00 0. -1.
        -13    1    3    3    0    0 -0.36037363972E+02 -0.12866420609E+01 -0.15031726832E+02  0.39067887854E+02  0.00000000000E+00 0.  1.
         13    1    3    3    0    0  0.12422956670E+02 -0.29871171054E+02 -0.14422145198E+03  0.14780542589E+03  0.00000000000E+00 0. -1.
          2    1    1    2  501    0 -0.22042257792E+02 -0.25354939757E+02  0.11856434401E+02  0.35627364979E+02  0.00000000000E+00 0. -1.
<scales pt_clust_5="13000.00000" pt_clust_6="13000.00000" pt_clust_7="13000.00000" pt_clust_8="13000.00000" pt_clust_9="33.59664"></scales>
<clustering>
<clus scale="   33.597">  1  9  2 -1</clus>
<clus scale="   89.619">  7  8 -1 -1</clus>
<clus scale="   91.441">  5  6 -1 -1</clus>
<clus scale="  105.278">  2  7  1 -1</clus>
<clus scale="   33.597">  1  5  2 -1</clus>
</clustering>
</event>
<event>
 9    1  0.1504846E-005  0.1636229E+03  0.7546771E-02  0.1184693E+00
         21   -1    0    0  501  502  0.00000000000E+00  0.00000000000E+00  0.11554376474E+03  0.11554376474E+03  0.00000000000E+00 0. -1.
          2   -1    0    0  502    0 -0.00000000000E+00 -0.00000000000E+00 -0.89098008125E+03  0.89098008125E+03  0.00000000000E+00 0. -1.
         23    2    1    2    0    0 -0.26011697198E+02 -0.10531946912E+03 -0.38452568852E+03  0.40979852731E+03  0.91137417590E+02 0.  0.
         23    2    1    2    0    0  0.13910697082E+03  0.16612194996E+03 -0.40422231490E+03  0.46763355442E+03  0.91313798352E+02 0.  0.
        -11    1    3    3    0    0  0.31844780198E+02 -0.19498946946E+02 -0.83272228908E+02  0.91260961342E+02  0.00000000000E+00 0. -1.
         11    1    3    3    0    0 -0.57856477396E+02 -0.85820522179E+02 -0.30125345961E+03  0.31853756597E+03  0.00000000000E+00 0.  1.
        -11    1    4    4    0    0  0.31757204693E+02  0.78799661736E+02 -0.87294892646E+02  0.12181258154E+03  0.00000000000E+00 0.  1.
         11    1    4    4    0    0  0.10734976612E+03  0.87322288223E+02 -0.31692742225E+03  0.34582097288E+03  0.00000000000E+00 0. -1.
          2    1    1    2  501    0 -0.11309527362E+03 -0.60802480835E+02  0.13311686920E+02  0.12909176426E+03  0.00000000000E+00 0. -1.
<scales pt_clust_5="13000.00000" pt_clust_6="13000.00000" pt_clust_7="13000.00000" pt_clust_8="13000.00000" pt_clust_9="128.40359"></scales>
<clustering>
<clus scale="   91.137">  5  6 -1 -1</clus>
<clus scale="   91.314">  7  8 -1 -1</clus>
<clus scale="  128.404">  1  9  2 -1</clus>
<clus scale="  163.525">  2  5  1 -1</clus>
<clus scale="  128.404">  1  5  2 -1</clus>
</clustering>
</event>
<event>
 9    1  0.1504846E-005  0.1173943E+03  0.7546771E-02  0.1247805E+00
         -3   -1    0    0    0  501 -0.00000000000E+00  0.00000000000E+00  0.59883925337E+03  0.59883925337E+03  0.00000000000E+00 0.  1.
         21   -1    0    0  501  502  0.00000000000E+00 -0.00000000000E+00 -0.71031362763E+02  0.71031362763E+02  0.00000000000E+00 0.  1.
         23    2    1    2    0    0  0.41937108425E+02  0.48228178261E+02  0.29579365269E+03  0.31602354240E+03  0.91062155359E+02 0.  0.
         23    2    1    2    0    0 -0.59150065392E+02 -0.64915755532E+02  0.27625273498E+03  0.30353002150E+03  0.90011748213E+02 0.  0.
        -11    1    3    3    0    0  0.62204832226E+02  0.23531311428E+02  0.25848957463E+03  0.26690826881E+03  0.00000000000E+00 0.  1.
         11    1    3    3    0    0 -0.20267723801E+02  0.24696866833E+02  0.37304078060E+02  0.49115273586E+02  0.00000000000E+00 0. -1.
        -13    1    4    4    0    0 -0.40814247433E+02 -0.78374915649E+02  0.26244415390E+03  0.27692122365E+03  0.00000000000E+00 0.  1.
         13    1    4    4    0    0 -0.18335817960E+02  0.13459160117E+02  0.13808581086E+02  0.26608797848E+02  0.00000000000E+00 0. -1.
         -3    1    1    2    0  502  0.17212956967E+02  0.16687577271E+02 -0.44238497063E+02  0.50317052230E+02  0.00000000000E+00 0.  1.
<scales pt_clust_5="13000.00000" pt_clust_6="13000.00000" pt_clust_7="13000.00000" pt_clust_8="13000.00000" pt_clust_9="23.97418"></scales>
<clustering>
<clus scale="   23.974">  2  9  1 -1</clus>
<clus scale="   90.012">  7  8 -1 -1</clus>
<clus scale="   91.062">  5  6 -1 -1</clus>
<clus scale="  116.581">  2  7  1 -1</clus>
<clus scale="   23.974">  2  5  1 -1</clus>
</clustering>
</event>
<event>
 9    1  0.1504846E-005  0.1547508E+03  0.7546771E-02  0.1215730E+00
         21   -1    0    0  501  502  0.00000000000E+00  0.00000000000E+00  0.38315711819E+03  0.38315711819E+03  0.00000000000E+00 0.  1.
         -1   -1    0    0    0  501 -0.00000000000E+00 -0.00000000000E+00 -0.24239547140E+03  0.24239547140E+03  0.00000000000E+00 0.  1.
         23    2    1    2    0    0  0.33096710614E+02  0.14979944204E+02  0.18695502089E+02  0.10027592776E+03  0.91574826825E+02 0.  0.
         23    2    1    2    0    0  0.96687844561E+02 -0.16875890928E+01 -0.16493554146E+03  0.21001377895E+03  0.86894575603E+02 0.  0.
        -11    1    3    3    0    0  0.44033314869E+02  0.35543969313E+02  0.39527932578E+02  0.69027270168E+02  0.00000000000E+00 0. -1.
         11    1    3    3    0    0 -0.10936604254E+02 -0.20564025109E+02 -0.20832430489E+02  0.31248657593E+02  0.00000000000E+00 0.  1.
        -11    1    4    4    0    0  0.91240206987E+02  0.18634789277E+02 -0.16442871881E+03  0.18896781290E+03  0.00000000000E+00 0.  1.
         11    1    4    4    0    0  0.54476375739E+01 -0.20322378370E+02 -0.50682264822E+00  0.21045966049E+02  0.00000000000E+00 0. -1.
         -1    1    1    2    0  502 -0.12978455518E+03 -0.13292355111E+02  0.28700168615E+03  0.31526288288E+03  0.00000000000E+00 0.  1.
<scales pt_clust_5="13000.00000" pt_clust_6="13000.00000" pt_clust_7="13000.00000" pt_clust_8="13000.00000" pt_clust_9="128.05136"></scales>
<clustering>
<clus scale="   86.895">  7  8 -1 -1</clus>
<clus scale="   91.575">  5  6 -1 -1</clus>
<clus scale="   98.518">  2  5  1 -1</clus>
<clus scale="  128.051">  1  9  2 -1</clus>
<clus scale="  128.051">  1  5  2 -1</clus>
</clustering>
</event>
<event>
 9    1  0.1504846E-005  0.1118621E+03  0.7546771E-02  0.1257829E+00
         21   -1    0    0  501  502  0.00000000000E+00  0.00000000000E+00  0.17395099787E+03  0.17395099787E+03  0.00000000000E+00 0. -1.
          1   -1    0    0  502    0 -0.00000000000E+00 -0.00000000000E+00 -0.26418790042E+03  0.26418790042E+03  0.00000000000E+00 0. -1.
         23    2    1    2    0    0 -0.67772498794E+02 -0.41630130542E+02 -0.13306683608E+03  0.18056065698E+03  0.92569912074E+02 0.  0.
         23    2    1    2    0    0  0.76168951355E+01  0.55670578695E+02 -0.70891128739E+02  0.12816297620E+03  0.90790780986E+02 0.  0.
        -11    1    4    4    0    0 -0.31483839255E+02  0.71622619007E+01 -0.55139616969E+02  0.63897632892E+02  0.00000000000E+00 0.  1.
         11    1    4    4    0    0  0.39100734390E+02  0.48508316794E+02 -0.15751511771E+02  0.64265343313E+02  0.00000000000E+00 0. -1.
        -11    1    3    3    0    0 -0.44309478540E+02  0.99699708840E+00 -0.12317693083E+03  0.13090790725E+03  0.00000000000E+00 0. -1.
         11    1    3    3    0    0 -0.23463020254E+02 -0.42627127630E+02 -0.98899052498E+01  0.49652749726E+02  0.00000000000E+00 0.  1.
          1    1    1    2  501    0  0.60155603659E+02 -0.14040448153E+02  0.11372106228E+03  0.12941526511E+03  0.00000000000E+00 0. -1.
<scales pt_clust_5="13000.00000" pt_clust_6="13000.00000" pt_clust_7="13000.00000" pt_clust_8="13000.00000" pt_clust_9="61.77241"></scales>
<clustering>
<clus scale="   61.772">  1  9  2 -1</clus>
<clus scale="   90.791">  5  6 -1 -1</clus>
<clus scale="   92.570">  7  8 -1 -1</clus>
<clus scale="  110.394">  1  5  2 -1</clus>
<clus scale="   61.772">  1  5  2 -1</clus>
</clustering>
</event>
<event>
 9    1  0.1504846E-005  0.1237012E+03  0.7546771E-02  0.1244177E+00
         21   -1    0    0  501  502  0.00000000000E+00  0.00000000000E+00  0.91067742320E+02  0.91067742320E+02  0.00000000000E+00 0.  1.
          1   -1    0    0  502    0 -0.00000000000E+00 -0.00000000000E+00 -0.38016740298E+03  0.38016740298E+03  0.00000000000E+00 0. -1.
         23    2    1    2    0    0 -0.63248914220E+02  0.65047129250E+02 -0.25449359520E+03  0.27845030379E+03  0.67350037213E+02 0.  0.
         23    2    1    2    0    0  0.30512491562E+02 -0.60154664998E+02 -0.78314410346E+02  0.13795757651E+03  0.91375873111E+02 0.  0.
        -13    1    3    3    0    0 -0.73216088709E+02  0.35144768206E+02 -0.17460802560E+03  0.19257131921E+03  0.00000000000E+00 0.  1.
         13    1    3    3    0    0  0.99671744894E+01  0.29902361045E+02 -0.79885569597E+02  0.85878984584E+02  0.00000000000E+00 0. -1.
        -13    1    4    4    0    0 -0.26897450450E+02 -0.83901161062E+01 -0.46490238864E+02  0.54361835865E+02  0.00000000000E+00 0.  1.
         13    1    4    4    0    0  0.57409942012E+02 -0.51764548892E+02 -0.31824171482E+02  0.83595740647E+02  0.00000000000E+00 0. -1.
          1    1    1    2  501    0  0.32736422657E+02 -0.48924642518E+01  0.43708344881E+02  0.54827264997E+02  0.00000000000E+00 0. -1.
<scales pt_clust_5="13000.00000" pt_clust_6="13000.00000" pt_clust_7="13000.00000" pt_clust_8="13000.00000" pt_clust_9="33.09999"></scales>
<clustering>
<clus scale="   33.100">  1  9  2 -1</clus>
<clus scale="   67.350">  5  6 -1 -1</clus>
<clus scale="   91.376">  7  8 -1 -1</clus>
<clus scale="  107.184">  2  5  1 -1</clus>
<clus scale="   33.100">  1  5  2 -1</clus>
</clustering>
</event>
<event>
 9    1  0.1504846E-005  0.1372130E+03  0.7546771E-02  0.1217826E+00
         21   -1    0    0  501  502  0.00000000000E+00  0.00000000000E+00  0.28586369626E+02  0.28586369626E+02  0.00000000000E+00 0.  1.
          1   -1    0    0  502    0 -0.00000000000E+00 -0.00000000000E+00 -0.93265414246E+03  0.93265414246E+03  0.00000000000E+00 0. -1.
         23    2    1    2    0    0 -0.86876452551E+02 -0.16033341372E+02 -0.31983642185E+03  0.34420956978E+03  0.91544006592E+02 0.  0.
         23    2    1    2    0    0  0.10399379558E+03  0.60628553056E+02 -0.41029740933E+03  0.43665701848E+03  0.88514726008E+02 0.  0.
        -11    1    4    4    0    0  0.22616857731E+02  0.63856673034E+02 -0.19848936081E+03  0.20973131215E+03  0.00000000000E+00 0.  1.
         11    1    4    4    0    0  0.81376937847E+02 -0.32281199777E+01 -0.21180804852E+03  0.22692570632E+03  0.00000000000E+00 0. -1.
        -13    1    3    3    0    0 -0.59930968954E+02  0.32059368961E+02 -0.13228201496E+03  0.14872140283E+03  0.00000000000E+00 0.  1.
         13    1    3    3    0    0 -0.26945483597E+02 -0.48092710333E+02 -0.18755440689E+03  0.19548816695E+03  0.00000000000E+00 0. -1.
          1    1    1    2  501    0 -0.17117343027E+02 -0.44595211684E+02 -0.17393394165E+03  0.18037392382E+03  0.00000000000E+00 0. -1.
<scales pt_clust_5="13000.00000" pt_clust_6="13000.00000" pt_clust_7="13000.00000" pt_clust_8="13000.00000" pt_clust_9="47.76755"></scales>
<clustering>
<clus scale="   47.768">  1  9  2 -1</clus>
<clus scale="   88.515">  5  6 -1 -1</clus>
<clus scale="   91.544">  7  8 -1 -1</clus>
<clus scale="  135.211">  1  5  2 -1</clus>
<clus scale="   47.768">  1  5  2 -1</clus>
</clustering>
</event>
<event>
 9    1  0.1504846E-005  0.4196537E+03  0.7546771E-02  0.1037241E+00
          1   -1    0    0  502    0 -0.00000000000E+00  0.00000000000E+00  0.68036284400E+03  0.68036284400E+03  0.00000000000E+00 0. -1.
         21   -1    0    0  501  502  0.00000000000E+00 -0.00000000000E+00 -0.36989228946E+03  0.36989228946E+03  0.00000000000E+00 0.  1.
         23    2    1    2    0    0  0.27409779149E+03 -0.30634449122E+03  0.24604485083E+03  0.48801288975E+03  0.92962171583E+02 0.  0.
         23    2    1    2    0    0 -0.29323601179E+03  0.28322679802E+03  0.17134995069E+03  0.45118597955E+03  0.89460632767E+02 0.  0.
        -11    1    4    4    0    0 -0.14600699858E+03  0.81218442694E+02  0.59770879556E+02  0.17744587093E+03  0.00000000000E+00 0.  1.
         11    1    4    4    0    0 -0.14722901321E+03  0.20200835532E+03  0.11157907113E+03  0.27374010862E+03  0.00000000000E+00 0. -1.
        -11    1    3    3    0    0  0.20855395733E+03 -0.20211080790E+03  0.12778018911E+03  0.31728742257E+03  0.00000000000E+00 0.  1.
         11    1    3    3    0    0  0.65543834152E+02 -0.10423368332E+03  0.11826466172E+03  0.17072546719E+03  0.00000000000E+00 0. -1.
          1    1    1    2  501    0  0.19138220304E+02  0.23117693207E+02 -0.10692424698E+03  0.11105626415E+03  0.00000000000E+00 0. -1.
<scales pt_clust_5="13000.00000" pt_clust_6="13000.00000" pt_clust_7="13000.00000" pt_clust_8="13000.00000" pt_clust_9="30.01165"></scales>
<clustering>
<clus scale="   30.012">  2  9  1 -1</clus>
<clus scale="   89.461">  5  6 -1 -1</clus>
<clus scale="   92.962">  7  8 -1 -1</clus>
<clus scale="  418.892">  2  5  1 -1</clus>
<clus scale="   30.012">  2  5  1 -1</clus>
</clustering>
</event>
<event>
 9    1  0.1504846E-005  0.1104129E+03  0.7546771E-02  0.1260457E+00
         21   -1    0    0  501  502  0.00000000000E+00  0.00000000000E+00  0.25818905771E+03  0.25818905771E+03  0.00000000000E+00 0.  1.
          2   -1    0    0  502    0 -0.00000000000E+00 -0.00000000000E+00 -0.15089982194E+03  0.15089982194E+03  0.00000000000E+00 0.  1.
         23    2    1    2    0    0 -0.65904550134E+02  0.11391760302E+02 -0.90629320199E+02  0.14530952133E+03  0.91804146840E+02 0.  0.
         23    2    1    2    0    0  0.45962094010E+02  0.22060818071E+01  0.48109781992E+02  0.11203855424E+03  0.90114957859E+02 0.  0.
        -11    1    4    4    0    0  0.29812415131E+02 -0.37544390241E+02  0.49765020301E+02  0.69100785669E+02  0.00000000000E+00 0. -1.
         11    1    4    4    0    0  0.16149678879E+02  0.39750472048E+02 -0.16552383095E+01  0.42937768570E+02  0.00000000000E+00 0.  1.
        -11    1    3    3    0    0  0.18862340048E+02  0.10996292514E+02 -0.42628509739E+02  0.47894636064E+02  0.00000000000E+00 0.  1.
         11    1    3    3    0    0 -0.84766890181E+02  0.39546778825E+00 -0.48000810461E+02  0.97414885262E+02  0.00000000000E+00 0. -1.
          2    1    1    2  501    0  0.19942456124E+02 -0.13597842109E+02  0.14980877397E+03  0.15174080409E+03  0.00000000000E+00 0.  1.
<scales pt_clust_5="13000.00000" pt_clust_6="13000.00000" pt_clust_7="13000.00000" pt_clust_8="13000.00000" pt_clust_9="24.13717"></scales>
<clustering>
<clus scale="   24.137">  1  9  2 -1</clus>
<clus scale="   90.115">  5  6 -1 -1</clus>
<clus scale="   91.804">  7  8 -1 -1</clus>
<clus scale="  109.012">  1  5  2 -1</clus>
<clus scale="   24.137">  1  5  2 -1</clus>
</clustering>
</event>
<event>
 9    1  0.1504846E-005  0.1046921E+03  0.7546771E-02  0.1271828E+00
         21   -1    0    0  501  502  0.00000000000E+00  0.00000000000E+00  0.10372934328E+03  0.10372934328E+03  0.00000000000E+00 0. -1.
         -1   -1    0    0    0  501 -0.00000000000E+00 -0.00000000000E+00 -0.21435872098E+03  0.21435872098E+03  0.00000000000E+00 0.  1.
         23    2    1    2    0    0  0.47162556109E+02  0.10580790081E+02 -0.11721958825E+03  0.15599805244E+03  0.90877393664E+02 0.  0.
         23    2    1    2    0    0 -0.47749391619E+02  0.15598795485E+02 -0.36118831607E+02  0.11199233364E+03  0.93350875613E+02 0.  0.
        -11    1    3    3    0    0 -0.14554803597E+02  0.14508478525E+02 -0.82614436988E+02  0.85132152890E+02  0.00000000000E+00 0.  1.
         11    1    3    3    0    0  0.61717359706E+02 -0.39276884448E+01 -0.34605151262E+02  0.70865899553E+02  0.00000000000E+00 0. -1.
        -11    1    4    4    0    0 -0.62885281994E+02  0.38832088984E+02 -0.39926099594E+02  0.84003471685E+02  0.00000000000E+00 0.  1.
         11    1    4    4    0    0  0.15135890375E+02 -0.23233293498E+02  0.38072679870E+01  0.27988861959E+02  0.00000000000E+00 0. -1.
         -1    1    1    2    0  502  0.58683550962E+00 -0.26179585566E+02  0.42709042156E+02  0.50097678172E+02  0.00000000000E+00 0.  1.
<scales pt_clust_5="13000.00000" pt_clust_6="13000.00000" pt_clust_7="13000.00000" pt_clust_8="13000.00000" pt_clust_9="26.18616"></scales>
<clustering>
<clus scale="   26.186">  1  9  2 -1</clus>
<clus scale="   90.877">  5  6 -1 -1</clus>
<clus scale="   93.351">  7  8 -1 -1</clus>
<clus scale="  102.493">  2  5  1 -1</clus>
<clus scale="   26.186">  1  5  2 -1</clus>
</clustering>
</event>
<event>
 9    1  0.1504846E-005  0.9942445E+02  0.7546771E-02  0.1281717E+00
         21   -1    0    0  501  502  0.00000000000E+00  0.00000000000E+00  0.62638591351E+02  0.62638591351E+02  0.00000000000E+00 0.  1.
          1   -1    0    0  502    0 -0.00000000000E+00 -0.00000000000E+00 -0.43758013886E+03  0.43758013886E+03  0.00000000000E+00 0. -1.
         23    2    1    2    0    0 -0.28394562608E+02 -0.27811232601E+02 -0.32309413014E+03  0.33803623203E+03  0.91098635513E+02 0.  0.
         23    2    1    2    0    0 -0.24151740050E+01  0.48085005913E+02 -0.65999845245E+02  0.12267861269E+03  0.91520825933E+02 0.  0.
        -11    1    3    3    0    0 -0.30051265194E+02 -0.58192831738E+02 -0.17512670821E+03  0.18697285401E+03  0.00000000000E+00 0. -1.
         11    1    3    3    0    0  0.16567025868E+01  0.30381599137E+02 -0.14796742192E+03  0.15106337803E+03  0.00000000000E+00 0.  1.
        -13    1    4    4    0    0  0.39523810912E+02  0.12105088232E+02 -0.50554873272E+02  0.65302833029E+02  0.00000000000E+00 0. -1.
         13    1    4    4    0    0 -0.41938984917E+02  0.35979917681E+02 -0.15444971973E+02  0.57375779658E+02  0.00000000000E+00 0.  1.
          1    1    1    2  501    0  0.30809736613E+02 -0.20273773312E+02  0.14152427871E+02  0.39503885494E+02  0.00000000000E+00 0. -1.
<scales pt_clust_5="13000.00000" pt_clust_6="13000.00000" pt_clust_7="13000.00000" pt_clust_8="13000.00000" pt_clust_9="36.88178"></scales>
<clustering>
<clus scale="   36.882">  1  9  2 -1</clus>
<clus scale="   91.099">  5  6 -1 -1</clus>
<clus scale="   91.521">  7  8 -1 -1</clus>
<clus scale="   99.036">  2  5  1 -1</clus>
<clus scale="   36.882">  1  5  2 -1</clus>
</clustering>
</event>
<event>
 9    1  0.1504846E-005  0.1040664E+03  0.7546771E-02  0.1272846E+00
         21   -1    0    0  501  502  0.00000000000E+00  0.00000000000E+00  0.15800441806E+02  0.15800441806E+02  0.00000000000E+00 0.  1.
          2   -1    0    0  502    0 -0.00000000000E+00 -0.00000000000E+00 -0.88828480597E+03  0.88828480597E+03  0.00000000000E+00 0. -1.
         23    2    1    2    0    0 -0.10388745650E+02 -0.56858877547E+02 -0.47738087454E+03  0.48990784167E+03  0.93682100541E+02 0.  0.
         23    2    1    2    0    0  0.67634836091E+01  0.30615397950E+02 -0.32814799148E+03  0.34217114612E+03  0.91743891452E+02 0.  0.
        -11    1    3    3    0    0 -0.48728702084E+02 -0.11132819356E+02 -0.23908833375E+03  0.24425735897E+03  0.00000000000E+00 0.  1.
         11    1    3    3    0    0  0.38339956433E+02 -0.45726058191E+02 -0.23829254079E+03  0.24565048270E+03  0.00000000000E+00 0. -1.
        -13    1    4    4    0    0 -0.20394890666E+02 -0.24519793460E+02 -0.15987735456E+03  0.16302742205E+03  0.00000000000E+00 0.  1.
         13    1    4    4    0    0  0.27158374275E+02  0.55135191409E+02 -0.16827063692E+03  0.17914372407E+03  0.00000000000E+00 0. -1.
          2    1    1    2  501    0  0.36252620412E+01  0.26243479597E+02 -0.66955498141E+02  0.72006259989E+02  0.00000000000E+00 0. -1.
<scales pt_clust_5="13000.00000" pt_clust_6="13000.00000" pt_clust_7="13000.00000" pt_clust_8="13000.00000" pt_clust_9="26.49269"></scales>
<clustering>
<clus scale="   26.493">  1  9  2 -1</clus>
<clus scale="   91.744">  7  8 -1 -1</clus>
<clus scale="   93.682">  5  6 -1 -1</clus>
<clus scale="  102.325">  1  7  2 -1</clus>
<clus scale="   26.493">  1  5  2 -1</clus>
</clustering>
</event>
<event>
 9    1  0.1504846E-005  0.1816200E+03  0.7546771E-02  0.1168422E+00
         21   -1    0    0  501  502  0.00000000000E+00  0.00000000000E+00  0.33607524972E+03  0.33607524972E+03  0.00000000000E+00 0. -1.
          2   -1    0    0  502    0 -0.00000000000E+00 -0.00000000000E+00 -0.28606987985E+03  0.28606987985E+03  0.00000000000E+00 0. -1.
         23    2    1    2    0    0  0.15641336394E+03  0.10908462559E+03 -0.13453048515E+03  0.24469459582E+03  0.73569000478E+02 0.  0.
         23    2    1    2    0    0 -0.11500177459E+03 -0.33456494144E+02 -0.22679697341E+02  0.15301163530E+03  0.92484845813E+02 0.  0.
        -11    1    3    3    0    0  0.72700617724E+02  0.58541864370E+02 -0.10924547520E+03  0.14369100025E+03  0.00000000000E+00 0. -1.
         11    1    3    3    0    0  0.83712746213E+02  0.50542761215E+02 -0.25285009951E+02  0.10100359557E+03  0.00000000000E+00 0.  1.
        -11    1    4    4    0    0 -0.10988324940E+03  0.10392468769E+00  0.38128046350E+01  0.10994942828E+03  0.00000000000E+00 0. -1.
         11    1    4    4    0    0 -0.51185251895E+01 -0.33560418832E+02 -0.26492501976E+02  0.43062207018E+02  0.00000000000E+00 0.  1.
          2    1    1    2  501    0 -0.41411589343E+02 -0.75628131442E+02  0.20721555237E+03  0.22443889845E+03  0.00000000000E+00 0. -1.
<scales pt_clust_5="13000.00000" pt_clust_6="13000.00000" pt_clust_7="13000.00000" pt_clust_8="13000.00000" pt_clust_9="86.22374"></scales>
<clustering>
<clus scale="   73.569">  5  6 -1 -1</clus>
<clus scale="   86.224">  1  9  2 -1</clus>
<clus scale="   92.485">  7  8 -1 -1</clus>
<clus scale="  172.756">  2  5  1 -1</clus>
<clus scale="   86.224">  1  5  2 -1</clus>
</clustering>
</event>
<event>
 9    1  0.1504846E-005  0.1163328E+03  0.7546771E-02  0.1249332E+00
          1   -1    0    0  502    0 -0.00000000000E+00  0.00000000000E+00  0.61032555629E+02  0.61032555629E+02  0.00000000000E+00 0. -1.
         21   -1    0    0  501  502  0.00000000000E+00 -0.00000000000E+00 -0.46160851630E+03  0.46160851630E+03  0.00000000000E+00 0.  1.
         23    2    1    2    0    0  0.55767168960E+02 -0.40992417923E+02 -0.22659007612E+02  0.11746879707E+03  0.92169041436E+02 0.  0.
         23    2    1    2    0    0 -0.75801086342E+02  0.30383715072E+02 -0.32943782061E+03  0.35165471974E+03  0.91993420630E+02 0.  0.
        -11    1    3    3    0    0  0.78364480359E+02 -0.20027363997E+02 -0.29135850626E+02  0.85970837395E+02  0.00000000000E+00 0. -1.
         11    1    3    3    0    0 -0.22597311399E+02 -0.20965053927E+02  0.64768430136E+01  0.31497959680E+02  0.00000000000E+00 0.  1.
        -13    1    4    4    0    0 -0.73223490635E+02  0.77895605541E+01 -0.31758564939E+03  0.32601073837E+03  0.00000000000E+00 0.  1.
         13    1    4    4    0    0 -0.25775957076E+01  0.22594154518E+02 -0.11852171213E+02  0.25643981369E+02  0.00000000000E+00 0. -1.
          1    1    1    2  501    0  0.20033917382E+02  0.10608702852E+02 -0.48479132454E+02  0.53517555114E+02  0.00000000000E+00 0. -1.
<scales pt_clust_5="13000.00000" pt_clust_6="13000.00000" pt_clust_7="13000.00000" pt_clust_8="13000.00000" pt_clust_9="22.66942"></scales>
<clustering>
<clus scale="   22.669">  2  9  1 -1</clus>
<clus scale="   91.993">  7  8 -1 -1</clus>
<clus scale="   92.169">  5  6 -1 -1</clus>
<clus scale="  116.194">  2  7  1 -1</clus>
<clus scale="   22.669">  2  5  1 -1</clus>
</clustering>
</event>
<event>
 9    1  0.1504846E-005  0.1585060E+03  0.7546771E-02  0.1191403E+00
          2   -1    0    0  502    0 -0.00000000000E+00  0.00000000000E+00  0.11368496906E+04  0.11368496906E+04  0.00000000000E+00 0. -1.
         21   -1    0    0  501  502  0.00000000000E+00 -0.00000000000E+00 -0.40241669261E+02  0.40241669261E+02  0.00000000000E+00 0.  1.
         23    2    1    2    0    0 -0.10763602535E+03 -0.37427757444E+02  0.64779861506E+03  0.66401544006E+03  0.91033554173E+02 0.  0.
         23    2    1    2    0    0  0.15625285655E+03  0.15246980578E+02  0.40090639375E+03  0.44131045633E+03  0.96858436472E+02 0.  0.
        -11    1    3    3    0    0 -0.83028222176E+02  0.14863695477E+02  0.45457096067E+03  0.46233037257E+03  0.00000000000E+00 0. -1.
         11    1    3    3    0    0 -0.24607803173E+02 -0.52291452922E+02  0.19322765439E+03  0.20168506749E+03  0.00000000000E+00 0.  1.
        -11    1    4    4    0    0  0.15630305207E+03 -0.80819800649E+01  0.30755840699E+03  0.34509148961E+03  0.00000000000E+00 0.  1.
         11    1    4    4    0    0 -0.50195522266E-01  0.23328960643E+02  0.93347986764E+02  0.96218966723E+02  0.00000000000E+00 0. -1.
          2    1    1    2  501    0 -0.48616831198E+02  0.22180776866E+02  0.47903012523E+02  0.71765463469E+02  0.00000000000E+00 0. -1.
<scales pt_clust_5="13000.00000" pt_clust_6="13000.00000" pt_clust_7="13000.00000" pt_clust_8="13000.00000" pt_clust_9="53.43766"></scales>
<clustering>
<clus scale="   53.438">  2  9  1 -1</clus>
<clus scale="   91.034">  5  6 -1 -1</clus>
<clus scale="   96.858">  7  8 -1 -1</clus>
<clus scale="  155.015">  1  5  2 -1</clus>
<clus scale="   53.438">  2  5  1 -1</clus>
</clustering>
</event>
<event>
 9    1  0.1504846E-005  0.9163408E+02  0.7546771E-02  0.1299003E+00
         -1   -1    0    0    0  501 -0.00000000000E+00  0.00000000000E+00  0.30272105647E+03  0.30272105647E+03  0.00000000000E+00 0.  1.
         21   -1    0    0  501  502  0.00000000000E+00 -0.00000000000E+00 -0.52332157352E+02  0.52332157352E+02  0.00000000000E+00 0.  1.
         23    2    1    2    0    0 -0.26160106648E+02  0.25088611864E+02  0.15028706280E+03  0.17872684426E+03  0.89684413303E+02 0.  0.
         23    2    1    2    0    0  0.40233896928E+01  0.17012020666E+02  0.88687591238E+02  0.12741029360E+03  0.89790297717E+02 0.  0.
        -11    1    4    4    0    0  0.28716154802E+02  0.45030887888E+02  0.44206937189E+02  0.69330020239E+02  0.00000000000E+00 0.  1.
         11    1    4    4    0    0 -0.24692765109E+02 -0.28018867223E+02  0.44480654049E+02  0.58080273362E+02  0.00000000000E+00 0. -1.
        -11    1    3    3    0    0 -0.55688702118E+02  0.34432799489E+02  0.10828361165E+03  0.12653928155E+03  0.00000000000E+00 0.  1.
         11    1    3    3    0    0  0.29528595470E+02 -0.93441876250E+01  0.42003451148E+02  0.52187562706E+02  0.00000000000E+00 0. -1.
         -1    1    1    2    0  502  0.22136716955E+02 -0.42100632530E+02  0.11414245087E+02  0.48916075966E+02  0.00000000000E+00 0.  1.
<scales pt_clust_5="13000.00000" pt_clust_6="13000.00000" pt_clust_7="13000.00000" pt_clust_8="13000.00000" pt_clust_9="47.56572"></scales>
<clustering>
<clus scale="   47.566">  2  9  1 -1</clus>
<clus scale="   89.684">  7  8 -1 -1</clus>
<clus scale="   89.790">  5  6 -1 -1</clus>
<clus scale="   91.530">  1  7  2 -1</clus>
<clus scale="   47.566">  2  5  1 -1</clus>
</clustering>
</event>
<event>
 9    1  0.1504846E-005  0.1046788E+03  0.7546771E-02  0.1272311E+00
         -3   -1    0    0    0  501 -0.00000000000E+00  0.00000000000E+00  0.10724512855E+03  0.10724512855E+03  0.00000000000E+00 0.  1.
         21   -1    0    0  501  502  0.00000000000E+00 -0.00000000000E+00 -0.17793454942E+03  0.17793454942E+03  0.00000000000E+00 0. -1.
         23    2    1    2    0    0 -0.99109189192E+01 -0.43380540366E+02  0.18707177397E+02  0.10644141141E+03  0.94866843416E+02 0.  0.
         23    2    1    2    0    0 -0.33890330294E+02  0.44870873959E+02 -0.45124238108E+02  0.11644209974E+03  0.91436403630E+02 0.  0.
        -11    1    3    3    0    0  0.40764435678E+02 -0.64785815126E+01  0.94883134976E+00  0.41286941222E+02  0.00000000000E+00 0.  1.
         11    1    3    3    0    0 -0.50675354597E+02 -0.36901958853E+02  0.17758346048E+02  0.65154470185E+02  0.00000000000E+00 0. -1.
        -13    1    4    4    0    0  0.17462485846E+02  0.13040205737E+02  0.18583406824E+02  0.28641375435E+02  0.00000000000E+00 0.  1.
         13    1    4    4    0    0 -0.51352816140E+02  0.31830668222E+02 -0.63707644932E+02  0.87800724301E+02  0.00000000000E+00 0. -1.
         -3    1    1    2    0  502  0.43801249213E+02 -0.14903335929E+01 -0.44272360162E+02  0.62296166826E+02  0.00000000000E+00 0.  1.
<scales pt_clust_5="13000.00000" pt_clust_6="13000.00000" pt_clust_7="13000.00000" pt_clust_8="13000.00000" pt_clust_9="43.82660"></scales>
<clustering>
<clus scale="   43.827">  2  9  1 -1</clus>
<clus scale="   91.436">  7  8 -1 -1</clus>
<clus scale="   94.867">  5  6 -1 -1</clus>
<clus scale="  101.580">  2  7  1 -1</clus>
<clus scale="   43.827">  2  5  1 -1</clus>
</clustering>
</event>
<event>
 9    1  0.1504846E-005  0.1036659E+03  0.7546771E-02  0.1274478E+00
         -1   -1    0    0    0  501 -0.00000000000E+00  0.00000000000E+00  0.48782871782E+03  0.48782871782E+03  0.00000000000E+00 0.  1.
         21   -1    0    0  501  502  0.00000000000E+00 -0.00000000000E+00 -0.13193581293E+03  0.13193581293E+03  0.00000000000E+00 0.  1.
         23    2    1    2    0    0  0.79156229880E+01 -0.53823426864E+02  0.40815638923E+03  0.42073997904E+03  0.86434215058E+02 0.  0.
         23    2    1    2    0    0  0.22988206691E+01  0.33671116841E+02  0.39753342538E+02  0.10427463409E+03  0.90298628928E+02 0.  0.
        -13    1    3    3    0    0  0.36922434284E+02  0.22377565668E+01  0.11266086893E+03  0.11857801270E+03  0.00000000000E+00 0. -1.
         13    1    3    3    0    0 -0.29006811296E+02 -0.56061183431E+02  0.29549552029E+03  0.30216196634E+03  0.00000000000E+00 0.  1.
        -13    1    4    4    0    0 -0.14182421445E+02  0.46992604796E+02 -0.10090772487E+02  0.50112570010E+02  0.00000000000E+00 0. -1.
         13    1    4    4    0    0  0.16481242114E+02 -0.13321487956E+02  0.49844115025E+02  0.54162064082E+02  0.00000000000E+00 0.  1.
         -1    1    1    2    0  502 -0.10214443657E+02  0.20152310024E+02 -0.92016826876E+02  0.94749917609E+02  0.00000000000E+00 0.  1.
<scales pt_clust_5="13000.00000" pt_clust_6="13000.00000" pt_clust_7="13000.00000" pt_clust_8="13000.00000" pt_clust_9="22.59315"></scales>
<clustering>
<clus scale="   22.593">  2  9  1 -1</clus>
<clus scale="   86.434">  5  6 -1 -1</clus>
<clus scale="   90.299">  7  8 -1 -1</clus>
<clus scale="  100.318">  1  5  2 -1</clus>
<clus scale="   22.593">  2  5  1 -1</clus>
</clustering>
</event>
<event>
 9    1  0.1504846E-005  0.3498782E+03  0.7546771E-02  0.1112053E+00
          1   -1    0    0  502    0 -0.00000000000E+00  0.00000000000E+00  0.84399531923E+03  0.84399531923E+03  0.00000000000E+00 0. -1.
         21   -1    0    0  501  502  0.00000000000E+00 -0.00000000000E+00 -0.24161547284E+03  0.24161547284E+03  0.00000000000E+00 0. -1.
         23    2    1    2    0    0  0.19670006386E+02  0.11908099213E+02  0.48334467924E+01  0.94268011123E+02  0.91292846024E+02 0.  0.
         23    2    1    2    0    0  0.84958583591E+02  0.31384072380E+03  0.55080003284E+03  0.64602457937E+03  0.90846684731E+02 0.  0.
        -11    1    4    4    0    0  0.95014935895E+02  0.18176423705E+03  0.33894036270E+03  0.39616492194E+03  0.00000000000E+00 0.  1.
         11    1    4    4    0    0 -0.10056352304E+02  0.13207648675E+03  0.21185967014E+03  0.24985965742E+03  0.00000000000E+00 0. -1.
        -13    1    3    3    0    0  0.12555162914E+02 -0.19805355363E+02  0.40009616307E+02  0.46375140041E+02  0.00000000000E+00 0.  1.
         13    1    3    3    0    0  0.71148434714E+01  0.31713454576E+02 -0.35176169514E+02  0.47892871082E+02  0.00000000000E+00 0. -1.
          1    1    1    2  501    0 -0.10462858998E+03 -0.32574882302E+03  0.46746366763E+02  0.34531820158E+03  0.00000000000E+00 0. -1.
<scales pt_clust_5="13000.00000" pt_clust_6="13000.00000" pt_clust_7="13000.00000" pt_clust_8="13000.00000" pt_clust_9="337.87813"></scales>
<clustering>
<clus scale="   90.847">  5  6 -1 -1</clus>
<clus scale="   91.293">  7  8 -1 -1</clus>
<clus scale="   94.144">  1  7  2 -1</clus>
<clus scale="  337.878">  2  9  1 -1</clus>
<clus scale="  337.878">  2  5  1 -1</clus>
</clustering>
</event>
<event>
 9    1  0.1504846E-005  0.1467792E+03  0.7546771E-02  0.1204650E+00
         21   -1    0    0  501  502  0.00000000000E+00  0.00000000000E+00  0.68784879025E+02  0.68784879025E+02  0.00000000000E+00 0. -1.
          1   -1    0    0  502    0 -0.00000000000E+00 -0.00000000000E+00 -0.53341179510E+03  0.53341179510E+03  0.00000000000E+00 0. -1.
         23    2    1    2    0    0 -0.56628542922E+02 -0.93747722490E+02 -0.32145220727E+03  0.35229374586E+03  0.93722646488E+02 0.  0.
         23    2    1    2    0    0  0.20363332356E+02  0.12415974208E+03 -0.11370299919E+03  0.19414776617E+03  0.94523416287E+02 0.  0.
        -11    1    3    3    0    0 -0.31572156408E+02 -0.95789150561E+02 -0.30733608199E+03  0.32346225393E+03  0.00000000000E+00 0. -1.
         11    1    3    3    0    0 -0.25056386514E+02  0.20414280710E+01 -0.14116125282E+02  0.28831491926E+02  0.00000000000E+00 0.  1.
        -11    1    4    4    0    0  0.42844577356E+02  0.47710295863E+02 -0.12488847216E+02  0.65329177593E+02  0.00000000000E+00 0.  1.
         11    1    4    4    0    0 -0.22481245000E+02  0.76449446216E+02 -0.10121415197E+03  0.12881858858E+03  0.00000000000E+00 0. -1.
          1    1    1    2  501    0  0.36265210566E+02 -0.30412019590E+02 -0.29471709616E+02  0.55755162098E+02  0.00000000000E+00 0. -1.
<scales pt_clust_5="13000.00000" pt_clust_6="13000.00000" pt_clust_7="13000.00000" pt_clust_8="13000.00000" pt_clust_9="47.32923"></scales>
<clustering>
<clus scale="   47.329">  1  9  2 -1</clus>
<clus scale="   93.723">  5  6 -1 -1</clus>
<clus scale="   94.523">  7  8 -1 -1</clus>
<clus scale="  146.265">  2  5  1 -1</clus>
<clus scale="   47.329">  1  5  2 -1</clus>
</clustering>
</event>
<event>
 9    1  0.1504846E-005  0.1289628E+03  0.7546771E-02  0.1230105E+00
          1   -1    0    0  502    0 -0.00000000000E+00  0.00000000000E+00  0.24409137373E+03  0.24409137373E+03  0.00000000000E+00 0. -1.
         21   -1    0    0  501  502  0.00000000000E+00 -0.00000000000E+00 -0.24242338352E+03  0.24242338352E+03  0.00000000000E+00 0. -1.
         23    2    1    2    0    0 -0.92251615531E+02 -0.47302682150E+01  0.14416203605E+03  0.19454992700E+03  0.92380979930E+02 0.  0.
         23    2    1    2    0    0  0.66420515032E+02  0.94783502753E+02 -0.35656270087E+02  0.14986929503E+03  0.88282720759E+02 0.  0.
        -11    1    3    3    0    0 -0.29637251945E+02  0.33365665467E+02  0.16957199691E+02  0.47740768283E+02  0.00000000000E+00 0.  1.
         11    1    3    3    0    0 -0.62614363586E+02 -0.38095933682E+02  0.12720483636E+03  0.14680915872E+03  0.00000000000E+00 0. -1.
        -11    1    4    4    0    0  0.14906323287E+02 -0.16548326330E+02 -0.57544529457E+00  0.22279513360E+02  0.00000000000E+00 0. -1.
         11    1    4    4    0    0  0.51514191746E+02  0.11133182908E+03 -0.35080824792E+02  0.12758978167E+03  0.00000000000E+00 0.  1.
          1    1    1    2  501    0  0.25831100499E+02 -0.90053234538E+02 -0.10683777575E+03  0.14209553522E+03  0.00000000000E+00 0. -1.
<scales pt_clust_5="13000.00000" pt_clust_6="13000.00000" pt_clust_7="13000.00000" pt_clust_8="13000.00000" pt_clust_9="93.68474"></scales>
<clustering>
<clus scale="   88.283">  7  8 -1 -1</clus>
<clus scale="   92.381">  5  6 -1 -1</clus>
<clus scale="   93.685">  2  9  1 -1</clus>
<clus scale="  126.059">  2  7  1 -1</clus>
<clus scale="   93.685">  2  5  1 -1</clus>
</clustering>
</event>
<event>
 9    1  0.1504846E-005  0.1101418E+03  0.7546771E-02  0.1260624E+00
         21   -1    0    0  501  502  0.00000000000E+00  0.00000000000E+00  0.32085010686E+02  0.32085010686E+02  0.00000000000E+00 0. -1.
          1   -1    0    0  502    0 -0.00000000000E+00 -0.00000000000E+00 -0.51837728631E+03  0.51837728631E+03  0.00000000000E+00 0. -1.
         23    2    1    2    0    0 -0.71389010754E+02  0.36089537046E+00 -0.24535619962E+03  0.27258336469E+03  0.94897338784E+02 0.  0.
         23    2    1    2    0    0  0.36423523374E+02 -0.38145652736E+01 -0.16521140302E+03  0.19439995746E+03  0.95683393595E+02 0.  0.
        -11    1    3    3    0    0 -0.32864425907E+02 -0.38723993633E+02 -0.18106945723E+03  0.18805788076E+03  0.00000000000E+00 0. -1.
         11    1    3    3    0    0 -0.38524584847E+02  0.39084889003E+02 -0.64286742392E+02  0.84525483928E+02  0.00000000000E+00 0.  1.
        -11    1    4    4    0    0 -0.18883797328E+02 -0.28273659112E+02 -0.26593927113E+02  0.43165200803E+02  0.00000000000E+00 0.  1.
         11    1    4    4    0    0  0.55307320702E+02  0.24459093838E+02 -0.13861747591E+03  0.15123475666E+03  0.00000000000E+00 0. -1.
          1    1    1    2  501    0  0.34965487380E+02  0.34536699031E+01 -0.75724672974E+02  0.83478974841E+02  0.00000000000E+00 0. -1.
<scales pt_clust_5="13000.00000" pt_clust_6="13000.00000" pt_clust_7="13000.00000" pt_clust_8="13000.00000" pt_clust_9="35.13566"></scales>
<clustering>
<clus scale="   35.136">  1  9  2 -1</clus>
<clus scale="   94.897">  5  6 -1 -1</clus>
<clus scale="   95.683">  7  8 -1 -1</clus>
<clus scale="  109.460">  2  5  1 -1</clus>
<clus scale="   35.136">  1  5  2 -1</clus>
</clustering>
</event>
<event>
 9    1  0.1504846E-005  0.1270677E+03  0.7546771E-02  0.1233262E+00
          1   -1    0    0  502    0 -0.00000000000E+00  0.00000000000E+00  0.24363656706E+03  0.24363656706E+03  0.00000000000E+00 0. -1.
         21   -1    0    0  501  502  0.00000000000E+00 -0.00000000000E+00 -0.12761737630E+03  0.12761737630E+03  0.00000000000E+00 0. -1.
         23    2    1    2    0    0  0.32557500713E+02  0.86154861343E+02  0.10419990055E+03  0.16800267711E+03  0.94258311340E+02 0.  0.
         23    2    1    2    0    0 -0.48833922576E+02 -0.63045226437E+02  0.69880169255E+02  0.13867539761E+03  0.89376592446E+02 0.  0.
        -11    1    4    4    0    0 -0.47422923139E+02 -0.87949475034E+01 -0.23986176218E+01  0.48291180428E+02  0.00000000000E+00 0. -1.
         11    1    4    4    0    0 -0.14109994373E+01 -0.54250278934E+02  0.72278786877E+02  0.90384217185E+02  0.00000000000E+00 0.  1.
        -11    1    3    3    0    0  0.38990321876E+02 -0.51074960086E+01  0.40984500350E+02  0.56798424137E+02  0.00000000000E+00 0.  1.
         11    1    3    3    0    0 -0.64328211626E+01  0.91262357352E+02  0.63215400198E+02  0.11120425297E+03  0.00000000000E+00 0. -1.
          1    1    1    2  501    0  0.16276421863E+02 -0.23109634906E+02 -0.58060879045E+02  0.64575868633E+02  0.00000000000E+00 0. -1.
<scales pt_clust_5="13000.00000" pt_clust_6="13000.00000" pt_clust_7="13000.00000" pt_clust_8="13000.00000" pt_clust_9="28.26618"></scales>
<clustering>
<clus scale="   28.266">  2  9  1 -1</clus>
<clus scale="   89.377">  5  6 -1 -1</clus>
<clus scale="   94.258">  7  8 -1 -1</clus>
<clus scale="  123.490">  2  5  1 -1</clus>
<clus scale="   28.266">  2  5  1 -1</clus>
</clustering>
</event>
<event>
 9    1  0.1504846E-005  0.1101431E+03  0.7546771E-02  0.1260305E+00
         21   -1    0    0  501  502  0.00000000000E+00  0.00000000000E+00  0.31636280615E+03  0.31636280615E+03  0.00000000000E+00 0.  1.
          2   -1    0    0  502    0 -0.00000000000E+00 -0.00000000000E+00 -0.10459339222E+03  0.10459339222E+03  0.00000000000E+00 0. -1.
         23    2    1    2    0    0  0.58176169320E+02 -0.20156509447E+02 -0.50076183841E+02  0.12083450234E+03  0.91118610712E+02 0.  0.
         23    2    1    2    0    0 -0.66994368098E+02 -0.18084252123E+01  0.16246891160E+03  0.19796522420E+03  0.91118422931E+02 0.  0.
        -11    1    4    4    0    0 -0.40243302872E+02  0.40721877535E+02  0.11675782295E+03  0.13003916316E+03  0.00000000000E+00 0.  1.
         11    1    4    4    0    0 -0.26751065226E+02 -0.42530302747E+02  0.45711088649E+02  0.67926061037E+02  0.00000000000E+00 0. -1.
        -13    1    3    3    0    0  0.77683865945E+02 -0.53777395056E+01 -0.17026052265E+02  0.79709407011E+02  0.00000000000E+00 0. -1.
         13    1    3    3    0    0 -0.19507696625E+02 -0.14778769941E+02 -0.33050131577E+02  0.41125095329E+02  0.00000000000E+00 0.  1.
          2    1    1    2  501    0  0.88181987781E+01  0.21964934659E+02  0.99376686166E+02  0.10215647183E+03  0.00000000000E+00 0. -1.
<scales pt_clust_5="13000.00000" pt_clust_6="13000.00000" pt_clust_7="13000.00000" pt_clust_8="13000.00000" pt_clust_9="23.66895"></scales>
<clustering>
<clus scale="   23.669">  1  9  2 -1</clus>
<clus scale="   91.118">  5  6 -1 -1</clus>
<clus scale="   91.119">  7  8 -1 -1</clus>
<clus scale="  110.143">  1  5  2 -1</clus>
<clus scale="   23.669">  1  5  2 -1</clus>
</clustering>
</event>
<event>
 9    1  0.1504846E-005  0.1051652E+03  0.7546771E-02  0.1271542E+00
         21   -1    0    0  501  502  0.00000000000E+00  0.00000000000E+00  0.18448621419E+03  0.18448621419E+03  0.00000000000E+00 0.  1.
          1   -1    0    0  502    0 -0.00000000000E+00 -0.00000000000E+00 -0.12013018501E+03  0.12013018501E+03  0.00000000000E+00 0. -1.
         23    2    1    2    0    0  0.47443662377E+01 -0.50262624636E+02 -0.57997173473E+02  0.11585607707E+03  0.86660937083E+02 0.  0.
         23    2    1    2    0    0  0.14504083529E+02  0.67075995697E+02  0.11589684549E+03  0.16239980596E+03  0.90730703432E+02 0.  0.
        -11    1    4    4    0    0  0.34097814168E+02  0.11794697287E+02  0.43081387895E+01  0.36336426282E+02  0.00000000000E+00 0.  1.
         11    1    4    4    0    0 -0.19593730639E+02  0.55281298409E+02  0.11158870670E+03  0.12606337968E+03  0.00000000000E+00 0. -1.
        -11    1    3    3    0    0  0.14361228570E+02  0.18272429951E+02 -0.36712650821E+02  0.43450492662E+02  0.00000000000E+00 0.  1.
         11    1    3    3    0    0 -0.96168623323E+01 -0.68535054586E+02 -0.21284522652E+02  0.72405584404E+02  0.00000000000E+00 0. -1.
          1    1    1    2  501    0 -0.19248449767E+02 -0.16813371061E+02  0.64563571608E+01  0.26360516168E+02  0.00000000000E+00 0. -1.
<scales pt_clust_5="13000.00000" pt_clust_6="13000.00000" pt_clust_7="13000.00000" pt_clust_8="13000.00000" pt_clust_9="25.55763"></scales>
<clustering>
<clus scale="   25.558">  1  9  2 -1</clus>
<clus scale="   86.661">  7  8 -1 -1</clus>
<clus scale="   90.731">  5  6 -1 -1</clus>
<clus scale="  101.675">  2  7  1 -1</clus>
<clus scale="   25.558">  1  5  2 -1</clus>
</clustering>
</event>
<event>
 9    1  0.1504846E-005  0.1522819E+03  0.7546771E-02  0.1216243E+00
         -2   -1    0    0    0  501 -0.00000000000E+00  0.00000000000E+00  0.27333489161E+03  0.27333489161E+03  0.00000000000E+00 0.  1.
         21   -1    0    0  501  502  0.00000000000E+00 -0.00000000000E+00 -0.34066490796E+03  0.34066490796E+03  0.00000000000E+00 0. -1.
         23    2    1    2    0    0 -0.42620576731E+02  0.19001808605E+02  0.18491960665E+03  0.21131782689E+03  0.91007586209E+02 0.  0.
         23    2    1    2    0    0  0.12981461953E+03 -0.85637255202E+02 -0.80725422952E+02  0.19905575864E+03  0.94451184297E+02 0.  0.
        -11    1    3    3    0    0 -0.68748877193E+02  0.13957763999E+02  0.16066315808E+03  0.17531080302E+03  0.00000000000E+00 0.  1.
         11    1    3    3    0    0  0.26128300461E+02  0.50440446069E+01  0.24256448574E+02  0.36007023876E+02  0.00000000000E+00 0. -1.
        -13    1    4    4    0    0  0.32268619477E+02 -0.29699765932E+02  0.19899819784E+02  0.48159554886E+02  0.00000000000E+00 0.  1.
         13    1    4    4    0    0  0.97546000052E+02 -0.55937489270E+02 -0.10062524274E+03  0.15089620376E+03  0.00000000000E+00 0. -1.
         -2    1    1    2    0  502 -0.87194042798E+02  0.66635446596E+02 -0.17152420004E+03  0.20362621404E+03  0.00000000000E+00 0.  1.
<scales pt_clust_5="13000.00000" pt_clust_6="13000.00000" pt_clust_7="13000.00000" pt_clust_8="13000.00000" pt_clust_9="119.45185"></scales>
<clustering>
<clus scale="   91.008">  5  6 -1 -1</clus>
<clus scale="   94.451">  7  8 -1 -1</clus>
<clus scale="  102.274">  1  5  2 -1</clus>
<clus scale="  119.452">  2  9  1 -1</clus>
<clus scale="  119.452">  2  5  1 -1</clus>
</clustering>
</event>
<event>
 9    1  0.1504846E-005  0.9341803E+02  0.7546771E-02  0.1295537E+00
          3   -1    0    0  502    0 -0.00000000000E+00  0.00000000000E+00  0.21874216954E+03  0.21874216954E+03  0.00000000000E+00 0. -1.
         21   -1    0    0  501  502  0.00000000000E+00 -0.00000000000E+00 -0.19761625001E+03  0.19761625001E+03  0.00000000000E+00 0. -1.
         23    2    1    2    0    0 -0.21791766262E+02 -0.60868799369E+01  0.17127255752E+03  0.19565947327E+03  0.91849928334E+02 0.  0.
         23    2    1    2    0    0 -0.10334824747E+02 -0.16814300078E+02 -0.35097989962E+02  0.99073400815E+02  0.90521492255E+02 0.  0.
        -11    1    4    4    0    0 -0.23080514981E+01  0.36753100172E+02 -0.23485731516E+02  0.43677191517E+02  0.00000000000E+00 0.  1.
         11    1    4    4    0    0 -0.80267732487E+01 -0.53567400250E+02 -0.11612258446E+02  0.55396209298E+02  0.00000000000E+00 0. -1.
        -11    1    3    3    0    0 -0.44254777051E+02  0.28919587365E+02  0.10102905733E+03  0.11402498959E+03  0.00000000000E+00 0. -1.
         11    1    3    3    0    0  0.22463010788E+02 -0.35006467302E+02  0.70243500187E+02  0.81634483677E+02  0.00000000000E+00 0.  1.
          3    1    1    2  501    0  0.32126591009E+02  0.22901180015E+02 -0.11504864803E+03  0.12162554547E+03  0.00000000000E+00 0. -1.
<scales pt_clust_5="13000.00000" pt_clust_6="13000.00000" pt_clust_7="13000.00000" pt_clust_8="13000.00000" pt_clust_9="39.45354"></scales>
<clustering>
<clus scale="   39.454">  2  9  1 -1</clus>
<clus scale="   90.521">  5  6 -1 -1</clus>
<clus scale="   91.850">  7  8 -1 -1</clus>
<clus scale="   92.112">  2  5  1 -1</clus>
<clus scale="   39.454">  2  5  1 -1</clus>
</clustering>
</event>
<event>
 9    1  0.1504846E-005  0.9798124E+02  0.7546771E-02  0.1287524E+00
          3   -1    0    0  502    0 -0.00000000000E+00  0.00000000000E+00  0.52422397130E+03  0.52422397130E+03  0.00000000000E+00 0. -1.
         21   -1    0    0  501  502  0.00000000000E+00 -0.00000000000E+00 -0.23936083956E+02  0.23936083956E+02  0.00000000000E+00 0.  1.
         23    2    1    2    0    0  0.14467865938E+02 -0.23565717240E+02  0.28331764275E+03  0.30043471922E+03  0.96059729571E+02 0.  0.
         23    2    1    2    0    0  0.75021775447E-01  0.66694642451E+01  0.13495975375E+03  0.16273886913E+03  0.90693533468E+02 0.  0.
        -11    1    4    4    0    0 -0.34532501173E+02 -0.12514851763E+02  0.21461238019E+02  0.42540567571E+02  0.00000000000E+00 0.  1.
         11    1    4    4    0    0  0.34607522949E+02  0.19184316008E+02  0.11349851573E+03  0.12019830156E+03  0.00000000000E+00 0. -1.
        -13    1    3    3    0    0  0.47004040352E+02  0.50242750967E+01  0.21021214864E+03  0.21546176131E+03  0.00000000000E+00 0. -1.
         13    1    3    3    0    0 -0.32536174414E+02 -0.28589992337E+02  0.73105494107E+02  0.84972957910E+02  0.00000000000E+00 0.  1.
          3    1    1    2  501    0 -0.14542887713E+02  0.16896252995E+02  0.82010490847E+02  0.84986466907E+02  0.00000000000E+00 0. -1.
<scales pt_clust_5="13000.00000" pt_clust_6="13000.00000" pt_clust_7="13000.00000" pt_clust_8="13000.00000" pt_clust_9="22.29304"></scales>
<clustering>
<clus scale="   22.293">  2  9  1 -1</clus>
<clus scale="   90.694">  5  6 -1 -1</clus>
<clus scale="   92.726">  2  5  1 -1</clus>
<clus scale="   96.060">  7  8 -1 -1</clus>
<clus scale="   22.293">  2  5  1 -1</clus>
</clustering>
</event>
<event>
 9    1  0.1504846E-005  0.1074033E+03  0.7546771E-02  0.1269312E+00
         21   -1    0    0  501  502  0.00000000000E+00  0.00000000000E+00  0.35447407629E+02  0.35447407629E+02  0.00000000000E+00 0.  1.
          1   -1    0    0  502    0 -0.00000000000E+00 -0.00000000000E+00 -0.53484117776E+03  0.53484117776E+03  0.00000000000E+00 0. -1.
         23    2    1    2    0    0 -0.35935594543E+02 -0.96360484922E+00 -0.37582492960E+03  0.38903732219E+03  0.93879523107E+02 0.  0.
         23    2    1    2    0    0  0.24178013646E+02  0.17794312970E+02 -0.12007020911E+03  0.16042450478E+03  0.10206837267E+03 0.  0.
        -11    1    4    4    0    0  0.26954365103E+02 -0.33873380256E+02 -0.19823774413E+02  0.47612243384E+02  0.00000000000E+00 0. -1.
         11    1    4    4    0    0 -0.27763514571E+01  0.51667693227E+02 -0.10024643470E+03  0.11281226139E+03  0.00000000000E+00 0.  1.
        -13    1    3    3    0    0  0.28119430195E+02  0.59419998145E+01 -0.57787395656E+02  0.64539854454E+02  0.00000000000E+00 0. -1.
         13    1    3    3    0    0 -0.64055024738E+02 -0.69056046637E+01 -0.31803753394E+03  0.32449746774E+03  0.00000000000E+00 0.  1.
          1    1    1    2  501    0  0.11757580898E+02 -0.16830708121E+02 -0.34986314155E+01  0.20826758418E+02  0.00000000000E+00 0. -1.
<scales pt_clust_5="13000.00000" pt_clust_6="13000.00000" pt_clust_7="13000.00000" pt_clust_8="13000.00000" pt_clust_9="20.53079"></scales>
<clustering>
<clus scale="   20.531">  1  9  2 -1</clus>
<clus scale="   93.880">  7  8 -1 -1</clus>
<clus scale="   99.654">  2  7  1 -1</clus>
<clus scale="  102.068">  5  6 -1 -1</clus>
<clus scale="   20.531">  1  5  2 -1</clus>
</clustering>
</event>
<event>
 9    1  0.1504846E-005  0.1029777E+03  0.7546771E-02  0.1275130E+00
         21   -1    0    0  501  502  0.00000000000E+00  0.00000000000E+00  0.23660302655E+03  0.23660302655E+03  0.00000000000E+00 0.  1.
         -1   -1    0    0    0  501 -0.00000000000E+00 -0.00000000000E+00 -0.10297402718E+03  0.10297402718E+03  0.00000000000E+00 0.  1.
         23    2    1    2    0    0 -0.22552168722E+02 -0.30212990647E+02 -0.24079571659E+02  0.10180528315E+03  0.91449793807E+02 0.  0.
         23    2    1    2    0    0  0.15341607351E+02  0.53414114348E+02  0.37443087925E+02  0.11507673906E+03  0.93553399248E+02 0.  0.
        -11    1    3    3    0    0  0.17000332104E+01  0.27319313839E+02 -0.28116402682E+02  0.39239866479E+02  0.00000000000E+00 0. -1.
         11    1    3    3    0    0 -0.24252201933E+02 -0.57532304485E+02  0.40368310228E+01  0.62565416667E+02  0.00000000000E+00 0.  1.
        -13    1    4    4    0    0  0.45815669648E+01  0.75885349103E+02  0.79035618072E+01  0.76433260127E+02  0.00000000000E+00 0. -1.
         13    1    4    4    0    0  0.10760040387E+02 -0.22471234755E+02  0.29539526118E+02  0.38643478930E+02  0.00000000000E+00 0.  1.
         -1    1    1    2    0  502  0.72105613709E+01 -0.23201123701E+02  0.12026548310E+03  0.12269503153E+03  0.00000000000E+00 0.  1.
<scales pt_clust_5="13000.00000" pt_clust_6="13000.00000" pt_clust_7="13000.00000" pt_clust_8="13000.00000" pt_clust_9="24.29577"></scales>
<clustering>
<clus scale="   24.296">  1  9  2 -1</clus>
<clus scale="   91.450">  5  6 -1 -1</clus>
<clus scale="   93.553">  7  8 -1 -1</clus>
<clus scale="  101.070">  2  5  1 -1</clus>
<clus scale="   24.296">  1  5  2 -1</clus>
</clustering>
</event>
<event>
 9    1  0.1504846E-005  0.1020523E+03  0.7546771E-02  0.1276413E+00
          4   -1    0    0  502    0 -0.00000000000E+00  0.00000000000E+00  0.71009066156E+02  0.71009066156E+02  0.00000000000E+00 0. -1.
         21   -1    0    0  501  502  0.00000000000E+00 -0.00000000000E+00 -0.27561825765E+03  0.27561825765E+03  0.00000000000E+00 0.  1.
         23    2    1    2    0    0  0.13344466240E+02  0.42491047580E+02  0.62362576449E+01  0.10261934713E+03  0.92240314359E+02 0.  0.
         23    2    1    2    0    0  0.73194669121E+01 -0.43371031271E+02 -0.18398746576E+03  0.21010924844E+03  0.91432421896E+02 0.  0.
        -13    1    3    3    0    0 -0.33367879557E+02  0.37735589924E+02 -0.12767904539E+02  0.51965464679E+02  0.00000000000E+00 0.  1.
         13    1    3    3    0    0  0.46712345797E+02  0.47554576559E+01  0.19004162184E+02  0.50653882454E+02  0.00000000000E+00 0. -1.
        -13    1    4    4    0    0 -0.58914979341E+01 -0.70229520527E+02 -0.14221732382E+03  0.15872196602E+03  0.00000000000E+00 0.  1.
         13    1    4    4    0    0  0.13210964846E+02  0.26858489256E+02 -0.41770141943E+02  0.51387282427E+02  0.00000000000E+00 0. -1.
          4    1    1    2  501    0 -0.20663933152E+02  0.87998369093E+00 -0.26857983374E+02  0.33898728229E+02  0.00000000000E+00 0. -1.
<scales pt_clust_5="13000.00000" pt_clust_6="13000.00000" pt_clust_7="13000.00000" pt_clust_8="13000.00000" pt_clust_9="20.68266"></scales>
<clustering>
<clus scale="   20.683">  2  9  1 -1</clus>
<clus scale="   91.432">  7  8 -1 -1</clus>
<clus scale="   92.240">  5  6 -1 -1</clus>
<clus scale="  101.323">  2  7  1 -1</clus>
<clus scale="   20.683">  2  5  1 -1</clus>
</clustering>
</event>
<event>
 9    1  0.1504846E-005  0.1783569E+03  0.7546771E-02  0.1192296E+00
         21   -1    0    0  501  502  0.00000000000E+00  0.00000000000E+00  0.62811026688E+03  0.62811026688E+03  0.00000000000E+00 0. -1.
          1   -1    0    0  502    0 -0.00000000000E+00 -0.00000000000E+00 -0.21694915259E+03  0.21694915259E+03  0.00000000000E+00 0. -1.
         23    2    1    2    0    0  0.52061128567E+02 -0.26960503805E+02 -0.14944395565E+03  0.18361633285E+03  0.89130420939E+02 0.  0.
         23    2    1    2    0    0  0.10800797863E+03  0.38108123479E+02  0.12672513221E+03  0.19884370393E+03  0.10179197873E+03 0.  0.
        -13    1    4    4    0    0  0.11779822700E+03  0.41318505806E+01  0.97794629794E+02  0.15315770987E+03  0.00000000000E+00 0. -1.
         13    1    4    4    0    0 -0.97902483733E+01  0.33976272899E+02  0.28930502420E+02  0.45685994063E+02  0.00000000000E+00 0.  1.
        -13    1    3    3    0    0 -0.24317993453E+02 -0.10050617303E+02 -0.55082316285E+02  0.61044584371E+02  0.00000000000E+00 0.  1.
         13    1    3    3    0    0  0.76379122020E+02 -0.16909886502E+02 -0.94361639365E+02  0.12257174848E+03  0.00000000000E+00 0. -1.
          1    1    1    2  501    0 -0.16006910720E+03 -0.11147619674E+02  0.43387993773E+03  0.46259938269E+03  0.00000000000E+00 0. -1.
<scales pt_clust_5="13000.00000" pt_clust_6="13000.00000" pt_clust_7="13000.00000" pt_clust_8="13000.00000" pt_clust_9="146.45674"></scales>
<clustering>
<clus scale="   89.130">  7  8 -1 -1</clus>
<clus scale="  101.792">  5  6 -1 -1</clus>
<clus scale="  106.684">  2  7  1 -1</clus>
<clus scale="  146.457">  1  9  2 -1</clus>
<clus scale="  146.457">  1  5  2 -1</clus>
</clustering>
</event>
<event>
 9    1  0.1504846E-005  0.9959395E+02  0.7546771E-02  0.1282422E+00
         21   -1    0    0  501  502  0.00000000000E+00  0.00000000000E+00  0.12057793847E+03  0.12057793847E+03  0.00000000000E+00 0. -1.
         -3   -1    0    0    0  501 -0.00000000000E+00 -0.00000000000E+00 -0.17942636081E+03  0.17942636081E+03  0.00000000000E+00 0.  1.
         23    2    1    2    0    0 -0.21255427910E+02 -0.24594057960E+02 -0.56489432250E+02  0.11069663204E+03  0.89476407430E+02 0.  0.
         23    2    1    2    0    0 -0.84226920538E+01  0.52016871422E+02 -0.57732329849E+02  0.12075835463E+03  0.92048148533E+02 0.  0.
        -11    1    4    4    0    0  0.94480616242E+01  0.71328820134E+02 -0.19858948722E+02  0.74642108052E+02  0.00000000000E+00 0. -1.
         11    1    4    4    0    0 -0.17870753678E+02 -0.19311948712E+02 -0.37873381127E+02  0.46116246574E+02  0.00000000000E+00 0.  1.
        -13    1    3    3    0    0  0.27300486583E+02 -0.32056054352E+02 -0.42015466524E+02  0.59482826224E+02  0.00000000000E+00 0.  1.
         13    1    3    3    0    0 -0.48555914493E+02  0.74619963929E+01 -0.14473965726E+02  0.51213805817E+02  0.00000000000E+00 0. -1.
         -3    1    1    2    0  502  0.29678119964E+02 -0.27422813462E+02  0.55373339764E+02  0.68549312611E+02  0.00000000000E+00 0.  1.
<scales pt_clust_5="13000.00000" pt_clust_6="13000.00000" pt_clust_7="13000.00000" pt_clust_8="13000.00000" pt_clust_9="40.40794"></scales>
<clustering>
<clus scale="   40.408">  1  9  2 -1</clus>
<clus scale="   89.476">  7  8 -1 -1</clus>
<clus scale="   92.048">  5  6 -1 -1</clus>
<clus scale="   97.222">  2  7  1 -1</clus>
<clus scale="   40.408">  1  5  2 -1</clus>
</clustering>
</event>
<event>
 9    1  0.1504846E-005  0.1202721E+03  0.7546771E-02  0.1244836E+00
         21   -1    0    0  501  502  0.00000000000E+00  0.00000000000E+00  0.21795041571E+03  0.21795041571E+03  0.00000000000E+00 0.  1.
          2   -1    0    0  502    0 -0.00000000000E+00 -0.00000000000E+00 -0.34587695896E+03  0.34587695896E+03  0.00000000000E+00 0. -1.
         23    2    1    2    0    0  0.39423523100E+02  0.57693807311E+02 -0.29729044561E+03  0.31869403520E+03  0.91112509814E+02 0.  0.
         23    2    1    2    0    0 -0.10231734631E+02 -0.85764035794E+02  0.15418405016E+03  0.20188375966E+03  0.97591868826E+02 0.  0.
        -13    1    4    4    0    0 -0.44515612896E+02 -0.57307279988E+02  0.13521953628E+03  0.15346037640E+03  0.00000000000E+00 0.  1.
         13    1    4    4    0    0  0.34283878265E+02 -0.28456755806E+02  0.18964513874E+02  0.48423383260E+02  0.00000000000E+00 0. -1.
        -13    1    3    3    0    0  0.56926024265E+02  0.38287691509E+01 -0.12687099610E+03  0.13910960198E+03  0.00000000000E+00 0. -1.
         13    1    3    3    0    0 -0.17502501164E+02  0.53865038160E+02 -0.17041944952E+03  0.17958443322E+03  0.00000000000E+00 0.  1.
          2    1    1    2  501    0 -0.29191788469E+02  0.28070228483E+02  0.15179852199E+02  0.43249579812E+02  0.00000000000E+00 0. -1.
<scales pt_clust_5="13000.00000" pt_clust_6="13000.00000" pt_clust_7="13000.00000" pt_clust_8="13000.00000" pt_clust_9="40.49813"></scales>
<clustering>
<clus scale="   40.498">  1  9  2 -1</clus>
<clus scale="   91.113">  7  8 -1 -1</clus>
<clus scale="   97.592">  5  6 -1 -1</clus>
<clus scale="  115.077">  2  7  1 -1</clus>
<clus scale="   40.498">  1  5  2 -1</clus>
</clustering>
</event>
<event>
 9    1  0.1504846E-005  0.1178082E+03  0.7546771E-02  0.1246911E+00
         21   -1    0    0  501  502  0.00000000000E+00  0.00000000000E+00  0.78255526675E+02  0.78255526675E+02  0.00000000000E+00 0. -1.
          2   -1    0    0  502    0 -0.00000000000E+00 -0.00000000000E+00 -0.57413562632E+03  0.57413562632E+03  0.00000000000E+00 0. -1.
         23    2    1    2    0    0 -0.60663073597E+02  0.49588695610E+02 -0.36941794363E+03  0.38827866041E+03  0.90286509633E+02 0.  0.
         23    2    1    2    0    0  0.22643406297E+02 -0.76263411898E+02 -0.16482808744E+03  0.20387147429E+03  0.89813405328E+02 0.  0.
        -11    1    3    3    0    0 -0.27767286196E+01  0.47016007422E+02 -0.77684406273E+02  0.90846475737E+02  0.00000000000E+00 0.  1.
         11    1    3    3    0    0 -0.57886344977E+02  0.25726881875E+01 -0.29173353736E+03  0.29743218467E+03  0.00000000000E+00 0. -1.
        -13    1    4    4    0    0  0.47861669022E+02 -0.12591476759E+02 -0.51257458322E+02  0.71250345137E+02  0.00000000000E+00 0. -1.
         13    1    4    4    0    0 -0.25218262725E+02 -0.63671935139E+02 -0.11357062912E+03  0.13262112915E+03  0.00000000000E+00 0.  1.
          2    1    1    2  501    0  0.38019667300E+02  0.26674716288E+02  0.38365931430E+02  0.60241018294E+02  0.00000000000E+00 0. -1.
<scales pt_clust_5="13000.00000" pt_clust_6="13000.00000" pt_clust_7="13000.00000" pt_clust_8="13000.00000" pt_clust_9="46.44390"></scales>
<clustering>
<clus scale="   46.444">  1  9  2 -1</clus>
<clus scale="   89.813">  7  8 -1 -1</clus>
<clus scale="   90.287">  5  6 -1 -1</clus>
<clus scale="  117.446">  1  7  2 -1</clus>
<clus scale="   46.444">  1  5  2 -1</clus>
</clustering>
</event>
<event>
 9    1  0.1504846E-005  0.1324413E+03  0.7546771E-02  0.1223985E+00
          1   -1    0    0  502    0 -0.00000000000E+00  0.00000000000E+00  0.70318418826E+03  0.70318418826E+03  0.00000000000E+00 0. -1.
         21   -1    0    0  501  502  0.00000000000E+00 -0.00000000000E+00 -0.11855822170E+03  0.11855822170E+03  0.00000000000E+00 0. -1.
         23    2    1    2    0    0 -0.82828111361E+02 -0.49309910558E+02  0.58557272027E+03  0.60043846862E+03  0.91318018819E+02 0.  0.
         23    2    1    2    0    0  0.65234221934E+02  0.67017261281E+02  0.68263504708E+02  0.14772979450E+03  0.91746221099E+02 0.  0.
        -13    1    3    3    0    0 -0.26972832342E+02  0.27008696810E+02  0.17480509778E+03  0.17892407775E+03  0.00000000000E+00 0.  1.
         13    1    3    3    0    0 -0.55855279019E+02 -0.76318607367E+02  0.41076762249E+03  0.42151439087E+03  0.00000000000E+00 0. -1.
        -13    1    4    4    0    0  0.84753180637E+02  0.49018738515E+02  0.71139520342E+02  0.12102383942E+03  0.00000000000E+00 0.  1.
         13    1    4    4    0    0 -0.19518958702E+02  0.17998522766E+02 -0.28760156340E+01  0.26705955076E+02  0.00000000000E+00 0. -1.
          1    1    1    2  501    0  0.17593889427E+02 -0.17707350723E+02 -0.69210258412E+02  0.73574146847E+02  0.00000000000E+00 0. -1.
<scales pt_clust_5="13000.00000" pt_clust_6="13000.00000" pt_clust_7="13000.00000" pt_clust_8="13000.00000" pt_clust_9="24.96188"></scales>
<clustering>
<clus scale="   24.962">  2  9  1 -1</clus>
<clus scale="   91.318">  5  6 -1 -1</clus>
<clus scale="   91.746">  7  8 -1 -1</clus>
<clus scale="  132.145">  1  5  2 -1</clus>
<clus scale="   24.962">  2  5  1 -1</clus>
</clustering>
</event>
<event>
 9    1  0.1504846E-005  0.2291767E+03  0.7546771E-02  0.1127310E+00
         -1   -1    0    0    0  501 -0.00000000000E+00  0.00000000000E+00  0.25331891443E+03  0.25331891443E+03  0.00000000000E+00 0.  1.
         21   -1    0    0  501  502  0.00000000000E+00 -0.00000000000E+00 -0.38897290085E+03  0.38897290085E+03  0.00000000000E+00 0.  1.
         23    2    1    2    0    0 -0.16790105749E+03 -0.15682051337E+03  0.69928045583E+02  0.25652166263E+03  0.90166475603E+02 0.  0.
         23    2    1    2    0    0  0.17113666480E+03  0.46623963285E+02 -0.18793342553E+03  0.27412239354E+03  0.91447045958E+02 0.  0.
        -11    1    4    4    0    0  0.94791622553E+01  0.25362834475E+02 -0.24873300580E+01  0.27190342044E+02  0.00000000000E+00 0. -1.
         11    1    4    4    0    0  0.16165750255E+03  0.21261128810E+02 -0.18544609547E+03  0.24693205149E+03  0.00000000000E+00 0.  1.
        -13    1    3    3    0    0 -0.79031583949E+02 -0.12390416588E+03  0.67493685143E+02  0.16172084317E+03  0.00000000000E+00 0.  1.
         13    1    3    3    0    0 -0.88869473540E+02 -0.32916347492E+02  0.24343604407E+01  0.94800819460E+02  0.00000000000E+00 0. -1.
         -1    1    1    2    0  502 -0.32356073129E+01  0.11019655008E+03 -0.17648606471E+02  0.11164775912E+03  0.00000000000E+00 0.  1.
<scales pt_clust_5="13000.00000" pt_clust_6="13000.00000" pt_clust_7="13000.00000" pt_clust_8="13000.00000" pt_clust_9="110.24410"></scales>
<clustering>
<clus scale="   90.166">  7  8 -1 -1</clus>
<clus scale="   91.447">  5  6 -1 -1</clus>
<clus scale="  110.244">  2  9  1 -1</clus>
<clus scale="  228.669">  1  7  2 -1</clus>
<clus scale="  110.244">  2  5  1 -1</clus>
</clustering>
</event>
<event>
 9    1  0.1504846E-005  0.9821286E+02  0.7546771E-02  0.1284471E+00
          1   -1    0    0  502    0 -0.00000000000E+00  0.00000000000E+00  0.31312265263E+03  0.31312265263E+03  0.00000000000E+00 0. -1.
         21   -1    0    0  501  502  0.00000000000E+00 -0.00000000000E+00 -0.80775764748E+02  0.80775764748E+02  0.00000000000E+00 0. -1.
         23    2    1    2    0    0  0.20306415227E+02 -0.66583638428E+01  0.10516464348E+03  0.14031133223E+03  0.90393492050E+02 0.  0.
         23    2    1    2    0    0 -0.74879219021E+02 -0.53871343594E+02  0.43492231920E+02  0.13677075673E+03  0.91135320030E+02 0.  0.
        -11    1    3    3    0    0 -0.17032005925E+02  0.15562614718E+02 -0.34502946248E+01  0.23327853216E+02  0.00000000000E+00 0.  1.
         11    1    3    3    0    0  0.37338421151E+02 -0.22220978561E+02  0.10861493810E+03  0.11698347901E+03  0.00000000000E+00 0. -1.
        -13    1    4    4    0    0 -0.36192709457E+02 -0.49691231399E+02 -0.17951560854E+02  0.64042089542E+02  0.00000000000E+00 0. -1.
         13    1    4    4    0    0 -0.38686509563E+02 -0.41801121946E+01  0.61443792775E+02  0.72728667186E+02  0.00000000000E+00 0.  1.
          1    1    1    2  501    0  0.54572803794E+02  0.60529707437E+02  0.83690012481E+02  0.11681632842E+03  0.00000000000E+00 0. -1.
<scales pt_clust_5="13000.00000" pt_clust_6="13000.00000" pt_clust_7="13000.00000" pt_clust_8="13000.00000" pt_clust_9="81.49873"></scales>
<clustering>
<clus scale="   81.499">  2  9  1 -1</clus>
<clus scale="   90.393">  5  6 -1 -1</clus>
<clus scale="   91.135">  7  8 -1 -1</clus>
<clus scale="   97.525">  1  5  2 -1</clus>
<clus scale="   81.499">  2  5  1 -1</clus>
</clustering>
</event>
<event>
 9    1  0.1504846E-005  0.1672176E+03  0.7546771E-02  0.1181018E+00
          3   -1    0    0  502    0 -0.00000000000E+00  0.00000000000E+00  0.20832735946E+03  0.20832735946E+03  0.00000000000E+00 0. -1.
         21   -1    0    0  501  502  0.00000000000E+00 -0.00000000000E+00 -0.20328218121E+03  0.20328218121E+03  0.00000000000E+00 0.  1.
         23    2    1    2    0    0  0.89066631163E+02  0.12645794831E+03  0.73042650846E+02  0.19514700873E+03  0.93928955576E+02 0.  0.
         23    2    1    2    0    0 -0.62795887795E+02 -0.98360455520E+02 -0.13042256454E+02  0.14938275229E+03  0.92341775456E+02 0.  0.
        -13    1    4    4    0    0 -0.31139267914E+02 -0.52172742667E+02 -0.52972635860E+02  0.80608617614E+02  0.00000000000E+00 0.  1.
         13    1    4    4    0    0 -0.31656619881E+02 -0.46187712854E+02  0.39930379407E+02  0.68774134677E+02  0.00000000000E+00 0. -1.
        -13    1    3    3    0    0  0.10255363203E+02  0.92611550022E+02  0.52497832987E+02  0.10694902590E+03  0.00000000000E+00 0. -1.
         13    1    3    3    0    0  0.78811267960E+02  0.33846398284E+02  0.20544817858E+02  0.88197982829E+02  0.00000000000E+00 0.  1.
          3    1    1    2  501    0 -0.26270743368E+02 -0.28097492785E+02 -0.54955216135E+02  0.67079779653E+02  0.00000000000E+00 0. -1.
<scales pt_clust_5="13000.00000" pt_clust_6="13000.00000" pt_clust_7="13000.00000" pt_clust_8="13000.00000" pt_clust_9="38.46584"></scales>
<clustering>
<clus scale="   38.466">  2  9  1 -1</clus>
<clus scale="   92.342">  5  6 -1 -1</clus>
<clus scale="   93.929">  7  8 -1 -1</clus>
<clus scale="  166.331">  2  5  1 -1</clus>
<clus scale="   38.466">  2  5  1 -1</clus>
</clustering>
</event>
<event>
 9    1  0.1504846E-005  0.1084315E+03  0.7546771E-02  0.1267741E+00
         21   -1    0    0  501  502  0.00000000000E+00  0.00000000000E+00  0.58208544043E+02  0.58208544043E+02  0.00000000000E+00 0.  1.
         -1   -1    0    0    0  501 -0.00000000000E+00 -0.00000000000E+00 -0.34614296620E+03  0.34614296620E+03  0.00000000000E+00 0.  1.
         23    2    1    2    0    0 -0.18981283014E+02  0.32746143000E+02 -0.19829681484E+03  0.22142010770E+03  0.90954045168E+02 0.  0.
         23    2    1    2    0    0  0.67461877090E+01 -0.49964275220E+02 -0.10737533848E+03  0.15534900343E+03  0.10030907091E+03 0.  0.
        -11    1    3    3    0    0 -0.55209343571E+02  0.11649089985E+02 -0.12009176314E+03  0.13268686631E+03  0.00000000000E+00 0.  1.
         11    1    3    3    0    0  0.36228060558E+02  0.21097053014E+02 -0.78205051696E+02  0.88733241395E+02  0.00000000000E+00 0. -1.
        -13    1    4    4    0    0  0.17823515487E+02 -0.11508832313E+02  0.15399899614E+02  0.26216175038E+02  0.00000000000E+00 0. -1.
         13    1    4    4    0    0 -0.11077327778E+02 -0.38455442907E+02 -0.12277523809E+03  0.12913282839E+03  0.00000000000E+00 0.  1.
         -1    1    1    2    0  502  0.12235095305E+02  0.17218132220E+02  0.17737731159E+02  0.27582399115E+02  0.00000000000E+00 0.  1.
<scales pt_clust_5="13000.00000" pt_clust_6="13000.00000" pt_clust_7="13000.00000" pt_clust_8="13000.00000" pt_clust_9="21.12254"></scales>
<clustering>
<clus scale="   21.123">  1  9  2 -1</clus>
<clus scale="   90.954">  5  6 -1 -1</clus>
<clus scale="   99.840">  2  5  1 -1</clus>
<clus scale="  100.309">  7  8 -1 -1</clus>
<clus scale="   21.123">  1  5  2 -1</clus>
</clustering>
</event>
<event>
 9    1  0.1504846E-005  0.1224778E+03  0.7546771E-02  0.1239507E+00
          1   -1    0    0  502    0 -0.00000000000E+00  0.00000000000E+00  0.96999039829E+03  0.96999039829E+03  0.00000000000E+00 0. -1.
         21   -1    0    0  501  502  0.00000000000E+00 -0.00000000000E+00 -0.97431595162E+02  0.97431595162E+02  0.00000000000E+00 0.  1.
         23    2    1    2    0    0  0.24003117751E+02  0.71119274264E+02  0.66970641893E+03  0.68019163111E+03  0.92303123714E+02 0.  0.
         23    2    1    2    0    0  0.10710084897E+02 -0.10387286434E+03  0.27084426518E+03  0.30415991043E+03  0.90842486016E+02 0.  0.
        -11    1    4    4    0    0  0.35227951216E+02 -0.66775364689E+02  0.87821482034E+02  0.11581265295E+03  0.00000000000E+00 0.  1.
         11    1    4    4    0    0 -0.24517866320E+02 -0.37097499650E+02  0.18302278315E+03  0.18834725748E+03  0.00000000000E+00 0. -1.
        -13    1    3    3    0    0  0.55738871725E+02  0.66690676689E+02  0.49334013861E+03  0.50093808055E+03  0.00000000000E+00 0. -1.
         13    1    3    3    0    0 -0.31735753974E+02  0.44285975745E+01  0.17636628032E+03  0.17925355056E+03  0.00000000000E+00 0.  1.
          1    1    1    2  501    0 -0.34713202648E+02  0.32753590076E+02 -0.67991880983E+02  0.83070451910E+02  0.00000000000E+00 0. -1.
<scales pt_clust_5="13000.00000" pt_clust_6="13000.00000" pt_clust_7="13000.00000" pt_clust_8="13000.00000" pt_clust_9="47.72635"></scales>
<clustering>
<clus scale="   47.726">  2  9  1 -1</clus>
<clus scale="   90.842">  5  6 -1 -1</clus>
<clus scale="   92.303">  7  8 -1 -1</clus>
<clus scale="  121.381">  2  5  1 -1</clus>
<clus scale="   47.726">  2  5  1 -1</clus>
</clustering>
</event>
<event>
 9    1  0.1504846E-005  0.1356312E+03  0.7546771E-02  0.1222657E+00
          2   -1    0    0  502    0 -0.00000000000E+00  0.00000000000E+00  0.11062612533E+03  0.11062612533E+03  0.00000000000E+00 0.  1.
         21   -1    0    0  501  502  0.00000000000E+00 -0.00000000000E+00 -0.24942928795E+03  0.24942928795E+03  0.00000000000E+00 0. -1.
         23    2    1    2    0    0  0.76887112338E+02  0.55531643584E+02  0.26671841586E+02  0.14151192983E+03  0.10158172901E+03 0.  0.
         23    2    1    2    0    0 -0.53337073182E+02 -0.54062483874E+02 -0.15033814902E+03  0.19050980442E+03  0.89021519825E+02 0.  0.
        -11    1    4    4    0    0 -0.58580404761E+02  0.11605054218E+01 -0.55871838975E+02  0.80960934933E+02  0.00000000000E+00 0. -1.
         11    1    4    4    0    0  0.52433315793E+01 -0.55222989296E+02 -0.94466310040E+02  0.10954886949E+03  0.00000000000E+00 0.  1.
        -13    1    3    3    0    0  0.68264326906E+02 -0.52620280475E+01  0.39128436239E+02  0.78858999420E+02  0.00000000000E+00 0.  1.
         13    1    3    3    0    0  0.86227854323E+01  0.60793671632E+02 -0.12456594653E+02  0.62652930414E+02  0.00000000000E+00 0. -1.
          2    1    1    2  501    0 -0.23550039156E+02 -0.14691597103E+01 -0.15136855195E+02  0.28033679026E+02  0.00000000000E+00 0.  1.
<scales pt_clust_5="13000.00000" pt_clust_6="13000.00000" pt_clust_7="13000.00000" pt_clust_8="13000.00000" pt_clust_9="23.59582"></scales>
<clustering>
<clus scale="   23.596">  2  9  1 -1</clus>
<clus scale="   89.022">  5  6 -1 -1</clus>
<clus scale="  101.582">  7  8 -1 -1</clus>
<clus scale="  126.498">  2  5  1 -1</clus>
<clus scale="   23.596">  2  5  1 -1</clus>
</clustering>
</event>
<event>
 9    1  0.1504846E-005  0.1004381E+03  0.7546771E-02  0.1279591E+00
         -1   -1    0    0    0  501 -0.00000000000E+00  0.00000000000E+00  0.43562997140E+03  0.43562997140E+03  0.00000000000E+00 0.  1.
         21   -1    0    0  501  502  0.00000000000E+00 -0.00000000000E+00 -0.82940052198E+02  0.82940052198E+02  0.00000000000E+00 0. -1.
         23    2    1    2    0    0  0.13466399288E+02 -0.38364923425E+02  0.32472150946E+03  0.33969432273E+03  0.91076687097E+02 0.  0.
         23    2    1    2    0    0  0.11565598507E+02  0.53530478489E+02  0.70525445561E+02  0.12722595478E+03  0.90627423559E+02 0.  0.
        -11    1    3    3    0    0 -0.39241517909E+02 -0.18713430428E+02  0.13882259071E+03  0.14547096238E+03  0.00000000000E+00 0. -1.
         11    1    3    3    0    0  0.52707917197E+02 -0.19651492997E+02  0.18589891875E+03  0.19422336035E+03  0.00000000000E+00 0.  1.
        -13    1    4    4    0    0  0.37551650011E+02  0.10138598015E+01  0.55009494791E+02  0.66612302523E+02  0.00000000000E+00 0.  1.
         13    1    4    4    0    0 -0.25986051504E+02  0.52516618687E+02  0.15515950770E+02  0.60613652253E+02  0.00000000000E+00 0. -1.
         -1    1    1    2    0  502 -0.25031997796E+02 -0.15165555064E+02 -0.42557035816E+02  0.51649746093E+02  0.00000000000E+00 0.  1.
<scales pt_clust_5="13000.00000" pt_clust_6="13000.00000" pt_clust_7="13000.00000" pt_clust_8="13000.00000" pt_clust_9="29.26764"></scales>
<clustering>
<clus scale="   29.268">  2  9  1 -1</clus>
<clus scale="   90.627">  7  8 -1 -1</clus>
<clus scale="   91.077">  5  6 -1 -1</clus>
<clus scale="  100.031">  2  7  1 -1</clus>
<clus scale="   29.268">  2  5  1 -1</clus>
</clustering>
</event>
<event>
 9    1  0.1786010E-005  0.1009982E+03  0.7546771E-02  0.1280427E+00
         -2   -1    0    0    0  501 -0.00000000000E+00  0.00000000000E+00  0.47248513516E+03  0.47248513516E+03  0.00000000000E+00 0.  1.
         21   -1    0    0  501  502  0.00000000000E+00 -0.00000000000E+00 -0.90289270692E+02  0.90289270692E+02  0.00000000000E+00 0. -1.
         23    2    1    2    0    0  0.91875979029E+01  0.32251129637E+02  0.39264896080E+03  0.40461268987E+03  0.91726087203E+02 0.  0.
         23    2    1    2    0    0  0.26819289455E+02 -0.71533952515E+01 -0.37223779558E+02  0.10675100028E+03  0.96123467190E+02 0.  0.
        -11    1    3    3    0    0  0.47204263549E+02  0.89615598817E+01  0.26699616423E+03  0.27128491253E+03  0.00000000000E+00 0.  1.
         11    1    3    3    0    0 -0.38016665646E+02  0.23289569755E+02  0.12565279656E+03  0.13332777734E+03  0.00000000000E+00 0. -1.
        -11    1    4    4    0    0  0.34867787789E+02  0.39511616470E+02 -0.19719122916E+02  0.56265213676E+02  0.00000000000E+00 0.  1.
         11    1    4    4    0    0 -0.80484983332E+01 -0.46665011722E+02 -0.17504656642E+02  0.50485786599E+02  0.00000000000E+00 0. -1.
         -2    1    1    2    0  502 -0.36006887358E+02 -0.25097734385E+02  0.26770683225E+02  0.51410715701E+02  0.00000000000E+00 0.  1.
<scales pt_clust_5="13000.00000" pt_clust_6="13000.00000" pt_clust_7="13000.00000" pt_clust_8="13000.00000" pt_clust_9="43.89068"></scales>
<clustering>
<clus scale="   43.891">  2  9  1 -1</clus>
<clus scale="   91.726">  5  6 -1 -1</clus>
<clus scale="   96.123">  7  8 -1 -1</clus>
<clus scale="   96.823">  1  5  2 -1</clus>
<clus scale="   43.891">  2  5  1 -1</clus>
</clustering>
</event>
<event>
 9    1  0.1504846E-005  0.1281967E+03  0.7546771E-02  0.1232567E+00
         21   -1    0    0  501  502  0.00000000000E+00  0.00000000000E+00  0.83814455644E+03  0.83814455644E+03  0.00000000000E+00 0. -1.
         -3   -1    0    0    0  501 -0.00000000000E+00 -0.00000000000E+00 -0.39301443743E+02  0.39301443743E+02  0.00000000000E+00 0.  1.
         23    2    1    2    0    0 -0.71405946857E+02 -0.22446780976E+02  0.26012280593E+03  0.28377926805E+03  0.85229874960E+02 0.  0.
         23    2    1    2    0    0  0.10985834986E+03 -0.57889209046E+02  0.39515709553E+03  0.42472042643E+03  0.93905766197E+02 0.  0.
        -11    1    4    4    0    0  0.62824700627E+02  0.17377992303E+02  0.19937311617E+03  0.20975837785E+03  0.00000000000E+00 0.  1.
         11    1    4    4    0    0  0.47033649233E+02 -0.75267201349E+02  0.19578397935E+03  0.21496204858E+03  0.00000000000E+00 0. -1.
        -13    1    3    3    0    0  0.94442082949E+01  0.19562457895E+02  0.39422586725E+02  0.45011367156E+02  0.00000000000E+00 0. -1.
         13    1    3    3    0    0 -0.80850155152E+02 -0.42009238871E+02  0.22070021921E+03  0.23876790089E+03  0.00000000000E+00 0.  1.
         -3    1    1    2    0  502 -0.38452403004E+02  0.80335990022E+02  0.14356321124E+03  0.16894630570E+03  0.00000000000E+00 0.  1.
<scales pt_clust_5="13000.00000" pt_clust_6="13000.00000" pt_clust_7="13000.00000" pt_clust_8="13000.00000" pt_clust_9="89.06440"></scales>
<clustering>
<clus scale="   85.230">  7  8 -1 -1</clus>
<clus scale="   89.064">  1  9  2 -1</clus>
<clus scale="   93.906">  5  6 -1 -1</clus>
<clus scale="  121.985">  2  7  1 -1</clus>
<clus scale="   89.064">  1  5  2 -1</clus>
</clustering>
</event>
<event>
 9    1  0.1504846E-005  0.1209643E+03  0.7546771E-02  0.1241902E+00
          1   -1    0    0  502    0 -0.00000000000E+00  0.00000000000E+00  0.39341128050E+03  0.39341128050E+03  0.00000000000E+00 0. -1.
         21   -1    0    0  501  502  0.00000000000E+00 -0.00000000000E+00 -0.47531546290E+02  0.47531546290E+02  0.00000000000E+00 0. -1.
         23    2    1    2    0    0  0.49721796415E+02 -0.53553186675E+02  0.17900171473E+03  0.21432924017E+03  0.92494369959E+02 0.  0.
         23    2    1    2    0    0 -0.40759063294E+02  0.74918562799E+02  0.15888724245E+03  0.20210517175E+03  0.91253779868E+02 0.  0.
        -11    1    3    3    0    0  0.65413867923E+02 -0.26528874626E+02  0.64428793890E+02  0.95571045760E+02  0.00000000000E+00 0. -1.
         11    1    3    3    0    0 -0.15692071508E+02 -0.27024312049E+02  0.11457292084E+03  0.11875819441E+03  0.00000000000E+00 0.  1.
        -11    1    4    4    0    0 -0.25938806063E+02 -0.15154711461E+02  0.62541083257E+02  0.69382087274E+02  0.00000000000E+00 0.  1.
         11    1    4    4    0    0 -0.14820257231E+02  0.90073274260E+02  0.96346159196E+02  0.13272308447E+03  0.00000000000E+00 0. -1.
          1    1    1    2  501    0 -0.89627331206E+01 -0.21365376124E+02  0.79907770247E+01  0.24508414869E+02  0.00000000000E+00 0. -1.
<scales pt_clust_5="13000.00000" pt_clust_6="13000.00000" pt_clust_7="13000.00000" pt_clust_8="13000.00000" pt_clust_9="23.16916"></scales>
<clustering>
<clus scale="   23.169">  2  9  1 -1</clus>
<clus scale="   91.254">  7  8 -1 -1</clus>
<clus scale="   92.494">  5  6 -1 -1</clus>
<clus scale="  120.018">  2  7  1 -1</clus>
<clus scale="   23.169">  2  5  1 -1</clus>
</clustering>
</event>
<event>
 9    1  0.1504846E-005  0.9895738E+02  0.7546771E-02  0.1282590E+00
         21   -1    0    0  501  502  0.00000000000E+00  0.00000000000E+00  0.47210724766E+03  0.47210724766E+03  0.00000000000E+00 0.  1.
          1   -1    0    0  502    0 -0.00000000000E+00 -0.00000000000E+00 -0.63091369373E+02  0.63091369373E+02  0.00000000000E+00 0. -1.
         23    2    1    2    0    0  0.43511113676E+02 -0.14645059328E+02  0.28676856659E+02  0.10690202353E+03  0.92184520128E+02 0.  0.
         23    2    1    2    0    0  0.16610733988E+02  0.51448124498E+02  0.12984651423E+03  0.16807438378E+03  0.92011169029E+02 0.  0.
        -11    1    3    3    0    0 -0.18121396118E+02 -0.33746671909E+02  0.78599108794E+01  0.39102443162E+02  0.00000000000E+00 0. -1.
         11    1    3    3    0    0  0.61632509794E+02  0.19101612581E+02  0.20816945780E+02  0.67799580370E+02  0.00000000000E+00 0.  1.
        -11    1    4    4    0    0  0.78074609598E+01  0.77270959888E+02  0.81620109149E+02  0.11266587729E+03  0.00000000000E+00 0.  1.
         11    1    4    4    0    0  0.88032730285E+01 -0.25822835390E+02  0.48226405086E+02  0.55408506487E+02  0.00000000000E+00 0. -1.
          1    1    1    2  501    0 -0.60121847664E+02 -0.36803065170E+02  0.25049250739E+03  0.26022220972E+03  0.00000000000E+00 0. -1.
<scales pt_clust_5="13000.00000" pt_clust_6="13000.00000" pt_clust_7="13000.00000" pt_clust_8="13000.00000" pt_clust_9="70.49186"></scales>
<clustering>
<clus scale="   70.492">  1  9  2 -1</clus>
<clus scale="   92.011">  7  8 -1 -1</clus>
<clus scale="   92.185">  5  6 -1 -1</clus>
<clus scale="   98.796">  1  7  2 -1</clus>
<clus scale="   70.492">  1  5  2 -1</clus>
</clustering>
</event>
<event>
 9    1  0.1504846E-005  0.1383700E+03  0.7546771E-02  0.1231312E+00
          1   -1    0    0  502    0 -0.00000000000E+00  0.00000000000E+00  0.80327251896E+03  0.80327251896E+03  0.00000000000E+00 0. -1.
         21   -1    0    0  501  502  0.00000000000E+00 -0.00000000000E+00 -0.47197992632E+02  0.47197992632E+02  0.00000000000E+00 0. -1.
         23    2    1    2    0    0  0.21087013187E+02 -0.37646555094E+02  0.25084329650E+03  0.26987392077E+03  0.89708686756E+02 0.  0.
         23    2    1    2    0    0 -0.31265287259E+02 -0.73236363428E+02  0.42902015203E+03  0.44566421049E+03  0.90648852967E+02 0.  0.
        -11    1    4    4    0    0  0.24523353542E+02 -0.52888449197E+02  0.26181678801E+03  0.26822865882E+03  0.00000000000E+00 0. -1.
         11    1    4    4    0    0 -0.55788640801E+02 -0.20347914231E+02  0.16720336402E+03  0.17743555167E+03  0.00000000000E+00 0.  1.
        -11    1    3    3    0    0  0.45020874796E+02 -0.51435183653E+02  0.20757909469E+03  0.21854413247E+03  0.00000000000E+00 0. -1.
         11    1    3    3    0    0 -0.23933861609E+02  0.13788628559E+02  0.43264201806E+02  0.51329788301E+02  0.00000000000E+00 0.  1.
          1    1    1    2  501    0  0.10178274072E+02  0.11088291852E+03  0.76211077799E+02  0.13493238033E+03  0.00000000000E+00 0. -1.
<scales pt_clust_5="13000.00000" pt_clust_6="13000.00000" pt_clust_7="13000.00000" pt_clust_8="13000.00000" pt_clust_9="104.54211"></scales>
<clustering>
<clus scale="   89.709">  7  8 -1 -1</clus>
<clus scale="   90.649">  5  6 -1 -1</clus>
<clus scale="   99.547">  1  7  2 -1</clus>
<clus scale="  104.542">  2  9  1 -1</clus>
<clus scale="  104.542">  2  5  1 -1</clus>
</clustering>
</event>
<event>
 9    1  0.1504846E-005  0.1073912E+03  0.7546771E-02  0.1267705E+00
         -1   -1    0    0    0  501 -0.00000000000E+00  0.00000000000E+00  0.16991286154E+03  0.16991286154E+03  0.00000000000E+00 0.  1.
         21   -1    0    0  501  502  0.00000000000E+00 -0.00000000000E+00 -0.13510489101E+03  0.13510489101E+03  0.00000000000E+00 0. -1.
         23    2    1    2    0    0  0.16277956161E+02 -0.57570075796E+02  0.54158192338E+02  0.12146214397E+03  0.90778065285E+02 0.  0.
         23    2    1    2    0    0 -0.57476715170E+02  0.17839358453E+00 -0.92357212189E+01  0.11218722585E+03  0.95901358102E+02 0.  0.
        -13    1    4    4    0    0 -0.34712506531E+02  0.23133235198E+02 -0.46756525559E+02  0.62660014066E+02  0.00000000000E+00 0. -1.
         13    1    4    4    0    0 -0.22764208639E+02 -0.22954841614E+02  0.37520804340E+02  0.49527211781E+02  0.00000000000E+00 0.  1.
        -13    1    3    3    0    0  0.54057196658E+02 -0.38468570192E+02  0.34629205341E+02  0.74841120153E+02  0.00000000000E+00 0.  1.
         13    1    3    3    0    0 -0.37779240496E+02 -0.19101505604E+02  0.19528986996E+02  0.46621023819E+02  0.00000000000E+00 0. -1.
         -1    1    1    2    0  502  0.41198759008E+02  0.57391682212E+02 -0.10114500584E+02  0.71368382727E+02  0.00000000000E+00 0.  1.
<scales pt_clust_5="13000.00000" pt_clust_6="13000.00000" pt_clust_7="13000.00000" pt_clust_8="13000.00000" pt_clust_9="70.64802"></scales>
<clustering>
<clus scale="   70.648">  2  9  1 -1</clus>
<clus scale="   90.778">  7  8 -1 -1</clus>
<clus scale="   95.901">  5  6 -1 -1</clus>
<clus scale="  102.842">  1  7  2 -1</clus>
<clus scale="   70.648">  2  5  1 -1</clus>
</clustering>
</event>
<event>
 9    1  0.1504846E-005  0.1841858E+03  0.7546771E-02  0.1186327E+00
          1   -1    0    0  502    0 -0.00000000000E+00  0.00000000000E+00  0.13417980078E+04  0.13417980078E+04  0.00000000000E+00 0. -1.
         21   -1    0    0  501  502  0.00000000000E+00 -0.00000000000E+00 -0.92650076620E+02  0.92650076620E+02  0.00000000000E+00 0. -1.
         23    2    1    2    0    0 -0.79548439024E+01 -0.63412058761E+02  0.16304895479E+03  0.19699206946E+03  0.90202799490E+02 0.  0.
         23    2    1    2    0    0  0.16426117841E+03  0.80750838178E+02  0.10578764311E+04  0.10776786213E+04  0.93734916668E+02 0.  0.
        -13    1    4    4    0    0  0.14077744548E+03  0.25724543682E+02  0.81998543001E+03  0.83237980918E+03  0.00000000000E+00 0. -1.
         13    1    4    4    0    0  0.23483732929E+02  0.55026294496E+02  0.23789100111E+03  0.24529881208E+03  0.00000000000E+00 0.  1.
        -13    1    3    3    0    0  0.27562857198E+02  0.20799278301E+01  0.83710217651E+02  0.88155758382E+02  0.00000000000E+00 0. -1.
         13    1    3    3    0    0 -0.35517701101E+02 -0.65491986592E+02  0.79338737138E+02  0.10883631108E+03  0.00000000000E+00 0.  1.
          1    1    1    2  501    0 -0.15630633451E+03 -0.17338779416E+02  0.28222545291E+02  0.15977739372E+03  0.00000000000E+00 0. -1.
<scales pt_clust_5="13000.00000" pt_clust_6="13000.00000" pt_clust_7="13000.00000" pt_clust_8="13000.00000" pt_clust_9="158.55021"></scales>
<clustering>
<clus scale="   90.203">  7  8 -1 -1</clus>
<clus scale="   93.735">  5  6 -1 -1</clus>
<clus scale="  110.548">  1  7  2 -1</clus>
<clus scale="  158.550">  2  9  1 -1</clus>
<clus scale="  158.550">  2  5  1 -1</clus>
</clustering>
</event>
<event>
 9    1  0.1504846E-005  0.9413148E+02  0.7546771E-02  0.1293213E+00
         21   -1    0    0  501  502  0.00000000000E+00  0.00000000000E+00  0.34745574013E+02  0.34745574013E+02  0.00000000000E+00 0. -1.
         -2   -1    0    0    0  501 -0.00000000000E+00 -0.00000000000E+00 -0.36837607276E+03  0.36837607276E+03  0.00000000000E+00 0.  1.
         23    2    1    2    0    0  0.37985018230E+02 -0.20475043822E+01 -0.18938801232E+03  0.21336973451E+03  0.90618819834E+02 0.  0.
         23    2    1    2    0    0 -0.94030932264E+01 -0.74248149612E+01 -0.12174001770E+03  0.15216185548E+03  0.90493382704E+02 0.  0.
        -11    1    4    4    0    0  0.20114612242E+01  0.39811240314E+02 -0.73922579215E+02  0.83985287696E+02  0.00000000000E+00 0.  1.
         11    1    4    4    0    0 -0.11414554451E+02 -0.47236055275E+02 -0.47817438489E+02  0.68176567785E+02  0.00000000000E+00 0. -1.
        -13    1    3    3    0    0  0.65931310468E+02  0.10626190392E+02 -0.14191079607E+03  0.15683917771E+03  0.00000000000E+00 0.  1.
         13    1    3    3    0    0 -0.27946292239E+02 -0.12673694774E+02 -0.47477216248E+02  0.56530556797E+02  0.00000000000E+00 0. -1.
         -2    1    1    2    0  502 -0.28581925003E+02  0.94723193434E+01 -0.22502468722E+02  0.37590056787E+02  0.00000000000E+00 0.  1.
<scales pt_clust_5="13000.00000" pt_clust_6="13000.00000" pt_clust_7="13000.00000" pt_clust_8="13000.00000" pt_clust_9="30.11065"></scales>
<clustering>
<clus scale="   30.111">  1  9  2 -1</clus>
<clus scale="   90.493">  5  6 -1 -1</clus>
<clus scale="   90.619">  7  8 -1 -1</clus>
<clus scale="   94.011">  1  5  2 -1</clus>
<clus scale="   30.111">  1  5  2 -1</clus>
</clustering>
</event>
<event>
 9    1  0.1504846E-005  0.1118750E+03  0.7546771E-02  0.1257407E+00
         21   -1    0    0  501  502  0.00000000000E+00  0.00000000000E+00  0.30563616728E+02  0.30563616728E+02  0.00000000000E+00 0. -1.
          2   -1    0    0  502    0 -0.00000000000E+00 -0.00000000000E+00 -0.60808999133E+03  0.60808999133E+03  0.00000000000E+00 0. -1.
         23    2    1    2    0    0  0.44116140502E+02 -0.87538089016E+01 -0.19023621508E+03  0.21597732126E+03  0.91834213398E+02 0.  0.
         23    2    1    2    0    0 -0.84751157765E+02 -0.85846278696E+01 -0.27296267789E+03  0.30010957404E+03  0.91108058551E+02 0.  0.
        -11    1    3    3    0    0  0.25075897523E+02  0.23769370953E+02 -0.16945337268E+03  0.17293995821E+03  0.00000000000E+00 0.  1.
         11    1    3    3    0    0  0.19040242980E+02 -0.32523179855E+02 -0.20782842393E+02  0.43037363053E+02  0.00000000000E+00 0. -1.
        -11    1    4    4    0    0 -0.66817012732E+02  0.35890164122E+02 -0.18457842660E+03  0.19955403438E+03  0.00000000000E+00 0. -1.
         11    1    4    4    0    0 -0.17934145033E+02 -0.44474791992E+02 -0.88384251292E+02  0.10055553966E+03  0.00000000000E+00 0.  1.
          2    1    1    2  501    0  0.40635017263E+02  0.17338436771E+02 -0.11432748164E+03  0.12256671275E+03  0.00000000000E+00 0. -1.
<scales pt_clust_5="13000.00000" pt_clust_6="13000.00000" pt_clust_7="13000.00000" pt_clust_8="13000.00000" pt_clust_9="44.17950"></scales>
<clustering>
<clus scale="   44.179">  1  9  2 -1</clus>
<clus scale="   91.108">  7  8 -1 -1</clus>
<clus scale="   91.834">  5  6 -1 -1</clus>
<clus scale="  111.280">  1  7  2 -1</clus>
<clus scale="   44.179">  1  5  2 -1</clus>
</clustering>
</event>
<event>
 9    1  0.1504846E-005  0.1076963E+03  0.7546771E-02  0.1269123E+00
         21   -1    0    0  501  502  0.00000000000E+00  0.00000000000E+00  0.20464856442E+03  0.20464856442E+03  0.00000000000E+00 0. -1.
          2   -1    0    0  502    0 -0.00000000000E+00 -0.00000000000E+00 -0.15384415448E+03  0.15384415448E+03  0.00000000000E+00 0. -1.
         23    2    1    2    0    0  0.41314137040E+02 -0.14222347719E+02 -0.42998271340E+02  0.11041162562E+03  0.91829965909E+02 0.  0.
         23    2    1    2    0    0 -0.32634840086E+02 -0.46887727218E+01 -0.39398277897E+02  0.11326471372E+03  0.10094381455E+03 0.  0.
        -11    1    3    3    0    0  0.22867187160E+01 -0.48008052090E+02 -0.31684093438E+02  0.57566343683E+02  0.00000000000E+00 0.  1.
         11    1    3    3    0    0  0.39027418324E+02  0.33785704371E+02 -0.11314177901E+02  0.52845281932E+02  0.00000000000E+00 0. -1.
        -13    1    4    4    0    0  0.34198864418E+02  0.58173498410E+01  0.55358387553E+00  0.34694528989E+02  0.00000000000E+00 0. -1.
         13    1    4    4    0    0 -0.66833704504E+02 -0.10506122563E+02 -0.39951861772E+02  0.78570184728E+02  0.00000000000E+00 0.  1.
          2    1    1    2  501    0 -0.86792969538E+01  0.18911120441E+02  0.13320095919E+03  0.13481637957E+03  0.00000000000E+00 0. -1.
<scales pt_clust_5="13000.00000" pt_clust_6="13000.00000" pt_clust_7="13000.00000" pt_clust_8="13000.00000" pt_clust_9="20.80771"></scales>
<clustering>
<clus scale="   20.808">  1  9  2 -1</clus>
<clus scale="   91.830">  5  6 -1 -1</clus>
<clus scale="   99.205">  2  5  1 -1</clus>
<clus scale="  100.944">  7  8 -1 -1</clus>
<clus scale="   20.808">  1  5  2 -1</clus>
</clustering>
</event>
<event>
 9    1  0.1504846E-005  0.1084410E+03  0.7546771E-02  0.1266640E+00
          3   -1    0    0  502    0 -0.00000000000E+00  0.00000000000E+00  0.14578529014E+03  0.14578529014E+03  0.00000000000E+00 0. -1.
         21   -1    0    0  501  502  0.00000000000E+00 -0.00000000000E+00 -0.11499246808E+03  0.11499246808E+03  0.00000000000E+00 0.  1.
         23    2    1    2    0    0  0.39930878006E+02  0.13478172738E+02  0.43678855515E+02  0.11511791898E+03  0.97816955039E+02 0.  0.
         23    2    1    2    0    0 -0.54626791596E+02  0.39133311196E+01  0.17905948819E+02  0.10736388050E+03  0.90592379995E+02 0.  0.
        -13    1    4    4    0    0 -0.24996371177E+02 -0.43368914090E+02  0.80005256257E+01  0.50692106798E+02  0.00000000000E+00 0. -1.
         13    1    4    4    0    0 -0.29630420419E+02  0.47282245210E+02  0.99054231937E+01  0.56671773705E+02  0.00000000000E+00 0.  1.
        -13    1    3    3    0    0 -0.10906628258E+02  0.43908735007E+02  0.30074597037E+02  0.54326908036E+02  0.00000000000E+00 0.  1.
         13    1    3    3    0    0  0.50837506264E+02 -0.30430562269E+02  0.13604258478E+02  0.60791010946E+02  0.00000000000E+00 0. -1.
          3    1    1    2  501    0  0.14695913590E+02 -0.17391503858E+02 -0.30791982274E+02  0.38295958730E+02  0.00000000000E+00 0. -1.
<scales pt_clust_5="13000.00000" pt_clust_6="13000.00000" pt_clust_7="13000.00000" pt_clust_8="13000.00000" pt_clust_9="22.76915"></scales>
<clustering>
<clus scale="   22.769">  2  9  1 -1</clus>
<clus scale="   90.592">  5  6 -1 -1</clus>
<clus scale="   97.817">  7  8 -1 -1</clus>
<clus scale="  101.972">  2  5  1 -1</clus>
<clus scale="   22.769">  2  5  1 -1</clus>
</clustering>
</event>
<event>
 9    1  0.1504846E-005  0.1588446E+03  0.7546771E-02  0.1190020E+00
          1   -1    0    0  502    0 -0.00000000000E+00  0.00000000000E+00  0.78006608003E+03  0.78006608003E+03  0.00000000000E+00 0. -1.
         21   -1    0    0  501  502  0.00000000000E+00 -0.00000000000E+00 -0.16981633964E+03  0.16981633964E+03  0.00000000000E+00 0. -1.
         23    2    1    2    0    0  0.11314666192E+03 -0.74538541765E+02  0.55831991205E+03  0.58164807899E+03  0.90748015338E+02 0.  0.
         23    2    1    2    0    0 -0.11791192904E+03  0.32706309342E+02  0.17861885375E+03  0.23473245829E+03  0.90673625593E+02 0.  0.
        -13    1    4    4    0    0 -0.80455000388E+02 -0.22828045719E+02  0.11624937245E+03  0.14320629649E+03  0.00000000000E+00 0. -1.
         13    1    4    4    0    0 -0.37456928655E+02  0.55534355061E+02  0.62369481297E+02  0.91526161799E+02  0.00000000000E+00 0.  1.
        -13    1    3    3    0    0  0.76938345148E+02 -0.10136262337E+02  0.17742987680E+03  0.19365849826E+03  0.00000000000E+00 0.  1.
         13    1    3    3    0    0  0.36208316776E+02 -0.64402279428E+02  0.38089003526E+03  0.38798958073E+03  0.00000000000E+00 0. -1.
          1    1    1    2  501    0  0.47652671191E+01  0.41832232423E+02 -0.12668902541E+03  0.13350188238E+03  0.00000000000E+00 0. -1.
<scales pt_clust_5="13000.00000" pt_clust_6="13000.00000" pt_clust_7="13000.00000" pt_clust_8="13000.00000" pt_clust_9="42.10277"></scales>
<clustering>
<clus scale="   42.103">  2  9  1 -1</clus>
<clus scale="   90.674">  5  6 -1 -1</clus>
<clus scale="   90.748">  7  8 -1 -1</clus>
<clus scale="  158.802">  2  5  1 -1</clus>
<clus scale="   42.103">  2  5  1 -1</clus>
</clustering>
</event>
<event>
 9    1  0.1504846E-005  0.9776184E+02  0.7546771E-02  0.1285264E+00
         21   -1    0    0  501  502  0.00000000000E+00  0.00000000000E+00  0.31567534921E+03  0.31567534921E+03  0.00000000000E+00 0. -1.
          1   -1    0    0  502    0 -0.00000000000E+00 -0.00000000000E+00 -0.10548674206E+03  0.10548674206E+03  0.00000000000E+00 0. -1.
         23    2    1    2    0    0  0.13696245981E+02  0.26166456825E+02 -0.28337898291E+02  0.10014558260E+03  0.91399292213E+02 0.  0.
         23    2    1    2    0    0  0.18072379005E+02 -0.81330054081E+02  0.22397381563E+03  0.25571682433E+03  0.91025466627E+02 0.  0.
        -13    1    3    3    0    0 -0.38338156849E+01  0.58781977156E+02 -0.19805304025E+02  0.62147156399E+02  0.00000000000E+00 0.  1.
         13    1    3    3    0    0  0.17530061666E+02 -0.32615520330E+02 -0.85325942665E+01  0.37998426196E+02  0.00000000000E+00 0. -1.
        -13    1    4    4    0    0  0.33993883674E+02 -0.25192635609E+02  0.17343562938E+03  0.17852218505E+03  0.00000000000E+00 0.  1.
         13    1    4    4    0    0 -0.15921504668E+02 -0.56137418472E+02  0.50538186256E+02  0.77194639280E+02  0.00000000000E+00 0. -1.
          1    1    1    2  501    0 -0.31768624987E+02  0.55163597255E+02  0.14552689803E+02  0.65299684350E+02  0.00000000000E+00 0. -1.
<scales pt_clust_5="13000.00000" pt_clust_6="13000.00000" pt_clust_7="13000.00000" pt_clust_8="13000.00000" pt_clust_9="63.65746"></scales>
<clustering>
<clus scale="   63.657">  1  9  2 -1</clus>
<clus scale="   91.025">  7  8 -1 -1</clus>
<clus scale="   91.399">  5  6 -1 -1</clus>
<clus scale="   97.412">  1  7  2 -1</clus>
<clus scale="   63.657">  1  5  2 -1</clus>
</clustering>
</event>
<event>
 9    1  0.1504846E-005  0.9990908E+02  0.7546771E-02  0.1280993E+00
         21   -1    0    0  501  502  0.00000000000E+00  0.00000000000E+00  0.15546269781E+03  0.15546269781E+03  0.00000000000E+00 0. -1.
          2   -1    0    0  502    0 -0.00000000000E+00 -0.00000000000E+00 -0.22766943423E+03  0.22766943423E+03  0.00000000000E+00 0. -1.
         23    2    1    2    0    0  0.14461049007E+02 -0.43769962517E+02 -0.16592305412E+03  0.19423907939E+03  0.89852259387E+02 0.  0.
         23    2    1    2    0    0 -0.18624475657E+02  0.20224981248E+02  0.29344499839E+01  0.95015218363E+02  0.90903023953E+02 0.  0.
        -11    1    3    3    0    0 -0.34897646855E+02 -0.15705840399E+02 -0.36391801693E+02  0.52809870376E+02  0.00000000000E+00 0.  1.
         11    1    3    3    0    0  0.49358695861E+02 -0.28064122119E+02 -0.12953125243E+03  0.14142920901E+03  0.00000000000E+00 0. -1.
        -11    1    4    4    0    0  0.36327065847E+02  0.15986855973E+00  0.36522818927E+01  0.36510552365E+02  0.00000000000E+00 0.  1.
         11    1    4    4    0    0 -0.54951541504E+02  0.20065112688E+02 -0.71783190888E+00  0.58504665998E+02  0.00000000000E+00 0. -1.
          2    1    1    2  501    0  0.41634266506E+01  0.23544981270E+02  0.90781867713E+02  0.93877834285E+02  0.00000000000E+00 0. -1.
<scales pt_clust_5="13000.00000" pt_clust_6="13000.00000" pt_clust_7="13000.00000" pt_clust_8="13000.00000" pt_clust_9="23.91025"></scales>
<clustering>
<clus scale="   23.910">  1  9  2 -1</clus>
<clus scale="   89.852">  5  6 -1 -1</clus>
<clus scale="   90.903">  7  8 -1 -1</clus>
<clus scale="   98.954">  2  5  1 -1</clus>
<clus scale="   23.910">  1  5  2 -1</clus>
</clustering>
</event>
<event>
 9    1  0.1504846E-005  0.9431162E+02  0.7546771E-02  0.1294925E+00
          4   -1    0    0  502    0 -0.00000000000E+00  0.00000000000E+00  0.10885629860E+03  0.10885629860E+03  0.00000000000E+00 0. -1.
         21   -1    0    0  501  502  0.00000000000E+00 -0.00000000000E+00 -0.13361988596E+03  0.13361988596E+03  0.00000000000E+00 0.  1.
         23    2    1    2    0    0 -0.18332143979E+02 -0.14951646775E+02  0.23912428253E+02  0.95463379667E+02  0.89341106935E+02 0.  0.
         23    2    1    2    0    0 -0.23069550077E+01  0.65873615922E+01  0.70903744570E-01  0.93419933916E+02  0.93158808769E+02 0.  0.
        -11    1    3    3    0    0  0.15084175886E+02 -0.40923879253E+02  0.29670694000E+02  0.52750794665E+02  0.00000000000E+00 0. -1.
         11    1    3    3    0    0 -0.33416319864E+02  0.25972232479E+02 -0.57582657475E+01  0.42712585003E+02  0.00000000000E+00 0.  1.
        -11    1    4    4    0    0 -0.41046574475E+02  0.29687758040E+01 -0.24026286126E+02  0.47653933006E+02  0.00000000000E+00 0.  1.
         11    1    4    4    0    0  0.38739619468E+02  0.36185857881E+01  0.24097189871E+02  0.45766000910E+02  0.00000000000E+00 0. -1.
          4    1    1    2  501    0  0.20639098986E+02  0.83642851826E+01 -0.48746919349E+02  0.53592870978E+02  0.00000000000E+00 0. -1.
<scales pt_clust_5="13000.00000" pt_clust_6="13000.00000" pt_clust_7="13000.00000" pt_clust_8="13000.00000" pt_clust_9="22.26957"></scales>
<clustering>
<clus scale="   22.270">  2  9  1 -1</clus>
<clus scale="   89.341">  5  6 -1 -1</clus>
<clus scale="   90.543">  1  5  2 -1</clus>
<clus scale="   93.159">  7  8 -1 -1</clus>
<clus scale="   22.270">  2  5  1 -1</clus>
</clustering>
</event>
<event>
 9    1  0.1504846E-005  0.1017083E+03  0.7546771E-02  0.1277541E+00
         21   -1    0    0  501  502  0.00000000000E+00  0.00000000000E+00  0.28219633043E+03  0.28219633043E+03  0.00000000000E+00 0.  1.
         -2   -1    0    0    0  501 -0.00000000000E+00 -0.00000000000E+00 -0.97726314965E+02  0.97726314965E+02  0.00000000000E+00 0.  1.
         23    2    1    2    0    0 -0.63378914084E+02 -0.18030561296E+02  0.25094751382E+01  0.11111536803E+03  0.89433437008E+02 0.  0.
         23    2    1    2    0    0  0.29971750643E+02 -0.35642933171E+02  0.29205986407E+02  0.10348687233E+03  0.87680206328E+02 0.  0.
        -11    1    4    4    0    0  0.40437916951E+02 -0.26926418939E+00 -0.17421049193E+02  0.44031699780E+02  0.00000000000E+00 0. -1.
         11    1    4    4    0    0 -0.10466166308E+02 -0.35373668982E+02  0.46627035600E+02  0.59455172553E+02  0.00000000000E+00 0.  1.
        -13    1    3    3    0    0 -0.72031592541E+02 -0.41088682214E+02 -0.99385636384E+01  0.83520088465E+02  0.00000000000E+00 0.  1.
         13    1    3    3    0    0  0.86526784562E+01  0.23058120918E+02  0.12448038777E+02  0.27595279562E+02  0.00000000000E+00 0. -1.
         -2    1    1    2    0  502  0.33407163442E+02  0.53673494467E+02  0.15275455392E+03  0.16532040504E+03  0.00000000000E+00 0.  1.
<scales pt_clust_5="13000.00000" pt_clust_6="13000.00000" pt_clust_7="13000.00000" pt_clust_8="13000.00000" pt_clust_9="63.22090"></scales>
<clustering>
<clus scale="   63.221">  1  9  2 -1</clus>
<clus scale="   87.680">  5  6 -1 -1</clus>
<clus scale="   89.433">  7  8 -1 -1</clus>
<clus scale="  100.170">  1  5  2 -1</clus>
<clus scale="   63.221">  1  5  2 -1</clus>
</clustering>
</event>
<event>
 9    1  0.1504846E-005  0.9914285E+02  0.7546771E-02  0.1282282E+00
         21   -1    0    0  501  502  0.00000000000E+00  0.00000000000E+00  0.28998042675E+02  0.28998042675E+02  0.00000000000E+00 0. -1.
         -1   -1    0    0    0  501 -0.00000000000E+00 -0.00000000000E+00 -0.48148405969E+03  0.48148405969E+03  0.00000000000E+00 0.  1.
         23    2    1    2    0    0 -0.12989960569E+02  0.39171704620E+02 -0.21752028748E+03  0.23925397117E+03  0.90687516981E+02 0.  0.
         23    2    1    2    0    0  0.39751401201E+02 -0.19241877478E+02 -0.18960785805E+03  0.21491908024E+03  0.91042009360E+02 0.  0.
        -13    1    4    4    0    0 -0.16305869414E+02  0.23792519557E+02 -0.73986607565E+02  0.79410222662E+02  0.00000000000E+00 0.  1.
         13    1    4    4    0    0  0.56057270615E+02 -0.43034397035E+02 -0.11562125049E+03  0.13550885757E+03  0.00000000000E+00 0. -1.
        -13    1    3    3    0    0  0.11306905458E+02  0.52664112428E+02 -0.19824444415E+03  0.20543177574E+03  0.00000000000E+00 0.  1.
         13    1    3    3    0    0 -0.24296866027E+02 -0.13492407809E+02 -0.19275843329E+02  0.33822195423E+02  0.00000000000E+00 0. -1.
         -1    1    1    2    0  502 -0.26761440633E+02 -0.19929827142E+02 -0.45357871488E+02  0.56309050965E+02  0.00000000000E+00 0.  1.
<scales pt_clust_5="13000.00000" pt_clust_6="13000.00000" pt_clust_7="13000.00000" pt_clust_8="13000.00000" pt_clust_9="33.36724"></scales>
<clustering>
<clus scale="   33.367">  1  9  2 -1</clus>
<clus scale="   90.688">  7  8 -1 -1</clus>
<clus scale="   91.042">  5  6 -1 -1</clus>
<clus scale="   98.817">  2  7  1 -1</clus>
<clus scale="   33.367">  1  5  2 -1</clus>
</clustering>
</event>
<event>
 9    1  0.1504846E-005  0.1075904E+03  0.7546771E-02  0.1265546E+00
         21   -1    0    0  501  502  0.00000000000E+00  0.00000000000E+00  0.36636457022E+03  0.36636457022E+03  0.00000000000E+00 0.  1.
          4   -1    0    0  502    0 -0.00000000000E+00 -0.00000000000E+00 -0.11572254526E+03  0.11572254526E+03  0.00000000000E+00 0.  1.
         23    2    1    2    0    0 -0.62599559288E+02  0.17554860828E+02 -0.46906650537E+02  0.12459171913E+03  0.95372871666E+02 0.  0.
         23    2    1    2    0    0  0.79161651053E+01 -0.23136773392E+02  0.61707362275E+02  0.11533314419E+03  0.94318395006E+02 0.  0.
        -13    1    4    4    0    0  0.51007566107E+01 -0.48965544424E+02  0.93454812355E+00  0.49239370821E+02  0.00000000000E+00 0.  1.
         13    1    4    4    0    0  0.28154084947E+01  0.25828771031E+02  0.60772814152E+02  0.66093773367E+02  0.00000000000E+00 0. -1.
        -13    1    3    3    0    0 -0.69763902551E+02  0.47357889981E+02 -0.29432744625E+02  0.89308780636E+02  0.00000000000E+00 0.  1.
         13    1    3    3    0    0  0.71643432633E+01 -0.29803029152E+02 -0.17473905913E+02  0.35282938496E+02  0.00000000000E+00 0. -1.
          4    1    1    2  501    0  0.54683394183E+02  0.55819125641E+01  0.23584131323E+03  0.24216225216E+03  0.00000000000E+00 0.  1.
<scales pt_clust_5="13000.00000" pt_clust_6="13000.00000" pt_clust_7="13000.00000" pt_clust_8="13000.00000" pt_clust_9="54.96755"></scales>
<clustering>
<clus scale="   54.968">  1  9  2 -1</clus>
<clus scale="   94.318">  5  6 -1 -1</clus>
<clus scale="   95.373">  7  8 -1 -1</clus>
<clus scale="  106.657">  1  5  2 -1</clus>
<clus scale="   54.968">  1  5  2 -1</clus>
</clustering>
</event>
<event>
 9    1  0.1504846E-005  0.1267459E+03  0.7546771E-02  0.1245044E+00
         -1   -1    0    0    0  501 -0.00000000000E+00  0.00000000000E+00  0.19438369201E+03  0.19438369201E+03  0.00000000000E+00 0.  1.
         21   -1    0    0  501  502  0.00000000000E+00 -0.00000000000E+00 -0.12812048073E+03  0.12812048073E+03  0.00000000000E+00 0. -1.
         23    2    1    2    0    0 -0.37747528380E+02  0.22014463646E+02  0.13595299976E+03  0.18709660313E+03  0.12088179455E+03 0.  0.
         23    2    1    2    0    0  0.18008256723E+02 -0.11501814160E+02 -0.48585401832E+02  0.10465777644E+03  0.90200442671E+02 0.  0.
        -11    1    3    3    0    0 -0.35800848307E+02 -0.46189653292E+02  0.78709705006E+02  0.98032660236E+02  0.00000000000E+00 0.  1.
         11    1    3    3    0    0 -0.19466800733E+01  0.68204116938E+02  0.57243294752E+02  0.89063942898E+02  0.00000000000E+00 0. -1.
        -13    1    4    4    0    0 -0.12008795655E+02  0.29480858594E+02 -0.43073684180E+02  0.53560008079E+02  0.00000000000E+00 0. -1.
         13    1    4    4    0    0  0.30017052378E+02 -0.40982672754E+02 -0.55117176525E+01  0.51097768357E+02  0.00000000000E+00 0.  1.
         -1    1    1    2    0  502  0.19739271657E+02 -0.10512649486E+02 -0.21104386640E+02  0.30749793174E+02  0.00000000000E+00 0.  1.
<scales pt_clust_5="13000.00000" pt_clust_6="13000.00000" pt_clust_7="13000.00000" pt_clust_8="13000.00000" pt_clust_9="22.36414"></scales>
<clustering>
<clus scale="   22.364">  2  9  1 -1</clus>
<clus scale="   90.200">  7  8 -1 -1</clus>
<clus scale="   97.920">  2  7  1 -1</clus>
<clus scale="  120.882">  5  6 -1 -1</clus>
<clus scale="   22.364">  2  5  1 -1</clus>
</clustering>
</event>
<event>
 9    1  0.1504846E-005  0.1019506E+03  0.7546771E-02  0.1276447E+00
         21   -1    0    0  501  502  0.00000000000E+00  0.00000000000E+00  0.40339834835E+02  0.40339834835E+02  0.00000000000E+00 0.  1.
          2   -1    0    0  502    0 -0.00000000000E+00 -0.00000000000E+00 -0.96302977165E+03  0.96302977165E+03  0.00000000000E+00 0. -1.
         23    2    1    2    0    0  0.44007728321E+02 -0.24313742934E+01 -0.43826139258E+03  0.44949402007E+03  0.89605993780E+02 0.  0.
         23    2    1    2    0    0 -0.64346174154E+02 -0.83305489278E+02 -0.13319360920E+03  0.19175621143E+03  0.89160935484E+02 0.  0.
        -13    1    3    3    0    0  0.47378359948E+02 -0.39556778801E+02 -0.24376496589E+03  0.25145736484E+03  0.00000000000E+00 0.  1.
         13    1    3    3    0    0 -0.33706316268E+01  0.37125404508E+02 -0.19449642669E+03  0.19803665522E+03  0.00000000000E+00 0. -1.
        -13    1    4    4    0    0 -0.29919309626E+02  0.25487374318E+00  0.10356312903E+01  0.29938312934E+02  0.00000000000E+00 0. -1.
         13    1    4    4    0    0 -0.34426864527E+02 -0.83560363021E+02 -0.13422924049E+03  0.16181789849E+03  0.00000000000E+00 0.  1.
          2    1    1    2  501    0  0.20338445833E+02  0.85736863571E+02 -0.35123493504E+03  0.36211937499E+03  0.00000000000E+00 0. -1.
<scales pt_clust_5="13000.00000" pt_clust_6="13000.00000" pt_clust_7="13000.00000" pt_clust_8="13000.00000" pt_clust_9="88.11623"></scales>
<clustering>
<clus scale="   88.116">  1  9  2 -1</clus>
<clus scale="   89.161">  7  8 -1 -1</clus>
<clus scale="   89.606">  5  6 -1 -1</clus>
<clus scale="  101.560">  1  7  2 -1</clus>
<clus scale="   88.116">  1  5  2 -1</clus>
</clustering>
</event>
<event>
 9    1  0.1504846E-005  0.1183479E+03  0.7546771E-02  0.1246920E+00
         21   -1    0    0  501  502  0.00000000000E+00  0.00000000000E+00  0.58531101845E+02  0.58531101845E+02  0.00000000000E+00 0.  1.
          1   -1    0    0  502    0 -0.00000000000E+00 -0.00000000000E+00 -0.33418360038E+03  0.33418360038E+03  0.00000000000E+00 0. -1.
         23    2    1    2    0    0 -0.48032263264E+02  0.61938574533E+02 -0.14729294402E+03  0.18960737977E+03  0.90068095218E+02 0.  0.
         23    2    1    2    0    0  0.20312334198E+02 -0.66438497718E+02 -0.13065542942E+03  0.17493082839E+03  0.93291417527E+02 0.  0.
        -11    1    3    3    0    0 -0.25639543641E+02  0.78549469967E+02 -0.73003910197E+02  0.11025867918E+03  0.00000000000E+00 0.  1.
         11    1    3    3    0    0 -0.22392719623E+02 -0.16610895434E+02 -0.74289033825E+02  0.79348700594E+02  0.00000000000E+00 0. -1.
        -13    1    4    4    0    0  0.99173979052E+01 -0.32509695186E+02 -0.13497018847E+03  0.13918400353E+03  0.00000000000E+00 0. -1.
         13    1    4    4    0    0  0.10394936293E+02 -0.33928802532E+02  0.43147590526E+01  0.35746824858E+02  0.00000000000E+00 0.  1.
          1    1    1    2  501    0  0.27719929067E+02  0.44999231852E+01  0.22958749067E+01  0.28176494064E+02  0.00000000000E+00 0. -1.
<scales pt_clust_5="13000.00000" pt_clust_6="13000.00000" pt_clust_7="13000.00000" pt_clust_8="13000.00000" pt_clust_9="28.08280"></scales>
<clustering>
<clus scale="   28.083">  1  9  2 -1</clus>
<clus scale="   90.068">  5  6 -1 -1</clus>
<clus scale="   93.291">  7  8 -1 -1</clus>
<clus scale="  115.824">  2  5  1 -1</clus>
<clus scale="   28.083">  1  5  2 -1</clus>
</clustering>
</event>
<event>
 9    1  0.1504846E-005  0.1185898E+03  0.7546771E-02  0.1245593E+00
          3   -1    0    0  502    0 -0.00000000000E+00  0.00000000000E+00  0.44195649946E+03  0.44195649946E+03  0.00000000000E+00 0. -1.
         21   -1    0    0  501  502  0.00000000000E+00 -0.00000000000E+00 -0.76927497401E+02  0.76927497401E+02  0.00000000000E+00 0. -1.
         23    2    1    2    0    0 -0.31610346819E+02  0.81382034506E+02  0.17507813347E+03  0.21597096388E+03  0.91481445400E+02 0.  0.
         23    2    1    2    0    0  0.91421204610E+02 -0.12898411778E+01  0.72049221785E+02  0.14833976084E+03  0.91946146977E+02 0.  0.
        -11    1    3    3    0    0 -0.63082331635E+02  0.42390706394E+02  0.11322494613E+03  0.13636803504E+03  0.00000000000E+00 0.  1.
         11    1    3    3    0    0  0.31471984816E+02  0.38991328112E+02  0.61853187336E+02  0.79602928839E+02  0.00000000000E+00 0. -1.
        -13    1    4    4    0    0  0.21228189084E+02  0.24983925297E+01  0.74996308548E+02  0.77982846016E+02  0.00000000000E+00 0.  1.
         13    1    4    4    0    0  0.70193015526E+02 -0.37882337075E+01 -0.29470867629E+01  0.70356914825E+02  0.00000000000E+00 0. -1.
          3    1    1    2  501    0 -0.59810857791E+02 -0.80092193328E+02  0.11790164681E+03  0.15457327215E+03  0.00000000000E+00 0. -1.
<scales pt_clust_5="13000.00000" pt_clust_6="13000.00000" pt_clust_7="13000.00000" pt_clust_8="13000.00000" pt_clust_9="99.96053"></scales>
<clustering>
<clus scale="   91.481">  5  6 -1 -1</clus>
<clus scale="   91.946">  7  8 -1 -1</clus>
<clus scale="   99.961">  2  9  1 -1</clus>
<clus scale="  118.230">  1  5  2 -1</clus>
<clus scale="   99.961">  2  5  1 -1</clus>
</clustering>
</event>
<event>
 9    1  0.1504846E-005  0.1415309E+03  0.7546771E-02  0.1224222E+00
         21   -1    0    0  501  502  0.00000000000E+00  0.00000000000E+00  0.10593204597E+04  0.10593204597E+04  0.00000000000E+00 0. -1.
          1   -1    0    0  502    0 -0.00000000000E+00 -0.00000000000E+00 -0.94783501831E+02  0.94783501831E+02  0.00000000000E+00 0. -1.
         23    2    1    2    0    0 -0.28621143340E+02 -0.48263373910E+02 -0.15067848330E+02  0.10879946966E+03  0.91987833102E+02 0.  0.
         23    2    1    2    0    0  0.95091279895E+02 -0.38331615666E+02  0.13317031027E+03  0.19185951580E+03  0.92542303810E+02 0.  0.
        -13    1    3    3    0    0  0.17058917274E+02 -0.54951958061E+02 -0.22982130192E+02  0.61958878794E+02  0.00000000000E+00 0. -1.
         13    1    3    3    0    0 -0.45680060614E+02  0.66885841511E+01  0.79142818625E+01  0.46840590870E+02  0.00000000000E+00 0.  1.
        -13    1    4    4    0    0  0.75546815180E+02  0.51580521502E+01  0.12085049788E+03  0.14261405829E+03  0.00000000000E+00 0.  1.
         13    1    4    4    0    0  0.19544464714E+02 -0.43489667816E+02  0.12319812394E+02  0.49245457508E+02  0.00000000000E+00 0. -1.
          1    1    1    2  501    0 -0.66470136555E+02  0.86594989576E+02  0.84643449588E+03  0.85344497602E+03  0.00000000000E+00 0. -1.
<scales pt_clust_5="13000.00000" pt_clust_6="13000.00000" pt_clust_7="13000.00000" pt_clust_8="13000.00000" pt_clust_9="107.08363"></scales>
<clustering>
<clus scale="   91.988">  5  6 -1 -1</clus>
<clus scale="   92.542">  7  8 -1 -1</clus>
<clus scale="  107.751">  2  5  1 -1</clus>
<clus scale="  107.084">  1  9  2 -1</clus>
<clus scale="  107.084">  1  5  2 -1</clus>
</clustering>
</event>
<event>
 9    1  0.1504846E-005  0.1378220E+03  0.7546771E-02  0.1218650E+00
         -3   -1    0    0    0  501 -0.00000000000E+00  0.00000000000E+00  0.90711859178E+03  0.90711859178E+03  0.00000000000E+00 0.  1.
         21   -1    0    0  501  502  0.00000000000E+00 -0.00000000000E+00 -0.58846845298E+02  0.58846845298E+02  0.00000000000E+00 0.  1.
         23    2    1    2    0    0 -0.40244869065E+02  0.65937609959E+02  0.46579378821E+03  0.48242657226E+03  0.99015789616E+02 0.  0.
         23    2    1    2    0    0  0.92931975299E+02 -0.95115133303E+02  0.39112976420E+03  0.42269387507E+03  0.89467194872E+02 0.  0.
        -11    1    3    3    0    0  0.29434017239E+02  0.16344863240E+02  0.72428226274E+02  0.79870920155E+02  0.00000000000E+00 0. -1.
         11    1    3    3    0    0 -0.69678886304E+02  0.49592746719E+02  0.39336556194E+03  0.40255565210E+03  0.00000000000E+00 0.  1.
        -13    1    4    4    0    0 -0.60969190833E+01 -0.44587887996E+02  0.73643952173E+02  0.86305758035E+02  0.00000000000E+00 0. -1.
         13    1    4    4    0    0  0.99028894382E+02 -0.50527245307E+02  0.31748581203E+03  0.33638811703E+03  0.00000000000E+00 0.  1.
         -3    1    1    2    0  502 -0.52687106234E+02  0.29177523344E+02 -0.86518059322E+01  0.60844989750E+02  0.00000000000E+00 0.  1.
<scales pt_clust_5="13000.00000" pt_clust_6="13000.00000" pt_clust_7="13000.00000" pt_clust_8="13000.00000" pt_clust_9="60.22673"></scales>
<clustering>
<clus scale="   60.227">  2  9  1 -1</clus>
<clus scale="   89.467">  7  8 -1 -1</clus>
<clus scale="   99.016">  5  6 -1 -1</clus>
<clus scale="  131.130">  2  7  1 -1</clus>
<clus scale="   60.227">  2  5  1 -1</clus>
</clustering>
</event>
<event>
 9    1  0.1504846E-005  0.9557985E+02  0.7546771E-02  0.1302606E+00
          2   -1    0    0  502    0 -0.00000000000E+00  0.00000000000E+00  0.11123393835E+03  0.11123393835E+03  0.00000000000E+00 0. -1.
         21   -1    0    0  501  502  0.00000000000E+00 -0.00000000000E+00 -0.12574124531E+03  0.12574124531E+03  0.00000000000E+00 0. -1.
         23    2    1    2    0    0  0.14617285272E+02  0.67592144467E+01  0.23203325547E+02  0.75394352849E+02  0.69903949219E+02 0.  0.
         23    2    1    2    0    0 -0.49445616378E+02 -0.16884377071E+02  0.53521636423E+01  0.10527864632E+03  0.91241419035E+02 0.  0.
        -11    1    4    4    0    0  0.97019628872E+01 -0.40158194290E+02  0.57763082337E+01  0.41715397509E+02  0.00000000000E+00 0.  1.
         11    1    4    4    0    0 -0.59147579265E+02  0.23273817220E+02 -0.42414459139E+00  0.63563248812E+02  0.00000000000E+00 0. -1.
        -13    1    3    3    0    0 -0.19289441969E+02  0.17246154327E+02  0.29617237926E+02  0.39328020455E+02  0.00000000000E+00 0. -1.
         13    1    3    3    0    0  0.33906727241E+02 -0.10486939880E+02 -0.64139123797E+01  0.36066332393E+02  0.00000000000E+00 0.  1.
          2    1    1    2  501    0  0.34828331106E+02  0.10125162624E+02 -0.43062796153E+02  0.56302184490E+02  0.00000000000E+00 0. -1.
<scales pt_clust_5="13000.00000" pt_clust_6="13000.00000" pt_clust_7="13000.00000" pt_clust_8="13000.00000" pt_clust_9="36.27026"></scales>
<clustering>
<clus scale="   36.270">  2  9  1 -1</clus>
<clus scale="   69.904">  7  8 -1 -1</clus>
<clus scale="   75.479">  1  7  2 -1</clus>
<clus scale="   91.241">  5  6 -1 -1</clus>
<clus scale="   36.270">  2  5  1 -1</clus>
</clustering>
</event>
<event>
 9    1  0.1504846E-005  0.9638020E+02  0.7546771E-02  0.1288465E+00
         21   -1    0    0  501  502  0.00000000000E+00  0.00000000000E+00  0.17718110296E+02  0.17718110296E+02  0.00000000000E+00 0.  1.
          1   -1    0    0  502    0 -0.00000000000E+00 -0.00000000000E+00 -0.80014858328E+03  0.80014858328E+03  0.00000000000E+00 0. -1.
         23    2    1    2    0    0 -0.23602696135E+02  0.23069455735E+02 -0.43170686368E+03  0.44216578085E+03  0.89724436772E+02 0.  0.
         23    2    1    2    0    0  0.43333089932E+02  0.49837307668E+01 -0.26225211351E+03  0.28081426835E+03  0.90431675946E+02 0.  0.
        -11    1    3    3    0    0  0.33219716498E+02  0.19576651460E+02 -0.18499197959E+03  0.18896779450E+03  0.00000000000E+00 0.  1.
         11    1    3    3    0    0 -0.56822412633E+02  0.34928042756E+01 -0.24671488410E+03  0.25319798636E+03  0.00000000000E+00 0. -1.
        -13    1    4    4    0    0 -0.34836970387E+01  0.36145898542E+02 -0.16047568802E+03  0.16453300147E+03  0.00000000000E+00 0. -1.
         13    1    4    4    0    0  0.46816786971E+02 -0.31162167775E+02 -0.10177642549E+03  0.11628126688E+03  0.00000000000E+00 0.  1.
          1    1    1    2  501    0 -0.19730393797E+02 -0.28053186502E+02 -0.88471495791E+02  0.94886644370E+02  0.00000000000E+00 0. -1.
<scales pt_clust_5="13000.00000" pt_clust_6="13000.00000" pt_clust_7="13000.00000" pt_clust_8="13000.00000" pt_clust_9="34.29679"></scales>
<clustering>
<clus scale="   34.297">  1  9  2 -1</clus>
<clus scale="   89.724">  5  6 -1 -1</clus>
<clus scale="   90.432">  7  8 -1 -1</clus>
<clus scale="   95.717">  2  5  1 -1</clus>
<clus scale="   34.297">  1  5  2 -1</clus>
</clustering>
</event>
<event>
 9    1  0.1504846E-005  0.1607475E+03  0.7546771E-02  0.1187896E+00
          2   -1    0    0  502    0 -0.00000000000E+00  0.00000000000E+00  0.48454126096E+03  0.48454126096E+03  0.00000000000E+00 0. -1.
         21   -1    0    0  501  502  0.00000000000E+00 -0.00000000000E+00 -0.25761273179E+03  0.25761273179E+03  0.00000000000E+00 0. -1.
         23    2    1    2    0    0  0.49793775847E+01  0.12216263905E+03  0.18357873351E+03  0.23880675587E+03  0.91536936109E+02 0.  0.
         23    2    1    2    0    0  0.14661121172E+03 -0.11967095879E+03  0.19650113226E+03  0.28784492334E+03  0.91793350140E+02 0.  0.
        -11    1    4    4    0    0  0.10466050719E+03 -0.12202876598E+03  0.18328263023E+03  0.24379779333E+03  0.00000000000E+00 0. -1.
         11    1    4    4    0    0  0.41950704531E+02  0.23578071851E+01  0.13218502033E+02  0.44047130002E+02  0.00000000000E+00 0.  1.
        -13    1    3    3    0    0 -0.25992621147E+02  0.70158214573E+02  0.44314374163E+02  0.86957203173E+02  0.00000000000E+00 0. -1.
         13    1    3    3    0    0  0.30971998732E+02  0.52004424476E+02  0.13926435935E+03  0.15184955270E+03  0.00000000000E+00 0.  1.
          2    1    1    2  501    0 -0.15159058930E+03 -0.24916802580E+01 -0.15315133661E+03  0.21550231354E+03  0.00000000000E+00 0. -1.
<scales pt_clust_5="13000.00000" pt_clust_6="13000.00000" pt_clust_7="13000.00000" pt_clust_8="13000.00000" pt_clust_9="151.61107"></scales>
<clustering>
<clus scale="   91.537">  7  8 -1 -1</clus>
<clus scale="   91.793">  5  6 -1 -1</clus>
<clus scale="  151.611">  2  9  1 -1</clus>
<clus scale="  160.601">  1  7  2 -1</clus>
<clus scale="  151.611">  2  5  1 -1</clus>
</clustering>
</event>
<event>
 9    1  0.1504846E-005  0.1853454E+03  0.7546771E-02  0.1162879E+00
         21   -1    0    0  501  502  0.00000000000E+00  0.00000000000E+00  0.68357043314E+03  0.68357043314E+03  0.00000000000E+00 0. -1.
         -4   -1    0    0    0  501 -0.00000000000E+00 -0.00000000000E+00 -0.11993440488E+03  0.11993440488E+03  0.00000000000E+00 0.  1.
         23    2    1    2    0    0  0.14509220528E+03  0.63561135627E+02 -0.15672088593E+02  0.18367943025E+03  0.91655620356E+02 0.  0.
         23    2    1    2    0    0 -0.16465988574E+03 -0.69039815687E+02  0.52536312317E+03  0.56218017902E+03  0.90336971228E+02 0.  0.
        -11    1    3    3    0    0  0.44152321174E+02  0.68777560316E+02 -0.11331214841E+02  0.82511676130E+02  0.00000000000E+00 0. -1.
         11    1    3    3    0    0  0.10093988410E+03 -0.52164246891E+01 -0.43408737528E+01  0.10116775412E+03  0.00000000000E+00 0.  1.
        -13    1    4    4    0    0 -0.68023100771E+02  0.14542670546E+02  0.14271920892E+03  0.15876839767E+03  0.00000000000E+00 0.  1.
         13    1    4    4    0    0 -0.96636784971E+02 -0.83582486233E+02  0.38264391425E+03  0.40341178135E+03  0.00000000000E+00 0. -1.
         -4    1    1    2    0  502  0.19567680464E+02  0.54786800608E+01  0.53944993684E+02  0.57645228749E+02  0.00000000000E+00 0.  1.
<scales pt_clust_5="13000.00000" pt_clust_6="13000.00000" pt_clust_7="13000.00000" pt_clust_8="13000.00000" pt_clust_9="20.32019"></scales>
<clustering>
<clus scale="   20.320">  1  9  2 -1</clus>
<clus scale="   90.337">  7  8 -1 -1</clus>
<clus scale="   91.656">  5  6 -1 -1</clus>
<clus scale="  184.697">  1  7  2 -1</clus>
<clus scale="   20.320">  1  5  2 -1</clus>
</clustering>
</event>
<event>
 9    1  0.1504846E-005  0.1195293E+03  0.7546771E-02  0.1244698E+00
         21   -1    0    0  501  502  0.00000000000E+00  0.00000000000E+00  0.46966322365E+02  0.46966322365E+02  0.00000000000E+00 0.  1.
         -1   -1    0    0    0  501 -0.00000000000E+00 -0.00000000000E+00 -0.51923988285E+03  0.51923988285E+03  0.00000000000E+00 0.  1.
         23    2    1    2    0    0 -0.16843115871E+02 -0.90340814541E+02 -0.35409842196E+03  0.37715924660E+03  0.91751030172E+02 0.  0.
         23    2    1    2    0    0  0.96469596912E+00  0.46012024007E+02 -0.83961816247E+02  0.13084285816E+03  0.89175276574E+02 0.  0.
        -11    1    3    3    0    0 -0.34687990491E+02  0.25080985575E+01 -0.80748791410E+02  0.87919932648E+02  0.00000000000E+00 0.  1.
         11    1    3    3    0    0  0.17844874621E+02 -0.92848913098E+02 -0.27334963055E+03  0.28923931395E+03  0.00000000000E+00 0. -1.
        -13    1    4    4    0    0 -0.34458587775E+02 -0.60484356050E+01 -0.16906101891E+02  0.38856069357E+02  0.00000000000E+00 0.  1.
         13    1    4    4    0    0  0.35423283744E+02  0.52060459612E+02 -0.67055714356E+02  0.91986788802E+02  0.00000000000E+00 0. -1.
         -1    1    1    2    0  502  0.15878419901E+02  0.44328790534E+02 -0.34213322282E+02  0.58204100460E+02  0.00000000000E+00 0.  1.
<scales pt_clust_5="13000.00000" pt_clust_6="13000.00000" pt_clust_7="13000.00000" pt_clust_8="13000.00000" pt_clust_9="47.08679"></scales>
<clustering>
<clus scale="   47.087">  1  9  2 -1</clus>
<clus scale="   89.175">  7  8 -1 -1</clus>
<clus scale="   91.751">  5  6 -1 -1</clus>
<clus scale="  117.564">  1  7  2 -1</clus>
<clus scale="   47.087">  1  5  2 -1</clus>
</clustering>
</event>
<event>
 9    1  0.1504846E-005  0.1057170E+03  0.7546771E-02  0.1270698E+00
         21   -1    0    0  501  502  0.00000000000E+00  0.00000000000E+00  0.17827052871E+03  0.17827052871E+03  0.00000000000E+00 0. -1.
          1   -1    0    0  502    0 -0.00000000000E+00 -0.00000000000E+00 -0.49542781285E+03  0.49542781285E+03  0.00000000000E+00 0. -1.
         23    2    1    2    0    0  0.25996098275E+02  0.52796285715E+02 -0.38642886602E+03  0.40152804654E+03  0.91838220535E+02 0.  0.
         23    2    1    2    0    0 -0.11389656971E+00  0.61591759837E+01 -0.69717590589E+02  0.11899188631E+03  0.96231897776E+02 0.  0.
        -11    1    4    4    0    0 -0.10969246925E+02  0.26314718475E+02 -0.86193831361E+02  0.90786372057E+02  0.00000000000E+00 0. -1.
         11    1    4    4    0    0  0.10855350355E+02 -0.20155542491E+02  0.16476240773E+02  0.28205514256E+02  0.00000000000E+00 0.  1.
        -13    1    3    3    0    0 -0.23419141034E+02  0.19588690828E+02 -0.41624662455E+02  0.51621560414E+02  0.00000000000E+00 0.  1.
         13    1    3    3    0    0  0.49415239309E+02  0.33207594887E+02 -0.34480420357E+03  0.34990648612E+03  0.00000000000E+00 0. -1.
          1    1    1    2  501    0 -0.25882201706E+02 -0.58955461698E+02  0.13898917247E+03  0.15317840870E+03  0.00000000000E+00 0. -1.
<scales pt_clust_5="13000.00000" pt_clust_6="13000.00000" pt_clust_7="13000.00000" pt_clust_8="13000.00000" pt_clust_9="64.38660"></scales>
<clustering>
<clus scale="   64.387">  1  9  2 -1</clus>
<clus scale="   91.838">  7  8 -1 -1</clus>
<clus scale="   96.232">  5  6 -1 -1</clus>
<clus scale="  101.734">  2  7  1 -1</clus>
<clus scale="   64.387">  1  5  2 -1</clus>
</clustering>
</event>
<event>
 9    1  0.1504846E-005  0.1278120E+03  0.7546771E-02  0.1232526E+00
          2   -1    0    0  502    0 -0.00000000000E+00  0.00000000000E+00  0.11404454007E+03  0.11404454007E+03  0.00000000000E+00 0. -1.
         21   -1    0    0  501  502  0.00000000000E+00 -0.00000000000E+00 -0.32278503772E+03  0.32278503772E+03  0.00000000000E+00 0.  1.
         23    2    1    2    0    0 -0.82350871275E+02  0.24010085747E+02  0.52377638586E+02  0.13496724944E+03  0.90081025631E+02 0.  0.
         23    2    1    2    0    0  0.64782081746E+02 -0.43479448290E+02 -0.19905227862E+03  0.23448362901E+03  0.96299439817E+02 0.  0.
        -11    1    4    4    0    0  0.22364757474E+02  0.24722355731E+02 -0.21658974335E+02  0.39755357111E+02  0.00000000000E+00 0. -1.
         11    1    4    4    0    0  0.42417324272E+02 -0.68201804021E+02 -0.17739330429E+03  0.19472827190E+03  0.00000000000E+00 0.  1.
        -13    1    3    3    0    0 -0.66035597013E+02 -0.10405108637E+02  0.66550666135E+02  0.94328985586E+02  0.00000000000E+00 0.  1.
         13    1    3    3    0    0 -0.16315274262E+02  0.34415194384E+02 -0.14173027549E+02  0.40638263849E+02  0.00000000000E+00 0. -1.
          2    1    1    2  501    0  0.17568789530E+02  0.19469362543E+02 -0.62065857620E+02  0.67378699345E+02  0.00000000000E+00 0. -1.
<scales pt_clust_5="13000.00000" pt_clust_6="13000.00000" pt_clust_7="13000.00000" pt_clust_8="13000.00000" pt_clust_9="26.22439"></scales>
<clustering>
<clus scale="   26.224">  2  9  1 -1</clus>
<clus scale="   90.081">  7  8 -1 -1</clus>
<clus scale="   96.299">  5  6 -1 -1</clus>
<clus scale="  123.195">  1  7  2 -1</clus>
<clus scale="   26.224">  2  5  1 -1</clus>
</clustering>
</event>
<event>
 9    1  0.1504846E-005  0.1092377E+03  0.7546771E-02  0.1263090E+00
          1   -1    0    0  502    0 -0.00000000000E+00  0.00000000000E+00  0.47621995178E+03  0.47621995178E+03  0.00000000000E+00 0. -1.
         21   -1    0    0  501  502  0.00000000000E+00 -0.00000000000E+00 -0.53907686863E+02  0.53907686863E+02  0.00000000000E+00 0. -1.
         23    2    1    2    0    0  0.37394098333E+02 -0.54579930564E+02  0.31460556823E+03  0.33424427119E+03  0.91461914761E+02 0.  0.
         23    2    1    2    0    0 -0.15999366170E+02  0.46863909293E+02  0.12937318228E+03  0.16447145654E+03  0.88663600254E+02 0.  0.
        -13    1    4    4    0    0  0.31799622900E+02  0.38352262461E+02  0.85897136817E+02  0.99299698720E+02  0.00000000000E+00 0.  1.
         13    1    4    4    0    0 -0.47798989070E+02  0.85116468316E+01  0.43476045468E+02  0.65171757820E+02  0.00000000000E+00 0. -1.
        -13    1    3    3    0    0 -0.18203618076E+02 -0.51875480088E+02  0.18951282847E+03  0.19732599753E+03  0.00000000000E+00 0. -1.
         13    1    3    3    0    0  0.55597716409E+02 -0.27044504766E+01  0.12509273976E+03  0.13691827366E+03  0.00000000000E+00 0.  1.
          1    1    1    2  501    0 -0.21394732163E+02  0.77160212711E+01 -0.21666485602E+02  0.31411910909E+02  0.00000000000E+00 0. -1.
<scales pt_clust_5="13000.00000" pt_clust_6="13000.00000" pt_clust_7="13000.00000" pt_clust_8="13000.00000" pt_clust_9="22.74360"></scales>
<clustering>
<clus scale="   22.744">  2  9  1 -1</clus>
<clus scale="   88.664">  5  6 -1 -1</clus>
<clus scale="   91.462">  7  8 -1 -1</clus>
<clus scale="  106.906">  2  5  1 -1</clus>
<clus scale="   22.744">  2  5  1 -1</clus>
</clustering>
</event>
<event>
 9    1  0.1504846E-005  0.3671182E+03  0.7546771E-02  0.1056261E+00
         21   -1    0    0  501  502  0.00000000000E+00  0.00000000000E+00  0.27384925174E+03  0.27384925174E+03  0.00000000000E+00 0.  1.
         -3   -1    0    0    0  501 -0.00000000000E+00 -0.00000000000E+00 -0.90449473024E+03  0.90449473024E+03  0.00000000000E+00 0.  1.
         23    2    1    2    0    0 -0.37296565812E+03  0.78684084038E+02 -0.53319069189E+03  0.66183762922E+03  0.91881262019E+02 0.  0.
         23    2    1    2    0    0  0.28871148964E+03  0.72331042351E+02  0.20285302560E+01  0.31700381234E+03  0.10909261279E+03 0.  0.
        -11    1    4    4    0    0  0.36897023167E+02  0.31810711823E+02  0.34777182396E+02  0.59856195340E+02  0.00000000000E+00 0. -1.
         11    1    4    4    0    0  0.25181446647E+03  0.40520330528E+02 -0.32748652140E+02  0.25714761700E+03  0.00000000000E+00 0.  1.
        -11    1    3    3    0    0 -0.32418507361E+03  0.67546364799E+02 -0.50645285684E+03  0.60510575072E+03  0.00000000000E+00 0.  1.
         11    1    3    3    0    0 -0.48780584510E+02  0.11137719240E+02 -0.26737835053E+02  0.56731878501E+02  0.00000000000E+00 0. -1.
         -3    1    1    2    0  502  0.84254168479E+02 -0.15101512639E+03 -0.99483316855E+02  0.19950254043E+03  0.00000000000E+00 0.  1.
<scales pt_clust_5="13000.00000" pt_clust_6="13000.00000" pt_clust_7="13000.00000" pt_clust_8="13000.00000" pt_clust_9="172.92869"></scales>
<clustering>
<clus scale="   91.881">  7  8 -1 -1</clus>
<clus scale="  109.093">  5  6 -1 -1</clus>
<clus scale="  172.929">  1  9  2 -1</clus>
<clus scale="  362.377">  2  7  1 -1</clus>
<clus scale="  172.929">  1  5  2 -1</clus>
</clustering>
</event>
<event>
 9    1  0.1504846E-005  0.1026595E+03  0.7546771E-02  0.1276653E+00
         21   -1    0    0  501  502  0.00000000000E+00  0.00000000000E+00  0.43188941778E+02  0.43188941778E+02  0.00000000000E+00 0.  1.
          2   -1    0    0  502    0 -0.00000000000E+00 -0.00000000000E+00 -0.43929250894E+03  0.43929250894E+03  0.00000000000E+00 0. -1.
         23    2    1    2    0    0  0.53306445493E+02 -0.17191281950E+01 -0.22395899391E+03  0.24605114629E+03  0.86827432912E+02 0.  0.
         23    2    1    2    0    0 -0.37856313869E+02  0.23712465438E+02 -0.18160626868E+03  0.20793579389E+03  0.90890461756E+02 0.  0.
        -11    1    3    3    0    0  0.75528783328E+02  0.69881898479E+01 -0.18965768577E+03  0.20426323624E+03  0.00000000000E+00 0. -1.
         11    1    3    3    0    0 -0.22222337835E+02 -0.87073180428E+01 -0.34301308143E+02  0.41787910054E+02  0.00000000000E+00 0.  1.
        -13    1    4    4    0    0 -0.21706607953E+02 -0.34031345145E+02 -0.59461685123E+02  0.71867943333E+02  0.00000000000E+00 0.  1.
         13    1    4    4    0    0 -0.16149705915E+02  0.57743810583E+02 -0.12214458356E+03  0.13606785055E+03  0.00000000000E+00 0. -1.
          2    1    1    2  501    0 -0.15450131624E+02 -0.21993337243E+02  0.94616954319E+01  0.28494510536E+02  0.00000000000E+00 0. -1.
<scales pt_clust_5="13000.00000" pt_clust_6="13000.00000" pt_clust_7="13000.00000" pt_clust_8="13000.00000" pt_clust_9="26.87775"></scales>
<clustering>
<clus scale="   26.878">  1  9  2 -1</clus>
<clus scale="   86.827">  5  6 -1 -1</clus>
<clus scale="   90.890">  7  8 -1 -1</clus>
<clus scale="   99.080">  2  5  1 -1</clus>
<clus scale="   26.878">  1  5  2 -1</clus>
</clustering>
</event>
<event>
 9    1  0.1504846E-005  0.1388936E+03  0.7546771E-02  0.1216017E+00
          2   -1    0    0  502    0 -0.00000000000E+00  0.00000000000E+00  0.51285522342E+03  0.51285522342E+03  0.00000000000E+00 0. -1.
         21   -1    0    0  501  502  0.00000000000E+00 -0.00000000000E+00 -0.14244842655E+03  0.14244842655E+03  0.00000000000E+00 0. -1.
         23    2    1    2    0    0  0.99884253974E+01  0.99789793289E+02  0.36037719402E+03  0.38435954425E+03  0.88333265524E+02 0.  0.
         23    2    1    2    0    0 -0.48453346154E+02 -0.13008089586E+03  0.84068167002E+02  0.18218144462E+03  0.82788017478E+02 0.  0.
        -11    1    3    3    0    0 -0.30572372871E+02  0.23024503488E+02  0.18192632870E+03  0.18590854423E+03  0.00000000000E+00 0. -1.
         11    1    3    3    0    0  0.40560798268E+02  0.76765289801E+02  0.17845086533E+03  0.19845100002E+03  0.00000000000E+00 0.  1.
        -13    1    4    4    0    0 -0.22330116942E+02  0.36897870419E+01  0.24741553938E+02  0.33531971942E+02  0.00000000000E+00 0. -1.
         13    1    4    4    0    0 -0.26123229213E+02 -0.13377068290E+03  0.59326613064E+02  0.14864947268E+03  0.00000000000E+00 0.  1.
          2    1    1    2  501    0  0.38464920757E+02  0.30291102573E+02 -0.74038564153E+02  0.88762661101E+02  0.00000000000E+00 0. -1.
<scales pt_clust_5="13000.00000" pt_clust_6="13000.00000" pt_clust_7="13000.00000" pt_clust_8="13000.00000" pt_clust_9="48.96020"></scales>
<clustering>
<clus scale="   48.960">  2  9  1 -1</clus>
<clus scale="   82.788">  7  8 -1 -1</clus>
<clus scale="   88.333">  5  6 -1 -1</clus>
<clus scale="  135.435">  2  7  1 -1</clus>
<clus scale="   48.960">  2  5  1 -1</clus>
</clustering>
</event>
<event>
 9    1  0.1504846E-005  0.9584828E+02  0.7546771E-02  0.1289694E+00
         21   -1    0    0  501  502  0.00000000000E+00  0.00000000000E+00  0.48249337453E+02  0.48249337453E+02  0.00000000000E+00 0. -1.
          1   -1    0    0  502    0 -0.00000000000E+00 -0.00000000000E+00 -0.64938498936E+03  0.64938498936E+03  0.00000000000E+00 0. -1.
         23    2    1    2    0    0 -0.37320133673E+02  0.20914048257E+02 -0.41518753228E+03  0.42680745576E+03  0.89183673017E+02 0.  0.
         23    2    1    2    0    0 -0.34623120925E+01 -0.29399610659E+02 -0.20438873449E+03  0.22527175139E+03  0.89979344716E+02 0.  0.
        -11    1    3    3    0    0 -0.22775350466E+02 -0.34358729604E+02 -0.15241181805E+03  0.15788793865E+03  0.00000000000E+00 0.  1.
         11    1    3    3    0    0 -0.14544783207E+02  0.55272777861E+02 -0.26277571423E+03  0.26891951711E+03  0.00000000000E+00 0. -1.
        -13    1    4    4    0    0 -0.41254988625E+02 -0.22940748258E+02 -0.15898783939E+03  0.16584747538E+03  0.00000000000E+00 0.  1.
         13    1    4    4    0    0  0.37792676532E+02 -0.64588624015E+01 -0.45400895102E+02  0.59424276008E+02  0.00000000000E+00 0. -1.
          1    1    1    2  501    0  0.40782445765E+02  0.84855624026E+01  0.18440614862E+02  0.45555119673E+02  0.00000000000E+00 0. -1.
<scales pt_clust_5="13000.00000" pt_clust_6="13000.00000" pt_clust_7="13000.00000" pt_clust_8="13000.00000" pt_clust_9="41.65588"></scales>
<clustering>
<clus scale="   41.656">  1  9  2 -1</clus>
<clus scale="   89.184">  5  6 -1 -1</clus>
<clus scale="   89.979">  7  8 -1 -1</clus>
<clus scale="   95.102">  2  5  1 -1</clus>
<clus scale="   41.656">  1  5  2 -1</clus>
</clustering>
</event>
<event>
 9    1  0.1504846E-005  0.1574750E+03  0.7546771E-02  0.1191757E+00
         21   -1    0    0  501  502  0.00000000000E+00  0.00000000000E+00  0.78001268681E+02  0.78001268681E+02  0.00000000000E+00 0.  1.
         -1   -1    0    0    0  501 -0.00000000000E+00 -0.00000000000E+00 -0.79209756757E+03  0.79209756757E+03  0.00000000000E+00 0.  1.
         23    2    1    2    0    0 -0.13494654392E+03  0.43449017789E+02 -0.64876561863E+03  0.67026195204E+03  0.90861815791E+02 0.  0.
         23    2    1    2    0    0  0.73541667333E+02 -0.81804004129E+01 -0.39081846929E+02  0.12431579119E+03  0.91933287742E+02 0.  0.
        -13    1    3    3    0    0 -0.13765734341E+03  0.14513477249E+02 -0.56029983649E+03  0.57714477558E+03  0.00000000000E+00 0.  1.
         13    1    3    3    0    0  0.27107994921E+01  0.28935540541E+02 -0.88465782143E+02  0.93117176453E+02  0.00000000000E+00 0. -1.
        -13    1    4    4    0    0  0.80828421919E+01  0.20308702565E+02 -0.47639844571E+02  0.52414983817E+02  0.00000000000E+00 0.  1.
         13    1    4    4    0    0  0.65458825141E+02 -0.28489102978E+02  0.85579976420E+01  0.71900807374E+02  0.00000000000E+00 0. -1.
         -1    1    1    2    0  502  0.61404876587E+02 -0.35268617376E+02 -0.26248833331E+02  0.75521093024E+02  0.00000000000E+00 0.  1.
<scales pt_clust_5="13000.00000" pt_clust_6="13000.00000" pt_clust_7="13000.00000" pt_clust_8="13000.00000" pt_clust_9="70.81267"></scales>
<clustering>
<clus scale="   70.813">  1  9  2 -1</clus>
<clus scale="   90.862">  5  6 -1 -1</clus>
<clus scale="   91.933">  7  8 -1 -1</clus>
<clus scale="  156.852">  2  5  1 -1</clus>
<clus scale="   70.813">  1  5  2 -1</clus>
</clustering>
</event>
<event>
 9    1  0.1504846E-005  0.1544656E+03  0.7546771E-02  0.1219590E+00
         21   -1    0    0  501  502  0.00000000000E+00  0.00000000000E+00  0.19793385988E+03  0.19793385988E+03  0.00000000000E+00 0.  1.
          3   -1    0    0  502    0 -0.00000000000E+00 -0.00000000000E+00 -0.21519362596E+03  0.21519362596E+03  0.00000000000E+00 0. -1.
         23    2    1    2    0    0  0.94088850408E+01  0.57546548632E+00 -0.85688156436E+02  0.12522992514E+03  0.90836202685E+02 0.  0.
         23    2    1    2    0    0 -0.23236542832E+02  0.12317145855E+03  0.32371988240E+02  0.15826512085E+03  0.91042614915E+02 0.  0.
        -11    1    4    4    0    0  0.22032564585E+02  0.17502406593E+02  0.32919051234E+02  0.43306259050E+02  0.00000000000E+00 0.  1.
         11    1    4    4    0    0 -0.45269107418E+02  0.10566905196E+03 -0.54706299412E+00  0.11495886180E+03  0.00000000000E+00 0. -1.
        -13    1    3    3    0    0  0.32714470339E+01 -0.37557560113E+02 -0.76863058565E+02  0.85610761352E+02  0.00000000000E+00 0. -1.
         13    1    3    3    0    0  0.61374380069E+01  0.38133025599E+02 -0.88250978718E+01  0.39619163786E+02  0.00000000000E+00 0.  1.
          3    1    1    2  501    0  0.13827657791E+02 -0.12374692404E+03  0.36056402113E+02  0.12963243986E+03  0.00000000000E+00 0. -1.
<scales pt_clust_5="13000.00000" pt_clust_6="13000.00000" pt_clust_7="13000.00000" pt_clust_8="13000.00000" pt_clust_9="124.78333"></scales>
<clustering>
<clus scale="   90.836">  7  8 -1 -1</clus>
<clus scale="   91.043">  5  6 -1 -1</clus>
<clus scale="   91.324">  2  7  1 -1</clus>
<clus scale="  124.783">  1  9  2 -1</clus>
<clus scale="  124.783">  1  5  2 -1</clus>
</clustering>
</event>
<event>
 9    1  0.1504846E-005  0.1439759E+03  0.7546771E-02  0.1208302E+00
          2   -1    0    0  502    0 -0.00000000000E+00  0.00000000000E+00  0.10980529367E+04  0.10980529367E+04  0.00000000000E+00 0.  1.
         21   -1    0    0  501  502  0.00000000000E+00 -0.00000000000E+00 -0.80755236275E+02  0.80755236275E+02  0.00000000000E+00 0. -1.
         23    2    1    2    0    0  0.52484623122E+02  0.10071514182E+03  0.68548533190E+03  0.70087900998E+03  0.91886184647E+02 0.  0.
         23    2    1    2    0    0  0.85758764312E+02 -0.13617005081E+03  0.11268599873E+03  0.21642457283E+03  0.90799851426E+02 0.  0.
        -11    1    4    4    0    0  0.10407821312E+03 -0.11419802612E+03  0.10497200274E+03  0.18679557002E+03  0.00000000000E+00 0. -1.
         11    1    4    4    0    0 -0.18319448810E+02 -0.21972024688E+02  0.77139959888E+01  0.29629002813E+02  0.00000000000E+00 0.  1.
        -11    1    3    3    0    0  0.20012203365E+02 -0.13991609976E+02  0.75406885336E+02  0.79261918910E+02  0.00000000000E+00 0. -1.
         11    1    3    3    0    0  0.32472419757E+02  0.11470675179E+03  0.61007844656E+03  0.62161709107E+03  0.00000000000E+00 0.  1.
          2    1    1    2  501    0 -0.13824338743E+03  0.35454908996E+02  0.21912636982E+03  0.26150459020E+03  0.00000000000E+00 0.  1.
<scales pt_clust_5="13000.00000" pt_clust_6="13000.00000" pt_clust_7="13000.00000" pt_clust_8="13000.00000" pt_clust_9="142.71750"></scales>
<clustering>
<clus scale="   90.800">  5  6 -1 -1</clus>
<clus scale="   91.886">  7  8 -1 -1</clus>
<clus scale="  142.717">  2  9  1 -1</clus>
<clus scale="  143.285">  2  5  1 -1</clus>
<clus scale="  142.717">  2  5  1 -1</clus>
</clustering>
</event>
<event>
 9    1  0.1504846E-005  0.1386567E+03  0.7546771E-02  0.1215572E+00
         21   -1    0    0  501  502  0.00000000000E+00  0.00000000000E+00  0.57825707601E+02  0.57825707601E+02  0.00000000000E+00 0.  1.
          2   -1    0    0  502    0 -0.00000000000E+00 -0.00000000000E+00 -0.63568111834E+03  0.63568111834E+03  0.00000000000E+00 0. -1.
         23    2    1    2    0    0 -0.14546849471E+02 -0.90974261303E+02 -0.36166056191E+03  0.38448056144E+03  0.92406780228E+02 0.  0.
         23    2    1    2    0    0 -0.22235058449E+01  0.12328757015E+03 -0.22329889813E+03  0.27193364714E+03  0.94237686778E+02 0.  0.
        -11    1    4    4    0    0  0.10125247222E+02  0.34088934437E+02 -0.51526765921E+01  0.35932243994E+02  0.00000000000E+00 0.  1.
         11    1    4    4    0    0 -0.12348753067E+02  0.89198635708E+02 -0.21814622154E+03  0.23600140315E+03  0.00000000000E+00 0. -1.
        -11    1    3    3    0    0 -0.36719129662E+02 -0.87884440839E+02 -0.34087667093E+03  0.35393343189E+03  0.00000000000E+00 0. -1.
         11    1    3    3    0    0  0.22172280191E+02 -0.30898204638E+01 -0.20783890985E+02  0.30547129551E+02  0.00000000000E+00 0.  1.
          2    1    1    2  501    0  0.16770355316E+02 -0.32313308842E+02  0.71040493124E+01  0.37092617357E+02  0.00000000000E+00 0. -1.
<scales pt_clust_5="13000.00000" pt_clust_6="13000.00000" pt_clust_7="13000.00000" pt_clust_8="13000.00000" pt_clust_9="36.40597"></scales>
<clustering>
<clus scale="   36.406">  1  9  2 -1</clus>
<clus scale="   92.407">  7  8 -1 -1</clus>
<clus scale="   94.238">  5  6 -1 -1</clus>
<clus scale="  137.419">  2  7  1 -1</clus>
<clus scale="   36.406">  1  5  2 -1</clus>
</clustering>
</event>
<event>
 9    1  0.1504846E-005  0.1170581E+03  0.7546771E-02  0.1248933E+00
         21   -1    0    0  501  502  0.00000000000E+00  0.00000000000E+00  0.59575158575E+02  0.59575158575E+02  0.00000000000E+00 0.  1.
          2   -1    0    0  502    0 -0.00000000000E+00 -0.00000000000E+00 -0.76077727779E+03  0.76077727779E+03  0.00000000000E+00 0. -1.
         23    2    1    2    0    0 -0.58769822888E+02 -0.54493186614E+02 -0.56469695718E+03  0.57660514686E+03  0.84660749237E+02 0.  0.
         23    2    1    2    0    0  0.87976308705E+02 -0.19371823954E+01 -0.13025632988E+03  0.17990018101E+03  0.87485885059E+02 0.  0.
        -11    1    3    3    0    0  0.18924292662E+02 -0.21678874298E+02 -0.90456751354E+02  0.94923792113E+02  0.00000000000E+00 0.  1.
         11    1    3    3    0    0 -0.77694115551E+02 -0.32814312316E+02 -0.47424020583E+03  0.48168135474E+03  0.00000000000E+00 0. -1.
        -11    1    4    4    0    0  0.35132308957E+02  0.13227055745E+02  0.10445027484E+01  0.37554295657E+02  0.00000000000E+00 0.  1.
         11    1    4    4    0    0  0.52843999748E+02 -0.15164238141E+02 -0.13130083263E+03  0.14234588535E+03  0.00000000000E+00 0. -1.
          2    1    1    2  501    0 -0.29206485817E+02  0.56430369009E+02 -0.62488321512E+01  0.63847108498E+02  0.00000000000E+00 0. -1.
<scales pt_clust_5="13000.00000" pt_clust_6="13000.00000" pt_clust_7="13000.00000" pt_clust_8="13000.00000" pt_clust_9="63.54058"></scales>
<clustering>
<clus scale="   63.541">  1  9  2 -1</clus>
<clus scale="   84.661">  5  6 -1 -1</clus>
<clus scale="   87.486">  7  8 -1 -1</clus>
<clus scale="  114.962">  2  5  1 -1</clus>
<clus scale="   63.541">  1  5  2 -1</clus>
</clustering>
</event>
<event>
 9    1  0.1504846E-005  0.2276483E+03  0.7546771E-02  0.1128409E+00
         -3   -1    0    0    0  501 -0.00000000000E+00  0.00000000000E+00  0.13170470663E+04  0.13170470663E+04  0.00000000000E+00 0.  1.
         21   -1    0    0  501  502  0.00000000000E+00 -0.00000000000E+00 -0.52542359458E+02  0.52542359458E+02  0.00000000000E+00 0.  1.
         23    2    1    2    0    0  0.54579947253E+02 -0.19563786430E+03  0.80786530629E+03  0.83822786634E+03  0.93415513815E+02 0.  0.
         23    2    1    2    0    0 -0.36590808541E+02  0.21582152975E+03  0.36194066048E+03  0.43287886634E+03  0.92006800002E+02 0.  0.
        -13    1    4    4    0    0 -0.12057372778E+02  0.33493272733E+02  0.14073992327E+03  0.14517198614E+03  0.00000000000E+00 0. -1.
         13    1    4    4    0    0 -0.24533435762E+02  0.18232825702E+03  0.22120073721E+03  0.28770688021E+03  0.00000000000E+00 0.  1.
        -13    1    3    3    0    0  0.75571033401E+02 -0.17724780048E+03  0.65170043964E+03  0.67958901322E+03  0.00000000000E+00 0.  1.
         13    1    3    3    0    0 -0.20991086147E+02 -0.18390063822E+02  0.15616486664E+03  0.15863885312E+03  0.00000000000E+00 0. -1.
         -3    1    1    2    0  502 -0.17989138712E+02 -0.20183665453E+02  0.94698740124E+02  0.98482693119E+02  0.00000000000E+00 0.  1.
<scales pt_clust_5="13000.00000" pt_clust_6="13000.00000" pt_clust_7="13000.00000" pt_clust_8="13000.00000" pt_clust_9="27.03683"></scales>
<clustering>
<clus scale="   27.037">  2  9  1 -1</clus>
<clus scale="   92.007">  5  6 -1 -1</clus>
<clus scale="   93.416">  7  8 -1 -1</clus>
<clus scale="  227.074">  2  5  1 -1</clus>
<clus scale="   27.037">  2  5  1 -1</clus>
</clustering>
</event>
<event>
 9    1  0.1504846E-005  0.9785135E+02  0.7546771E-02  0.1285391E+00
         21   -1    0    0  501  502  0.00000000000E+00  0.00000000000E+00  0.13540906133E+03  0.13540906133E+03  0.00000000000E+00 0.  1.
          1   -1    0    0  502    0 -0.00000000000E+00 -0.00000000000E+00 -0.12095961623E+03  0.12095961623E+03  0.00000000000E+00 0. -1.
         23    2    1    2    0    0 -0.10518903551E+02  0.37260367443E+02 -0.52088756956E+02  0.11274011309E+03  0.92185205885E+02 0.  0.
         23    2    1    2    0    0  0.24672115002E+02 -0.10768163599E+02  0.38622860652E+02  0.10262348497E+03  0.91187651009E+02 0.  0.
        -11    1    4    4    0    0  0.40351738048E+02  0.20354161247E+02  0.48607865941E+02  0.66372277910E+02  0.00000000000E+00 0.  1.
         11    1    4    4    0    0 -0.15679623046E+02 -0.31122324846E+02 -0.99850052895E+01  0.36251207060E+02  0.00000000000E+00 0. -1.
        -13    1    3    3    0    0 -0.10247619398E+02 -0.21584647504E+02  0.11141565463E+02  0.26363709757E+02  0.00000000000E+00 0. -1.
         13    1    3    3    0    0 -0.27128415276E+00  0.58845014947E+02 -0.63230322420E+02  0.86376403332E+02  0.00000000000E+00 0.  1.
          1    1    1    2  501    0 -0.14153211451E+02 -0.26492203844E+02  0.27915341411E+02  0.41005079502E+02  0.00000000000E+00 0. -1.
<scales pt_clust_5="13000.00000" pt_clust_6="13000.00000" pt_clust_7="13000.00000" pt_clust_8="13000.00000" pt_clust_9="30.03582"></scales>
<clustering>
<clus scale="   30.036">  1  9  2 -1</clus>
<clus scale="   91.188">  5  6 -1 -1</clus>
<clus scale="   92.185">  7  8 -1 -1</clus>
<clus scale="   96.912">  1  5  2 -1</clus>
<clus scale="   30.036">  1  5  2 -1</clus>
</clustering>
</event>
<event>
 9    1  0.1504846E-005  0.1270558E+03  0.7546771E-02  0.1232746E+00
          1   -1    0    0  502    0 -0.00000000000E+00  0.00000000000E+00  0.53715076741E+03  0.53715076741E+03  0.00000000000E+00 0. -1.
         21   -1    0    0  501  502  0.00000000000E+00 -0.00000000000E+00 -0.52328774604E+03  0.52328774604E+03  0.00000000000E+00 0. -1.
         23    2    1    2    0    0  0.80364603173E+02  0.38330274995E+02  0.50903342897E+03  0.52452838519E+03  0.89929503711E+02 0.  0.
         23    2    1    2    0    0 -0.46668741573E+02  0.26858449265E+02 -0.15951438224E+03  0.19232615276E+03  0.92979369507E+02 0.  0.
        -11    1    3    3    0    0  0.84299938412E+02  0.64125809778E+01  0.44400541804E+03  0.45198275638E+03  0.00000000000E+00 0. -1.
         11    1    3    3    0    0 -0.39353352383E+01  0.31917694017E+02  0.65028010927E+02  0.72545628813E+02  0.00000000000E+00 0.  1.
        -13    1    4    4    0    0 -0.58536588912E+02  0.51368642024E+02 -0.13411503293E+03  0.15508743238E+03  0.00000000000E+00 0. -1.
         13    1    4    4    0    0  0.11867847339E+02 -0.24510192759E+02 -0.25399349319E+02  0.37238720378E+02  0.00000000000E+00 0.  1.
          1    1    1    2  501    0 -0.33695861601E+02 -0.65188724261E+02 -0.33565602536E+03  0.34358397550E+03  0.00000000000E+00 0. -1.
<scales pt_clust_5="13000.00000" pt_clust_6="13000.00000" pt_clust_7="13000.00000" pt_clust_8="13000.00000" pt_clust_9="73.38243"></scales>
<clustering>
<clus scale="   73.382">  2  9  1 -1</clus>
<clus scale="   89.930">  5  6 -1 -1</clus>
<clus scale="   92.979">  7  8 -1 -1</clus>
<clus scale="  124.841">  1  5  2 -1</clus>
<clus scale="   73.382">  2  5  1 -1</clus>
</clustering>
</event>
<event>
 9    1  0.1504846E-005  0.1261184E+03  0.7546771E-02  0.1234319E+00
         21   -1    0    0  501  502  0.00000000000E+00  0.00000000000E+00  0.52517490897E+03  0.52517490897E+03  0.00000000000E+00 0.  1.
         -1   -1    0    0    0  501 -0.00000000000E+00 -0.00000000000E+00 -0.47813139985E+02  0.47813139985E+02  0.00000000000E+00 0.  1.
         23    2    1    2    0    0  0.37319839567E+02  0.88274007839E+02  0.12676241699E+03  0.18229999303E+03  0.89328081877E+02 0.  0.
         23    2    1    2    0    0 -0.62532704618E+02 -0.44845603760E+02  0.22176098285E+03  0.25240920646E+03  0.92795509964E+02 0.  0.
        -11    1    3    3    0    0 -0.29687425543E+02  0.28357595588E+02  0.42539999931E+02  0.59119777207E+02  0.00000000000E+00 0. -1.
         11    1    3    3    0    0  0.67007265110E+02  0.59916412252E+02  0.84222417059E+02  0.12318021582E+03  0.00000000000E+00 0.  1.
        -13    1    4    4    0    0 -0.78182518862E+02 -0.60327563719E+01  0.13614540908E+03  0.15711293014E+03  0.00000000000E+00 0.  1.
         13    1    4    4    0    0  0.15649814245E+02 -0.38812847388E+02  0.85615573766E+02  0.95296276316E+02  0.00000000000E+00 0. -1.
         -1    1    1    2    0  502  0.25212865051E+02 -0.43428404079E+02  0.12883836915E+03  0.13827884947E+03  0.00000000000E+00 0.  1.
<scales pt_clust_5="13000.00000" pt_clust_6="13000.00000" pt_clust_7="13000.00000" pt_clust_8="13000.00000" pt_clust_9="50.21668"></scales>
<clustering>
<clus scale="   50.217">  1  9  2 -1</clus>
<clus scale="   89.328">  5  6 -1 -1</clus>
<clus scale="   92.796">  7  8 -1 -1</clus>
<clus scale="  123.589">  2  5  1 -1</clus>
<clus scale="   50.217">  1  5  2 -1</clus>
</clustering>
</event>
<event>
 9    1  0.1504846E-005  0.1182396E+03  0.7546771E-02  0.1246515E+00
         21   -1    0    0  501  502  0.00000000000E+00  0.00000000000E+00  0.14453773598E+03  0.14453773598E+03  0.00000000000E+00 0.  1.
         -2   -1    0    0    0  501 -0.00000000000E+00 -0.00000000000E+00 -0.49970843429E+03  0.49970843429E+03  0.00000000000E+00 0.  1.
         23    2    1    2    0    0 -0.19489792634E+02 -0.67693203794E+02 -0.36444256248E+03  0.38249576666E+03  0.92316890710E+02 0.  0.
         23    2    1    2    0    0 -0.12018308098E+02  0.82348500682E+02 -0.91463391764E+02  0.15518995162E+03  0.93769151421E+02 0.  0.
        -11    1    3    3    0    0 -0.44271310924E+02 -0.64453162752E+02 -0.33438208336E+03  0.34340287831E+03  0.00000000000E+00 0.  1.
         11    1    3    3    0    0  0.24781518290E+02 -0.32400410415E+01 -0.30060479120E+02  0.39092888352E+02  0.00000000000E+00 0. -1.
        -11    1    4    4    0    0 -0.43045877073E+02  0.68137139312E+02 -0.32173930376E+02  0.86780061549E+02  0.00000000000E+00 0.  1.
         11    1    4    4    0    0  0.31027568975E+02  0.14211361369E+02 -0.59289461388E+02  0.68409890075E+02  0.00000000000E+00 0. -1.
         -2    1    1    2    0  502  0.31508100732E+02 -0.14655296888E+02  0.10073525593E+03  0.10656045198E+03  0.00000000000E+00 0.  1.
<scales pt_clust_5="13000.00000" pt_clust_6="13000.00000" pt_clust_7="13000.00000" pt_clust_8="13000.00000" pt_clust_9="34.74965"></scales>
<clustering>
<clus scale="   34.750">  1  9  2 -1</clus>
<clus scale="   92.317">  5  6 -1 -1</clus>
<clus scale="   93.769">  7  8 -1 -1</clus>
<clus scale="  117.091">  2  5  1 -1</clus>
<clus scale="   34.750">  1  5  2 -1</clus>
</clustering>
</event>
<event>
 9    1  0.1504846E-005  0.2808180E+03  0.7546771E-02  0.1095456E+00
         21   -1    0    0  501  502  0.00000000000E+00  0.00000000000E+00  0.12248044522E+04  0.12248044522E+04  0.00000000000E+00 0. -1.
          3   -1    0    0  502    0 -0.00000000000E+00 -0.00000000000E+00 -0.14997533860E+03  0.14997533860E+03  0.00000000000E+00 0. -1.
         23    2    1    2    0    0  0.18640585371E+03 -0.20735753834E+03  0.42014908920E+02  0.29600216834E+03  0.90042990194E+02 0.  0.
         23    2    1    2    0    0 -0.16943809866E+03  0.12450548547E+03  0.76717483731E+03  0.80000057737E+03  0.85045914599E+02 0.  0.
        -11    1    3    3    0    0  0.17795630170E+03 -0.17178290828E+03  0.10228379093E+02  0.24755288855E+03  0.00000000000E+00 0. -1.
         11    1    3    3    0    0  0.84495520146E+01 -0.35574630067E+02  0.31786529827E+02  0.48449279789E+02  0.00000000000E+00 0.  1.
        -13    1    4    4    0    0 -0.71885381248E+02  0.31203403684E+02  0.16206978800E+03  0.18002160043E+03  0.00000000000E+00 0.  1.
         13    1    4    4    0    0 -0.97552717413E+02  0.93302081789E+02  0.60510504931E+03  0.61997897694E+03  0.00000000000E+00 0. -1.
          3    1    1    2  501    0 -0.16967755053E+02  0.82852052868E+02  0.26563936740E+03  0.27877704512E+03  0.00000000000E+00 0. -1.
<scales pt_clust_5="13000.00000" pt_clust_6="13000.00000" pt_clust_7="13000.00000" pt_clust_8="13000.00000" pt_clust_9="84.57167"></scales>
<clustering>
<clus scale="   84.572">  1  9  2 -1</clus>
<clus scale="   85.046">  7  8 -1 -1</clus>
<clus scale="   90.043">  5  6 -1 -1</clus>
<clus scale="  279.256">  1  7  2 -1</clus>
<clus scale="   84.572">  1  5  2 -1</clus>
</clustering>
</event>
<event>
 9    1  0.1504846E-005  0.1043959E+03  0.7546771E-02  0.1274813E+00
         21   -1    0    0  501  502  0.00000000000E+00  0.00000000000E+00  0.84749463202E+02  0.84749463202E+02  0.00000000000E+00 0. -1.
         -1   -1    0    0    0  501 -0.00000000000E+00 -0.00000000000E+00 -0.27334036493E+03  0.27334036493E+03  0.00000000000E+00 0.  1.
         23    2    1    2    0    0 -0.19943359636E+02  0.43841767063E+02 -0.14832005727E+03  0.18143522406E+03  0.92736524668E+02 0.  0.
         23    2    1    2    0    0  0.48997086497E+02 -0.24504598522E+02 -0.76152354600E+02  0.12659935558E+03  0.85011916147E+02 0.  0.
        -11    1    3    3    0    0  0.25135941929E+02  0.51792362653E+02 -0.69081270286E+02  0.89924892606E+02  0.00000000000E+00 0.  1.
         11    1    3    3    0    0 -0.45079301565E+02 -0.79505955896E+01 -0.79238786985E+02  0.91510331453E+02  0.00000000000E+00 0. -1.
        -13    1    4    4    0    0  0.51893904342E+02  0.17907459520E+02 -0.25669831210E+02  0.60601936014E+02  0.00000000000E+00 0.  1.
         13    1    4    4    0    0 -0.28968178445E+01 -0.42412058042E+02 -0.50482523389E+02  0.65997419561E+02  0.00000000000E+00 0. -1.
         -1    1    1    2    0  502 -0.29053726861E+02 -0.19337168542E+02  0.35881510145E+02  0.50055248496E+02  0.00000000000E+00 0.  1.
<scales pt_clust_5="13000.00000" pt_clust_6="13000.00000" pt_clust_7="13000.00000" pt_clust_8="13000.00000" pt_clust_9="34.90050"></scales>
<clustering>
<clus scale="   34.901">  1  9  2 -1</clus>
<clus scale="   85.012">  7  8 -1 -1</clus>
<clus scale="   92.737">  5  6 -1 -1</clus>
<clus scale="   97.599">  1  7  2 -1</clus>
<clus scale="   34.901">  1  5  2 -1</clus>
</clustering>
</event>
<event>
 9    1  0.1504846E-005  0.1049854E+03  0.7546771E-02  0.1274314E+00
          3   -1    0    0  502    0 -0.00000000000E+00  0.00000000000E+00  0.12054026688E+03  0.12054026688E+03  0.00000000000E+00 0. -1.
         21   -1    0    0  501  502  0.00000000000E+00 -0.00000000000E+00 -0.14635982817E+03  0.14635982817E+03  0.00000000000E+00 0.  1.
         23    2    1    2    0    0  0.30392735168E+02 -0.16608590908E+02  0.40332881617E+02  0.11097619459E+03  0.97413606764E+02 0.  0.
         23    2    1    2    0    0 -0.53710461376E+02 -0.69175525720E+01 -0.32800787668E+02  0.10891827643E+03  0.88626367826E+02 0.  0.
        -13    1    3    3    0    0  0.37758230051E+02 -0.50128063574E+02  0.70218968903E+01  0.63149138792E+02  0.00000000000E+00 0.  1.
         13    1    3    3    0    0 -0.73654948827E+01  0.33519472666E+02  0.33310984727E+02  0.47827055796E+02  0.00000000000E+00 0. -1.
        -13    1    4    4    0    0  0.82106952395E+00 -0.40003460102E+02 -0.14543014203E+02  0.42572881479E+02  0.00000000000E+00 0.  1.
         13    1    4    4    0    0 -0.54531530900E+02  0.33085907530E+02 -0.18257773465E+02  0.66345394951E+02  0.00000000000E+00 0. -1.
          3    1    1    2  501    0  0.23317726208E+02  0.23526143480E+02 -0.33351655240E+02  0.47005624023E+02  0.00000000000E+00 0. -1.
<scales pt_clust_5="13000.00000" pt_clust_6="13000.00000" pt_clust_7="13000.00000" pt_clust_8="13000.00000" pt_clust_9="33.12395"></scales>
<clustering>
<clus scale="   33.124">  2  9  1 -1</clus>
<clus scale="   88.626">  7  8 -1 -1</clus>
<clus scale="   96.887">  2  7  1 -1</clus>
<clus scale="   97.414">  5  6 -1 -1</clus>
<clus scale="   33.124">  2  5  1 -1</clus>
</clustering>
</event>
<event>
 9    1  0.1504846E-005  0.1819206E+03  0.7546771E-02  0.1166412E+00
         21   -1    0    0  501  502  0.00000000000E+00  0.00000000000E+00  0.20629130362E+03  0.20629130362E+03  0.00000000000E+00 0. -1.
          1   -1    0    0  502    0 -0.00000000000E+00 -0.00000000000E+00 -0.47842925339E+03  0.47842925339E+03  0.00000000000E+00 0. -1.
         23    2    1    2    0    0 -0.68472690201E+01  0.13121959693E+03 -0.20856897675E+03  0.26242723387E+03  0.90008706807E+02 0.  0.
         23    2    1    2    0    0 -0.28700092654E+02 -0.20969505747E+03 -0.16865634625E+03  0.28640598437E+03  0.93742798705E+02 0.  0.
        -11    1    4    4    0    0 -0.57812722784E+00 -0.19653973531E+03 -0.12531628809E+03  0.23309305834E+03  0.00000000000E+00 0.  1.
         11    1    4    4    0    0 -0.28121965426E+02 -0.13155322154E+02 -0.43340058155E+02  0.53312926024E+02  0.00000000000E+00 0. -1.
        -13    1    3    3    0    0  0.32842763276E+02  0.24534419584E+02 -0.85306912407E+02  0.94645941003E+02  0.00000000000E+00 0.  1.
         13    1    3    3    0    0 -0.39690032296E+02  0.10668517735E+03 -0.12326206434E+03  0.16778129287E+03  0.00000000000E+00 0. -1.
          1    1    1    2  501    0  0.35547361674E+02  0.78475460534E+02  0.10508737322E+03  0.13588733877E+03  0.00000000000E+00 0. -1.
<scales pt_clust_5="13000.00000" pt_clust_6="13000.00000" pt_clust_7="13000.00000" pt_clust_8="13000.00000" pt_clust_9="86.15110"></scales>
<clustering>
<clus scale="   86.151">  1  9  2 -1</clus>
<clus scale="   90.009">  7  8 -1 -1</clus>
<clus scale="   93.743">  5  6 -1 -1</clus>
<clus scale="  180.025">  2  7  1 -1</clus>
<clus scale="   86.151">  1  5  2 -1</clus>
</clustering>
</event>
<event>
 9    1  0.1504846E-005  0.1285991E+03  0.7546771E-02  0.1241806E+00
         21   -1    0    0  501  502  0.00000000000E+00  0.00000000000E+00  0.96036190303E+02  0.96036190303E+02  0.00000000000E+00 0.  1.
          2   -1    0    0  502    0 -0.00000000000E+00 -0.00000000000E+00 -0.62997883057E+03  0.62997883057E+03  0.00000000000E+00 0. -1.
         23    2    1    2    0    0 -0.41710952186E+01 -0.35517283233E+02 -0.42661480877E+03  0.44523108065E+03  0.12227691795E+03 0.  0.
         23    2    1    2    0    0 -0.82848742397E+02  0.67770006176E+02 -0.28622066366E+01  0.14104934518E+03  0.91815236729E+02 0.  0.
        -11    1    3    3    0    0  0.45034022313E+02 -0.49039905485E+02 -0.32228003758E+03  0.32908570027E+03  0.00000000000E+00 0. -1.
         11    1    3    3    0    0 -0.49205117532E+02  0.13522622253E+02 -0.10433477119E+03  0.11614538038E+03  0.00000000000E+00 0.  1.
        -11    1    4    4    0    0 -0.97525636235E+02  0.47966468937E+02  0.16206885579E+02  0.10988491710E+03  0.00000000000E+00 0.  1.
         11    1    4    4    0    0  0.14676893838E+02  0.19803537240E+02 -0.19069092215E+02  0.31164428085E+02  0.00000000000E+00 0. -1.
          2    1    1    2  501    0  0.87019837616E+02 -0.32252722944E+02 -0.10446562486E+03  0.13973459505E+03  0.00000000000E+00 0. -1.
<scales pt_clust_5="13000.00000" pt_clust_6="13000.00000" pt_clust_7="13000.00000" pt_clust_8="13000.00000" pt_clust_9="92.80463"></scales>
<clustering>
<clus scale="   91.815">  7  8 -1 -1</clus>
<clus scale="   92.805">  1  9  2 -1</clus>
<clus scale="  100.081">  1  7  2 -1</clus>
<clus scale="  122.277">  5  6 -1 -1</clus>
<clus scale="   92.805">  1  5  2 -1</clus>
</clustering>
</event>
<event>
 9    1  0.1504846E-005  0.1489669E+03  0.7546771E-02  0.1201772E+00
         -1   -1    0    0    0  501 -0.00000000000E+00  0.00000000000E+00  0.10286235301E+04  0.10286235301E+04  0.00000000000E+00 0.  1.
         21   -1    0    0  501  502  0.00000000000E+00 -0.00000000000E+00 -0.64876782390E+02  0.64876782390E+02  0.00000000000E+00 0.  1.
         23    2    1    2    0    0  0.12038705601E+03  0.27524577457E+02  0.78019990059E+03  0.79520524119E+03  0.91590638751E+02 0.  0.
         23    2    1    2    0    0 -0.96461955861E+02 -0.33327614699E+02  0.21706518929E+03  0.25670703315E+03  0.91463466149E+02 0.  0.
        -11    1    4    4    0    0 -0.23694063620E+02  0.27249819726E+02  0.29614528330E+02  0.46700980869E+02  0.00000000000E+00 0.  1.
         11    1    4    4    0    0 -0.72767892242E+02 -0.60577434425E+02  0.18745066096E+03  0.21000605228E+03  0.00000000000E+00 0. -1.
        -13    1    3    3    0    0  0.43436922201E+02  0.56602932585E+02  0.34542568313E+03  0.35271739503E+03  0.00000000000E+00 0.  1.
         13    1    3    3    0    0  0.76950133813E+02 -0.29078355128E+02  0.43477421746E+03  0.44248784616E+03  0.00000000000E+00 0. -1.
         -1    1    1    2    0  502 -0.23925100153E+02  0.58030372424E+01 -0.33518342148E+02  0.41588038171E+02  0.00000000000E+00 0.  1.
<scales pt_clust_5="13000.00000" pt_clust_6="13000.00000" pt_clust_7="13000.00000" pt_clust_8="13000.00000" pt_clust_9="24.61881"></scales>
<clustering>
<clus scale="   24.619">  2  9  1 -1</clus>
<clus scale="   91.463">  5  6 -1 -1</clus>
<clus scale="   91.591">  7  8 -1 -1</clus>
<clus scale="  148.889">  2  5  1 -1</clus>
<clus scale="   24.619">  2  5  1 -1</clus>
</clustering>
</event>
<event>
 9    1  0.1504846E-005  0.1142565E+03  0.7546771E-02  0.1253969E+00
          2   -1    0    0  502    0 -0.00000000000E+00  0.00000000000E+00  0.47192084415E+03  0.47192084415E+03  0.00000000000E+00 0. -1.
         21   -1    0    0  501  502  0.00000000000E+00 -0.00000000000E+00 -0.11395638728E+03  0.11395638728E+03  0.00000000000E+00 0. -1.
         23    2    1    2    0    0 -0.50034391085E+02  0.30964079315E+02  0.34987714148E+03  0.36617212989E+03  0.90585871285E+02 0.  0.
         23    2    1    2    0    0  0.90880269852E+02 -0.79114034093E+02  0.24381141759E+02  0.15449549539E+03  0.93574377822E+02 0.  0.
        -11    1    4    4    0    0  0.51559018089E+02 -0.96421079094E+02  0.13446773066E+02  0.11016429796E+03  0.00000000000E+00 0. -1.
         11    1    4    4    0    0  0.39321251764E+02  0.17307045001E+02  0.10934368693E+02  0.44331197431E+02  0.00000000000E+00 0.  1.
        -13    1    3    3    0    0  0.13619164905E+02  0.35107587643E+02  0.19621987140E+03  0.19980055630E+03  0.00000000000E+00 0.  1.
         13    1    3    3    0    0 -0.63653555990E+02 -0.41435083281E+01  0.15365727008E+03  0.16637157359E+03  0.00000000000E+00 0. -1.
          2    1    1    2  501    0 -0.40845878767E+02  0.48149954778E+02 -0.16293826369E+02  0.65209606157E+02  0.00000000000E+00 0. -1.
<scales pt_clust_5="13000.00000" pt_clust_6="13000.00000" pt_clust_7="13000.00000" pt_clust_8="13000.00000" pt_clust_9="63.14114"></scales>
<clustering>
<clus scale="   63.141">  2  9  1 -1</clus>
<clus scale="   90.586">  7  8 -1 -1</clus>
<clus scale="   93.574">  5  6 -1 -1</clus>
<clus scale="  111.822">  1  7  2 -1</clus>
<clus scale="   63.141">  2  5  1 -1</clus>
</clustering>
</event>
<event>
 9    1  0.1504846E-005  0.1076296E+03  0.7546771E-02  0.1265452E+00
         21   -1    0    0  501  502  0.00000000000E+00  0.00000000000E+00  0.17258013710E+03  0.17258013710E+03  0.00000000000E+00 0.  1.
          2   -1    0    0  502    0 -0.00000000000E+00 -0.00000000000E+00 -0.15529740470E+03  0.15529740470E+03  0.00000000000E+00 0. -1.
         23    2    1    2    0    0 -0.41870732704E+02 -0.36844105792E+02 -0.69093443020E+02  0.12724077838E+03  0.91135423548E+02 0.  0.
         23    2    1    2    0    0  0.17494379123E+02  0.58660476521E+02  0.25841774446E+01  0.11068533447E+03  0.92181671101E+02 0.  0.
        -11    1    4    4    0    0  0.49934412431E+02  0.81139819558E+01  0.65837937818E+00  0.50593633112E+02  0.00000000000E+00 0. -1.
         11    1    4    4    0    0 -0.32440033308E+02  0.50546494565E+02  0.19257980664E+01  0.60091701358E+02  0.00000000000E+00 0.  1.
        -13    1    3    3    0    0 -0.59513200182E+02  0.64330969486E+01 -0.34445428167E+02  0.69062965864E+02  0.00000000000E+00 0.  1.
         13    1    3    3    0    0  0.17642467478E+02 -0.43277202740E+02 -0.34648014854E+02  0.58177812515E+02  0.00000000000E+00 0. -1.
          2    1    1    2  501    0  0.24376353581E+02 -0.21816370729E+02  0.83791997977E+02  0.89951428953E+02  0.00000000000E+00 0. -1.
<scales pt_clust_5="13000.00000" pt_clust_6="13000.00000" pt_clust_7="13000.00000" pt_clust_8="13000.00000" pt_clust_9="32.71331"></scales>
<clustering>
<clus scale="   32.713">  1  9  2 -1</clus>
<clus scale="   91.135">  7  8 -1 -1</clus>
<clus scale="   92.182">  5  6 -1 -1</clus>
<clus scale="  106.735">  2  7  1 -1</clus>
<clus scale="   32.713">  1  5  2 -1</clus>
</clustering>
</event>
<event>
 9    1  0.1504846E-005  0.1039996E+03  0.7546771E-02  0.1273452E+00
         -4   -1    0    0    0  501 -0.00000000000E+00  0.00000000000E+00  0.26036717317E+03  0.26036717317E+03  0.00000000000E+00 0.  1.
         21   -1    0    0  501  502  0.00000000000E+00 -0.00000000000E+00 -0.56708958698E+02  0.56708958698E+02  0.00000000000E+00 0. -1.
         23    2    1    2    0    0  0.14960299026E+02  0.32051734897E+02  0.90232569434E+02  0.13306802721E+03  0.91181462054E+02 0.  0.
         23    2    1    2    0    0 -0.34295296698E+02 -0.59131962636E+02  0.89982678593E+02  0.14330486713E+03  0.88128577180E+02 0.  0.
        -11    1    3    3    0    0 -0.13270951857E+02  0.41230704545E+02  0.59628106474E+01  0.43722354365E+02  0.00000000000E+00 0. -1.
         11    1    3    3    0    0  0.28231250883E+02 -0.91789696477E+01  0.84269758786E+02  0.89345672845E+02  0.00000000000E+00 0.  1.
        -13    1    4    4    0    0  0.22721094056E+02  0.55164287226E+01  0.31122394030E+02  0.38926629846E+02  0.00000000000E+00 0.  1.
         13    1    4    4    0    0 -0.57016390754E+02 -0.64648391358E+02  0.58860284563E+02  0.10437823728E+03  0.00000000000E+00 0. -1.
         -4    1    1    2    0  502  0.19334997672E+02  0.27080227739E+02  0.23442966443E+02  0.40703237525E+02  0.00000000000E+00 0.  1.
<scales pt_clust_5="13000.00000" pt_clust_6="13000.00000" pt_clust_7="13000.00000" pt_clust_8="13000.00000" pt_clust_9="33.27433"></scales>
<clustering>
<clus scale="   33.274">  2  9  1 -1</clus>
<clus scale="   88.129">  7  8 -1 -1</clus>
<clus scale="   91.181">  5  6 -1 -1</clus>
<clus scale="  101.334">  2  7  1 -1</clus>
<clus scale="   33.274">  2  5  1 -1</clus>
</clustering>
</event>
<event>
 9    1  0.1504846E-005  0.9821206E+02  0.7546771E-02  0.1284332E+00
         21   -1    0    0  501  502  0.00000000000E+00  0.00000000000E+00  0.75772922231E+02  0.75772922231E+02  0.00000000000E+00 0. -1.
         -1   -1    0    0    0  501 -0.00000000000E+00 -0.00000000000E+00 -0.19025595523E+03  0.19025595523E+03  0.00000000000E+00 0.  1.
         23    2    1    2    0    0  0.34306510524E+02 -0.26721146200E+02 -0.84276263553E+02  0.13187643406E+03  0.91640323783E+02 0.  0.
         23    2    1    2    0    0 -0.21960959848E+02  0.78769656157E+01 -0.47056550132E+02  0.10602006220E+03  0.92095626024E+02 0.  0.
        -11    1    4    4    0    0 -0.57880626921E+02  0.10044423825E+02 -0.25241278909E+02  0.63938873807E+02  0.00000000000E+00 0.  1.
         11    1    4    4    0    0  0.35919667072E+02 -0.21674582095E+01 -0.21815271223E+02  0.42081188389E+02  0.00000000000E+00 0. -1.
        -11    1    3    3    0    0 -0.12577042236E+02 -0.48214497795E+02 -0.43038099458E+02  0.65841459537E+02  0.00000000000E+00 0.  1.
         11    1    3    3    0    0  0.46883552759E+02  0.21493351595E+02 -0.41238164095E+02  0.66034974522E+02  0.00000000000E+00 0. -1.
         -1    1    1    2    0  502 -0.12345550675E+02  0.18844180584E+02  0.16849780684E+02  0.28132381209E+02  0.00000000000E+00 0.  1.
<scales pt_clust_5="13000.00000" pt_clust_6="13000.00000" pt_clust_7="13000.00000" pt_clust_8="13000.00000" pt_clust_9="22.52811"></scales>
<clustering>
<clus scale="   22.528">  1  9  2 -1</clus>
<clus scale="   91.640">  7  8 -1 -1</clus>
<clus scale="   92.096">  5  6 -1 -1</clus>
<clus scale="   97.785">  2  7  1 -1</clus>
<clus scale="   22.528">  1  5  2 -1</clus>
</clustering>
</event>
<event>
 9    1  0.1504846E-005  0.1103617E+03  0.7546771E-02  0.1260790E+00
         21   -1    0    0  501  502  0.00000000000E+00  0.00000000000E+00  0.21411429414E+03  0.21411429414E+03  0.00000000000E+00 0. -1.
         -3   -1    0    0    0  501 -0.00000000000E+00 -0.00000000000E+00 -0.85782930367E+02  0.85782930367E+02  0.00000000000E+00 0.  1.
         23    2    1    2    0    0  0.17644786189E+02  0.67140833211E+02  0.62597794446E+02  0.12949540022E+03  0.89617770805E+02 0.  0.
         23    2    1    2    0    0  0.10230010378E+02 -0.53836581915E+02  0.82622862836E+02  0.13519876162E+03  0.91919187422E+02 0.  0.
        -11    1    3    3    0    0 -0.27837651140E+02  0.39358234266E+02  0.58839658446E+02  0.76066489544E+02  0.00000000000E+00 0.  1.
         11    1    3    3    0    0  0.45482437329E+02  0.27782598946E+02  0.37581360006E+01  0.53428910674E+02  0.00000000000E+00 0. -1.
        -11    1    4    4    0    0 -0.11563007989E+02 -0.23710764012E+02 -0.15271156943E+02  0.30481333930E+02  0.00000000000E+00 0.  1.
         11    1    4    4    0    0  0.21793018368E+02 -0.30125817904E+02  0.97894019779E+02  0.10471742769E+03  0.00000000000E+00 0. -1.
         -3    1    1    2    0  502 -0.27874796568E+02 -0.13304251296E+02 -0.16889293507E+02  0.35203062671E+02  0.00000000000E+00 0.  1.
<scales pt_clust_5="13000.00000" pt_clust_6="13000.00000" pt_clust_7="13000.00000" pt_clust_8="13000.00000" pt_clust_9="30.88703"></scales>
<clustering>
<clus scale="   30.887">  1  9  2 -1</clus>
<clus scale="   89.618">  5  6 -1 -1</clus>
<clus scale="   91.919">  7  8 -1 -1</clus>
<clus scale="  108.452">  2  5  1 -1</clus>
<clus scale="   30.887">  1  5  2 -1</clus>
</clustering>
</event>
<event>
 9    1  0.1504846E-005  0.1185572E+03  0.7546771E-02  0.1245571E+00
         -2   -1    0    0    0  501 -0.00000000000E+00  0.00000000000E+00  0.12127350840E+03  0.12127350840E+03  0.00000000000E+00 0.  1.
         21   -1    0    0  501  502  0.00000000000E+00 -0.00000000000E+00 -0.20118769179E+03  0.20118769179E+03  0.00000000000E+00 0.  1.
         23    2    1    2    0    0  0.70873308368E+02 -0.51662499072E+02  0.17727535473E+02  0.12697093341E+03  0.90085030765E+02 0.  0.
         23    2    1    2    0    0 -0.63946789376E+02  0.15913733462E+02 -0.25491082863E+02  0.11467154875E+03  0.90317938433E+02 0.  0.
        -11    1    4    4    0    0  0.19009085043E+02  0.20125144597E+02  0.33868105689E+00  0.27685401642E+02  0.00000000000E+00 0. -1.
         11    1    4    4    0    0 -0.82955874419E+02 -0.42114111348E+01 -0.25829763920E+02  0.86986147107E+02  0.00000000000E+00 0.  1.
        -13    1    3    3    0    0  0.51863624516E+02 -0.66019991489E+02 -0.16211156924E+02  0.85506002321E+02  0.00000000000E+00 0.  1.
         13    1    3    3    0    0  0.19009683852E+02  0.14357492417E+02  0.33938692398E+02  0.41464931090E+02  0.00000000000E+00 0. -1.
         -2    1    1    2    0  502 -0.69265189921E+01  0.35748765610E+02 -0.72150636007E+02  0.80818718031E+02  0.00000000000E+00 0.  1.
<scales pt_clust_5="13000.00000" pt_clust_6="13000.00000" pt_clust_7="13000.00000" pt_clust_8="13000.00000" pt_clust_9="36.41361"></scales>
<clustering>
<clus scale="   36.414">  2  9  1 -1</clus>
<clus scale="   90.085">  7  8 -1 -1</clus>
<clus scale="   90.318">  5  6 -1 -1</clus>
<clus scale="  118.380">  1  7  2 -1</clus>
<clus scale="   36.414">  2  5  1 -1</clus>
</clustering>
</event>
<event>
 9    1  0.1504846E-005  0.1614815E+03  0.7546771E-02  0.1187235E+00
         21   -1    0    0  501  502  0.00000000000E+00  0.00000000000E+00  0.47033936340E+03  0.47033936340E+03  0.00000000000E+00 0. -1.
          1   -1    0    0  502    0 -0.00000000000E+00 -0.00000000000E+00 -0.17508799443E+03  0.17508799443E+03  0.00000000000E+00 0. -1.
         23    2    1    2    0    0 -0.11827923150E+03  0.64673089887E+02 -0.11352978270E+03  0.19854966243E+03  0.91435068388E+02 0.  0.
         23    2    1    2    0    0  0.11487884671E+03 -0.35670524131E+02  0.35831706267E+03  0.38857387291E+03  0.90160976014E+02 0.  0.
        -11    1    4    4    0    0  0.63712866767E+02  0.26811323625E+02  0.15043712772E+03  0.16555816459E+03  0.00000000000E+00 0. -1.
         11    1    4    4    0    0  0.51165979941E+02 -0.62481847757E+02  0.20787993495E+03  0.22301570832E+03  0.00000000000E+00 0.  1.
        -13    1    3    3    0    0 -0.19604015316E+02  0.55418457207E+02 -0.66785849321E+02  0.88971189074E+02  0.00000000000E+00 0.  1.
         13    1    3    3    0    0 -0.98675216186E+02  0.92546326803E+01 -0.46743933380E+02  0.10957847336E+03  0.00000000000E+00 0. -1.
          1    1    1    2  501    0  0.34003847952E+01 -0.29002565756E+02  0.50464089002E+02  0.58303822482E+02  0.00000000000E+00 0. -1.
<scales pt_clust_5="13000.00000" pt_clust_6="13000.00000" pt_clust_7="13000.00000" pt_clust_8="13000.00000" pt_clust_9="29.20122"></scales>
<clustering>
<clus scale="   29.201">  1  9  2 -1</clus>
<clus scale="   90.161">  5  6 -1 -1</clus>
<clus scale="   91.435">  7  8 -1 -1</clus>
<clus scale="  160.763">  1  5  2 -1</clus>
<clus scale="   29.201">  1  5  2 -1</clus>
</clustering>
</event>
<event>
 9    1  0.1504846E-005  0.1200429E+03  0.7546771E-02  0.1244914E+00
         21   -1    0    0  501  502  0.00000000000E+00  0.00000000000E+00  0.76390501567E+02  0.76390501567E+02  0.00000000000E+00 0. -1.
         -3   -1    0    0    0  501 -0.00000000000E+00 -0.00000000000E+00 -0.25676347796E+03  0.25676347796E+03  0.00000000000E+00 0.  1.
         23    2    1    2    0    0 -0.82099737042E+02  0.16148024022E+02 -0.14268240825E+03  0.18828679445E+03  0.89958445058E+02 0.  0.
         23    2    1    2    0    0  0.73979578709E+02  0.33255583493E+01 -0.47553942291E+02  0.12157676792E+03  0.83877861590E+02 0.  0.
        -11    1    4    4    0    0 -0.14034052759E+02  0.17798519772E+02 -0.85267737272E+01  0.24216684602E+02  0.00000000000E+00 0.  1.
         11    1    4    4    0    0  0.88013631469E+02 -0.14472961422E+02 -0.39027168564E+02  0.97360083313E+02  0.00000000000E+00 0. -1.
        -11    1    3    3    0    0 -0.18715818130E+02  0.48246100689E+02 -0.63025766806E+02  0.81548852607E+02  0.00000000000E+00 0.  1.
         11    1    3    3    0    0 -0.63383918912E+02 -0.32098076667E+02 -0.79656641448E+02  0.10673794184E+03  0.00000000000E+00 0. -1.
         -3    1    1    2    0  502  0.81201583327E+01 -0.19473582371E+02  0.98633741543E+01  0.23290417159E+02  0.00000000000E+00 0.  1.
<scales pt_clust_5="13000.00000" pt_clust_6="13000.00000" pt_clust_7="13000.00000" pt_clust_8="13000.00000" pt_clust_9="21.09875"></scales>
<clustering>
<clus scale="   21.099">  1  9  2 -1</clus>
<clus scale="   83.878">  5  6 -1 -1</clus>
<clus scale="   89.958">  7  8 -1 -1</clus>
<clus scale="  115.556">  1  5  2 -1</clus>
<clus scale="   21.099">  1  5  2 -1</clus>
</clustering>
</event>
<event>
 9    1  0.1504846E-005  0.1741405E+03  0.7546771E-02  0.1173879E+00
         -1   -1    0    0    0  501 -0.00000000000E+00  0.00000000000E+00  0.47001243128E+03  0.47001243128E+03  0.00000000000E+00 0.  1.
         21   -1    0    0  501  502  0.00000000000E+00 -0.00000000000E+00 -0.46409260083E+03  0.46409260083E+03  0.00000000000E+00 0.  1.
         23    2    1    2    0    0  0.12905144858E+03 -0.78562662773E+02  0.33240320160E+03  0.37589703914E+03  0.89332677314E+02 0.  0.
         23    2    1    2    0    0 -0.74945778604E+02  0.13469199852E+03  0.39900690457E+02  0.18362127878E+03  0.91465319784E+02 0.  0.
        -13    1    3    3    0    0  0.34535420506E+02 -0.71046325359E+02  0.17742199239E+03  0.19421338523E+03  0.00000000000E+00 0. -1.
         13    1    3    3    0    0  0.94516028077E+02 -0.75163374137E+01  0.15498120921E+03  0.18168365391E+03  0.00000000000E+00 0.  1.
        -13    1    4    4    0    0 -0.34145183830E+02  0.32363188668E+02 -0.27482301593E+02  0.54484368955E+02  0.00000000000E+00 0.  1.
         13    1    4    4    0    0 -0.40800594774E+02  0.10232880986E+03  0.67382992050E+02  0.12913690982E+03  0.00000000000E+00 0. -1.
         -1    1    1    2    0  502 -0.54105669979E+02 -0.56129335751E+02 -0.36638406161E+03  0.37458671420E+03  0.00000000000E+00 0.  1.
<scales pt_clust_5="13000.00000" pt_clust_6="13000.00000" pt_clust_7="13000.00000" pt_clust_8="13000.00000" pt_clust_9="77.96105"></scales>
<clustering>
<clus scale="   77.961">  2  9  1 -1</clus>
<clus scale="   89.333">  5  6 -1 -1</clus>
<clus scale="   91.465">  7  8 -1 -1</clus>
<clus scale="  173.030">  1  5  2 -1</clus>
<clus scale="   77.961">  2  5  1 -1</clus>
</clustering>
</event>
<event>
 9    1  0.1504846E-005  0.1228792E+03  0.7546771E-02  0.1239414E+00
          1   -1    0    0  502    0 -0.00000000000E+00  0.00000000000E+00  0.70001151730E+03  0.70001151730E+03  0.00000000000E+00 0. -1.
         21   -1    0    0  501  502  0.00000000000E+00 -0.00000000000E+00 -0.15600043572E+03  0.15600043572E+03  0.00000000000E+00 0. -1.
         23    2    1    2    0    0 -0.26113785513E+02 -0.72691222280E+02  0.51935279652E+03  0.53270821662E+03  0.89915366954E+02 0.  0.
         23    2    1    2    0    0  0.55742336063E+02  0.75690526757E+02  0.14675631222E+03  0.19762647088E+03  0.93180163894E+02 0.  0.
        -11    1    3    3    0    0  0.23379662616E+02 -0.55653211917E+02  0.35867867893E+03  0.36372281114E+03  0.00000000000E+00 0.  1.
         11    1    3    3    0    0 -0.49493448129E+02 -0.17038010363E+02  0.16067411758E+03  0.16898540548E+03  0.00000000000E+00 0. -1.
        -13    1    4    4    0    0  0.76380321887E+02  0.43536373775E+02  0.71863322440E+02  0.11355045806E+03  0.00000000000E+00 0.  1.
         13    1    4    4    0    0 -0.20637985824E+02  0.32154152982E+02  0.74892989782E+02  0.84076012818E+02  0.00000000000E+00 0. -1.
          1    1    1    2  501    0 -0.29628550550E+02 -0.29993044771E+01 -0.12209802716E+03  0.12567726553E+03  0.00000000000E+00 0. -1.
<scales pt_clust_5="13000.00000" pt_clust_6="13000.00000" pt_clust_7="13000.00000" pt_clust_8="13000.00000" pt_clust_9="29.77997"></scales>
<clustering>
<clus scale="   29.780">  2  9  1 -1</clus>
<clus scale="   89.915">  5  6 -1 -1</clus>
<clus scale="   93.180">  7  8 -1 -1</clus>
<clus scale="  120.422">  1  5  2 -1</clus>
<clus scale="   29.780">  2  5  1 -1</clus>
</clustering>
</event>
<event>
 9    1  0.1504846E-005  0.1227484E+03  0.7546771E-02  0.1239138E+00
         -1   -1    0    0    0  501 -0.00000000000E+00  0.00000000000E+00  0.18331661724E+03  0.18331661724E+03  0.00000000000E+00 0.  1.
         21   -1    0    0  501  502  0.00000000000E+00 -0.00000000000E+00 -0.31545060736E+03  0.31545060736E+03  0.00000000000E+00 0.  1.
         23    2    1    2    0    0 -0.99817443981E+01 -0.82460809231E+02  0.13951895290E+03  0.18662680544E+03  0.92003293477E+02 0.  0.
         23    2    1    2    0    0  0.25018076749E+02  0.65448100646E+02 -0.15109049768E+03  0.18945860808E+03  0.90315378780E+02 0.  0.
        -11    1    4    4    0    0  0.20409066099E+02  0.26847897128E+02 -0.14647959823E+03  0.15031171696E+03  0.00000000000E+00 0.  1.
         11    1    4    4    0    0  0.46090106505E+01  0.38600203517E+02 -0.46108994578E+01  0.39146891123E+02  0.00000000000E+00 0. -1.
        -13    1    3    3    0    0  0.32649591627E+02 -0.60506205671E+02  0.11177306225E+03  0.13122581378E+03  0.00000000000E+00 0.  1.
         13    1    3    3    0    0 -0.42631336025E+02 -0.21954603560E+02  0.27745890647E+02  0.55400991657E+02  0.00000000000E+00 0. -1.
         -1    1    1    2    0  502 -0.15036332351E+02  0.17012708585E+02 -0.12056244533E+03  0.12268181107E+03  0.00000000000E+00 0.  1.
<scales pt_clust_5="13000.00000" pt_clust_6="13000.00000" pt_clust_7="13000.00000" pt_clust_8="13000.00000" pt_clust_9="22.70514"></scales>
<clustering>
<clus scale="   22.705">  2  9  1 -1</clus>
<clus scale="   90.315">  5  6 -1 -1</clus>
<clus scale="   92.003">  7  8 -1 -1</clus>
<clus scale="  121.488">  2  5  1 -1</clus>
<clus scale="   22.705">  2  5  1 -1</clus>
</clustering>
</event>
<event>
 9    1  0.1504846E-005  0.1070395E+03  0.7546771E-02  0.1268619E+00
          3   -1    0    0  502    0 -0.00000000000E+00  0.00000000000E+00  0.78864749212E+02  0.78864749212E+02  0.00000000000E+00 0. -1.
         21   -1    0    0  501  502  0.00000000000E+00 -0.00000000000E+00 -0.35211423235E+03  0.35211423235E+03  0.00000000000E+00 0. -1.
         23    2    1    2    0    0 -0.26385977030E+02 -0.26609483581E+02  0.71042875150E+01  0.10399310487E+03  0.96746113925E+02 0.  0.
         23    2    1    2    0    0  0.50807902975E+02  0.54295711618E+02 -0.14521927135E+03  0.18689915144E+03  0.91176689631E+02 0.  0.
        -11    1    3    3    0    0 -0.36354617766E+02 -0.50457476939E+02 -0.21160610908E+02  0.65691602705E+02  0.00000000000E+00 0. -1.
         11    1    3    3    0    0  0.99686407360E+01  0.23847993358E+02  0.28264898423E+02  0.38301502166E+02  0.00000000000E+00 0.  1.
        -13    1    4    4    0    0 -0.22616978960E+02  0.19889518518E+02 -0.70383914724E+02  0.76557273567E+02  0.00000000000E+00 0.  1.
         13    1    4    4    0    0  0.73424881935E+02  0.34406193100E+02 -0.74835356624E+02  0.11034187787E+03  0.00000000000E+00 0. -1.
          3    1    1    2  501    0 -0.24421925945E+02 -0.27686228037E+02 -0.13513449931E+03  0.14008672526E+03  0.00000000000E+00 0. -1.
<scales pt_clust_5="13000.00000" pt_clust_6="13000.00000" pt_clust_7="13000.00000" pt_clust_8="13000.00000" pt_clust_9="36.91826"></scales>
<clustering>
<clus scale="   36.918">  2  9  1 -1</clus>
<clus scale="   91.177">  7  8 -1 -1</clus>
<clus scale="   96.746">  5  6 -1 -1</clus>
<clus scale="  102.033">  2  7  1 -1</clus>
<clus scale="   36.918">  2  5  1 -1</clus>
</clustering>
</event>
<event>
 9    1  0.1504846E-005  0.1000523E+03  0.7546771E-02  0.1281612E+00
         21   -1    0    0  501  502  0.00000000000E+00  0.00000000000E+00  0.13754423690E+03  0.13754423690E+03  0.00000000000E+00 0. -1.
         -1   -1    0    0    0  501 -0.00000000000E+00 -0.00000000000E+00 -0.11412139925E+03  0.11412139925E+03  0.00000000000E+00 0.  1.
         23    2    1    2    0    0 -0.17966501542E+02 -0.14120016466E+02 -0.18717303992E+02  0.99280101990E+02  0.94784129155E+02 0.  0.
         23    2    1    2    0    0  0.22727502194E+02  0.48584440059E+02  0.48557396768E+02  0.11700694198E+03  0.91955513809E+02 0.  0.
        -13    1    3    3    0    0 -0.51773674949E+02  0.13863137761E+02 -0.11190064212E+02  0.54753242309E+02  0.00000000000E+00 0. -1.
         13    1    3    3    0    0  0.33807173407E+02 -0.27983154227E+02 -0.75272397804E+01  0.44526859680E+02  0.00000000000E+00 0.  1.
        -13    1    4    4    0    0  0.41878436640E+02 -0.46053225950E+01 -0.53441000875E+00  0.42134285868E+02  0.00000000000E+00 0.  1.
         13    1    4    4    0    0 -0.19150934446E+02  0.53189762654E+02  0.49091806777E+02  0.74872656116E+02  0.00000000000E+00 0. -1.
         -1    1    1    2    0  502 -0.47610006525E+01 -0.34464423593E+02 -0.64172551208E+01  0.35378592172E+02  0.00000000000E+00 0.  1.
<scales pt_clust_5="13000.00000" pt_clust_6="13000.00000" pt_clust_7="13000.00000" pt_clust_8="13000.00000" pt_clust_9="34.79174"></scales>
<clustering>
<clus scale="   34.792">  1  9  2 -1</clus>
<clus scale="   91.956">  7  8 -1 -1</clus>
<clus scale="   94.784">  5  6 -1 -1</clus>
<clus scale="   97.377">  1  7  2 -1</clus>
<clus scale="   34.792">  1  5  2 -1</clus>
</clustering>
</event>
<event>
 9    1  0.1504846E-005  0.9451514E+02  0.7546771E-02  0.1292302E+00
         -2   -1    0    0    0  501 -0.00000000000E+00  0.00000000000E+00  0.33172293079E+03  0.33172293079E+03  0.00000000000E+00 0.  1.
         21   -1    0    0  501  502  0.00000000000E+00 -0.00000000000E+00 -0.86398731777E+02  0.86398731777E+02  0.00000000000E+00 0.  1.
         23    2    1    2    0    0  0.67414788704E+01  0.26771940892E+02  0.16174041588E+03  0.18766189014E+03  0.91076004116E+02 0.  0.
         23    2    1    2    0    0 -0.25362407180E+02 -0.11723907272E+02  0.13988854890E+03  0.16927636836E+03  0.91131668877E+02 0.  0.
        -13    1    3    3    0    0 -0.32264685149E+02 -0.82586182705E+01  0.26327289871E+02  0.42453985389E+02  0.00000000000E+00 0. -1.
         13    1    3    3    0    0  0.39006164019E+02  0.35030559163E+02  0.13541312600E+03  0.14520790475E+03  0.00000000000E+00 0.  1.
        -13    1    4    4    0    0 -0.59922420825E+02 -0.90082957228E+01  0.91764726181E+02  0.10996640796E+03  0.00000000000E+00 0.  1.
         13    1    4    4    0    0  0.34560013645E+02 -0.27156115489E+01  0.48123822716E+02  0.59309960394E+02  0.00000000000E+00 0. -1.
         -2    1    1    2    0  502  0.18620928310E+02 -0.15048033621E+02 -0.56304765757E+02  0.61183404073E+02  0.00000000000E+00 0.  1.
<scales pt_clust_5="13000.00000" pt_clust_6="13000.00000" pt_clust_7="13000.00000" pt_clust_8="13000.00000" pt_clust_9="23.94123"></scales>
<clustering>
<clus scale="   23.941">  2  9  1 -1</clus>
<clus scale="   91.076">  5  6 -1 -1</clus>
<clus scale="   91.132">  7  8 -1 -1</clus>
<clus scale="   94.461">  1  5  2 -1</clus>
<clus scale="   23.941">  2  5  1 -1</clus>
</clustering>
</event>
<event>
 9    1  0.1504846E-005  0.1007287E+03  0.7546771E-02  0.1281054E+00
          3   -1    0    0  502    0 -0.00000000000E+00  0.00000000000E+00  0.55708287145E+03  0.55708287145E+03  0.00000000000E+00 0. -1.
         21   -1    0    0  501  502  0.00000000000E+00 -0.00000000000E+00 -0.31918638915E+02  0.31918638915E+02  0.00000000000E+00 0. -1.
         23    2    1    2    0    0  0.14404515176E+02  0.41436813992E+02  0.32029975022E+03  0.33495730390E+03  0.87635414269E+02 0.  0.
         23    2    1    2    0    0  0.56386574497E+01 -0.37162063239E+02  0.21039592234E+03  0.23281688700E+03  0.92327922819E+02 0.  0.
        -13    1    4    4    0    0 -0.30484116697E+02 -0.13270594475E+02  0.22867311635E+02  0.40352248883E+02  0.00000000000E+00 0.  1.
         13    1    4    4    0    0  0.36122774146E+02 -0.23891468764E+02  0.18752861071E+03  0.19246463812E+03  0.00000000000E+00 0. -1.
        -13    1    3    3    0    0 -0.30776297182E+02  0.70840953656E+01  0.52979913132E+02  0.61678489531E+02  0.00000000000E+00 0. -1.
         13    1    3    3    0    0  0.45180812358E+02  0.34352718627E+02  0.26731983709E+03  0.27327881437E+03  0.00000000000E+00 0.  1.
          3    1    1    2  501    0 -0.20043172625E+02 -0.42747507538E+01 -0.55314400274E+01  0.21227319465E+02  0.00000000000E+00 0. -1.
<scales pt_clust_5="13000.00000" pt_clust_6="13000.00000" pt_clust_7="13000.00000" pt_clust_8="13000.00000" pt_clust_9="20.49396"></scales>
<clustering>
<clus scale="   20.494">  2  9  1 -1</clus>
<clus scale="   87.635">  7  8 -1 -1</clus>
<clus scale="   92.328">  5  6 -1 -1</clus>
<clus scale="   96.446">  1  7  2 -1</clus>
<clus scale="   20.494">  2  5  1 -1</clus>
</clustering>
</event>
<event>
 9    1  0.1504846E-005  0.1585252E+03  0.7546771E-02  0.1198123E+00
          2   -1    0    0  502    0 -0.00000000000E+00  0.00000000000E+00  0.17839318122E+03  0.17839318122E+03  0.00000000000E+00 0. -1.
         21   -1    0    0  501  502  0.00000000000E+00 -0.00000000000E+00 -0.19130319583E+03  0.19130319583E+03  0.00000000000E+00 0. -1.
         23    2    1    2    0    0  0.76504520447E+02 -0.12256187233E+02  0.15301622127E+02  0.14816164491E+03  0.12535779836E+03 0.  0.
         23    2    1    2    0    0 -0.11301757200E+03  0.17510730867E+02  0.32629101764E+02  0.15038412691E+03  0.92038742203E+02 0.  0.
        -11    1    3    3    0    0 -0.17960730520E+02 -0.20060269066E+02  0.41816848065E+02  0.49735812227E+02  0.00000000000E+00 0.  1.
         11    1    3    3    0    0  0.94465250967E+02  0.78040818330E+01 -0.26515225938E+02  0.98425832687E+02  0.00000000000E+00 0. -1.
        -11    1    4    4    0    0 -0.19273374814E+02  0.44052875273E+02  0.15188399691E+01  0.48108478165E+02  0.00000000000E+00 0.  1.
         11    1    4    4    0    0 -0.93744197190E+02 -0.26542144406E+02  0.31110261795E+02  0.10227564874E+03  0.00000000000E+00 0. -1.
          2    1    1    2  501    0  0.36513051557E+02 -0.52545436343E+01 -0.60840738505E+02  0.71150605231E+02  0.00000000000E+00 0. -1.
<scales pt_clust_5="13000.00000" pt_clust_6="13000.00000" pt_clust_7="13000.00000" pt_clust_8="13000.00000" pt_clust_9="36.88920"></scales>
<clustering>
<clus scale="   36.889">  2  9  1 -1</clus>
<clus scale="   92.039">  7  8 -1 -1</clus>
<clus scale="  125.358">  5  6 -1 -1</clus>
<clus scale="  133.742">  2  7  1 -1</clus>
<clus scale="   36.889">  2  5  1 -1</clus>
</clustering>
</event>
<event>
 9    1  0.1504846E-005  0.1006270E+03  0.7546771E-02  0.1282389E+00
          1   -1    0    0  502    0 -0.00000000000E+00  0.00000000000E+00  0.17440185427E+03  0.17440185427E+03  0.00000000000E+00 0. -1.
         21   -1    0    0  501  502  0.00000000000E+00 -0.00000000000E+00 -0.10475416923E+03  0.10475416923E+03  0.00000000000E+00 0. -1.
         23    2    1    2    0    0 -0.33827413468E+02 -0.17904823291E+02  0.82692786831E+02  0.12904528390E+03  0.91376756919E+02 0.  0.
         23    2    1    2    0    0  0.56230647155E+02  0.96735700602E+01 -0.44055587500E+02  0.11097880081E+03  0.84379712033E+02 0.  0.
        -11    1    4    4    0    0  0.13916358158E+02  0.16186153355E+02 -0.61234352414E+02  0.64848303759E+02  0.00000000000E+00 0. -1.
         11    1    4    4    0    0  0.42314288997E+02 -0.65125832948E+01  0.17178764914E+02  0.46130497055E+02  0.00000000000E+00 0.  1.
        -13    1    3    3    0    0 -0.52011919356E+01 -0.48602688397E+02  0.18327489075E+02  0.52203166309E+02  0.00000000000E+00 0.  1.
         13    1    3    3    0    0 -0.28626221533E+02  0.30697865105E+02  0.64365297756E+02  0.76842117595E+02  0.00000000000E+00 0. -1.
          1    1    1    2  501    0 -0.22403233687E+02  0.82312532312E+01  0.31010485702E+02  0.39131938783E+02  0.00000000000E+00 0. -1.
<scales pt_clust_5="13000.00000" pt_clust_6="13000.00000" pt_clust_7="13000.00000" pt_clust_8="13000.00000" pt_clust_9="23.86753"></scales>
<clustering>
<clus scale="   23.868">  2  9  1 -1</clus>
<clus scale="   84.380">  5  6 -1 -1</clus>
<clus scale="   91.377">  7  8 -1 -1</clus>
<clus scale="   94.319">  2  5  1 -1</clus>
<clus scale="   23.868">  2  5  1 -1</clus>
</clustering>
</event>
<event>
 9    1  0.1504846E-005  0.1601999E+03  0.7546771E-02  0.1188591E+00
         21   -1    0    0  501  502  0.00000000000E+00  0.00000000000E+00  0.38777148289E+03  0.38777148289E+03  0.00000000000E+00 0.  1.
         -2   -1    0    0    0  501 -0.00000000000E+00 -0.00000000000E+00 -0.95593202254E+02  0.95593202254E+02  0.00000000000E+00 0.  1.
         23    2    1    2    0    0  0.12116279485E+03  0.44221604684E+02  0.42334290406E+02  0.16324867055E+03  0.90675041308E+02 0.  0.
         23    2    1    2    0    0 -0.11917840669E+03 -0.76515239925E+02  0.21082147247E+03  0.26942505321E+03  0.89922697250E+02 0.  0.
        -11    1    3    3    0    0  0.64346319197E+02 -0.22812717410E+02  0.29780476088E+02  0.74483190223E+02  0.00000000000E+00 0.  1.
         11    1    3    3    0    0  0.56816475656E+02  0.67034322093E+02  0.12553814318E+02  0.88765480331E+02  0.00000000000E+00 0. -1.
        -13    1    4    4    0    0 -0.50465611097E+02 -0.69955945498E+02  0.64721234237E+02  0.10783992941E+03  0.00000000000E+00 0.  1.
         13    1    4    4    0    0 -0.68712795588E+02 -0.65592944264E+01  0.14610023824E+03  0.16158512380E+03  0.00000000000E+00 0. -1.
         -2    1    1    2    0  502 -0.19843881668E+01  0.32293635241E+02  0.39022517762E+02  0.50690961383E+02  0.00000000000E+00 0.  1.
<scales pt_clust_5="13000.00000" pt_clust_6="13000.00000" pt_clust_7="13000.00000" pt_clust_8="13000.00000" pt_clust_9="32.35455"></scales>
<clustering>
<clus scale="   32.355">  1  9  2 -1</clus>
<clus scale="   89.923">  7  8 -1 -1</clus>
<clus scale="   90.675">  5  6 -1 -1</clus>
<clus scale="  159.775">  1  7  2 -1</clus>
<clus scale="   32.355">  1  5  2 -1</clus>
</clustering>
</event>
<event>
 9    1  0.1504846E-005  0.1847225E+03  0.7546771E-02  0.1164569E+00
          1   -1    0    0  502    0 -0.00000000000E+00  0.00000000000E+00  0.45910826578E+03  0.45910826578E+03  0.00000000000E+00 0. -1.
         21   -1    0    0  501  502  0.00000000000E+00 -0.00000000000E+00 -0.28236978544E+03  0.28236978544E+03  0.00000000000E+00 0.  1.
         23    2    1    2    0    0 -0.15549641290E+03 -0.26725088343E+02  0.37914928075E+03  0.42089066892E+03  0.92203109058E+02 0.  0.
         23    2    1    2    0    0  0.11916274473E+03  0.64328241374E+02 -0.80123535320E+02  0.18758998472E+03  0.10213882261E+03 0.  0.
        -11    1    4    4    0    0  0.99449077084E+02  0.36687737265E+02 -0.10207769567E+03  0.14715965803E+03  0.00000000000E+00 0.  1.
         11    1    4    4    0    0  0.19713667650E+02  0.27640504109E+02  0.21954160349E+02  0.40430326690E+02  0.00000000000E+00 0. -1.
        -13    1    3    3    0    0 -0.83594597244E+02  0.14023358377E+02  0.10720902244E+03  0.13666925683E+03  0.00000000000E+00 0.  1.
         13    1    3    3    0    0 -0.71901815661E+02 -0.40748446720E+02  0.27194025831E+03  0.28422141210E+03  0.00000000000E+00 0. -1.
          1    1    1    2  501    0  0.36333668171E+02 -0.37603153031E+02 -0.12228726509E+03  0.13299739758E+03  0.00000000000E+00 0. -1.
<scales pt_clust_5="13000.00000" pt_clust_6="13000.00000" pt_clust_7="13000.00000" pt_clust_8="13000.00000" pt_clust_9="52.28893"></scales>
<clustering>
<clus scale="   52.289">  2  9  1 -1</clus>
<clus scale="   92.203">  7  8 -1 -1</clus>
<clus scale="  102.139">  5  6 -1 -1</clus>
<clus scale="  179.420">  1  7  2 -1</clus>
<clus scale="   52.289">  2  5  1 -1</clus>
</clustering>
</event>
<event>
 9    1  0.1504846E-005  0.1012209E+03  0.7546771E-02  0.1278492E+00
         21   -1    0    0  501  502  0.00000000000E+00  0.00000000000E+00  0.39426820806E+02  0.39426820806E+02  0.00000000000E+00 0. -1.
          1   -1    0    0  502    0 -0.00000000000E+00 -0.00000000000E+00 -0.48270652956E+03  0.48270652956E+03  0.00000000000E+00 0. -1.
         23    2    1    2    0    0  0.52193261916E+02 -0.14431148123E+02 -0.24113203477E+03  0.26282099949E+03  0.89430559400E+02 0.  0.
         23    2    1    2    0    0 -0.36017572820E+02 -0.13623179575E+02 -0.20420553637E+03  0.22686342149E+03  0.91017879298E+02 0.  0.
        -11    1    4    4    0    0 -0.13515246536E+02 -0.43979072559E+02 -0.16923552639E+03  0.17537811752E+03  0.00000000000E+00 0. -1.
         11    1    4    4    0    0 -0.22502326283E+02  0.30355892984E+02 -0.34970009984E+02  0.51485303974E+02  0.00000000000E+00 0.  1.
        -13    1    3    3    0    0  0.68620433425E+01 -0.35372131253E+02 -0.18150468102E+03  0.18504654695E+03  0.00000000000E+00 0.  1.
         13    1    3    3    0    0  0.45331218573E+02  0.20940983130E+02 -0.59627353756E+02  0.77774452539E+02  0.00000000000E+00 0. -1.
          1    1    1    2  501    0 -0.16175689096E+02  0.28054327698E+02  0.20578623933E+01  0.32448929381E+02  0.00000000000E+00 0. -1.
<scales pt_clust_5="13000.00000" pt_clust_6="13000.00000" pt_clust_7="13000.00000" pt_clust_8="13000.00000" pt_clust_9="32.38361"></scales>
<clustering>
<clus scale="   32.384">  1  9  2 -1</clus>
<clus scale="   89.431">  7  8 -1 -1</clus>
<clus scale="   91.018">  5  6 -1 -1</clus>
<clus scale="   99.796">  2  7  1 -1</clus>
<clus scale="   32.384">  1  5  2 -1</clus>
</clustering>
</event>
<event>
 9    1  0.1504846E-005  0.1274459E+03  0.7546771E-02  0.1231317E+00
         21   -1    0    0  501  502  0.00000000000E+00  0.00000000000E+00  0.48980896311E+02  0.48980896311E+02  0.00000000000E+00 0.  1.
          2   -1    0    0  502    0 -0.00000000000E+00 -0.00000000000E+00 -0.39316341476E+03  0.39316341476E+03  0.00000000000E+00 0. -1.
         23    2    1    2    0    0  0.54242282389E+02  0.58538219826E+02 -0.14963398717E+03  0.19287662096E+03  0.91880968742E+02 0.  0.
         23    2    1    2    0    0 -0.74950007231E+02 -0.62502834726E+02 -0.17592690327E+03  0.22113775820E+03  0.91801551601E+02 0.  0.
        -11    1    4    4    0    0 -0.23572626463E+02 -0.49397638483E+02 -0.15457190805E+03  0.16397643173E+03  0.00000000000E+00 0.  1.
         11    1    4    4    0    0 -0.51377380768E+02 -0.13105196244E+02 -0.21354995223E+02  0.57161326473E+02  0.00000000000E+00 0. -1.
        -11    1    3    3    0    0  0.34063979217E+02  0.50944224233E+02 -0.24663911713E+02  0.66060405719E+02  0.00000000000E+00 0.  1.
         11    1    3    3    0    0  0.20178303172E+02  0.75939955929E+01 -0.12497007546E+03  0.12681621524E+03  0.00000000000E+00 0. -1.
          2    1    1    2  501    0  0.20707724842E+02  0.39646149000E+01 -0.18621628005E+02  0.28129931905E+02  0.00000000000E+00 0. -1.
<scales pt_clust_5="13000.00000" pt_clust_6="13000.00000" pt_clust_7="13000.00000" pt_clust_8="13000.00000" pt_clust_9="21.08383"></scales>
<clustering>
<clus scale="   21.084">  1  9  2 -1</clus>
<clus scale="   91.802">  5  6 -1 -1</clus>
<clus scale="   91.881">  7  8 -1 -1</clus>
<clus scale="  127.389">  1  5  2 -1</clus>
<clus scale="   21.084">  1  5  2 -1</clus>
</clustering>
</event>
<event>
 9    1  0.1504846E-005  0.1143531E+03  0.7546771E-02  0.1253083E+00
          2   -1    0    0  502    0 -0.00000000000E+00  0.00000000000E+00  0.30527815928E+03  0.30527815928E+03  0.00000000000E+00 0. -1.
         21   -1    0    0  501  502  0.00000000000E+00 -0.00000000000E+00 -0.89156316339E+02  0.89156316339E+02  0.00000000000E+00 0. -1.
         23    2    1    2    0    0 -0.56759962777E+02  0.41547741854E+02  0.19811739425E+03  0.22983640625E+03  0.92878218678E+02 0.  0.
         23    2    1    2    0    0  0.14583772430E+02 -0.66291510050E+02  0.66706276574E+01  0.11440304376E+03  0.91849379015E+02 0.  0.
        -13    1    4    4    0    0  0.25365795923E+02 -0.10018208557E+02  0.39777505551E+02  0.48229016715E+02  0.00000000000E+00 0.  1.
         13    1    4    4    0    0 -0.10782023493E+02 -0.56273301494E+02 -0.33106877893E+02  0.66174027046E+02  0.00000000000E+00 0. -1.
        -13    1    3    3    0    0  0.22202757115E+02  0.28981551677E+02  0.65046011147E+02  0.74591395799E+02  0.00000000000E+00 0.  1.
         13    1    3    3    0    0 -0.78962719891E+02  0.12566190177E+02  0.13307138310E+03  0.15524501045E+03  0.00000000000E+00 0. -1.
          2    1    1    2  501    0  0.42176190347E+02  0.24743768196E+02  0.11333821033E+02  0.50195025609E+02  0.00000000000E+00 0. -1.
<scales pt_clust_5="13000.00000" pt_clust_6="13000.00000" pt_clust_7="13000.00000" pt_clust_8="13000.00000" pt_clust_9="48.89872"></scales>
<clustering>
<clus scale="   48.899">  2  9  1 -1</clus>
<clus scale="   91.849">  5  6 -1 -1</clus>
<clus scale="   92.878">  7  8 -1 -1</clus>
<clus scale="  113.519">  2  5  1 -1</clus>
<clus scale="   48.899">  2  5  1 -1</clus>
</clustering>
</event>
<event>
 9    1  0.1504846E-005  0.9394992E+02  0.7546771E-02  0.1295311E+00
         -4   -1    0    0    0  501 -0.00000000000E+00  0.00000000000E+00  0.26842675869E+03  0.26842675869E+03  0.00000000000E+00 0.  1.
         21   -1    0    0  501  502  0.00000000000E+00 -0.00000000000E+00 -0.16324232239E+03  0.16324232239E+03  0.00000000000E+00 0.  1.
         23    2    1    2    0    0  0.67873471494E+01  0.11692440377E+02  0.17210223374E+03  0.19365294459E+03  0.87746811039E+02 0.  0.
         23    2    1    2    0    0 -0.25916318877E+02 -0.52461778630E+02  0.45234763841E+02  0.11715980234E+03  0.90864413406E+02 0.  0.
        -11    1    4    4    0    0 -0.31723060858E+02 -0.15150555983E+02  0.65475679641E+02  0.74316596809E+02  0.00000000000E+00 0.  1.
         11    1    4    4    0    0  0.58067419812E+01 -0.37311222646E+02 -0.20240915800E+02  0.42843205532E+02  0.00000000000E+00 0. -1.
        -11    1    3    3    0    0  0.31168841555E+02 -0.19371595738E+02  0.34042074700E+02  0.50056151022E+02  0.00000000000E+00 0. -1.
         11    1    3    3    0    0 -0.24381494406E+02  0.31064036116E+02  0.13806015904E+03  0.14359679357E+03  0.00000000000E+00 0.  1.
         -4    1    1    2    0  502  0.19128971728E+02  0.40769338253E+02 -0.11215256128E+03  0.12085633414E+03  0.00000000000E+00 0.  1.
<scales pt_clust_5="13000.00000" pt_clust_6="13000.00000" pt_clust_7="13000.00000" pt_clust_8="13000.00000" pt_clust_9="45.03395"></scales>
<clustering>
<clus scale="   45.034">  2  9  1 -1</clus>
<clus scale="   87.747">  7  8 -1 -1</clus>
<clus scale="   90.864">  5  6 -1 -1</clus>
<clus scale="   90.938">  1  7  2 -1</clus>
<clus scale="   45.034">  2  5  1 -1</clus>
</clustering>
</event>
<event>
 9    1  0.1504846E-005  0.1441178E+03  0.7546771E-02  0.1209173E+00
         -2   -1    0    0    0  501 -0.00000000000E+00  0.00000000000E+00  0.15996947545E+03  0.15996947545E+03  0.00000000000E+00 0.  1.
         21   -1    0    0  501  502  0.00000000000E+00 -0.00000000000E+00 -0.26945926890E+03  0.26945926890E+03  0.00000000000E+00 0. -1.
         23    2    1    2    0    0  0.86360101961E+02 -0.63376175667E+02  0.81503747960E+02  0.16187544414E+03  0.89923254124E+02 0.  0.
         23    2    1    2    0    0 -0.65830631512E+02  0.94102946475E+02 -0.16255695610E+03  0.22092462893E+03  0.95884780397E+02 0.  0.
        -11    1    4    4    0    0 -0.37235597316E+02  0.28925263408E+02 -0.42353459044E+01  0.47340244250E+02  0.00000000000E+00 0.  1.
         11    1    4    4    0    0 -0.28595034196E+02  0.65177683067E+02 -0.15832161020E+03  0.17358438468E+03  0.00000000000E+00 0. -1.
        -13    1    3    3    0    0  0.81251145811E+02 -0.15670338752E+02  0.22356313915E+02  0.85715301925E+02  0.00000000000E+00 0. -1.
         13    1    3    3    0    0  0.51089561501E+01 -0.47705836915E+02  0.59147434045E+02  0.76160142219E+02  0.00000000000E+00 0.  1.
         -2    1    1    2    0  502 -0.20529470449E+02 -0.30726770808E+02 -0.28436585305E+02  0.46628671277E+02  0.00000000000E+00 0.  1.
<scales pt_clust_5="13000.00000" pt_clust_6="13000.00000" pt_clust_7="13000.00000" pt_clust_8="13000.00000" pt_clust_9="36.95394"></scales>
<clustering>
<clus scale="   36.954">  2  9  1 -1</clus>
<clus scale="   89.923">  7  8 -1 -1</clus>
<clus scale="   95.885">  5  6 -1 -1</clus>
<clus scale="  140.222">  1  7  2 -1</clus>
<clus scale="   36.954">  2  5  1 -1</clus>
</clustering>
</event>
<event>
 9    1  0.1504846E-005  0.9943315E+02  0.7546771E-02  0.1281806E+00
         21   -1    0    0  501  502  0.00000000000E+00  0.00000000000E+00  0.34525504101E+02  0.34525504101E+02  0.00000000000E+00 0. -1.
         -1   -1    0    0    0  501 -0.00000000000E+00 -0.00000000000E+00 -0.48535591485E+03  0.48535591485E+03  0.00000000000E+00 0.  1.
         23    2    1    2    0    0  0.17194333139E+02 -0.31290511098E+02 -0.27755558116E+03  0.29435100754E+03  0.91272525052E+02 0.  0.
         23    2    1    2    0    0 -0.42768469622E+02  0.24521065147E+02 -0.88702920804E+02  0.13691737845E+03  0.91911564738E+02 0.  0.
        -13    1    3    3    0    0 -0.30664008660E+02 -0.31569450808E+02 -0.82444296396E+02  0.93455731016E+02  0.00000000000E+00 0. -1.
         13    1    3    3    0    0  0.47858341800E+02  0.27893970966E+00 -0.19511128477E+03  0.20089527653E+03  0.00000000000E+00 0.  1.
        -13    1    4    4    0    0 -0.27947696944E+02  0.49543477390E+02 -0.91458773713E+02  0.10770486157E+03  0.00000000000E+00 0.  1.
         13    1    4    4    0    0 -0.14820772678E+02 -0.25022412243E+02  0.27558529091E+01  0.29212516881E+02  0.00000000000E+00 0. -1.
         -1    1    1    2    0  502  0.25574136483E+02  0.67694459515E+01 -0.84571908783E+02  0.88613032961E+02  0.00000000000E+00 0.  1.
<scales pt_clust_5="13000.00000" pt_clust_6="13000.00000" pt_clust_7="13000.00000" pt_clust_8="13000.00000" pt_clust_9="26.45492"></scales>
<clustering>
<clus scale="   26.455">  1  9  2 -1</clus>
<clus scale="   91.273">  5  6 -1 -1</clus>
<clus scale="   91.912">  7  8 -1 -1</clus>
<clus scale="   98.843">  2  5  1 -1</clus>
<clus scale="   26.455">  1  5  2 -1</clus>
</clustering>
</event>
<event>
 9    1  0.1504846E-005  0.1120200E+03  0.7546771E-02  0.1257036E+00
         21   -1    0    0  501  502  0.00000000000E+00  0.00000000000E+00  0.17424165667E+03  0.17424165667E+03  0.00000000000E+00 0.  1.
          3   -1    0    0  502    0 -0.00000000000E+00 -0.00000000000E+00 -0.89891738906E+02  0.89891738906E+02  0.00000000000E+00 0. -1.
         23    2    1    2    0    0 -0.45035549444E+02 -0.27454861771E+02  0.21407572299E+02  0.10909390369E+03  0.93065705401E+02 0.  0.
         23    2    1    2    0    0  0.62994263258E+02  0.39989459964E+02  0.55897213607E+02  0.13203372225E+03  0.93493161302E+02 0.  0.
        -11    1    3    3    0    0 -0.42389872034E+02 -0.58029129509E+01  0.54605501201E+02  0.69371001226E+02  0.00000000000E+00 0.  1.
         11    1    3    3    0    0 -0.26456774102E+01 -0.21651948820E+02 -0.33197928902E+02  0.39722902462E+02  0.00000000000E+00 0. -1.
        -11    1    4    4    0    0  0.63128948163E+02  0.62064800825E+02  0.21401066134E+02  0.91078588204E+02  0.00000000000E+00 0.  1.
         11    1    4    4    0    0 -0.13468490514E+00 -0.22075340861E+02  0.34496147473E+02  0.40955134044E+02  0.00000000000E+00 0. -1.
          3    1    1    2  501    0 -0.17958713814E+02 -0.12534598193E+02  0.70451318570E+01  0.23005769637E+02  0.00000000000E+00 0. -1.
<scales pt_clust_5="13000.00000" pt_clust_6="13000.00000" pt_clust_7="13000.00000" pt_clust_8="13000.00000" pt_clust_9="21.90050"></scales>
<clustering>
<clus scale="   21.901">  1  9  2 -1</clus>
<clus scale="   93.066">  5  6 -1 -1</clus>
<clus scale="   93.493">  7  8 -1 -1</clus>
<clus scale="  111.664">  2  5  1 -1</clus>
<clus scale="   21.901">  1  5  2 -1</clus>
</clustering>
</event>
<event>
 9    1  0.1504846E-005  0.1014747E+03  0.7546771E-02  0.1278810E+00
          4   -1    0    0  502    0 -0.00000000000E+00  0.00000000000E+00  0.24275804755E+03  0.24275804755E+03  0.00000000000E+00 0. -1.
         21   -1    0    0  501  502  0.00000000000E+00 -0.00000000000E+00 -0.64299770152E+02  0.64299770152E+02  0.00000000000E+00 0.  1.
         23    2    1    2    0    0  0.31895452406E+02 -0.33423758095E+02  0.14295813945E+03  0.17613638600E+03  0.91937638366E+02 0.  0.
         23    2    1    2    0    0 -0.41047398774E+02  0.68918942147E+01  0.25736101792E+02  0.10120553822E+03  0.88587961255E+02 0.  0.
        -11    1    3    3    0    0 -0.26585675781E+01 -0.59222207465E+02  0.74183035289E+02  0.94960310464E+02  0.00000000000E+00 0.  1.
         11    1    3    3    0    0  0.34554019984E+02  0.25798449371E+02  0.68775104160E+02  0.81176075534E+02  0.00000000000E+00 0. -1.
        -13    1    4    4    0    0 -0.32980180265E+02  0.38478718092E+02  0.41020613578E+02  0.65199653179E+02  0.00000000000E+00 0.  1.
         13    1    4    4    0    0 -0.80672185087E+01 -0.31586823878E+02 -0.15284511787E+02  0.36005885042E+02  0.00000000000E+00 0. -1.
          4    1    1    2  501    0  0.91519463681E+01  0.26531863880E+02  0.97640361544E+01  0.29715893480E+02  0.00000000000E+00 0. -1.
<scales pt_clust_5="13000.00000" pt_clust_6="13000.00000" pt_clust_7="13000.00000" pt_clust_8="13000.00000" pt_clust_9="28.06596"></scales>
<clustering>
<clus scale="   28.066">  2  9  1 -1</clus>
<clus scale="   88.588">  7  8 -1 -1</clus>
<clus scale="   91.938">  5  6 -1 -1</clus>
<clus scale="   98.450">  2  7  1 -1</clus>
<clus scale="   28.066">  2  5  1 -1</clus>
</clustering>
</event>
<event>
 9    1  0.1504846E-005  0.9358890E+02  0.7546771E-02  0.1294901E+00
         21   -1    0    0  501  502  0.00000000000E+00  0.00000000000E+00  0.30159545421E+03  0.30159545421E+03  0.00000000000E+00 0.  1.
          1   -1    0    0  502    0 -0.00000000000E+00 -0.00000000000E+00 -0.12857138368E+03  0.12857138368E+03  0.00000000000E+00 0. -1.
         23    2    1    2    0    0  0.16269099004E+02 -0.14807964730E+01 -0.92931061387E+02  0.13223207473E+03  0.92640504520E+02 0.  0.
         23    2    1    2    0    0  0.11391400783E+02 -0.17407681403E+02  0.14841541872E+03  0.17571585291E+03  0.91739484758E+02 0.  0.
        -13    1    4    4    0    0  0.29732897042E+02 -0.40505483968E+02  0.13354467500E+03  0.14268468600E+03  0.00000000000E+00 0.  1.
         13    1    4    4    0    0 -0.18341496259E+02  0.23097802565E+02  0.14870743727E+02  0.33031166909E+02  0.00000000000E+00 0. -1.
        -13    1    3    3    0    0 -0.15165412131E+02 -0.14933444130E+02  0.10184847734E+02  0.23595096992E+02  0.00000000000E+00 0.  1.
         13    1    3    3    0    0  0.31434511135E+02  0.13452647657E+02 -0.10311590912E+03  0.10863697774E+03  0.00000000000E+00 0. -1.
          1    1    1    2  501    0 -0.27660499787E+02  0.18888477876E+02  0.11753971319E+03  0.12221891025E+03  0.00000000000E+00 0. -1.
<scales pt_clust_5="13000.00000" pt_clust_6="13000.00000" pt_clust_7="13000.00000" pt_clust_8="13000.00000" pt_clust_9="33.49444"></scales>
<clustering>
<clus scale="   33.494">  1  9  2 -1</clus>
<clus scale="   91.739">  5  6 -1 -1</clus>
<clus scale="   92.641">  7  8 -1 -1</clus>
<clus scale="   92.697">  1  5  2 -1</clus>
<clus scale="   33.494">  1  5  2 -1</clus>
</clustering>
</event>
<event>
 9    1  0.1504846E-005  0.9504529E+02  0.7546771E-02  0.1292072E+00
          1   -1    0    0  502    0 -0.00000000000E+00  0.00000000000E+00  0.20443775049E+03  0.20443775049E+03  0.00000000000E+00 0. -1.
         21   -1    0    0  501  502  0.00000000000E+00 -0.00000000000E+00 -0.12649887892E+03  0.12649887892E+03  0.00000000000E+00 0.  1.
         23    2    1    2    0    0 -0.46661043273E+01 -0.22714908651E+02  0.16193289734E+03  0.18808741712E+03  0.92827116900E+02 0.  0.
         23    2    1    2    0    0 -0.65971275614E+01  0.17388030847E+01 -0.71554195726E+02  0.11598647288E+03  0.91029190021E+02 0.  0.
        -11    1    4    4    0    0  0.19266679710E+01  0.46013706364E+02 -0.39394477495E+02  0.60604439440E+02  0.00000000000E+00 0.  1.
         11    1    4    4    0    0 -0.85237955324E+01 -0.44274903279E+02 -0.32159718231E+02  0.55382033435E+02  0.00000000000E+00 0. -1.
        -11    1    3    3    0    0 -0.38913341892E+02  0.10282691514E+01  0.28352745725E+02  0.48157903866E+02  0.00000000000E+00 0.  1.
         11    1    3    3    0    0  0.34247237564E+02 -0.23743177803E+02  0.13358015162E+03  0.13992951325E+03  0.00000000000E+00 0. -1.
          1    1    1    2  501    0  0.11263231889E+02  0.20976105567E+02 -0.12439830051E+02  0.26862739417E+02  0.00000000000E+00 0. -1.
<scales pt_clust_5="13000.00000" pt_clust_6="13000.00000" pt_clust_7="13000.00000" pt_clust_8="13000.00000" pt_clust_9="23.80877"></scales>
<clustering>
<clus scale="   23.809">  2  9  1 -1</clus>
<clus scale="   91.029">  5  6 -1 -1</clus>
<clus scale="   92.827">  7  8 -1 -1</clus>
<clus scale="   93.290">  2  5  1 -1</clus>
<clus scale="   23.809">  2  5  1 -1</clus>
</clustering>
</event>
<event>
 9    1  0.1504846E-005  0.9244399E+02  0.7546771E-02  0.1300354E+00
         -2   -1    0    0    0  501 -0.00000000000E+00  0.00000000000E+00  0.53147578353E+03  0.53147578353E+03  0.00000000000E+00 0.  1.
         21   -1    0    0  501  502  0.00000000000E+00 -0.00000000000E+00 -0.77264790655E+02  0.77264790655E+02  0.00000000000E+00 0.  1.
         23    2    1    2    0    0 -0.70794745619E+01 -0.17011799360E+02  0.30613801935E+03  0.31862204071E+03  0.86371277983E+02 0.  0.
         23    2    1    2    0    0 -0.28328226036E+02 -0.72607587217E+01  0.20042271107E+03  0.22241803599E+03  0.91898381986E+02 0.  0.
        -11    1    4    4    0    0 -0.59463569418E+02  0.10787469635E+02  0.12359566338E+03  0.13757969906E+03  0.00000000000E+00 0.  1.
         11    1    4    4    0    0  0.31135343382E+02 -0.18048228357E+02  0.76827047697E+02  0.84838336925E+02  0.00000000000E+00 0. -1.
        -11    1    3    3    0    0 -0.38821462422E+02  0.15986632003E+02  0.12888608620E+03  0.13555184087E+03  0.00000000000E+00 0.  1.
         11    1    3    3    0    0  0.31741987860E+02 -0.32998431364E+02  0.17725193315E+03  0.18307019984E+03  0.00000000000E+00 0. -1.
         -2    1    1    2    0  502  0.35407700598E+02  0.24272558082E+02 -0.52349737549E+02  0.67700497479E+02  0.00000000000E+00 0.  1.
<scales pt_clust_5="13000.00000" pt_clust_6="13000.00000" pt_clust_7="13000.00000" pt_clust_8="13000.00000" pt_clust_9="42.92857"></scales>
<clustering>
<clus scale="   42.929">  2  9  1 -1</clus>
<clus scale="   86.371">  7  8 -1 -1</clus>
<clus scale="   86.952">  1  7  2 -1</clus>
<clus scale="   91.898">  5  6 -1 -1</clus>
<clus scale="   42.929">  2  5  1 -1</clus>
</clustering>
</event>
<event>
 9    1  0.1504846E-005  0.1577033E+03  0.7546771E-02  0.1192805E+00
         -2   -1    0    0    0  501 -0.00000000000E+00  0.00000000000E+00  0.10311470261E+03  0.10311470261E+03  0.00000000000E+00 0.  1.
         21   -1    0    0  501  502  0.00000000000E+00 -0.00000000000E+00 -0.41671880311E+03  0.41671880311E+03  0.00000000000E+00 0. -1.
         23    2    1    2    0    0  0.11408711831E+03  0.46102325117E+02 -0.29061780990E+02  0.16240974676E+03  0.10193646935E+03 0.  0.
         23    2    1    2    0    0 -0.92436507737E+02 -0.74849017173E+02 -0.13281979672E+03  0.20149157767E+03  0.93866256636E+02 0.  0.
        -11    1    4    4    0    0 -0.24202584802E+02 -0.73794243409E+02 -0.43267679360E+02  0.88901336034E+02  0.00000000000E+00 0.  1.
         11    1    4    4    0    0 -0.68233922935E+02 -0.10547737637E+01 -0.89552117364E+02  0.11259024163E+03  0.00000000000E+00 0. -1.
        -11    1    3    3    0    0  0.13158686195E+03  0.34596033114E+02 -0.14345844846E+02  0.13681297822E+03  0.00000000000E+00 0.  1.
         11    1    3    3    0    0 -0.17499743643E+02  0.11506292002E+02 -0.14715936144E+02  0.25596768542E+02  0.00000000000E+00 0. -1.
         -2    1    1    2    0  502 -0.21650610569E+02  0.28746692056E+02 -0.15172252278E+03  0.15593218129E+03  0.00000000000E+00 0.  1.
<scales pt_clust_5="13000.00000" pt_clust_6="13000.00000" pt_clust_7="13000.00000" pt_clust_8="13000.00000" pt_clust_9="35.98779"></scales>
<clustering>
<clus scale="   35.988">  2  9  1 -1</clus>
<clus scale="   93.866">  5  6 -1 -1</clus>
<clus scale="  101.936">  7  8 -1 -1</clus>
<clus scale="  152.611">  2  5  1 -1</clus>
<clus scale="   35.988">  2  5  1 -1</clus>
</clustering>
</event>
<event>
 9    1  0.1504846E-005  0.1093882E+03  0.7546771E-02  0.1262426E+00
         21   -1    0    0  501  502  0.00000000000E+00  0.00000000000E+00  0.95405515322E+02  0.95405515322E+02  0.00000000000E+00 0. -1.
          1   -1    0    0  502    0 -0.00000000000E+00 -0.00000000000E+00 -0.27805030750E+03  0.27805030750E+03  0.00000000000E+00 0. -1.
         23    2    1    2    0    0 -0.49773501372E+02 -0.19234178651E+02 -0.13628907979E+03  0.17252531114E+03  0.91339556848E+02 0.  0.
         23    2    1    2    0    0  0.79286438669E+02 -0.22640125033E+02 -0.74292454525E+02  0.14257871361E+03  0.89500872382E+02 0.  0.
        -11    1    3    3    0    0 -0.76634843223E+02 -0.16769796200E+02 -0.94963448426E+02  0.12317541068E+03  0.00000000000E+00 0.  1.
         11    1    3    3    0    0  0.26861341850E+02 -0.24643824507E+01 -0.41325631364E+02  0.49349900451E+02  0.00000000000E+00 0. -1.
        -11    1    4    4    0    0 -0.17286478733E+00  0.26743714151E+02 -0.79925762148E+01  0.27913032859E+02  0.00000000000E+00 0.  1.
         11    1    4    4    0    0  0.79459303456E+02 -0.49383839184E+02 -0.66299878310E+02  0.11466568075E+03  0.00000000000E+00 0. -1.
          1    1    1    2  501    0 -0.29512937297E+02  0.41874303684E+02  0.27936742141E+02  0.58351798073E+02  0.00000000000E+00 0. -1.
<scales pt_clust_5="13000.00000" pt_clust_6="13000.00000" pt_clust_7="13000.00000" pt_clust_8="13000.00000" pt_clust_9="51.22959"></scales>
<clustering>
<clus scale="   51.230">  1  9  2 -1</clus>
<clus scale="   89.501">  7  8 -1 -1</clus>
<clus scale="   91.340">  5  6 -1 -1</clus>
<clus scale="  107.858">  1  7  2 -1</clus>
<clus scale="   51.230">  1  5  2 -1</clus>
</clustering>
</event>
<event>
 9    1  0.1504846E-005  0.1512575E+03  0.7546771E-02  0.1199153E+00
         21   -1    0    0  501  502  0.00000000000E+00  0.00000000000E+00  0.41675358734E+03  0.41675358734E+03  0.00000000000E+00 0.  1.
          4   -1    0    0  502    0 -0.00000000000E+00 -0.00000000000E+00 -0.12692800030E+03  0.12692800030E+03  0.00000000000E+00 0. -1.
         23    2    1    2    0    0  0.51691117090E+02  0.93453406468E+02 -0.65864969455E+01  0.14056053253E+03  0.91150263839E+02 0.  0.
         23    2    1    2    0    0 -0.59376030641E+02 -0.14247697571E+03  0.10907231613E+03  0.20932075362E+03  0.89962248353E+02 0.  0.
        -11    1    3    3    0    0  0.63817218570E+01  0.94860387471E+02 -0.45322497559E+01  0.95182775610E+02  0.00000000000E+00 0. -1.
         11    1    3    3    0    0  0.45309395233E+02 -0.14069810034E+01 -0.20542471896E+01  0.45377756924E+02  0.00000000000E+00 0.  1.
        -13    1    4    4    0    0 -0.69034245723E+02 -0.11487738984E+03  0.49344759538E+02  0.14281963126E+03  0.00000000000E+00 0. -1.
         13    1    4    4    0    0  0.96582150823E+01 -0.27599585867E+02  0.59727556595E+02  0.66501122362E+02  0.00000000000E+00 0.  1.
          4    1    1    2  501    0  0.76849135506E+01  0.49023569242E+02  0.18733976785E+03  0.19380030149E+03  0.00000000000E+00 0. -1.
<scales pt_clust_5="13000.00000" pt_clust_6="13000.00000" pt_clust_7="13000.00000" pt_clust_8="13000.00000" pt_clust_9="49.62226"></scales>
<clustering>
<clus scale="   49.622">  1  9  2 -1</clus>
<clus scale="   89.962">  7  8 -1 -1</clus>
<clus scale="   91.150">  5  6 -1 -1</clus>
<clus scale="  150.545">  1  7  2 -1</clus>
<clus scale="   49.622">  1  5  2 -1</clus>
</clustering>
</event>
<event>
 9    1  0.1504846E-005  0.9821905E+02  0.7546771E-02  0.1286910E+00
         21   -1    0    0  501  502  0.00000000000E+00  0.00000000000E+00  0.30105945382E+03  0.30105945382E+03  0.00000000000E+00 0.  1.
          3   -1    0    0  502    0 -0.00000000000E+00 -0.00000000000E+00 -0.10166354112E+03  0.10166354112E+03  0.00000000000E+00 0. -1.
         23    2    1    2    0    0 -0.13931074185E+02  0.40439389207E+02 -0.55808103550E+02  0.11428739612E+03  0.90097977022E+02 0.  0.
         23    2    1    2    0    0  0.12934402200E+01 -0.24670622038E+02  0.10569099450E+03  0.13756311133E+03  0.84514559103E+02 0.  0.
        -11    1    4    4    0    0 -0.35407596054E+02 -0.26450661614E+02  0.29975914392E+02  0.53403097305E+02  0.00000000000E+00 0.  1.
         11    1    4    4    0    0  0.36701036274E+02  0.17800395759E+01  0.75715080107E+02  0.84160014022E+02  0.00000000000E+00 0. -1.
        -13    1    3    3    0    0  0.18927400643E+02  0.27186141175E+02  0.14031003234E+02  0.35975016593E+02  0.00000000000E+00 0.  1.
         13    1    3    3    0    0 -0.32858474829E+02  0.13253248032E+02 -0.69839106784E+02  0.78312379531E+02  0.00000000000E+00 0. -1.
          3    1    1    2  501    0  0.12637633965E+02 -0.15768767170E+02  0.14951302175E+03  0.15087248749E+03  0.00000000000E+00 0. -1.
<scales pt_clust_5="13000.00000" pt_clust_6="13000.00000" pt_clust_7="13000.00000" pt_clust_8="13000.00000" pt_clust_9="20.20801"></scales>
<clustering>
<clus scale="   20.208">  1  9  2 -1</clus>
<clus scale="   84.515">  5  6 -1 -1</clus>
<clus scale="   90.098">  7  8 -1 -1</clus>
<clus scale="   93.124">  1  5  2 -1</clus>
<clus scale="   20.208">  1  5  2 -1</clus>
</clustering>
</event>
<event>
 9    1  0.1504846E-005  0.1410745E+03  0.7546771E-02  0.1212137E+00
         -2   -1    0    0    0  501 -0.00000000000E+00  0.00000000000E+00  0.12745444209E+03  0.12745444209E+03  0.00000000000E+00 0.  1.
         21   -1    0    0  501  502  0.00000000000E+00 -0.00000000000E+00 -0.26822927860E+03  0.26822927860E+03  0.00000000000E+00 0. -1.
         23    2    1    2    0    0 -0.75076973708E+02 -0.41527258662E+02 -0.55483652062E+02  0.13775984687E+03  0.92402784432E+02 0.  0.
         23    2    1    2    0    0  0.86737012392E+02  0.11110315855E+03 -0.83064536991E+02  0.18734257101E+03  0.91270479617E+02 0.  0.
        -13    1    4    4    0    0  0.36192844957E+02  0.87928294901E+02 -0.90469285706E+02  0.13124785227E+03  0.00000000000E+00 0. -1.
         13    1    4    4    0    0  0.50544167435E+02  0.23174863649E+02  0.74047487150E+01  0.56094718739E+02  0.00000000000E+00 0.  1.
        -13    1    3    3    0    0 -0.12042784119E+02  0.29060226115E+02 -0.13956530232E+02  0.34413807219E+02  0.00000000000E+00 0. -1.
         13    1    3    3    0    0 -0.63034189589E+02 -0.70587484777E+02 -0.41527121830E+02  0.10334603965E+03  0.00000000000E+00 0.  1.
         -2    1    1    2    0  502 -0.11660038684E+02 -0.69575899889E+02 -0.22266474557E+01  0.70581302810E+02  0.00000000000E+00 0.  1.
<scales pt_clust_5="13000.00000" pt_clust_6="13000.00000" pt_clust_7="13000.00000" pt_clust_8="13000.00000" pt_clust_9="70.54621"></scales>
<clustering>
<clus scale="   70.546">  2  9  1 -1</clus>
<clus scale="   91.270">  5  6 -1 -1</clus>
<clus scale="   92.403">  7  8 -1 -1</clus>
<clus scale="  140.335">  2  5  1 -1</clus>
<clus scale="   70.546">  2  5  1 -1</clus>
</clustering>
</event>
<event>
 9    1  0.1504846E-005  0.1030147E+03  0.7546771E-02  0.1276903E+00
          2   -1    0    0  502    0 -0.00000000000E+00  0.00000000000E+00  0.11001214781E+03  0.11001214781E+03  0.00000000000E+00 0. -1.
         21   -1    0    0  501  502  0.00000000000E+00 -0.00000000000E+00 -0.21282762036E+03  0.21282762036E+03  0.00000000000E+00 0.  1.
         23    2    1    2    0    0  0.40810761097E+02 -0.14991399406E+02  0.48346001863E+02  0.11335901367E+03  0.92858331923E+02 0.  0.
         23    2    1    2    0    0 -0.51585039417E+02 -0.65868638403E+01 -0.65616185200E+02  0.12060048095E+03  0.86802011379E+02 0.  0.
        -11    1    3    3    0    0  0.65260985381E+02 -0.32031865254E+02  0.35564808383E+02  0.80931404287E+02  0.00000000000E+00 0. -1.
         11    1    3    3    0    0 -0.24450224283E+02  0.17040465848E+02  0.12781193479E+02  0.32427609387E+02  0.00000000000E+00 0.  1.
        -13    1    4    4    0    0 -0.45052594241E+01  0.33429379775E+02 -0.43338775159E+02  0.54918760245E+02  0.00000000000E+00 0.  1.
         13    1    4    4    0    0 -0.47079779993E+02 -0.40016243615E+02 -0.22277410040E+02  0.65681720709E+02  0.00000000000E+00 0. -1.
          2    1    1    2  501    0  0.10774278320E+02  0.21578263246E+02 -0.85545289216E+02  0.88880273543E+02  0.00000000000E+00 0. -1.
<scales pt_clust_5="13000.00000" pt_clust_6="13000.00000" pt_clust_7="13000.00000" pt_clust_8="13000.00000" pt_clust_9="24.11859"></scales>
<clustering>
<clus scale="   24.119">  2  9  1 -1</clus>
<clus scale="   86.802">  7  8 -1 -1</clus>
<clus scale="   92.858">  5  6 -1 -1</clus>
<clus scale="   97.591">  2  7  1 -1</clus>
<clus scale="   24.119">  2  5  1 -1</clus>
</clustering>
</event>
<event>
 9    1  0.1504846E-005  0.1303980E+03  0.7546771E-02  0.1227608E+00
         21   -1    0    0  501  502  0.00000000000E+00  0.00000000000E+00  0.74587677102E+02  0.74587677102E+02  0.00000000000E+00 0. -1.
          3   -1    0    0  502    0 -0.00000000000E+00 -0.00000000000E+00 -0.48086948146E+03  0.48086948146E+03  0.00000000000E+00 0. -1.
         23    2    1    2    0    0  0.46699509836E+02  0.72709480149E+02 -0.27464801882E+03  0.30192696456E+03  0.90889190592E+02 0.  0.
         23    2    1    2    0    0 -0.96093264239E+02 -0.80576434453E+02 -0.56543936199E+02  0.16330759473E+03  0.88009525371E+02 0.  0.
        -11    1    4    4    0    0 -0.10666269548E+03 -0.52437745195E+02 -0.59839521454E+02  0.13306921528E+03  0.00000000000E+00 0.  1.
         11    1    4    4    0    0  0.10569431238E+02 -0.28138689258E+02  0.32955852553E+01  0.30238379454E+02  0.00000000000E+00 0. -1.
        -13    1    3    3    0    0  0.24505436371E+02  0.30473449275E+01 -0.88105204853E+01  0.26218848069E+02  0.00000000000E+00 0.  1.
         13    1    3    3    0    0  0.22194073465E+02  0.69662135222E+02 -0.26583749833E+03  0.27570811649E+03  0.00000000000E+00 0. -1.
          3    1    1    2  501    0  0.49393754403E+02  0.78669543034E+01 -0.75089849338E+02  0.90222599263E+02  0.00000000000E+00 0. -1.
<scales pt_clust_5="13000.00000" pt_clust_6="13000.00000" pt_clust_7="13000.00000" pt_clust_8="13000.00000" pt_clust_9="50.01634"></scales>
<clustering>
<clus scale="   50.016">  1  9  2 -1</clus>
<clus scale="   88.010">  5  6 -1 -1</clus>
<clus scale="   90.889">  7  8 -1 -1</clus>
<clus scale="  128.407">  1  5  2 -1</clus>
<clus scale="   50.016">  1  5  2 -1</clus>
</clustering>
</event>
<event>
 9    1  0.1504846E-005  0.1001173E+03  0.7546771E-02  0.1283428E+00
         -2   -1    0    0    0  501 -0.00000000000E+00  0.00000000000E+00  0.19213420730E+03  0.19213420730E+03  0.00000000000E+00 0.  1.
         21   -1    0    0  501  502  0.00000000000E+00 -0.00000000000E+00 -0.84633664751E+02  0.84633664751E+02  0.00000000000E+00 0. -1.
         23    2    1    2    0    0  0.27647649492E+02 -0.12042456222E+02  0.12405832340E+03  0.15631139533E+03  0.90185206277E+02 0.  0.
         23    2    1    2    0    0 -0.14041099119E+02 -0.40615495246E+01 -0.17753823798E+02  0.99339949239E+02  0.96641495262E+02 0.  0.
        -11    1    3    3    0    0  0.69439854126E+01 -0.40168283025E+02  0.17836401777E+02  0.44495473061E+02  0.00000000000E+00 0.  1.
         11    1    3    3    0    0  0.20703664080E+02  0.28125826802E+02  0.10622192163E+03  0.11181592227E+03  0.00000000000E+00 0. -1.
        -11    1    4    4    0    0 -0.43189571366E+02 -0.33080570863E+01  0.23144593149E+02  0.49111653490E+02  0.00000000000E+00 0.  1.
         11    1    4    4    0    0  0.29148472246E+02 -0.75349243835E+00 -0.40898416947E+02  0.50228295750E+02  0.00000000000E+00 0. -1.
         -2    1    1    2    0  502 -0.13606550373E+02  0.16104005747E+02  0.11960429456E+01  0.21116527481E+02  0.00000000000E+00 0.  1.
<scales pt_clust_5="13000.00000" pt_clust_6="13000.00000" pt_clust_7="13000.00000" pt_clust_8="13000.00000" pt_clust_9="21.08263"></scales>
<clustering>
<clus scale="   21.083">  2  9  1 -1</clus>
<clus scale="   90.185">  5  6 -1 -1</clus>
<clus scale="   93.900">  1  5  2 -1</clus>
<clus scale="   96.641">  7  8 -1 -1</clus>
<clus scale="   21.083">  2  5  1 -1</clus>
</clustering>
</event>
<event>
 9    1  0.1684772E-005  0.9072042E+02  0.7546771E-02  0.1302861E+00
         -4   -1    0    0    0  501 -0.00000000000E+00  0.00000000000E+00  0.14830972063E+03  0.14830972063E+03  0.00000000000E+00 0.  1.
         21   -1    0    0  501  502  0.00000000000E+00 -0.00000000000E+00 -0.27023951781E+03  0.27023951781E+03  0.00000000000E+00 0.  1.
         23    2    1    2    0    0  0.18346023857E+02 -0.39390779721E+00  0.80178029669E+02  0.12235043873E+03  0.90578041830E+02 0.  0.
         23    2    1    2    0    0  0.25107915679E+02 -0.58041250660E+01 -0.21112125925E+01  0.91442099738E+02  0.87710347670E+02 0.  0.
        -11    1    3    3    0    0  0.44726493254E+02  0.26578633478E+02  0.60513958008E+02  0.79804900039E+02  0.00000000000E+00 0.  1.
         11    1    3    3    0    0 -0.26380469397E+02 -0.26972541276E+02  0.19664071660E+02  0.42545538693E+02  0.00000000000E+00 0. -1.
        -11    1    4    4    0    0  0.53061209142E+02  0.11874539281E+02  0.11669020295E+02  0.55611713095E+02  0.00000000000E+00 0.  1.
         11    1    4    4    0    0 -0.27953293463E+02 -0.17678664347E+02 -0.13780232887E+02  0.35830386643E+02  0.00000000000E+00 0. -1.
         -4    1    1    2    0  502 -0.43453939536E+02  0.61980328632E+01 -0.19999661425E+03  0.20475669998E+03  0.00000000000E+00 0.  1.
<scales pt_clust_5="13000.00000" pt_clust_6="13000.00000" pt_clust_7="13000.00000" pt_clust_8="13000.00000" pt_clust_9="43.89374"></scales>
<clustering>
<clus scale="   43.894">  2  9  1 -1</clus>
<clus scale="   87.710">  7  8 -1 -1</clus>
<clus scale="   87.857">  2  7  1 -1</clus>
<clus scale="   90.578">  5  6 -1 -1</clus>
<clus scale="   43.894">  2  5  1 -1</clus>
</clustering>
</event>
<event>
 9    1  0.1504846E-005  0.9908269E+02  0.7546771E-02  0.1282912E+00
          1   -1    0    0  502    0 -0.00000000000E+00  0.00000000000E+00  0.26469301135E+03  0.26469301135E+03  0.00000000000E+00 0. -1.
         21   -1    0    0  501  502  0.00000000000E+00 -0.00000000000E+00 -0.86933161322E+02  0.86933161322E+02  0.00000000000E+00 0. -1.
         23    2    1    2    0    0  0.38345626174E+02 -0.66640104502E+01  0.16279444248E+03  0.19002970150E+03  0.89969221796E+02 0.  0.
         23    2    1    2    0    0 -0.20414155405E+02  0.54834132607E+02  0.15808434565E+01  0.10848296188E+03  0.91337473761E+02 0.  0.
        -11    1    4    4    0    0 -0.23262852928E+02 -0.21453268924E+02  0.51390095109E+01  0.32059514854E+02  0.00000000000E+00 0.  1.
         11    1    4    4    0    0  0.28486975231E+01  0.76287401532E+02 -0.35581660544E+01  0.76423447028E+02  0.00000000000E+00 0. -1.
        -13    1    3    3    0    0  0.62247344986E+02 -0.11409353761E+01  0.14990241080E+03  0.16231687052E+03  0.00000000000E+00 0. -1.
         13    1    3    3    0    0 -0.23901718811E+02 -0.55230750740E+01  0.12892031673E+02  0.27712830983E+02  0.00000000000E+00 0.  1.
          1    1    1    2  501    0 -0.17931470769E+02 -0.48170122157E+02  0.13384564096E+02  0.53113509285E+02  0.00000000000E+00 0. -1.
<scales pt_clust_5="13000.00000" pt_clust_6="13000.00000" pt_clust_7="13000.00000" pt_clust_8="13000.00000" pt_clust_9="51.39940"></scales>
<clustering>
<clus scale="   51.399">  2  9  1 -1</clus>
<clus scale="   89.969">  7  8 -1 -1</clus>
<clus scale="   91.337">  5  6 -1 -1</clus>
<clus scale="   97.823">  1  7  2 -1</clus>
<clus scale="   51.399">  2  5  1 -1</clus>
</clustering>
</event>
<event>
 9    1  0.1504846E-005  0.9237439E+02  0.7546771E-02  0.1299446E+00
         21   -1    0    0  501  502  0.00000000000E+00  0.00000000000E+00  0.59053779684E+02  0.59053779684E+02  0.00000000000E+00 0.  1.
         -1   -1    0    0    0  501 -0.00000000000E+00 -0.00000000000E+00 -0.52083689982E+03  0.52083689982E+03  0.00000000000E+00 0.  1.
         23    2    1    2    0    0 -0.25264776947E+02  0.22077163650E+02 -0.27448615748E+03  0.29138741530E+03  0.91860029617E+02 0.  0.
         23    2    1    2    0    0 -0.37868709945E+02  0.70072670239E+01 -0.19613987428E+03  0.21843231187E+03  0.88083390037E+02 0.  0.
        -11    1    4    4    0    0  0.10964527237E+02  0.27101159797E+02 -0.22357531191E+02  0.36804251396E+02  0.00000000000E+00 0.  1.
         11    1    4    4    0    0 -0.48833237182E+02 -0.20093892773E+02 -0.17378234309E+03  0.18162806047E+03  0.00000000000E+00 0. -1.
        -13    1    3    3    0    0 -0.34462021400E+02  0.53447367589E+02 -0.15574192472E+03  0.16822544141E+03  0.00000000000E+00 0.  1.
         13    1    3    3    0    0  0.91972444532E+01 -0.31370203939E+02 -0.11874423275E+03  0.12316197389E+03  0.00000000000E+00 0. -1.
         -1    1    1    2    0  502  0.63133486892E+02 -0.29084430674E+02  0.88429116236E+01  0.70070952333E+02  0.00000000000E+00 0.  1.
<scales pt_clust_5="13000.00000" pt_clust_6="13000.00000" pt_clust_7="13000.00000" pt_clust_8="13000.00000" pt_clust_9="69.51073"></scales>
<clustering>
<clus scale="   69.511">  1  9  2 -1</clus>
<clus scale="   88.083">  5  6 -1 -1</clus>
<clus scale="   88.620">  1  5  2 -1</clus>
<clus scale="   91.860">  7  8 -1 -1</clus>
<clus scale="   69.511">  1  5  2 -1</clus>
</clustering>
</event>
<event>
 9    1  0.1504846E-005  0.1012855E+03  0.7546771E-02  0.1278208E+00
         21   -1    0    0  501  502  0.00000000000E+00  0.00000000000E+00  0.91755807631E+02  0.91755807631E+02  0.00000000000E+00 0.  1.
         -1   -1    0    0    0  501 -0.00000000000E+00 -0.00000000000E+00 -0.26222902906E+03  0.26222902906E+03  0.00000000000E+00 0.  1.
         23    2    1    2    0    0 -0.43417595836E+02  0.28409212139E+02 -0.16474926502E+03  0.19547917957E+03  0.91529330600E+02 0.  0.
         23    2    1    2    0    0  0.53736019493E+01 -0.34325761083E+02 -0.42146174732E+02  0.10550632685E+03  0.90267111893E+02 0.  0.
        -11    1    3    3    0    0 -0.20362374276E+02  0.57851272474E+02 -0.67053575110E+02  0.90871216279E+02  0.00000000000E+00 0.  1.
         11    1    3    3    0    0 -0.23055221560E+02 -0.29442060335E+02 -0.97695689906E+02  0.10460796329E+03  0.00000000000E+00 0. -1.
        -13    1    4    4    0    0  0.65886713178E+00 -0.57317913522E+02 -0.54402855366E+02  0.79028146811E+02  0.00000000000E+00 0.  1.
         13    1    4    4    0    0  0.47147348175E+01  0.22992152438E+02  0.12256680635E+02  0.26478180042E+02  0.00000000000E+00 0. -1.
         -1    1    1    2    0  502  0.38043993887E+02  0.59165489439E+01  0.36422218314E+02  0.52999330271E+02  0.00000000000E+00 0.  1.
<scales pt_clust_5="13000.00000" pt_clust_6="13000.00000" pt_clust_7="13000.00000" pt_clust_8="13000.00000" pt_clust_9="38.50131"></scales>
<clustering>
<clus scale="   38.501">  1  9  2 -1</clus>
<clus scale="   90.267">  7  8 -1 -1</clus>
<clus scale="   91.529">  5  6 -1 -1</clus>
<clus scale="  100.146">  1  7  2 -1</clus>
<clus scale="   38.501">  1  5  2 -1</clus>
</clustering>
</event>
<event>
 9    1  0.1504846E-005  0.1175216E+03  0.7546771E-02  0.1250497E+00
          1   -1    0    0  502    0 -0.00000000000E+00  0.00000000000E+00  0.74266428712E+03  0.74266428712E+03  0.00000000000E+00 0. -1.
         21   -1    0    0  501  502  0.00000000000E+00 -0.00000000000E+00 -0.60145022153E+02  0.60145022153E+02  0.00000000000E+00 0. -1.
         23    2    1    2    0    0 -0.12909770239E+02  0.63690331014E+02  0.33119550621E+03  0.34746565550E+03  0.82576013411E+02 0.  0.
         23    2    1    2    0    0  0.48719314520E+02 -0.70742345670E+02  0.38535576268E+03  0.40544143274E+03  0.92226029248E+02 0.  0.
        -13    1    4    4    0    0 -0.30091008920E+01 -0.64454729228E+02  0.13380964358E+03  0.14855466173E+03  0.00000000000E+00 0.  1.
         13    1    4    4    0    0  0.51728415412E+02 -0.62876164419E+01  0.25154611911E+03  0.25688677101E+03  0.00000000000E+00 0. -1.
        -13    1    3    3    0    0  0.14835533739E+02  0.56015820536E+02  0.29775484650E+03  0.30334108496E+03  0.00000000000E+00 0. -1.
         13    1    3    3    0    0 -0.27745303978E+02  0.76745104775E+01  0.33440659708E+02  0.44124570543E+02  0.00000000000E+00 0.  1.
          1    1    1    2  501    0 -0.35809544281E+02  0.70520146567E+01 -0.34032003924E+02  0.49902221027E+02  0.00000000000E+00 0. -1.
<scales pt_clust_5="13000.00000" pt_clust_6="13000.00000" pt_clust_7="13000.00000" pt_clust_8="13000.00000" pt_clust_9="36.49732"></scales>
<clustering>
<clus scale="   36.497">  2  9  1 -1</clus>
<clus scale="   82.576">  7  8 -1 -1</clus>
<clus scale="   92.226">  5  6 -1 -1</clus>
<clus scale="  110.111">  1  7  2 -1</clus>
<clus scale="   36.497">  2  5  1 -1</clus>
</clustering>
</event>
<event>
 9    1  0.1504846E-005  0.1761334E+03  0.7546771E-02  0.1172142E+00
          1   -1    0    0  502    0 -0.00000000000E+00  0.00000000000E+00  0.88407794518E+03  0.88407794518E+03  0.00000000000E+00 0. -1.
         21   -1    0    0  501  502  0.00000000000E+00 -0.00000000000E+00 -0.25199859608E+03  0.25199859608E+03  0.00000000000E+00 0. -1.
         23    2    1    2    0    0  0.20331005909E+02  0.12947248495E+03  0.54716793765E+03  0.56991267318E+03  0.90726120216E+02 0.  0.
         23    2    1    2    0    0 -0.46983997433E+02 -0.25334816004E+03  0.24230088071E+03  0.36410692099E+03  0.86436953361E+02 0.  0.
        -11    1    4    4    0    0 -0.38935059880E+02 -0.95055555778E+02  0.48063717703E+02  0.11340907605E+03  0.00000000000E+00 0.  1.
         11    1    4    4    0    0 -0.80489375529E+01 -0.15829260426E+03  0.19423716301E+03  0.25069784493E+03  0.00000000000E+00 0. -1.
        -13    1    3    3    0    0 -0.16996134351E+02  0.10834609609E+03  0.45824725198E+03  0.47118816737E+03  0.00000000000E+00 0. -1.
         13    1    3    3    0    0  0.37327140259E+02  0.21126388853E+02  0.88920685677E+02  0.98724505808E+02  0.00000000000E+00 0.  1.
          1    1    1    2  501    0  0.26652991524E+02  0.12387567509E+03 -0.15738946927E+03  0.20205694710E+03  0.00000000000E+00 0. -1.
<scales pt_clust_5="13000.00000" pt_clust_6="13000.00000" pt_clust_7="13000.00000" pt_clust_8="13000.00000" pt_clust_9="126.71056"></scales>
<clustering>
<clus scale="   86.437">  5  6 -1 -1</clus>
<clus scale="   90.726">  7  8 -1 -1</clus>
<clus scale="  126.711">  2  9  1 -1</clus>
<clus scale="  173.963">  2  5  1 -1</clus>
<clus scale="  126.711">  2  5  1 -1</clus>
</clustering>
</event>
<event>
 9    1  0.1504846E-005  0.9505347E+02  0.7546771E-02  0.1291165E+00
         21   -1    0    0  501  502  0.00000000000E+00  0.00000000000E+00  0.82947908465E+02  0.82947908465E+02  0.00000000000E+00 0.  1.
          2   -1    0    0  502    0 -0.00000000000E+00 -0.00000000000E+00 -0.33735261753E+03  0.33735261753E+03  0.00000000000E+00 0. -1.
         23    2    1    2    0    0  0.14964115998E+02 -0.23430727856E+02 -0.16550925584E+03  0.19141584321E+03  0.92053177485E+02 0.  0.
         23    2    1    2    0    0 -0.24011967482E+02  0.31260887933E+01 -0.14226941617E+03  0.17106667605E+03  0.91852457045E+02 0.  0.
        -13    1    4    4    0    0  0.72668398295E+01  0.30803808726E+02 -0.11311830844E+02  0.33610104287E+02  0.00000000000E+00 0.  1.
         13    1    4    4    0    0 -0.31278807312E+02 -0.27677719933E+02 -0.13095758532E+03  0.13745657176E+03  0.00000000000E+00 0. -1.
        -13    1    3    3    0    0 -0.41164701297E+01 -0.30050744763E+02 -0.16831446330E+03  0.17102558623E+03  0.00000000000E+00 0. -1.
         13    1    3    3    0    0  0.19080586128E+02  0.66200169065E+01  0.28052074594E+01  0.20390256980E+02  0.00000000000E+00 0.  1.
          2    1    1    2  501    0  0.90478514843E+01  0.20304639063E+02  0.53373962939E+02  0.57818006744E+02  0.00000000000E+00 0. -1.
<scales pt_clust_5="13000.00000" pt_clust_6="13000.00000" pt_clust_7="13000.00000" pt_clust_8="13000.00000" pt_clust_9="22.22930"></scales>
<clustering>
<clus scale="   22.229">  1  9  2 -1</clus>
<clus scale="   91.852">  5  6 -1 -1</clus>
<clus scale="   92.053">  7  8 -1 -1</clus>
<clus scale="   94.859">  1  5  2 -1</clus>
<clus scale="   22.229">  1  5  2 -1</clus>
</clustering>
</event>
<event>
 9    1  0.1504846E-005  0.1387472E+03  0.7546771E-02  0.1215882E+00
         21   -1    0    0  501  502  0.00000000000E+00  0.00000000000E+00  0.44083240148E+02  0.44083240148E+02  0.00000000000E+00 0.  1.
          2   -1    0    0  502    0 -0.00000000000E+00 -0.00000000000E+00 -0.59654507201E+03  0.59654507201E+03  0.00000000000E+00 0. -1.
         23    2    1    2    0    0 -0.65810848761E+02 -0.10648630141E+03 -0.32131337223E+03  0.35492060761E+03  0.83999728161E+02 0.  0.
         23    2    1    2    0    0  0.56272449789E+02  0.68488112065E+02 -0.19937840853E+03  0.23526784337E+03  0.87988625607E+02 0.  0.
        -11    1    3    3    0    0  0.12646304468E+02 -0.50010392429E+02 -0.82705026123E+02  0.97473533400E+02  0.00000000000E+00 0.  1.
         11    1    3    3    0    0 -0.78457153228E+02 -0.56475908981E+02 -0.23860834611E+03  0.25744707421E+03  0.00000000000E+00 0. -1.
        -13    1    4    4    0    0  0.46961359225E+02  0.26890228645E+02 -0.32706214283E+02  0.63230926844E+02  0.00000000000E+00 0.  1.
         13    1    4    4    0    0  0.93110905638E+01  0.41597883420E+02 -0.16667219425E+03  0.17203691653E+03  0.00000000000E+00 0. -1.
          2    1    1    2  501    0  0.95383989720E+01  0.37998189345E+02 -0.31770051096E+02  0.50439861173E+02  0.00000000000E+00 0. -1.
<scales pt_clust_5="13000.00000" pt_clust_6="13000.00000" pt_clust_7="13000.00000" pt_clust_8="13000.00000" pt_clust_9="39.17708"></scales>
<clustering>
<clus scale="   39.177">  1  9  2 -1</clus>
<clus scale="   84.000">  5  6 -1 -1</clus>
<clus scale="   87.989">  7  8 -1 -1</clus>
<clus scale="  136.253">  2  5  1 -1</clus>
<clus scale="   39.177">  1  5  2 -1</clus>
</clustering>
</event>
<event>
 9    1  0.1504846E-005  0.1179914E+03  0.7546771E-02  0.1251750E+00
          2   -1    0    0  502    0 -0.00000000000E+00  0.00000000000E+00  0.20614717380E+03  0.20614717380E+03  0.00000000000E+00 0. -1.
         21   -1    0    0  501  502  0.00000000000E+00 -0.00000000000E+00 -0.16650529405E+03  0.16650529405E+03  0.00000000000E+00 0.  1.
         23    2    1    2    0    0  0.57565481574E+02  0.39023245106E+02  0.96464242722E+02  0.14993695500E+03  0.91318902883E+02 0.  0.
         23    2    1    2    0    0  0.35902199470E+02 -0.47862275187E+02 -0.40916164372E+02  0.12749291571E+03  0.10488348648E+03 0.  0.
        -11    1    3    3    0    0 -0.42797418753E+01  0.51475857593E+02  0.41324685100E+02  0.66149903281E+02  0.00000000000E+00 0. -1.
         11    1    3    3    0    0  0.61845223450E+02 -0.12452612487E+02  0.55139557622E+02  0.83787051721E+02  0.00000000000E+00 0.  1.
        -11    1    4    4    0    0 -0.20794012856E+02  0.48729393186E+01  0.19778959977E+02  0.29109169793E+02  0.00000000000E+00 0. -1.
         11    1    4    4    0    0  0.56696212326E+02 -0.52735214505E+02 -0.60695124349E+02  0.98383745918E+02  0.00000000000E+00 0.  1.
          2    1    1    2  501    0 -0.93467681044E+02  0.88390300807E+01 -0.15906198600E+02  0.95222597142E+02  0.00000000000E+00 0. -1.
<scales pt_clust_5="13000.00000" pt_clust_6="13000.00000" pt_clust_7="13000.00000" pt_clust_8="13000.00000" pt_clust_9="93.88469"></scales>
<clustering>
<clus scale="   91.319">  5  6 -1 -1</clus>
<clus scale="   93.885">  2  9  1 -1</clus>
<clus scale="  104.883">  7  8 -1 -1</clus>
<clus scale="  106.116">  1  5  2 -1</clus>
<clus scale="   93.885">  2  5  1 -1</clus>
</clustering>
</event>
<event>
 9    1  0.1504846E-005  0.9640087E+02  0.7546771E-02  0.1289038E+00
         21   -1    0    0  501  502  0.00000000000E+00  0.00000000000E+00  0.55389750625E+02  0.55389750625E+02  0.00000000000E+00 0. -1.
         -1   -1    0    0    0  501 -0.00000000000E+00 -0.00000000000E+00 -0.50749920268E+03  0.50749920268E+03  0.00000000000E+00 0.  1.
         23    2    1    2    0    0 -0.33309895935E+02  0.19199179993E+01 -0.39315104094E+03  0.40506531884E+03  0.91634798395E+02 0.  0.
         23    2    1    2    0    0  0.68916003558E+01  0.35077892197E+02 -0.21677206569E+02  0.99030331167E+02  0.89772782791E+02 0.  0.
        -11    1    3    3    0    0 -0.71534595245E+01  0.45534712892E+02 -0.16518671450E+03  0.17149703411E+03  0.00000000000E+00 0. -1.
         11    1    3    3    0    0 -0.26156436410E+02 -0.43614794893E+02 -0.22796432644E+03  0.23356828473E+03  0.00000000000E+00 0.  1.
        -13    1    4    4    0    0  0.42889126238E+02  0.41476326755E+02 -0.17806652733E+02  0.62264273160E+02  0.00000000000E+00 0. -1.
         13    1    4    4    0    0 -0.35997525882E+02 -0.63984345576E+01 -0.38705538361E+01  0.36766058008E+02  0.00000000000E+00 0.  1.
         -1    1    1    2    0  502  0.26418295579E+02 -0.36997810196E+02 -0.37281204539E+02  0.58793303296E+02  0.00000000000E+00 0.  1.
<scales pt_clust_5="13000.00000" pt_clust_6="13000.00000" pt_clust_7="13000.00000" pt_clust_8="13000.00000" pt_clust_9="45.46168"></scales>
<clustering>
<clus scale="   45.462">  1  9  2 -1</clus>
<clus scale="   89.773">  7  8 -1 -1</clus>
<clus scale="   91.635">  5  6 -1 -1</clus>
<clus scale="   94.633">  1  7  2 -1</clus>
<clus scale="   45.462">  1  5  2 -1</clus>
</clustering>
</event>
<event>
 9    1  0.1504846E-005  0.1214687E+03  0.7546771E-02  0.1248990E+00
          2   -1    0    0  502    0 -0.00000000000E+00  0.00000000000E+00  0.25411316733E+03  0.25411316733E+03  0.00000000000E+00 0. -1.
         21   -1    0    0  501  502  0.00000000000E+00 -0.00000000000E+00 -0.77381084866E+02  0.77381084866E+02  0.00000000000E+00 0.  1.
         23    2    1    2    0    0  0.11339797631E+02  0.54636095772E+02  0.15647930025E+03  0.20036189755E+03  0.11200635969E+03 0.  0.
         23    2    1    2    0    0 -0.35675942681E+01 -0.33297676942E+02  0.35690778403E+02  0.10367207442E+03  0.91392583578E+02 0.  0.
        -11    1    3    3    0    0 -0.39845019396E+02 -0.11485509624E+02  0.54592875299E+02  0.68555995619E+02  0.00000000000E+00 0.  1.
         11    1    3    3    0    0  0.51184817027E+02  0.66121605396E+02  0.10188642495E+03  0.13180590193E+03  0.00000000000E+00 0. -1.
        -13    1    4    4    0    0 -0.25136282480E+02 -0.14920012412E+02 -0.23854023022E+02  0.37728687781E+02  0.00000000000E+00 0.  1.
         13    1    4    4    0    0  0.21568688212E+02 -0.18377664531E+02  0.59544801425E+02  0.65943386640E+02  0.00000000000E+00 0. -1.
          2    1    1    2  501    0 -0.77722033630E+01 -0.21338418830E+02 -0.15437996195E+02  0.27460280220E+02  0.00000000000E+00 0. -1.
<scales pt_clust_5="13000.00000" pt_clust_6="13000.00000" pt_clust_7="13000.00000" pt_clust_8="13000.00000" pt_clust_9="22.70981"></scales>
<clustering>
<clus scale="   22.710">  2  9  1 -1</clus>
<clus scale="   91.393">  7  8 -1 -1</clus>
<clus scale="  102.771">  2  7  1 -1</clus>
<clus scale="  112.006">  5  6 -1 -1</clus>
<clus scale="   22.710">  2  5  1 -1</clus>
</clustering>
</event>
<event>
 9    1  0.1504846E-005  0.2662788E+03  0.7546771E-02  0.1136265E+00
         21   -1    0    0  501  502  0.00000000000E+00  0.00000000000E+00  0.14440500422E+03  0.14440500422E+03  0.00000000000E+00 0. -1.
          2   -1    0    0  502    0 -0.00000000000E+00 -0.00000000000E+00 -0.11207498083E+04  0.11207498083E+04  0.00000000000E+00 0. -1.
         23    2    1    2    0    0  0.42431903225E+02  0.56279705906E+02 -0.12900594906E+03  0.17421782555E+03  0.93495690484E+02 0.  0.
         23    2    1    2    0    0  0.13547379795E+03 -0.22709234031E+03 -0.78872815643E+03  0.83743627976E+03  0.96350075024E+02 0.  0.
        -13    1    3    3    0    0  0.65331989097E+02  0.63713286873E+02 -0.88653290282E+02  0.12722836791E+03  0.00000000000E+00 0. -1.
         13    1    3    3    0    0 -0.22900085872E+02 -0.74335809667E+01 -0.40352658778E+02  0.46989457641E+02  0.00000000000E+00 0.  1.
        -13    1    4    4    0    0  0.12445164143E+03 -0.11805093235E+03 -0.46201419322E+03  0.49282993864E+03  0.00000000000E+00 0. -1.
         13    1    4    4    0    0  0.11022156516E+02 -0.10904140796E+03 -0.32671396321E+03  0.34460634112E+03  0.00000000000E+00 0.  1.
          2    1    1    2  501    0 -0.17790570117E+03  0.17081263440E+03 -0.58610698621E+02  0.25350070725E+03  0.00000000000E+00 0. -1.
<scales pt_clust_5="13000.00000" pt_clust_6="13000.00000" pt_clust_7="13000.00000" pt_clust_8="13000.00000" pt_clust_9="248.23588"></scales>
<clustering>
<clus scale="   93.496">  5  6 -1 -1</clus>
<clus scale="   96.350">  7  8 -1 -1</clus>
<clus scale="  117.087">  2  5  1 -1</clus>
<clus scale="  248.236">  1  9  2 -1</clus>
<clus scale="  248.236">  1  5  2 -1</clus>
</clustering>
</event>
<event>
 9    1  0.1504846E-005  0.1059473E+03  0.7546771E-02  0.1269006E+00
         -1   -1    0    0    0  501 -0.00000000000E+00  0.00000000000E+00  0.30910643133E+03  0.30910643133E+03  0.00000000000E+00 0.  1.
         21   -1    0    0  501  502  0.00000000000E+00 -0.00000000000E+00 -0.91438260794E+02  0.91438260794E+02  0.00000000000E+00 0.  1.
         23    2    1    2    0    0  0.16747559590E+02  0.38439774945E+02  0.17556303826E+03  0.20332113552E+03  0.93589565106E+02 0.  0.
         23    2    1    2    0    0  0.91336167472E+01 -0.60119069106E+02  0.85873605828E+02  0.14194692175E+03  0.95272907964E+02 0.  0.
        -11    1    4    4    0    0 -0.39727917298E+02 -0.21695084445E+02  0.15022540923E+02  0.47693404552E+02  0.00000000000E+00 0. -1.
         11    1    4    4    0    0  0.48861534045E+02 -0.38423984660E+02  0.70851064905E+02  0.94253517200E+02  0.00000000000E+00 0.  1.
        -13    1    3    3    0    0 -0.17399004295E+02  0.34615136569E+02  0.19221024891E+02  0.43247899695E+02  0.00000000000E+00 0. -1.
         13    1    3    3    0    0  0.34146563885E+02  0.38246383760E+01  0.15634201337E+03  0.16007323583E+03  0.00000000000E+00 0.  1.
         -1    1    1    2    0  502 -0.25881176337E+02  0.21679294161E+02 -0.43768473549E+02  0.55276634853E+02  0.00000000000E+00 0.  1.
<scales pt_clust_5="13000.00000" pt_clust_6="13000.00000" pt_clust_7="13000.00000" pt_clust_8="13000.00000" pt_clust_9="33.76133"></scales>
<clustering>
<clus scale="   33.761">  2  9  1 -1</clus>
<clus scale="   93.590">  7  8 -1 -1</clus>
<clus scale="   95.273">  5  6 -1 -1</clus>
<clus scale="  104.436">  1  7  2 -1</clus>
<clus scale="   33.761">  2  5  1 -1</clus>
</clustering>
</event>
<event>
 9    1  0.1504846E-005  0.9878357E+02  0.7546771E-02  0.1284135E+00
         21   -1    0    0  501  502  0.00000000000E+00  0.00000000000E+00  0.12147474915E+03  0.12147474915E+03  0.00000000000E+00 0.  1.
         -4   -1    0    0    0  501 -0.00000000000E+00 -0.00000000000E+00 -0.38026651398E+03  0.38026651398E+03  0.00000000000E+00 0.  1.
         23    2    1    2    0    0 -0.11859187108E+02 -0.32736541718E+02 -0.31757683443E+03  0.33247588720E+03  0.92048076145E+02 0.  0.
         23    2    1    2    0    0 -0.13039521395E+02  0.48809251613E+02 -0.68830061009E+00  0.10281720475E+03  0.89546254379E+02 0.  0.
        -13    1    4    4    0    0  0.26311241722E+02  0.46892764819E+02  0.21140572674E+02  0.57776609854E+02  0.00000000000E+00 0. -1.
         13    1    4    4    0    0 -0.39350763117E+02  0.19164867943E+01 -0.21828873284E+02  0.45040594894E+02  0.00000000000E+00 0.  1.
        -13    1    3    3    0    0  0.36351608686E+02 -0.24801831714E+02 -0.20635703424E+03  0.21099714664E+03  0.00000000000E+00 0.  1.
         13    1    3    3    0    0 -0.48210795795E+02 -0.79347100047E+01 -0.11121980019E+03  0.12147874056E+03  0.00000000000E+00 0. -1.
         -4    1    1    2    0  502  0.24898708503E+02 -0.16072709895E+02  0.59473370216E+02  0.66448171181E+02  0.00000000000E+00 0.  1.
<scales pt_clust_5="13000.00000" pt_clust_6="13000.00000" pt_clust_7="13000.00000" pt_clust_8="13000.00000" pt_clust_9="29.63575"></scales>
<clustering>
<clus scale="   29.636">  1  9  2 -1</clus>
<clus scale="   89.546">  5  6 -1 -1</clus>
<clus scale="   92.048">  7  8 -1 -1</clus>
<clus scale="   96.457">  1  5  2 -1</clus>
<clus scale="   29.636">  1  5  2 -1</clus>
</clustering>
</event>
<event>
 9    1  0.1504846E-005  0.9267172E+02  0.7546771E-02  0.1296718E+00
         -1   -1    0    0    0  501 -0.00000000000E+00  0.00000000000E+00  0.20256792331E+03  0.20256792331E+03  0.00000000000E+00 0.  1.
         21   -1    0    0  501  502  0.00000000000E+00 -0.00000000000E+00 -0.15924109957E+03  0.15924109957E+03  0.00000000000E+00 0.  1.
         23    2    1    2    0    0 -0.69936867929E+01 -0.18268838957E+02  0.12339657239E+03  0.15477406827E+03  0.91354452538E+02 0.  0.
         23    2    1    2    0    0  0.23588148933E+01 -0.12941041792E+01  0.28918543524E+02  0.96207888356E+02  0.91719337705E+02 0.  0.
        -11    1    3    3    0    0  0.56701954752E+01  0.30033058568E+02  0.12252583515E+02  0.32928126677E+02  0.00000000000E+00 0. -1.
         11    1    3    3    0    0 -0.12663882268E+02 -0.48301897525E+02  0.11114398888E+03  0.12184594159E+03  0.00000000000E+00 0.  1.
        -11    1    4    4    0    0 -0.19169093892E+02  0.15792335471E+02  0.53722512217E+02  0.59185811976E+02  0.00000000000E+00 0.  1.
         11    1    4    4    0    0  0.21527908786E+02 -0.17086439650E+02 -0.24803968693E+02  0.37022076381E+02  0.00000000000E+00 0. -1.
         -1    1    1    2    0  502  0.46348718995E+01  0.19562943136E+02 -0.10898829218E+03  0.11082706626E+03  0.00000000000E+00 0.  1.
<scales pt_clust_5="13000.00000" pt_clust_6="13000.00000" pt_clust_7="13000.00000" pt_clust_8="13000.00000" pt_clust_9="20.10450"></scales>
<clustering>
<clus scale="   20.104">  2  9  1 -1</clus>
<clus scale="   91.354">  5  6 -1 -1</clus>
<clus scale="   91.719">  7  8 -1 -1</clus>
<clus scale="   92.311">  1  5  2 -1</clus>
<clus scale="   20.104">  2  5  1 -1</clus>
</clustering>
</event>
<event>
 9    1  0.1504846E-005  0.1345088E+03  0.7546771E-02  0.1236475E+00
          2   -1    0    0  502    0 -0.00000000000E+00  0.00000000000E+00  0.81489397642E+03  0.81489397642E+03  0.00000000000E+00 0. -1.
         21   -1    0    0  501  502  0.00000000000E+00 -0.00000000000E+00 -0.47943514004E+02  0.47943514004E+02  0.00000000000E+00 0.  1.
         23    2    1    2    0    0 -0.17863105945E+02  0.36790873582E+02  0.46087692710E+03  0.47107238739E+03  0.88481598600E+02 0.  0.
         23    2    1    2    0    0  0.80670582189E+02  0.50620906679E+02  0.12838779328E+03  0.18402049703E+03  0.91158646554E+02 0.  0.
        -13    1    4    4    0    0  0.43326007879E+02  0.35573891828E+02  0.74442574392E+01  0.56551407651E+02  0.00000000000E+00 0.  1.
         13    1    4    4    0    0  0.37344574310E+02  0.15047014851E+02  0.12094353584E+03  0.12746908938E+03  0.00000000000E+00 0. -1.
        -13    1    3    3    0    0  0.28294420890E+02  0.41881928457E+02  0.21640534020E+03  0.22222947925E+03  0.00000000000E+00 0.  1.
         13    1    3    3    0    0 -0.46157526835E+02 -0.50910548745E+01  0.24447158691E+03  0.24884290813E+03  0.00000000000E+00 0. -1.
          2    1    1    2  501    0 -0.62807476244E+02 -0.87411780262E+02  0.17768574203E+03  0.20774460600E+03  0.00000000000E+00 0. -1.
<scales pt_clust_5="13000.00000" pt_clust_6="13000.00000" pt_clust_7="13000.00000" pt_clust_8="13000.00000" pt_clust_9="98.90767"></scales>
<clustering>
<clus scale="   88.482">  7  8 -1 -1</clus>
<clus scale="   91.159">  5  6 -1 -1</clus>
<clus scale="   97.476">  1  7  2 -1</clus>
<clus scale="   98.908">  2  9  1 -1</clus>
<clus scale="   98.908">  2  5  1 -1</clus>
</clustering>
</event>
<event>
 9    1  0.1504846E-005  0.1076443E+03  0.7546771E-02  0.1266469E+00
         21   -1    0    0  501  502  0.00000000000E+00  0.00000000000E+00  0.68990887078E+02  0.68990887078E+02  0.00000000000E+00 0.  1.
         -1   -1    0    0    0  501 -0.00000000000E+00 -0.00000000000E+00 -0.26735585974E+03  0.26735585974E+03  0.00000000000E+00 0.  1.
         23    2    1    2    0    0  0.60101641843E+02  0.33689332417E+02 -0.15292147051E+03  0.19097271264E+03  0.91314962406E+02 0.  0.
         23    2    1    2    0    0 -0.28195389047E+02 -0.12972054897E+02 -0.10336231156E+02  0.93607876972E+02  0.87706001989E+02 0.  0.
        -13    1    3    3    0    0  0.36715335516E+02  0.11213995148E+02 -0.15380655932E+03  0.15852516279E+03  0.00000000000E+00 0. -1.
         13    1    3    3    0    0  0.23386306327E+02  0.22475337269E+02  0.88508880663E+00  0.32447549848E+02  0.00000000000E+00 0.  1.
        -13    1    4    4    0    0  0.29560617781E+02  0.83654992043E+01 -0.90354124852E+01  0.32022654158E+02  0.00000000000E+00 0.  1.
         13    1    4    4    0    0 -0.57756006829E+02 -0.21337554101E+02 -0.13008186708E+01  0.61585222814E+02  0.00000000000E+00 0. -1.
         -1    1    1    2    0  502 -0.31906252795E+02 -0.20717277519E+02 -0.35107271000E+02  0.51766157211E+02  0.00000000000E+00 0.  1.
<scales pt_clust_5="13000.00000" pt_clust_6="13000.00000" pt_clust_7="13000.00000" pt_clust_8="13000.00000" pt_clust_9="38.04229"></scales>
<clustering>
<clus scale="   38.042">  1  9  2 -1</clus>
<clus scale="   87.706">  7  8 -1 -1</clus>
<clus scale="   91.315">  5  6 -1 -1</clus>
<clus scale="  104.600">  1  7  2 -1</clus>
<clus scale="   38.042">  1  5  2 -1</clus>
</clustering>
</event>
<event>
 9    1  0.1504846E-005  0.1156995E+03  0.7546771E-02  0.1250894E+00
          1   -1    0    0  502    0 -0.00000000000E+00  0.00000000000E+00  0.63044551973E+03  0.63044551973E+03  0.00000000000E+00 0. -1.
         21   -1    0    0  501  502  0.00000000000E+00 -0.00000000000E+00 -0.39906937493E+02  0.39906937493E+02  0.00000000000E+00 0.  1.
         23    2    1    2    0    0  0.66556196492E+02  0.27147373199E+02  0.34373863201E+03  0.36276890642E+03  0.90985301902E+02 0.  0.
         23    2    1    2    0    0 -0.70845170870E+02  0.16612011309E+02  0.10033353595E+03  0.15465974773E+03  0.92508496793E+02 0.  0.
        -13    1    4    4    0    0 -0.79386830385E+02  0.42769442571E+02  0.76186429906E+02  0.11805026962E+03  0.00000000000E+00 0.  1.
         13    1    4    4    0    0  0.85416595157E+01 -0.26157431262E+02  0.24147106039E+02  0.36609478111E+02  0.00000000000E+00 0. -1.
        -13    1    3    3    0    0  0.25893458918E+02 -0.33729365678E+02  0.13729888564E+03  0.14373282618E+03  0.00000000000E+00 0. -1.
         13    1    3    3    0    0  0.40662737573E+02  0.60876738877E+02  0.20643974638E+03  0.21903608024E+03  0.00000000000E+00 0.  1.
          1    1    1    2  501    0  0.42889743781E+01 -0.43759384508E+02  0.14646641428E+03  0.15292380307E+03  0.00000000000E+00 0. -1.
<scales pt_clust_5="13000.00000" pt_clust_6="13000.00000" pt_clust_7="13000.00000" pt_clust_8="13000.00000" pt_clust_9="43.96909"></scales>
<clustering>
<clus scale="   43.969">  2  9  1 -1</clus>
<clus scale="   90.985">  7  8 -1 -1</clus>
<clus scale="   92.508">  5  6 -1 -1</clus>
<clus scale="  114.485">  1  7  2 -1</clus>
<clus scale="   43.969">  2  5  1 -1</clus>
</clustering>
</event>
<event>
 9    1  0.1504846E-005  0.9576550E+02  0.7546771E-02  0.1290126E+00
          1   -1    0    0  502    0 -0.00000000000E+00  0.00000000000E+00  0.60751698582E+03  0.60751698582E+03  0.00000000000E+00 0. -1.
         21   -1    0    0  501  502  0.00000000000E+00 -0.00000000000E+00 -0.23767110138E+02  0.23767110138E+02  0.00000000000E+00 0.  1.
         23    2    1    2    0    0  0.18892611590E+01  0.42464166206E+02  0.37349548077E+03  0.38633317975E+03  0.89149744256E+02 0.  0.
         23    2    1    2    0    0 -0.85129402701E+01 -0.11904560133E+02  0.17709050887E+03  0.19937015288E+03  0.90405867190E+02 0.  0.
        -11    1    4    4    0    0  0.35002821679E+02  0.15783588792E+02  0.94431368051E+02  0.10193920969E+03  0.00000000000E+00 0.  1.
         11    1    4    4    0    0 -0.43515761949E+02 -0.27688148925E+02  0.82659140822E+02  0.97430943187E+02  0.00000000000E+00 0. -1.
        -13    1    3    3    0    0 -0.30960200907E+02  0.55275816455E+02  0.22960811241E+03  0.23818865466E+03  0.00000000000E+00 0. -1.
         13    1    3    3    0    0  0.32849462066E+02 -0.12811650249E+02  0.14388736836E+03  0.14814452508E+03  0.00000000000E+00 0.  1.
          1    1    1    2  501    0  0.66236791111E+01 -0.30559606073E+02  0.33163886037E+02  0.45580763326E+02  0.00000000000E+00 0. -1.
<scales pt_clust_5="13000.00000" pt_clust_6="13000.00000" pt_clust_7="13000.00000" pt_clust_8="13000.00000" pt_clust_9="31.26920"></scales>
<clustering>
<clus scale="   31.269">  2  9  1 -1</clus>
<clus scale="   89.150">  7  8 -1 -1</clus>
<clus scale="   90.406">  5  6 -1 -1</clus>
<clus scale="   94.581">  1  7  2 -1</clus>
<clus scale="   31.269">  2  5  1 -1</clus>
</clustering>
</event>
<event>
 9    1  0.1504846E-005  0.1063072E+03  0.7546771E-02  0.1268074E+00
          1   -1    0    0  502    0 -0.00000000000E+00  0.00000000000E+00  0.63035130180E+02  0.63035130180E+02  0.00000000000E+00 0. -1.
         21   -1    0    0  501  502  0.00000000000E+00 -0.00000000000E+00 -0.48528680871E+03  0.48528680871E+03  0.00000000000E+00 0. -1.
         23    2    1    2    0    0 -0.54725696493E+02 -0.14496485657E+02 -0.18829161204E+02  0.10798302317E+03  0.90004144505E+02 0.  0.
         23    2    1    2    0    0  0.48828191353E+02 -0.26369720869E+02 -0.37576740866E+03  0.39064351917E+03  0.91223128724E+02 0.  0.
        -11    1    3    3    0    0  0.25106803696E+01 -0.41574684322E+02  0.90596021580E+00  0.41660276719E+02  0.00000000000E+00 0.  1.
         11    1    3    3    0    0 -0.57236376862E+02  0.27078198665E+02 -0.19735121420E+02  0.66322746450E+02  0.00000000000E+00 0. -1.
        -11    1    4    4    0    0  0.24194663622E+02  0.33908092330E+02 -0.14486503893E+03  0.15073493284E+03  0.00000000000E+00 0.  1.
         11    1    4    4    0    0  0.24633527732E+02 -0.60277813199E+02 -0.23090236973E+03  0.23990858634E+03  0.00000000000E+00 0. -1.
          1    1    1    2  501    0  0.58975051393E+01  0.40866206526E+02 -0.27655108672E+02  0.49695396550E+02  0.00000000000E+00 0. -1.
<scales pt_clust_5="13000.00000" pt_clust_6="13000.00000" pt_clust_7="13000.00000" pt_clust_8="13000.00000" pt_clust_9="41.28958"></scales>
<clustering>
<clus scale="   41.290">  2  9  1 -1</clus>
<clus scale="   90.004">  5  6 -1 -1</clus>
<clus scale="   91.223">  7  8 -1 -1</clus>
<clus scale="  105.263">  1  5  2 -1</clus>
<clus scale="   41.290">  2  5  1 -1</clus>
</clustering>
</event>
<event>
 9    1  0.1504846E-005  0.1031498E+03  0.7546771E-02  0.1274184E+00
         21   -1    0    0  501  502  0.00000000000E+00  0.00000000000E+00  0.48001138445E+03  0.48001138445E+03  0.00000000000E+00 0.  1.
          2   -1    0    0  502    0 -0.00000000000E+00 -0.00000000000E+00 -0.14174206013E+03  0.14174206013E+03  0.00000000000E+00 0. -1.
         23    2    1    2    0    0  0.29987738465E+02  0.34662242150E+02 -0.10861727704E+03  0.14896341101E+03  0.91058494713E+02 0.  0.
         23    2    1    2    0    0 -0.56111816839E+02 -0.41723613577E+02  0.41598428075E+03  0.43171347265E+03  0.91892353946E+02 0.  0.
        -13    1    3    3    0    0 -0.21215888969E+02  0.20989713221E+02 -0.20130432307E+01  0.29912110405E+02  0.00000000000E+00 0.  1.
         13    1    3    3    0    0  0.51203627435E+02  0.13672528929E+02 -0.10660423381E+03  0.11905130061E+03  0.00000000000E+00 0. -1.
        -13    1    4    4    0    0 -0.78842457955E+02 -0.47435875231E+02  0.32815189977E+03  0.34080781205E+03  0.00000000000E+00 0.  1.
         13    1    4    4    0    0  0.22730641116E+02  0.57122616539E+01  0.87832380987E+02  0.90905660597E+02  0.00000000000E+00 0. -1.
          2    1    1    2  501    0  0.26124078373E+02  0.70613714272E+01  0.30902320614E+02  0.41076560915E+02  0.00000000000E+00 0. -1.
<scales pt_clust_5="13000.00000" pt_clust_6="13000.00000" pt_clust_7="13000.00000" pt_clust_8="13000.00000" pt_clust_9="27.06160"></scales>
<clustering>
<clus scale="   27.062">  1  9  2 -1</clus>
<clus scale="   91.058">  5  6 -1 -1</clus>
<clus scale="   91.892">  7  8 -1 -1</clus>
<clus scale="  102.408">  2  5  1 -1</clus>
<clus scale="   27.062">  1  5  2 -1</clus>
</clustering>
</event>
<event>
 9    1  0.1504846E-005  0.1072290E+03  0.7546771E-02  0.1266051E+00
          1   -1    0    0  502    0 -0.00000000000E+00  0.00000000000E+00  0.73910234630E+03  0.73910234630E+03  0.00000000000E+00 0. -1.
         21   -1    0    0  501  502  0.00000000000E+00 -0.00000000000E+00 -0.32738375135E+02  0.32738375135E+02  0.00000000000E+00 0. -1.
         23    2    1    2    0    0  0.37422520448E+02 -0.33798159227E+02  0.40203617418E+03  0.41527769549E+03  0.90992958096E+02 0.  0.
         23    2    1    2    0    0 -0.81008634262E+02  0.16982325417E+01  0.25875949245E+03  0.28580551758E+03  0.90349522017E+02 0.  0.
        -11    1    3    3    0    0  0.58259322699E+02  0.65306294240E+01  0.22328869963E+03  0.23085632151E+03  0.00000000000E+00 0.  1.
         11    1    3    3    0    0 -0.20836802251E+02 -0.40328788651E+02  0.17874747455E+03  0.18442137398E+03  0.00000000000E+00 0. -1.
        -13    1    4    4    0    0 -0.29345137668E+02  0.15215544114E+02  0.15061391962E+02  0.36324859467E+02  0.00000000000E+00 0.  1.
         13    1    4    4    0    0 -0.51663496594E+02 -0.13517311572E+02  0.24369810049E+03  0.24948065812E+03  0.00000000000E+00 0. -1.
          1    1    1    2  501    0  0.43586113814E+02  0.32099926685E+02  0.45568304533E+02  0.70757508355E+02  0.00000000000E+00 0. -1.
<scales pt_clust_5="13000.00000" pt_clust_6="13000.00000" pt_clust_7="13000.00000" pt_clust_8="13000.00000" pt_clust_9="54.13090"></scales>
<clustering>
<clus scale="   54.131">  2  9  1 -1</clus>
<clus scale="   90.350">  7  8 -1 -1</clus>
<clus scale="   90.993">  5  6 -1 -1</clus>
<clus scale="  106.683">  2  7  1 -1</clus>
<clus scale="   54.131">  2  5  1 -1</clus>
</clustering>
</event>
<event>
 9    1  0.1504846E-005  0.1162711E+03  0.7546771E-02  0.1252311E+00
         -1   -1    0    0    0  501 -0.00000000000E+00  0.00000000000E+00  0.67517783444E+03  0.67517783444E+03  0.00000000000E+00 0.  1.
         21   -1    0    0  501  502  0.00000000000E+00 -0.00000000000E+00 -0.34288604007E+02  0.34288604007E+02  0.00000000000E+00 0. -1.
         23    2    1    2    0    0  0.10096161068E+01 -0.83752819097E+02  0.42188072137E+03  0.44027312804E+03  0.94029411276E+02 0.  0.
         23    2    1    2    0    0 -0.71543213066E+01  0.49658553368E+02  0.21161885530E+03  0.23377038929E+03  0.85725718145E+02 0.  0.
        -13    1    3    3    0    0 -0.42431912501E+02 -0.67120978424E+02  0.26590682498E+03  0.27751059892E+03  0.00000000000E+00 0. -1.
         13    1    3    3    0    0  0.43441528608E+02 -0.16631840673E+02  0.15597389639E+03  0.16276252912E+03  0.00000000000E+00 0.  1.
        -13    1    4    4    0    0 -0.31396398674E+02  0.59772862783E+01  0.24988867483E+02  0.40569758429E+02  0.00000000000E+00 0. -1.
         13    1    4    4    0    0  0.24242077368E+02  0.43681267089E+02  0.18662998782E+03  0.19320063086E+03  0.00000000000E+00 0.  1.
         -1    1    1    2    0  502  0.61447051999E+01  0.34094265729E+02  0.73896537619E+01  0.35422921115E+02  0.00000000000E+00 0.  1.
<scales pt_clust_5="13000.00000" pt_clust_6="13000.00000" pt_clust_7="13000.00000" pt_clust_8="13000.00000" pt_clust_9="34.64356"></scales>
<clustering>
<clus scale="   34.644">  2  9  1 -1</clus>
<clus scale="   85.726">  7  8 -1 -1</clus>
<clus scale="   94.029">  5  6 -1 -1</clus>
<clus scale="  109.665">  2  7  1 -1</clus>
<clus scale="   34.644">  2  5  1 -1</clus>
</clustering>
</event>
<event>
 9    1  0.1504846E-005  0.9469510E+02  0.7546771E-02  0.1293401E+00
         21   -1    0    0  501  502  0.00000000000E+00  0.00000000000E+00  0.14976690318E+03  0.14976690318E+03  0.00000000000E+00 0. -1.
         -3   -1    0    0    0  501 -0.00000000000E+00 -0.00000000000E+00 -0.84122633108E+02  0.84122633108E+02  0.00000000000E+00 0.  1.
         23    2    1    2    0    0 -0.25491504448E+02 -0.35260592384E+02 -0.94339321243E+00  0.98638146223E+02  0.88518177371E+02 0.  0.
         23    2    1    2    0    0  0.80212904508E+01  0.19686043174E+02  0.32793989551E+02  0.94144367008E+02  0.85649487403E+02 0.  0.
        -11    1    4    4    0    0  0.30081274625E+02  0.11958608710E+02 -0.18848233065E+02  0.37458607756E+02  0.00000000000E+00 0.  1.
         11    1    4    4    0    0 -0.22059984175E+02  0.77274344637E+01  0.51642222617E+02  0.56685759252E+02  0.00000000000E+00 0. -1.
        -11    1    3    3    0    0 -0.39648022570E+02 -0.54777059195E+02  0.15602161303E+02  0.69396825180E+02  0.00000000000E+00 0. -1.
         11    1    3    3    0    0  0.14156518122E+02  0.19516466810E+02 -0.16545554516E+02  0.29241321043E+02  0.00000000000E+00 0.  1.
         -3    1    1    2    0  502  0.17470213997E+02  0.15574549211E+02  0.33793673732E+02  0.41107023056E+02  0.00000000000E+00 0.  1.
<scales pt_clust_5="13000.00000" pt_clust_6="13000.00000" pt_clust_7="13000.00000" pt_clust_8="13000.00000" pt_clust_9="23.40459"></scales>
<clustering>
<clus scale="   23.405">  1  9  2 -1</clus>
<clus scale="   85.649">  5  6 -1 -1</clus>
<clus scale="   88.518">  7  8 -1 -1</clus>
<clus scale="   92.019">  1  5  2 -1</clus>
<clus scale="   23.405">  1  5  2 -1</clus>
</clustering>
</event>
<event>
 9    1  0.4589357E-005  0.1241430E+03  0.7546771E-02  0.1247001E+00
         21   -1    0    0  501  502  0.00000000000E+00  0.00000000000E+00  0.15593945163E+03  0.15593945163E+03  0.00000000000E+00 0.  1.
          2   -1    0    0  502    0 -0.00000000000E+00 -0.00000000000E+00 -0.30260218215E+03  0.30260218215E+03  0.00000000000E+00 0. -1.
         23    2    1    2    0    0  0.33090205103E+02  0.20090867624E+01 -0.24897921498E+03  0.27802174056E+03  0.11919077410E+03 0.  0.
         23    2    1    2    0    0 -0.49378122029E+02  0.18738350599E+02  0.10900341666E+03  0.15330836153E+03  0.93980764792E+02 0.  0.
        -11    1    4    4    0    0 -0.70475653167E+02 -0.88840270937E+01  0.86382769219E+02  0.11183794725E+03  0.00000000000E+00 0.  1.
         11    1    4    4    0    0  0.21097531138E+02  0.27622377692E+02  0.22620647444E+02  0.41470414277E+02  0.00000000000E+00 0. -1.
        -13    1    3    3    0    0 -0.44951712657E+02 -0.12324317831E+01 -0.77736208334E+02  0.89805865316E+02  0.00000000000E+00 0.  1.
         13    1    3    3    0    0  0.78041917760E+02  0.32415185455E+01 -0.17124300664E+03  0.18821587524E+03  0.00000000000E+00 0. -1.
          2    1    1    2  501    0  0.16287916926E+02 -0.20747437361E+02 -0.66869322068E+01  0.27211531695E+02  0.00000000000E+00 0. -1.
<scales pt_clust_5="13000.00000" pt_clust_6="13000.00000" pt_clust_7="13000.00000" pt_clust_8="13000.00000" pt_clust_9="26.37712"></scales>
<clustering>
<clus scale="   26.377">  1  9  2 -1</clus>
<clus scale="   93.981">  5  6 -1 -1</clus>
<clus scale="  100.187">  1  5  2 -1</clus>
<clus scale="  119.191">  7  8 -1 -1</clus>
<clus scale="   26.377">  1  5  2 -1</clus>
</clustering>
</event>
<event>
 9    1  0.1504846E-005  0.9258092E+02  0.7546771E-02  0.1302046E+00
          2   -1    0    0  502    0 -0.00000000000E+00  0.00000000000E+00  0.10848135505E+03  0.10848135505E+03  0.00000000000E+00 0. -1.
         21   -1    0    0  501  502  0.00000000000E+00 -0.00000000000E+00 -0.57856356669E+03  0.57856356669E+03  0.00000000000E+00 0. -1.
         23    2    1    2    0    0 -0.15009210680E+02 -0.29602445745E+01  0.66532046344E+02  0.10692301010E+03  0.82292025402E+02 0.  0.
         23    2    1    2    0    0  0.48972403139E+02 -0.59084460557E+02 -0.46281203048E+03  0.47789758645E+03  0.91114531376E+02 0.  0.
        -11    1    4    4    0    0  0.52138092879E+02  0.36149295897E+01 -0.27346692828E+03  0.27841625187E+03  0.00000000000E+00 0. -1.
         11    1    4    4    0    0 -0.31656897398E+01 -0.62699390147E+02 -0.18934510220E+03  0.19948133457E+03  0.00000000000E+00 0.  1.
        -13    1    3    3    0    0 -0.71781802789E+00 -0.37451412582E+02  0.93091366333E+01  0.38597714855E+02  0.00000000000E+00 0.  1.
         13    1    3    3    0    0 -0.14291392652E+02  0.34491168008E+02  0.57222909711E+02  0.68325295244E+02  0.00000000000E+00 0. -1.
          2    1    1    2  501    0 -0.33963192459E+02  0.62044705132E+02 -0.73802227506E+02  0.10222432520E+03  0.00000000000E+00 0. -1.
<scales pt_clust_5="13000.00000" pt_clust_6="13000.00000" pt_clust_7="13000.00000" pt_clust_8="13000.00000" pt_clust_9="70.73220"></scales>
<clustering>
<clus scale="   70.732">  2  9  1 -1</clus>
<clus scale="   82.292">  7  8 -1 -1</clus>
<clus scale="   83.913">  1  7  2 -1</clus>
<clus scale="   91.115">  5  6 -1 -1</clus>
<clus scale="   70.732">  2  5  1 -1</clus>
</clustering>
</event>
<event>
 9    1  0.1504846E-005  0.1237120E+03  0.7546771E-02  0.1238884E+00
         21   -1    0    0  501  502  0.00000000000E+00  0.00000000000E+00  0.41526123464E+03  0.41526123464E+03  0.00000000000E+00 0. -1.
          1   -1    0    0  502    0 -0.00000000000E+00 -0.00000000000E+00 -0.64719950951E+02  0.64719950951E+02  0.00000000000E+00 0. -1.
         23    2    1    2    0    0  0.30833976010E+01 -0.98986689790E+02  0.18393347479E+03  0.22757128493E+03  0.90273442833E+02 0.  0.
         23    2    1    2    0    0 -0.16509899642E+02  0.69449800960E+02  0.18479273257E+03  0.21521594675E+03  0.84105279767E+02 0.  0.
        -13    1    3    3    0    0 -0.36239448813E+02 -0.11558521964E+02  0.48308396962E+02  0.61486570056E+02  0.00000000000E+00 0.  1.
         13    1    3    3    0    0  0.39322846414E+02 -0.87428167826E+02  0.13562507783E+03  0.16608471488E+03  0.00000000000E+00 0. -1.
        -13    1    4    4    0    0 -0.45057653521E+02  0.28090562400E+02  0.13224114266E+03  0.14250260225E+03  0.00000000000E+00 0.  1.
         13    1    4    4    0    0  0.28547753880E+02  0.41359238559E+02  0.52551589914E+02  0.72713344499E+02  0.00000000000E+00 0. -1.
          1    1    1    2  501    0  0.13426502040E+02  0.29536888830E+02 -0.18184923669E+02  0.37193953913E+02  0.00000000000E+00 0. -1.
<scales pt_clust_5="13000.00000" pt_clust_6="13000.00000" pt_clust_7="13000.00000" pt_clust_8="13000.00000" pt_clust_9="32.44534"></scales>
<clustering>
<clus scale="   32.445">  1  9  2 -1</clus>
<clus scale="   84.105">  7  8 -1 -1</clus>
<clus scale="   90.273">  5  6 -1 -1</clus>
<clus scale="  119.286">  1  7  2 -1</clus>
<clus scale="   32.445">  1  5  2 -1</clus>
</clustering>
</event>
<event>
 9    1  0.1504846E-005  0.1504700E+03  0.7546771E-02  0.1200005E+00
         21   -1    0    0  501  502  0.00000000000E+00  0.00000000000E+00  0.65416851878E+02  0.65416851878E+02  0.00000000000E+00 0. -1.
          1   -1    0    0  502    0 -0.00000000000E+00 -0.00000000000E+00 -0.81003930182E+03  0.81003930182E+03  0.00000000000E+00 0. -1.
         23    2    1    2    0    0 -0.54253095952E+02 -0.11571344443E+03 -0.20451207378E+03  0.25735237922E+03  0.89844638830E+02 0.  0.
         23    2    1    2    0    0 -0.56822647295E+02  0.12635563953E+03 -0.19453477045E+03  0.25495975853E+03  0.89253238984E+02 0.  0.
        -13    1    4    4    0    0 -0.25243401628E+02  0.11707530835E+03 -0.10396890727E+03  0.15859820563E+03  0.00000000000E+00 0. -1.
         13    1    4    4    0    0 -0.31579245666E+02  0.92803311839E+01 -0.90565863178E+02  0.96361552898E+02  0.00000000000E+00 0.  1.
        -13    1    3    3    0    0 -0.55199004501E+02 -0.79619197688E+02 -0.73923084168E+02  0.12186373173E+03  0.00000000000E+00 0. -1.
         13    1    3    3    0    0  0.94590854879E+00 -0.36094246742E+02 -0.13058898961E+03  0.13548864749E+03  0.00000000000E+00 0.  1.
          1    1    1    2  501    0  0.11107574325E+03 -0.10642195102E+02 -0.34557560572E+03  0.36314401595E+03  0.00000000000E+00 0. -1.
<scales pt_clust_5="13000.00000" pt_clust_6="13000.00000" pt_clust_7="13000.00000" pt_clust_8="13000.00000" pt_clust_9="111.58445"></scales>
<clustering>
<clus scale="   89.253">  5  6 -1 -1</clus>
<clus scale="   89.845">  7  8 -1 -1</clus>
<clus scale="  111.584">  1  9  2 -1</clus>
<clus scale="  150.118">  1  5  2 -1</clus>
<clus scale="  111.584">  1  5  2 -1</clus>
</clustering>
</event>
<event>
 9    1  0.1504846E-005  0.1217420E+03  0.7546771E-02  0.1240750E+00
          1   -1    0    0  502    0 -0.00000000000E+00  0.00000000000E+00  0.64430076826E+03  0.64430076826E+03  0.00000000000E+00 0. -1.
         21   -1    0    0  501  502  0.00000000000E+00 -0.00000000000E+00 -0.44109294985E+02  0.44109294985E+02  0.00000000000E+00 0.  1.
         23    2    1    2    0    0  0.19778471028E+01 -0.72790453589E+02  0.36576316589E+03  0.38397361024E+03  0.91382043233E+02 0.  0.
         23    2    1    2    0    0  0.31454194232E+02  0.87886779639E+02  0.23306069814E+03  0.26772854101E+03  0.92993710989E+02 0.  0.
        -11    1    4    4    0    0  0.92453478904E+01 -0.19748609030E+02  0.35802367116E+02  0.41920084773E+02  0.00000000000E+00 0.  1.
         11    1    4    4    0    0  0.22208846342E+02  0.10763538867E+03  0.19725833102E+03  0.22580845624E+03  0.00000000000E+00 0. -1.
        -13    1    3    3    0    0 -0.23575665900E+02 -0.85190933944E+02  0.28154808101E+03  0.29509766040E+03  0.00000000000E+00 0.  1.
         13    1    3    3    0    0  0.25553513003E+02  0.12400480354E+02  0.84215084877E+02  0.88875949844E+02  0.00000000000E+00 0. -1.
          1    1    1    2  501    0 -0.33432041335E+02 -0.15096326049E+02  0.13676092444E+01  0.36707911996E+02  0.00000000000E+00 0. -1.
<scales pt_clust_5="13000.00000" pt_clust_6="13000.00000" pt_clust_7="13000.00000" pt_clust_8="13000.00000" pt_clust_9="36.68243"></scales>
<clustering>
<clus scale="   36.682">  2  9  1 -1</clus>
<clus scale="   91.382">  7  8 -1 -1</clus>
<clus scale="   92.994">  5  6 -1 -1</clus>
<clus scale="  120.515">  1  7  2 -1</clus>
<clus scale="   36.682">  2  5  1 -1</clus>
</clustering>
</event>
<event>
 9    1  0.1504846E-005  0.1215227E+03  0.7546771E-02  0.1241524E+00
          3   -1    0    0  502    0 -0.00000000000E+00  0.00000000000E+00  0.56015742135E+03  0.56015742135E+03  0.00000000000E+00 0. -1.
         21   -1    0    0  501  502  0.00000000000E+00 -0.00000000000E+00 -0.10287709644E+03  0.10287709644E+03  0.00000000000E+00 0. -1.
         23    2    1    2    0    0  0.42549351036E+02  0.76094519524E+02  0.44074903485E+03  0.45868757512E+03  0.92378334427E+02 0.  0.
         23    2    1    2    0    0 -0.19887282536E+02 -0.51861266883E+02  0.80347845102E+02  0.13242078205E+03  0.89411365595E+02 0.  0.
        -11    1    3    3    0    0 -0.16222836369E+02 -0.12319368112E+02  0.57316185817E+02  0.60828384881E+02  0.00000000000E+00 0.  1.
         11    1    3    3    0    0  0.58772187406E+02  0.88413887635E+02  0.38343284904E+03  0.39785919024E+03  0.00000000000E+00 0. -1.
        -13    1    4    4    0    0 -0.10489387510E+02 -0.77274379361E+02  0.56165800488E+02  0.96103871412E+02  0.00000000000E+00 0.  1.
         13    1    4    4    0    0 -0.93978950264E+01  0.25413112478E+02  0.24182044614E+02  0.36316910641E+02  0.00000000000E+00 0. -1.
          3    1    1    2  501    0 -0.22662068500E+02 -0.24233252641E+02 -0.63816555046E+02  0.71926160611E+02  0.00000000000E+00 0. -1.
<scales pt_clust_5="13000.00000" pt_clust_6="13000.00000" pt_clust_7="13000.00000" pt_clust_8="13000.00000" pt_clust_9="33.17861"></scales>
<clustering>
<clus scale="   33.179">  2  9  1 -1</clus>
<clus scale="   89.411">  7  8 -1 -1</clus>
<clus scale="   92.378">  5  6 -1 -1</clus>
<clus scale="  119.283">  2  7  1 -1</clus>
<clus scale="   33.179">  2  5  1 -1</clus>
</clustering>
</event>
<event>
 9    1  0.1504846E-005  0.1469184E+03  0.7546771E-02  0.1204675E+00
         21   -1    0    0  501  502  0.00000000000E+00  0.00000000000E+00  0.22272652319E+03  0.22272652319E+03  0.00000000000E+00 0.  1.
          2   -1    0    0  502    0 -0.00000000000E+00 -0.00000000000E+00 -0.20175221982E+03  0.20175221982E+03  0.00000000000E+00 0. -1.
         23    2    1    2    0    0 -0.11942130350E+03 -0.12376937153E+02 -0.10048424594E+03  0.18173138299E+03  0.92274457880E+02 0.  0.
         23    2    1    2    0    0  0.84868033886E+02  0.55136626138E+02  0.12900713846E+03  0.18725591347E+03  0.90439508171E+02 0.  0.
        -13    1    3    3    0    0 -0.71785396593E+02  0.32840579862E+02 -0.81272064112E+02  0.11329958188E+03  0.00000000000E+00 0.  1.
         13    1    3    3    0    0 -0.47635906907E+02 -0.45217517015E+02 -0.19212181829E+02  0.68431801105E+02  0.00000000000E+00 0. -1.
        -13    1    4    4    0    0  0.29846317842E+02 -0.40952474766E+01 -0.52082670174E+01  0.30572860284E+02  0.00000000000E+00 0. -1.
         13    1    4    4    0    0  0.55021716044E+02  0.59231873615E+02  0.13421540547E+03  0.15668305318E+03  0.00000000000E+00 0.  1.
          2    1    1    2  501    0  0.34553269614E+02 -0.42759688986E+02 -0.75485891376E+01  0.55491446558E+02  0.00000000000E+00 0. -1.
<scales pt_clust_5="13000.00000" pt_clust_6="13000.00000" pt_clust_7="13000.00000" pt_clust_8="13000.00000" pt_clust_9="54.97565"></scales>
<clustering>
<clus scale="   54.976">  1  9  2 -1</clus>
<clus scale="   90.440">  7  8 -1 -1</clus>
<clus scale="   92.274">  5  6 -1 -1</clus>
<clus scale="  145.773">  1  7  2 -1</clus>
<clus scale="   54.976">  1  5  2 -1</clus>
</clustering>
</event>
<event>
 9    1  0.1504846E-005  0.1058523E+03  0.7546771E-02  0.1269974E+00
         21   -1    0    0  501  502  0.00000000000E+00  0.00000000000E+00  0.23798227748E+03  0.23798227748E+03  0.00000000000E+00 0. -1.
          2   -1    0    0  502    0 -0.00000000000E+00 -0.00000000000E+00 -0.41003012952E+03  0.41003012952E+03  0.00000000000E+00 0. -1.
         23    2    1    2    0    0 -0.16555375996E+02 -0.43119028685E+02 -0.23103688941E+03  0.25185846756E+03  0.89001754496E+02 0.  0.
         23    2    1    2    0    0  0.68610085958E+02  0.30292058002E+02 -0.14361035902E+03  0.18658118494E+03  0.92539995045E+02 0.  0.
        -11    1    4    4    0    0 -0.11326146393E+02  0.36706315726E+02 -0.54793464915E+02  0.66917553778E+02  0.00000000000E+00 0.  1.
         11    1    4    4    0    0  0.79936232350E+02 -0.64142577235E+01 -0.88816894104E+02  0.11966363116E+03  0.00000000000E+00 0. -1.
        -11    1    3    3    0    0 -0.37181044802E+02 -0.45591235306E+02 -0.22117072194E+03  0.22886126600E+03  0.00000000000E+00 0. -1.
         11    1    3    3    0    0  0.20625668806E+02  0.24722066215E+01 -0.98661674726E+01  0.22997201566E+02  0.00000000000E+00 0.  1.
          2    1    1    2  501    0 -0.52054709962E+02  0.12826970682E+02  0.20259939639E+03  0.20957275449E+03  0.00000000000E+00 0. -1.
<scales pt_clust_5="13000.00000" pt_clust_6="13000.00000" pt_clust_7="13000.00000" pt_clust_8="13000.00000" pt_clust_9="53.61179"></scales>
<clustering>
<clus scale="   53.612">  1  9  2 -1</clus>
<clus scale="   89.002">  7  8 -1 -1</clus>
<clus scale="   92.540">  5  6 -1 -1</clus>
<clus scale="  102.773">  2  7  1 -1</clus>
<clus scale="   53.612">  1  5  2 -1</clus>
</clustering>
</event>
<event>
 9    1  0.1504846E-005  0.1002439E+03  0.7546771E-02  0.1279878E+00
          1   -1    0    0  502    0 -0.00000000000E+00  0.00000000000E+00  0.15680988367E+03  0.15680988367E+03  0.00000000000E+00 0. -1.
         21   -1    0    0  501  502  0.00000000000E+00 -0.00000000000E+00 -0.17335834721E+03  0.17335834721E+03  0.00000000000E+00 0. -1.
         23    2    1    2    0    0 -0.28483374721E+02 -0.17816027868E+02  0.57293397575E+02  0.11299717549E+03  0.91417256461E+02 0.  0.
         23    2    1    2    0    0  0.66212317890E+02 -0.34225466037E+02  0.15288812459E+01  0.11811279453E+03  0.91612451050E+02 0.  0.
        -13    1    4    4    0    0  0.49712293300E+02 -0.59147922478E+02 -0.21705077304E+02  0.80255213035E+02  0.00000000000E+00 0.  1.
         13    1    4    4    0    0  0.16500024590E+02  0.24922456441E+02  0.23233958550E+02  0.37857581492E+02  0.00000000000E+00 0. -1.
        -13    1    3    3    0    0 -0.10802249124E+02 -0.53533673202E+02  0.46447927661E+02  0.71693463695E+02  0.00000000000E+00 0.  1.
         13    1    3    3    0    0 -0.17681125597E+02  0.35717645334E+02  0.10845469915E+02  0.41303711797E+02  0.00000000000E+00 0. -1.
          1    1    1    2  501    0 -0.37728943169E+02  0.52041493905E+02 -0.75370742358E+02  0.99058260858E+02  0.00000000000E+00 0. -1.
<scales pt_clust_5="13000.00000" pt_clust_6="13000.00000" pt_clust_7="13000.00000" pt_clust_8="13000.00000" pt_clust_9="64.27900"></scales>
<clustering>
<clus scale="   64.279">  2  9  1 -1</clus>
<clus scale="   91.417">  7  8 -1 -1</clus>
<clus scale="   91.612">  5  6 -1 -1</clus>
<clus scale="  100.066">  1  7  2 -1</clus>
<clus scale="   64.279">  2  5  1 -1</clus>
</clustering>
</event>
<event>
 9    1  0.1504846E-005  0.1073745E+03  0.7546771E-02  0.1266059E+00
         21   -1    0    0  501  502  0.00000000000E+00  0.00000000000E+00  0.28758354721E+03  0.28758354721E+03  0.00000000000E+00 0. -1.
          1   -1    0    0  502    0 -0.00000000000E+00 -0.00000000000E+00 -0.16920713283E+03  0.16920713283E+03  0.00000000000E+00 0. -1.
         23    2    1    2    0    0  0.63677390757E+02 -0.13506982414E+01 -0.78384608830E+02  0.13509384018E+03  0.89719363988E+02 0.  0.
         23    2    1    2    0    0 -0.38029088340E+02 -0.47859149922E+02 -0.75919183748E+01  0.10994328190E+03  0.91066888704E+02 0.  0.
        -11    1    3    3    0    0 -0.22431540329E+02  0.24295105388E+01 -0.84295576574E+01  0.24085970300E+02  0.00000000000E+00 0.  1.
         11    1    3    3    0    0  0.86108931086E+02 -0.37802087802E+01 -0.69955051173E+02  0.11100786988E+03  0.00000000000E+00 0. -1.
        -13    1    4    4    0    0 -0.20649994054E+02  0.25566771901E+02  0.56172117018E+01  0.33341192948E+02  0.00000000000E+00 0.  1.
         13    1    4    4    0    0 -0.17379094286E+02 -0.73425921823E+02 -0.13209130077E+02  0.76602088948E+02  0.00000000000E+00 0. -1.
          1    1    1    2  501    0 -0.25648302417E+02  0.49209848164E+02  0.20435294159E+03  0.21175355796E+03  0.00000000000E+00 0. -1.
<scales pt_clust_5="13000.00000" pt_clust_6="13000.00000" pt_clust_7="13000.00000" pt_clust_8="13000.00000" pt_clust_9="55.49274"></scales>
<clustering>
<clus scale="   55.493">  1  9  2 -1</clus>
<clus scale="   89.719">  5  6 -1 -1</clus>
<clus scale="   91.067">  7  8 -1 -1</clus>
<clus scale="  106.234">  2  5  1 -1</clus>
<clus scale="   55.493">  1  5  2 -1</clus>
</clustering>
</event>
<event>
 9    1  0.1504846E-005  0.1033745E+03  0.7546771E-02  0.1274752E+00
         -3   -1    0    0    0  501 -0.00000000000E+00  0.00000000000E+00  0.36966267722E+02  0.36966267722E+02  0.00000000000E+00 0.  1.
         21   -1    0    0  501  502  0.00000000000E+00 -0.00000000000E+00 -0.65506447878E+03  0.65506447878E+03  0.00000000000E+00 0.  1.
         23    2    1    2    0    0 -0.16651304467E+01  0.44226672603E+02 -0.67804462450E+02  0.11989410379E+03  0.88421602379E+02 0.  0.
         23    2    1    2    0    0 -0.33375705687E+02 -0.62054069269E+02 -0.37016829774E+03  0.38777055494E+03  0.91524802010E+02 0.  0.
        -11    1    3    3    0    0 -0.15160203253E+02  0.16288155640E+02 -0.82582234340E+02  0.85527546471E+02  0.00000000000E+00 0. -1.
         11    1    3    3    0    0  0.13495072806E+02  0.27938516963E+02  0.14777771890E+02  0.34366557322E+02  0.00000000000E+00 0.  1.
        -11    1    4    4    0    0 -0.57796118737E+02 -0.58758367172E+02 -0.33390896298E+03  0.34393041827E+03  0.00000000000E+00 0.  1.
         11    1    4    4    0    0  0.24420413050E+02 -0.32957020964E+01 -0.36259334763E+02  0.43840136671E+02  0.00000000000E+00 0. -1.
         -3    1    1    2    0  502  0.35040836134E+02  0.17827396665E+02 -0.18012545087E+03  0.18436608777E+03  0.00000000000E+00 0.  1.
<scales pt_clust_5="13000.00000" pt_clust_6="13000.00000" pt_clust_7="13000.00000" pt_clust_8="13000.00000" pt_clust_9="39.31509"></scales>
<clustering>
<clus scale="   39.315">  2  9  1 -1</clus>
<clus scale="   88.422">  5  6 -1 -1</clus>
<clus scale="   91.525">  7  8 -1 -1</clus>
<clus scale="  100.637">  1  5  2 -1</clus>
<clus scale="   39.315">  2  5  1 -1</clus>
</clustering>
</event>
<event>
 9    1  0.1504846E-005  0.1041370E+03  0.7546771E-02  0.1274796E+00
         21   -1    0    0  501  502  0.00000000000E+00  0.00000000000E+00  0.21375325608E+03  0.21375325608E+03  0.00000000000E+00 0. -1.
          3   -1    0    0  502    0 -0.00000000000E+00 -0.00000000000E+00 -0.12248372407E+03  0.12248372407E+03  0.00000000000E+00 0. -1.
         23    2    1    2    0    0  0.39525744402E+02  0.25943886552E+02 -0.61850157548E+02  0.11728843725E+03  0.87725513986E+02 0.  0.
         23    2    1    2    0    0 -0.14321560448E+02 -0.40073738470E+02  0.55801980906E+02  0.11743184466E+03  0.94156069690E+02 0.  0.
        -11    1    4    4    0    0 -0.21329553854E+02  0.26603056329E+02  0.30575614926E+02  0.45798915945E+02  0.00000000000E+00 0.  1.
         11    1    4    4    0    0  0.70079934059E+01 -0.66676794799E+02  0.25226365980E+02  0.71632928718E+02  0.00000000000E+00 0. -1.
        -13    1    3    3    0    0 -0.22205261905E+02 -0.13881704326E+02 -0.16766557057E+02  0.31094900013E+02  0.00000000000E+00 0.  1.
         13    1    3    3    0    0  0.61731006307E+02  0.39825590878E+02 -0.45083600492E+02  0.86193537239E+02  0.00000000000E+00 0. -1.
          3    1    1    2  501    0 -0.25204183954E+02  0.14129851918E+02  0.97317708654E+02  0.10151669824E+03  0.00000000000E+00 0. -1.
<scales pt_clust_5="13000.00000" pt_clust_6="13000.00000" pt_clust_7="13000.00000" pt_clust_8="13000.00000" pt_clust_9="28.89470"></scales>
<clustering>
<clus scale="   28.895">  1  9  2 -1</clus>
<clus scale="   87.726">  7  8 -1 -1</clus>
<clus scale="   94.156">  5  6 -1 -1</clus>
<clus scale="   98.361">  2  7  1 -1</clus>
<clus scale="   28.895">  1  5  2 -1</clus>
</clustering>
</event>
<event>
 9    1  0.1504846E-005  0.9085684E+02  0.7546771E-02  0.1301531E+00
         -3   -1    0    0    0  501 -0.00000000000E+00  0.00000000000E+00  0.23635525854E+03  0.23635525854E+03  0.00000000000E+00 0.  1.
         21   -1    0    0  501  502  0.00000000000E+00 -0.00000000000E+00 -0.14716205504E+03  0.14716205504E+03  0.00000000000E+00 0. -1.
         23    2    1    2    0    0 -0.60328153079E+01 -0.50183895006E+01  0.12677447873E+03  0.15535944358E+03  0.89460657033E+02 0.  0.
         23    2    1    2    0    0 -0.24073023091E+02 -0.13488617449E+02  0.68100224283E+02  0.11672425680E+03  0.90694312593E+02 0.  0.
        -11    1    4    4    0    0  0.22456920510E+02 -0.21129579731E+02  0.61913649853E+02  0.69166989645E+02  0.00000000000E+00 0.  1.
         11    1    4    4    0    0 -0.46529943601E+02  0.76409622816E+01  0.61865744303E+01  0.47557267155E+02  0.00000000000E+00 0. -1.
        -11    1    3    3    0    0  0.40924510613E+02  0.55903229740E+01  0.65498166989E+02  0.77434340953E+02  0.00000000000E+00 0.  1.
         11    1    3    3    0    0 -0.46957325921E+02 -0.10608712475E+02  0.61276311745E+02  0.77925102625E+02  0.00000000000E+00 0. -1.
         -3    1    1    2    0  502  0.30105838398E+02  0.18507006950E+02 -0.10568149951E+03  0.11143361320E+03  0.00000000000E+00 0.  1.
<scales pt_clust_5="13000.00000" pt_clust_6="13000.00000" pt_clust_7="13000.00000" pt_clust_8="13000.00000" pt_clust_9="35.33937"></scales>
<clustering>
<clus scale="   35.339">  2  9  1 -1</clus>
<clus scale="   89.461">  7  8 -1 -1</clus>
<clus scale="   89.625">  1  7  2 -1</clus>
<clus scale="   90.694">  5  6 -1 -1</clus>
<clus scale="   35.339">  2  5  1 -1</clus>
</clustering>
</event>
<event>
 9    1  0.1504846E-005  0.1140505E+03  0.7546771E-02  0.1254886E+00
          2   -1    0    0  502    0 -0.00000000000E+00  0.00000000000E+00  0.53553885070E+03  0.53553885070E+03  0.00000000000E+00 0. -1.
         21   -1    0    0  501  502  0.00000000000E+00 -0.00000000000E+00 -0.11272415328E+03  0.11272415328E+03  0.00000000000E+00 0.  1.
         23    2    1    2    0    0 -0.61837949890E+02 -0.35512690956E+02  0.40383374885E+03  0.41983610917E+03  0.89975433211E+02 0.  0.
         23    2    1    2    0    0  0.87726451708E+02 -0.45385041408E+02 -0.24838515785E+02  0.13285073103E+03  0.85303180223E+02 0.  0.
        -11    1    3    3    0    0  0.11303761133E+00  0.24901474622E+02  0.54092615076E+02  0.59549200008E+02  0.00000000000E+00 0.  1.
         11    1    3    3    0    0 -0.61950987502E+02 -0.60414165578E+02  0.34974113378E+03  0.36028690916E+03  0.00000000000E+00 0. -1.
        -13    1    4    4    0    0  0.10676934052E+02 -0.46767513912E+02 -0.28326610130E+02  0.55709910427E+02  0.00000000000E+00 0.  1.
         13    1    4    4    0    0  0.77049517656E+02  0.13824725044E+01  0.34880943457E+01  0.77140820604E+02  0.00000000000E+00 0. -1.
          2    1    1    2  501    0 -0.25888501817E+02  0.80897732364E+02  0.43819464346E+02  0.95576163783E+02  0.00000000000E+00 0. -1.
<scales pt_clust_5="13000.00000" pt_clust_6="13000.00000" pt_clust_7="13000.00000" pt_clust_8="13000.00000" pt_clust_9="84.93914"></scales>
<clustering>
<clus scale="   84.939">  2  9  1 -1</clus>
<clus scale="   85.303">  7  8 -1 -1</clus>
<clus scale="   89.975">  5  6 -1 -1</clus>
<clus scale="  110.402">  2  7  1 -1</clus>
<clus scale="   84.939">  2  5  1 -1</clus>
</clustering>
</event>
<event>
 9    1  0.1504846E-005  0.1113359E+03  0.7546771E-02  0.1263514E+00
         21   -1    0    0  501  502  0.00000000000E+00  0.00000000000E+00  0.11425878315E+03  0.11425878315E+03  0.00000000000E+00 0.  1.
          2   -1    0    0  502    0 -0.00000000000E+00 -0.00000000000E+00 -0.28385743481E+03  0.28385743481E+03  0.00000000000E+00 0. -1.
         23    2    1    2    0    0  0.25280892524E+02  0.23369892599E+02 -0.14913574114E+03  0.18563380853E+03  0.10503887936E+03 0.  0.
         23    2    1    2    0    0  0.25616295718E+02 -0.58592515362E+02 -0.70287504795E+02  0.13302394784E+03  0.93090063412E+02 0.  0.
        -13    1    4    4    0    0  0.46291561949E+02 -0.22993458510E+02 -0.75531488035E+02  0.91523841302E+02  0.00000000000E+00 0. -1.
         13    1    4    4    0    0 -0.20675266230E+02 -0.35599056852E+02  0.52439832406E+01  0.41500106538E+02  0.00000000000E+00 0.  1.
        -13    1    3    3    0    0  0.58623564093E+01 -0.40973751280E+02 -0.74272754646E+02  0.85027393229E+02  0.00000000000E+00 0.  1.
         13    1    3    3    0    0  0.19418536115E+02  0.64343643879E+02 -0.74862986491E+02  0.10060641530E+03  0.00000000000E+00 0. -1.
          2    1    1    2  501    0 -0.50897188242E+02  0.35222622763E+02  0.49824594273E+02  0.79458461600E+02  0.00000000000E+00 0. -1.
<scales pt_clust_5="13000.00000" pt_clust_6="13000.00000" pt_clust_7="13000.00000" pt_clust_8="13000.00000" pt_clust_9="61.89634"></scales>
<clustering>
<clus scale="   61.896">  1  9  2 -1</clus>
<clus scale="   93.090">  5  6 -1 -1</clus>
<clus scale="  100.141">  1  5  2 -1</clus>
<clus scale="  105.039">  7  8 -1 -1</clus>
<clus scale="   61.896">  1  5  2 -1</clus>
</clustering>
</event>
<event>
 9    1  0.1504846E-005  0.1242556E+03  0.7546771E-02  0.1237871E+00
         21   -1    0    0  501  502  0.00000000000E+00  0.00000000000E+00  0.61275668191E+02  0.61275668191E+02  0.00000000000E+00 0. -1.
          1   -1    0    0  502    0 -0.00000000000E+00 -0.00000000000E+00 -0.39174378460E+03  0.39174378460E+03  0.00000000000E+00 0. -1.
         23    2    1    2    0    0 -0.30529514346E+02  0.80645171889E+02 -0.23593522185E+03  0.26545223388E+03  0.85812380030E+02 0.  0.
         23    2    1    2    0    0  0.60337410691E+02 -0.59163398115E+02 -0.65126151523E+02  0.14050626031E+03  0.91431300811E+02 0.  0.
        -13    1    3    3    0    0 -0.30594985745E+02  0.13127081249E+02 -0.19174057960E+02  0.38418978559E+02  0.00000000000E+00 0.  1.
         13    1    3    3    0    0  0.65471398238E-01  0.67518090640E+02 -0.21676116389E+03  0.22703325532E+03  0.00000000000E+00 0. -1.
        -13    1    4    4    0    0  0.61345452386E+02 -0.36526432813E+02  0.16320242181E+00  0.71396578752E+02  0.00000000000E+00 0.  1.
         13    1    4    4    0    0 -0.10080416955E+01 -0.22636965302E+02 -0.65289353944E+02  0.69109681555E+02  0.00000000000E+00 0. -1.
          1    1    1    2  501    0 -0.29807896344E+02 -0.21481773773E+02 -0.29406743039E+02  0.47060958608E+02  0.00000000000E+00 0. -1.
<scales pt_clust_5="13000.00000" pt_clust_6="13000.00000" pt_clust_7="13000.00000" pt_clust_8="13000.00000" pt_clust_9="36.74204"></scales>
<clustering>
<clus scale="   36.742">  1  9  2 -1</clus>
<clus scale="   85.812">  5  6 -1 -1</clus>
<clus scale="   91.431">  7  8 -1 -1</clus>
<clus scale="  120.181">  2  5  1 -1</clus>
<clus scale="   36.742">  1  5  2 -1</clus>
</clustering>
</event>
<event>
 9    1  0.1504846E-005  0.1427623E+03  0.7546771E-02  0.1210045E+00
         21   -1    0    0  501  502  0.00000000000E+00  0.00000000000E+00  0.54302810024E+03  0.54302810024E+03  0.00000000000E+00 0. -1.
         -2   -1    0    0    0  501 -0.00000000000E+00 -0.00000000000E+00 -0.60627055340E+02  0.60627055340E+02  0.00000000000E+00 0.  1.
         23    2    1    2    0    0  0.65902417105E+02 -0.72451183645E+02  0.12133362538E+03  0.18115992917E+03  0.92221302843E+02 0.  0.
         23    2    1    2    0    0 -0.62218775987E+02  0.10923645045E+03  0.17884951736E+03  0.23656489286E+03  0.90399228320E+02 0.  0.
        -11    1    4    4    0    0 -0.64928547998E+02  0.26055339154E+02  0.99028342122E+02  0.12124854468E+03  0.00000000000E+00 0.  1.
         11    1    4    4    0    0  0.27097720111E+01  0.83181111297E+02  0.79821175241E+02  0.11531634818E+03  0.00000000000E+00 0. -1.
        -13    1    3    3    0    0  0.19330218492E+02 -0.79477693876E+02  0.50602165244E+02  0.96181808562E+02  0.00000000000E+00 0.  1.
         13    1    3    3    0    0  0.46572198612E+02  0.70265102312E+01  0.70731460133E+02  0.84978120609E+02  0.00000000000E+00 0. -1.
         -2    1    1    2    0  502 -0.36836411183E+01 -0.36785266805E+02  0.18221790217E+03  0.18593033355E+03  0.00000000000E+00 0.  1.
<scales pt_clust_5="13000.00000" pt_clust_6="13000.00000" pt_clust_7="13000.00000" pt_clust_8="13000.00000" pt_clust_9="36.96924"></scales>
<clustering>
<clus scale="   36.969">  1  9  2 -1</clus>
<clus scale="   90.399">  5  6 -1 -1</clus>
<clus scale="   92.221">  7  8 -1 -1</clus>
<clus scale="  141.592">  1  5  2 -1</clus>
<clus scale="   36.969">  1  5  2 -1</clus>
</clustering>
</event>
<event>
 9    1  0.1504846E-005  0.1816946E+03  0.7546771E-02  0.1167012E+00
         21   -1    0    0  501  502  0.00000000000E+00  0.00000000000E+00  0.16156781059E+03  0.16156781059E+03  0.00000000000E+00 0.  1.
          1   -1    0    0  502    0 -0.00000000000E+00 -0.00000000000E+00 -0.27557806656E+03  0.27557806656E+03  0.00000000000E+00 0. -1.
         23    2    1    2    0    0 -0.14316993937E+03  0.76009821358E+02 -0.11061426894E+03  0.21671702004E+03  0.91954476766E+02 0.  0.
         23    2    1    2    0    0  0.13070106810E+03 -0.52669796749E+02 -0.38768097358E+02  0.17625402618E+03  0.98517204987E+02 0.  0.
        -11    1    3    3    0    0 -0.23878366419E+02 -0.21031243240E+02 -0.26678120083E+02  0.41523627807E+02  0.00000000000E+00 0. -1.
         11    1    3    3    0    0 -0.11929157295E+03  0.97041064598E+02 -0.83936148858E+02  0.17519339223E+03  0.00000000000E+00 0.  1.
        -13    1    4    4    0    0  0.45608897819E+02 -0.55778790991E+01 -0.61119317517E+02  0.76464732193E+02  0.00000000000E+00 0. -1.
         13    1    4    4    0    0  0.85092170282E+02 -0.47091917650E+02  0.22351220159E+02  0.99789293984E+02  0.00000000000E+00 0.  1.
          1    1    1    2  501    0  0.12468871272E+02 -0.23340024609E+02  0.35372110330E+02  0.44174830942E+02  0.00000000000E+00 0. -1.
<scales pt_clust_5="13000.00000" pt_clust_6="13000.00000" pt_clust_7="13000.00000" pt_clust_8="13000.00000" pt_clust_9="26.46185"></scales>
<clustering>
<clus scale="   26.462">  1  9  2 -1</clus>
<clus scale="   91.954">  5  6 -1 -1</clus>
<clus scale="   98.517">  7  8 -1 -1</clus>
<clus scale="  178.222">  2  5  1 -1</clus>
<clus scale="   26.462">  1  5  2 -1</clus>
</clustering>
</event>
<event>
 9    1  0.1504846E-005  0.1018633E+03  0.7546771E-02  0.1276975E+00
         21   -1    0    0  501  502  0.00000000000E+00  0.00000000000E+00  0.18162517611E+03  0.18162517611E+03  0.00000000000E+00 0.  1.
          1   -1    0    0  502    0 -0.00000000000E+00 -0.00000000000E+00 -0.12901515016E+03  0.12901515016E+03  0.00000000000E+00 0. -1.
         23    2    1    2    0    0  0.29058499428E+02 -0.30017432180E+02 -0.71250379544E+02  0.12218735100E+03  0.90042709514E+02 0.  0.
         23    2    1    2    0    0 -0.42625825188E+02  0.49273240194E+02  0.12062364696E+03  0.16467619928E+03  0.91232522872E+02 0.  0.
        -13    1    3    3    0    0  0.59658995844E+02 -0.33310542408E+02 -0.52262753481E+02  0.86024318783E+02  0.00000000000E+00 0.  1.
         13    1    3    3    0    0 -0.30600496417E+02  0.32931102283E+01 -0.18987626062E+02  0.36163032221E+02  0.00000000000E+00 0. -1.
        -13    1    4    4    0    0  0.13712236548E+02 -0.15193714767E+02  0.54734777816E+01  0.21185687589E+02  0.00000000000E+00 0. -1.
         13    1    4    4    0    0 -0.56338061737E+02  0.64466954962E+02  0.11515016918E+03  0.14349051169E+03  0.00000000000E+00 0.  1.
          1    1    1    2  501    0  0.13567325761E+02 -0.19255808015E+02  0.32367585281E+01  0.23776775988E+02  0.00000000000E+00 0. -1.
<scales pt_clust_5="13000.00000" pt_clust_6="13000.00000" pt_clust_7="13000.00000" pt_clust_8="13000.00000" pt_clust_9="23.55545"></scales>
<clustering>
<clus scale="   23.555">  1  9  2 -1</clus>
<clus scale="   90.043">  5  6 -1 -1</clus>
<clus scale="   91.233">  7  8 -1 -1</clus>
<clus scale="  100.799">  2  5  1 -1</clus>
<clus scale="   23.555">  1  5  2 -1</clus>
</clustering>
</event>
<event>
 9    1  0.1504846E-005  0.1243538E+03  0.7546771E-02  0.1236277E+00
         21   -1    0    0  501  502  0.00000000000E+00  0.00000000000E+00  0.76580787026E+02  0.76580787026E+02  0.00000000000E+00 0.  1.
         -2   -1    0    0    0  501 -0.00000000000E+00 -0.00000000000E+00 -0.39014527798E+03  0.39014527798E+03  0.00000000000E+00 0.  1.
         23    2    1    2    0    0  0.51274187635E+02  0.97875566639E+02 -0.14285996622E+03  0.20199173682E+03  0.90460062640E+02 0.  0.
         23    2    1    2    0    0 -0.26486766994E+02 -0.41318436753E+02 -0.25001360500E+02  0.10648598781E+03  0.91134162267E+02 0.  0.
        -11    1    4    4    0    0  0.32606465911E+01 -0.34622655990E+02 -0.54116124901E+02  0.64326628221E+02  0.00000000000E+00 0. -1.
         11    1    4    4    0    0 -0.29747413585E+02 -0.66957807632E+01  0.29114764401E+02  0.42159359591E+02  0.00000000000E+00 0.  1.
        -13    1    3    3    0    0  0.59480824320E+02  0.57520589732E+02 -0.13748144617E+03  0.16046100693E+03  0.00000000000E+00 0.  1.
         13    1    3    3    0    0 -0.82066366848E+01  0.40354976907E+02 -0.53785200457E+01  0.41530729885E+02  0.00000000000E+00 0. -1.
         -2    1    1    2    0  502 -0.24787420642E+02 -0.56557129886E+02 -0.14570316424E+03  0.15824834037E+03  0.00000000000E+00 0.  1.
<scales pt_clust_5="13000.00000" pt_clust_6="13000.00000" pt_clust_7="13000.00000" pt_clust_8="13000.00000" pt_clust_9="61.75054"></scales>
<clustering>
<clus scale="   61.751">  1  9  2 -1</clus>
<clus scale="   90.460">  7  8 -1 -1</clus>
<clus scale="   91.134">  5  6 -1 -1</clus>
<clus scale="  123.861">  2  7  1 -1</clus>
<clus scale="   61.751">  1  5  2 -1</clus>
</clustering>
</event>
<event>
 9    1  0.1504846E-005  0.1417411E+03  0.7546771E-02  0.1218434E+00
         21   -1    0    0  501  502  0.00000000000E+00  0.00000000000E+00  0.10700570983E+03  0.10700570983E+03  0.00000000000E+00 0. -1.
          2   -1    0    0  502    0 -0.00000000000E+00 -0.00000000000E+00 -0.65610313416E+03  0.65610313416E+03  0.00000000000E+00 0. -1.
         23    2    1    2    0    0  0.56266106208E+02  0.54775926462E+02  0.32166028032E+02  0.12529964323E+03  0.92190403009E+02 0.  0.
         23    2    1    2    0    0 -0.20330037013E+02  0.77457784094E+02 -0.33136060657E+03  0.35280290677E+03  0.90868150192E+02 0.  0.
        -11    1    3    3    0    0 -0.19643380525E+02  0.24959005084E+02  0.30038464247E+02  0.43716400442E+02  0.00000000000E+00 0.  1.
         11    1    3    3    0    0  0.75909486733E+02  0.29816921378E+02  0.21275637846E+01  0.81583242790E+02  0.00000000000E+00 0. -1.
        -11    1    4    4    0    0  0.15842385810E+02 -0.12825014992E+02 -0.31110410207E+02  0.37193007689E+02  0.00000000000E+00 0.  1.
         11    1    4    4    0    0 -0.36172422823E+02  0.90282799086E+02 -0.30025019636E+03  0.31560989908E+03  0.00000000000E+00 0. -1.
          2    1    1    2  501    0 -0.35936069195E+02 -0.13223371056E+03 -0.24990284579E+03  0.28500629399E+03  0.00000000000E+00 0. -1.
<scales pt_clust_5="13000.00000" pt_clust_6="13000.00000" pt_clust_7="13000.00000" pt_clust_8="13000.00000" pt_clust_9="108.78201"></scales>
<clustering>
<clus scale="   90.868">  7  8 -1 -1</clus>
<clus scale="   92.190">  5  6 -1 -1</clus>
<clus scale="  121.101">  2  5  1 -1</clus>
<clus scale="  108.782">  1  9  2 -1</clus>
<clus scale="  108.782">  1  5  2 -1</clus>
</clustering>
</event>
<event>
 9    1  0.1504846E-005  0.1026932E+03  0.7546771E-02  0.1275838E+00
          2   -1    0    0  502    0 -0.00000000000E+00  0.00000000000E+00  0.49421293615E+03  0.49421293615E+03  0.00000000000E+00 0. -1.
         21   -1    0    0  501  502  0.00000000000E+00 -0.00000000000E+00 -0.45565912906E+02  0.45565912906E+02  0.00000000000E+00 0.  1.
         23    2    1    2    0    0 -0.45297602554E+02  0.27314461290E+00  0.36298136837E+03  0.37723919423E+03  0.92206227974E+02 0.  0.
         23    2    1    2    0    0  0.43893025292E+02  0.20506870904E+02  0.95275584581E+02  0.13960207362E+03  0.89800737852E+02 0.  0.
        -11    1    3    3    0    0  0.12370930347E+02 -0.30653680312E+02  0.17753048416E+03  0.18058172898E+03  0.00000000000E+00 0.  1.
         11    1    3    3    0    0 -0.57668532901E+02  0.30926824924E+02  0.18545088421E+03  0.19665746526E+03  0.00000000000E+00 0. -1.
        -13    1    4    4    0    0  0.43964279814E+02 -0.39422133590E+01  0.31115109137E+01  0.44250202778E+02  0.00000000000E+00 0.  1.
         13    1    4    4    0    0 -0.71254522536E-01  0.24449084263E+02  0.92164073667E+02  0.95351870844E+02  0.00000000000E+00 0. -1.
          2    1    1    2  501    0  0.14045772623E+01 -0.20780015517E+02 -0.96099297092E+01  0.22937581197E+02  0.00000000000E+00 0. -1.
<scales pt_clust_5="13000.00000" pt_clust_6="13000.00000" pt_clust_7="13000.00000" pt_clust_8="13000.00000" pt_clust_9="20.82743"></scales>
<clustering>
<clus scale="   20.827">  2  9  1 -1</clus>
<clus scale="   89.801">  7  8 -1 -1</clus>
<clus scale="   92.206">  5  6 -1 -1</clus>
<clus scale="  100.539">  2  7  1 -1</clus>
<clus scale="   20.827">  2  5  1 -1</clus>
</clustering>
</event>
<event>
 9    1  0.1504846E-005  0.1001264E+03  0.7546771E-02  0.1280206E+00
         21   -1    0    0  501  502  0.00000000000E+00  0.00000000000E+00  0.16082149371E+03  0.16082149371E+03  0.00000000000E+00 0.  1.
          2   -1    0    0  502    0 -0.00000000000E+00 -0.00000000000E+00 -0.19734392425E+03  0.19734392425E+03  0.00000000000E+00 0. -1.
         23    2    1    2    0    0  0.10273735554E+02 -0.37556011067E+02 -0.15535583730E+03  0.18462758903E+03  0.91847192861E+02 0.  0.
         23    2    1    2    0    0  0.12523226510E+02  0.43770063169E+02  0.96253780483E+02  0.14085518145E+03  0.92210315327E+02 0.  0.
        -11    1    3    3    0    0  0.38898763625E+02  0.12924643074E+02 -0.53465078205E+02  0.67369687528E+02  0.00000000000E+00 0.  1.
         11    1    3    3    0    0 -0.28625028071E+02 -0.50480654141E+02 -0.10189075910E+03  0.11725790150E+03  0.00000000000E+00 0. -1.
        -13    1    4    4    0    0  0.15869819506E+02 -0.17448532082E+02 -0.34220451390E+01  0.23833019865E+02  0.00000000000E+00 0. -1.
         13    1    4    4    0    0 -0.33465929952E+01  0.61218595251E+02  0.99675825622E+02  0.11702216159E+03  0.00000000000E+00 0.  1.
          2    1    1    2  501    0 -0.22796962064E+02 -0.62140521026E+01  0.22579626279E+02  0.32682647472E+02  0.00000000000E+00 0. -1.
<scales pt_clust_5="13000.00000" pt_clust_6="13000.00000" pt_clust_7="13000.00000" pt_clust_8="13000.00000" pt_clust_9="23.62871"></scales>
<clustering>
<clus scale="   23.629">  1  9  2 -1</clus>
<clus scale="   91.847">  5  6 -1 -1</clus>
<clus scale="   92.210">  7  8 -1 -1</clus>
<clus scale="   99.792">  2  5  1 -1</clus>
<clus scale="   23.629">  1  5  2 -1</clus>
</clustering>
</event>
<event>
 9    1  0.1504846E-005  0.1689295E+03  0.7546771E-02  0.1202100E+00
         -4   -1    0    0    0  501 -0.00000000000E+00  0.00000000000E+00  0.23435079128E+03  0.23435079128E+03  0.00000000000E+00 0.  1.
         21   -1    0    0  501  502  0.00000000000E+00 -0.00000000000E+00 -0.26680329334E+03  0.26680329334E+03  0.00000000000E+00 0.  1.
         23    2    1    2    0    0  0.30224622157E+02 -0.32014571872E+02 -0.99923882282E+02  0.14234428420E+03  0.91316221990E+02 0.  0.
         23    2    1    2    0    0 -0.14882459476E+03 -0.39572230236E+02  0.11368281412E+03  0.21277514576E+03  0.92923404033E+02 0.  0.
        -11    1    3    3    0    0  0.25887336573E+02  0.28953886850E+02 -0.50690646719E+02  0.63859403563E+02  0.00000000000E+00 0.  1.
         11    1    3    3    0    0  0.43372855835E+01 -0.60968458723E+02 -0.49233235563E+02  0.78484880641E+02  0.00000000000E+00 0. -1.
        -13    1    4    4    0    0 -0.12384102084E+03 -0.60834783426E+02  0.61330718574E+02  0.15099313348E+03  0.00000000000E+00 0.  1.
         13    1    4    4    0    0 -0.24983573919E+02  0.21262553190E+02  0.52352095541E+02  0.61782012281E+02  0.00000000000E+00 0. -1.
         -4    1    1    2    0  502  0.11859997260E+03  0.71586802108E+02 -0.46211433897E+02  0.14603465465E+03  0.00000000000E+00 0.  1.
<scales pt_clust_5="13000.00000" pt_clust_6="13000.00000" pt_clust_7="13000.00000" pt_clust_8="13000.00000" pt_clust_9="141.07589"></scales>
<clustering>
<clus scale="   91.316">  5  6 -1 -1</clus>
<clus scale="   92.923">  7  8 -1 -1</clus>
<clus scale="  101.376">  1  5  2 -1</clus>
<clus scale="  141.076">  2  9  1 -1</clus>
<clus scale="  141.076">  2  5  1 -1</clus>
</clustering>
</event>
<event>
 9    1  0.1504846E-005  0.9240202E+02  0.7546771E-02  0.1298844E+00
         21   -1    0    0  501  502  0.00000000000E+00  0.00000000000E+00  0.23398885150E+03  0.23398885150E+03  0.00000000000E+00 0.  1.
          4   -1    0    0  502    0 -0.00000000000E+00 -0.00000000000E+00 -0.59729013271E+02  0.59729013271E+02  0.00000000000E+00 0. -1.
         23    2    1    2    0    0 -0.17554223378E+02 -0.63664245984E+01  0.12603180776E+02  0.94086234571E+02  0.91349314445E+02 0.  0.
         23    2    1    2    0    0  0.54559053104E+01 -0.15050316856E+02  0.10731545829E+03  0.13998255610E+03  0.88443368797E+02 0.  0.
        -11    1    4    4    0    0 -0.23426497923E+01 -0.42054539820E+02  0.17046026257E+02  0.45438302551E+02  0.00000000000E+00 0.  1.
         11    1    4    4    0    0  0.77985551027E+01  0.27004222964E+02  0.90269432036E+02  0.94544253552E+02  0.00000000000E+00 0. -1.
        -13    1    3    3    0    0 -0.34539084987E+02  0.22063374764E+02 -0.21725814098E+02  0.46386979811E+02  0.00000000000E+00 0. -1.
         13    1    3    3    0    0  0.16984861609E+02 -0.28429799363E+02  0.34328994874E+02  0.47699254761E+02  0.00000000000E+00 0.  1.
          4    1    1    2  501    0  0.12098318067E+02  0.21416741455E+02  0.54341199163E+02  0.59649074100E+02  0.00000000000E+00 0. -1.
<scales pt_clust_5="13000.00000" pt_clust_6="13000.00000" pt_clust_7="13000.00000" pt_clust_8="13000.00000" pt_clust_9="24.59769"></scales>
<clustering>
<clus scale="   24.598">  1  9  2 -1</clus>
<clus scale="   88.443">  5  6 -1 -1</clus>
<clus scale="   89.530">  1  5  2 -1</clus>
<clus scale="   91.349">  7  8 -1 -1</clus>
<clus scale="   24.598">  1  5  2 -1</clus>
</clustering>
</event>
<event>
 9    1  0.1504846E-005  0.9610724E+02  0.7546771E-02  0.1289480E+00
         21   -1    0    0  501  502  0.00000000000E+00  0.00000000000E+00  0.30152592253E+03  0.30152592253E+03  0.00000000000E+00 0.  1.
          3   -1    0    0  502    0 -0.00000000000E+00 -0.00000000000E+00 -0.41616494290E+02  0.41616494290E+02  0.00000000000E+00 0. -1.
         23    2    1    2    0    0  0.25419071061E+02 -0.22455402509E+02  0.65411325437E+02  0.11812360183E+03  0.92326429257E+02 0.  0.
         23    2    1    2    0    0 -0.13212756939E+02  0.53434441345E+01  0.15367615975E+03  0.17910319391E+03  0.90876084055E+02 0.  0.
        -13    1    3    3    0    0 -0.21731325704E+02 -0.29533784381E+02  0.59758184660E+02  0.70110880543E+02  0.00000000000E+00 0.  1.
         13    1    3    3    0    0  0.47150396766E+02  0.70783818725E+01  0.56531407774E+01  0.48012721291E+02  0.00000000000E+00 0. -1.
        -13    1    4    4    0    0  0.30694454757E+02 -0.20290324635E+02  0.38765125492E+02  0.53446999738E+02  0.00000000000E+00 0. -1.
         13    1    4    4    0    0 -0.43907211696E+02  0.25633768769E+02  0.11491103426E+03  0.12565619418E+03  0.00000000000E+00 0.  1.
          3    1    1    2  501    0 -0.12206314122E+02  0.17111958374E+02  0.40821943052E+02  0.45915621072E+02  0.00000000000E+00 0. -1.
<scales pt_clust_5="13000.00000" pt_clust_6="13000.00000" pt_clust_7="13000.00000" pt_clust_8="13000.00000" pt_clust_9="21.01935"></scales>
<clustering>
<clus scale="   21.019">  1  9  2 -1</clus>
<clus scale="   90.876">  7  8 -1 -1</clus>
<clus scale="   92.326">  5  6 -1 -1</clus>
<clus scale="   94.715">  1  7  2 -1</clus>
<clus scale="   21.019">  1  5  2 -1</clus>
</clustering>
</event>
<event>
 9    1  0.1504846E-005  0.1151472E+03  0.7546771E-02  0.1251934E+00
          1   -1    0    0  502    0 -0.00000000000E+00  0.00000000000E+00  0.25217587147E+03  0.25217587147E+03  0.00000000000E+00 0. -1.
         21   -1    0    0  501  502  0.00000000000E+00 -0.00000000000E+00 -0.12463061409E+03  0.12463061409E+03  0.00000000000E+00 0. -1.
         23    2    1    2    0    0 -0.65441615914E+02  0.37117160228E+01  0.16374476625E+03  0.19754090015E+03  0.88958849076E+02 0.  0.
         23    2    1    2    0    0  0.89660815860E+02 -0.27948339858E+02 -0.16314809680E+01  0.13059390849E+03  0.90730014894E+02 0.  0.
        -11    1    4    4    0    0  0.40060894590E+02  0.27149814053E+01 -0.43202157107E+02  0.58980274483E+02  0.00000000000E+00 0. -1.
         11    1    4    4    0    0  0.49599921270E+02 -0.30663321263E+02  0.41570676139E+02  0.71613634006E+02  0.00000000000E+00 0.  1.
        -11    1    3    3    0    0 -0.55515225648E+02  0.42678535790E+02  0.97343662574E+02  0.11991324505E+03  0.00000000000E+00 0. -1.
         11    1    3    3    0    0 -0.99263902659E+01 -0.38966819768E+02  0.66401103674E+02  0.77627655096E+02  0.00000000000E+00 0.  1.
          1    1    1    2  501    0 -0.24219199946E+02  0.24236623835E+02 -0.34568027908E+02  0.48671676922E+02  0.00000000000E+00 0. -1.
<scales pt_clust_5="13000.00000" pt_clust_6="13000.00000" pt_clust_7="13000.00000" pt_clust_8="13000.00000" pt_clust_9="34.26344"></scales>
<clustering>
<clus scale="   34.263">  2  9  1 -1</clus>
<clus scale="   88.959">  7  8 -1 -1</clus>
<clus scale="   90.730">  5  6 -1 -1</clus>
<clus scale="  113.757">  1  7  2 -1</clus>
<clus scale="   34.263">  2  5  1 -1</clus>
</clustering>
</event>
<event>
 9    1  0.1504846E-005  0.9995508E+02  0.7546771E-02  0.1280786E+00
         21   -1    0    0  501  502  0.00000000000E+00  0.00000000000E+00  0.75455341007E+02  0.75455341007E+02  0.00000000000E+00 0. -1.
          1   -1    0    0  502    0 -0.00000000000E+00 -0.00000000000E+00 -0.46908231812E+03  0.46908231812E+03  0.00000000000E+00 0. -1.
         23    2    1    2    0    0  0.33157128459E+02 -0.33638814066E+02 -0.35764715887E+03  0.37201483598E+03  0.90843728271E+02 0.  0.
         23    2    1    2    0    0 -0.31286230971E+02 -0.21640584231E+02 -0.55696973556E+02  0.11380248299E+03  0.91660837536E+02 0.  0.
        -13    1    4    4    0    0 -0.45542958871E+01  0.35686089012E+02 -0.19314925323E+02  0.40832645031E+02  0.00000000000E+00 0.  1.
         13    1    4    4    0    0 -0.26731935084E+02 -0.57326673243E+02 -0.36382048233E+02  0.72969837961E+02  0.00000000000E+00 0. -1.
        -13    1    3    3    0    0 -0.30606285566E+02 -0.15955640863E+01 -0.12265606427E+03  0.12642705661E+03  0.00000000000E+00 0.  1.
         13    1    3    3    0    0  0.63763414024E+02 -0.32043249980E+02 -0.23499109459E+03  0.24558777937E+03  0.00000000000E+00 0. -1.
          1    1    1    2  501    0 -0.18708974877E+01  0.55279398297E+02  0.19717155312E+02  0.58720340148E+02  0.00000000000E+00 0. -1.
<scales pt_clust_5="13000.00000" pt_clust_6="13000.00000" pt_clust_7="13000.00000" pt_clust_8="13000.00000" pt_clust_9="55.31105"></scales>
<clustering>
<clus scale="   55.311">  1  9  2 -1</clus>
<clus scale="   90.844">  7  8 -1 -1</clus>
<clus scale="   91.661">  5  6 -1 -1</clus>
<clus scale="   99.206">  2  7  1 -1</clus>
<clus scale="   55.311">  1  5  2 -1</clus>
</clustering>
</event>
<event>
 9    1  0.1504846E-005  0.1605565E+03  0.7546771E-02  0.1188941E+00
         21   -1    0    0  501  502  0.00000000000E+00  0.00000000000E+00  0.38198781642E+03  0.38198781642E+03  0.00000000000E+00 0.  1.
          3   -1    0    0  502    0 -0.00000000000E+00 -0.00000000000E+00 -0.11684525400E+03  0.11684525400E+03  0.00000000000E+00 0. -1.
         23    2    1    2    0    0 -0.12071626088E+03  0.38230359426E+02 -0.12055845753E+02  0.15660835409E+03  0.91361135784E+02 0.  0.
         23    2    1    2    0    0  0.11723331485E+03 -0.70809055924E+02  0.22395505035E+03  0.27970785836E+03  0.96555936855E+02 0.  0.
        -13    1    3    3    0    0 -0.15893087192E+02  0.48074872375E+02  0.18478460986E-01  0.50633821857E+02  0.00000000000E+00 0. -1.
         13    1    3    3    0    0 -0.10482317369E+03 -0.98445129486E+01 -0.12074324214E+02  0.10597453223E+03  0.00000000000E+00 0.  1.
        -13    1    4    4    0    0  0.89783963620E+02  0.80275402787E+00  0.13656838598E+03  0.16344029059E+03  0.00000000000E+00 0. -1.
         13    1    4    4    0    0  0.27449351229E+02 -0.71611809951E+02  0.87386664364E+02  0.11626756777E+03  0.00000000000E+00 0.  1.
          3    1    1    2  501    0  0.34829460308E+01  0.32578696497E+02  0.53243357828E+02  0.62516857977E+02  0.00000000000E+00 0. -1.
<scales pt_clust_5="13000.00000" pt_clust_6="13000.00000" pt_clust_7="13000.00000" pt_clust_8="13000.00000" pt_clust_9="32.76435"></scales>
<clustering>
<clus scale="   32.764">  1  9  2 -1</clus>
<clus scale="   91.361">  5  6 -1 -1</clus>
<clus scale="   96.556">  7  8 -1 -1</clus>
<clus scale="  157.487">  2  5  1 -1</clus>
<clus scale="   32.764">  1  5  2 -1</clus>
</clustering>
</event>
<event>
 9    1  0.1504846E-005  0.1090881E+03  0.7546771E-02  0.1262404E+00
         21   -1    0    0  501  502  0.00000000000E+00  0.00000000000E+00  0.34203013299E+03  0.34203013299E+03  0.00000000000E+00 0. -1.
          3   -1    0    0  502    0 -0.00000000000E+00 -0.00000000000E+00 -0.13665717734E+03  0.13665717734E+03  0.00000000000E+00 0. -1.
         23    2    1    2    0    0 -0.54204081393E+02 -0.22085591691E+02 -0.91863108007E+02  0.14222925779E+03  0.91457505753E+02 0.  0.
         23    2    1    2    0    0  0.67178027683E+02 -0.34783149138E+01  0.16054011126E+03  0.19678837078E+03  0.91801685572E+02 0.  0.
        -11    1    4    4    0    0  0.41879779326E+02  0.29273581737E+02  0.14297353046E+03  0.15182980247E+03  0.00000000000E+00 0.  1.
         11    1    4    4    0    0  0.25298248357E+02 -0.32751896651E+02  0.17566580799E+02  0.44958568317E+02  0.00000000000E+00 0. -1.
        -13    1    3    3    0    0 -0.78697842664E+02 -0.63256973322E+01 -0.60818900580E+02  0.99660942974E+02  0.00000000000E+00 0. -1.
         13    1    3    3    0    0  0.24493761271E+02 -0.15759894359E+02 -0.31044207427E+02  0.42568314815E+02  0.00000000000E+00 0.  1.
          3    1    1    2  501    0 -0.12973946290E+02  0.25563906605E+02  0.13669595239E+03  0.13966968176E+03  0.00000000000E+00 0. -1.
<scales pt_clust_5="13000.00000" pt_clust_6="13000.00000" pt_clust_7="13000.00000" pt_clust_8="13000.00000" pt_clust_9="28.66769"></scales>
<clustering>
<clus scale="   28.668">  1  9  2 -1</clus>
<clus scale="   91.458">  7  8 -1 -1</clus>
<clus scale="   91.802">  5  6 -1 -1</clus>
<clus scale="  108.799">  2  7  1 -1</clus>
<clus scale="   28.668">  1  5  2 -1</clus>
</clustering>
</event>
<event>
 9    1  0.1504846E-005  0.1035765E+03  0.7546771E-02  0.1278728E+00
         21   -1    0    0  501  502  0.00000000000E+00  0.00000000000E+00  0.30259355236E+02  0.30259355236E+02  0.00000000000E+00 0. -1.
          1   -1    0    0  502    0 -0.00000000000E+00 -0.00000000000E+00 -0.45877030957E+03  0.45877030957E+03  0.00000000000E+00 0. -1.
         23    2    1    2    0    0 -0.21757597864E+02 -0.33248131782E+02 -0.18507571807E+03  0.20999894406E+03  0.90926914360E+02 0.  0.
         23    2    1    2    0    0  0.28525382859E+01  0.63345632666E+02 -0.18305446215E+03  0.20896576003E+03  0.78338666064E+02 0.  0.
        -11    1    3    3    0    0 -0.44033162640E+02 -0.51804825442E+02 -0.14851398750E+03  0.16333727019E+03  0.00000000000E+00 0. -1.
         11    1    3    3    0    0  0.22275564776E+02  0.18556693660E+02 -0.36561730570E+02  0.46661673866E+02  0.00000000000E+00 0.  1.
        -13    1    4    4    0    0  0.12502165398E+02 -0.16252960525E+02 -0.41119686121E+02  0.45948791629E+02  0.00000000000E+00 0.  1.
         13    1    4    4    0    0 -0.96496271117E+01  0.79598593191E+02 -0.14193477603E+03  0.16301696840E+03  0.00000000000E+00 0. -1.
          1    1    1    2  501    0  0.18905059578E+02 -0.30097500884E+02 -0.60380774111E+02  0.70064960711E+02  0.00000000000E+00 0. -1.
<scales pt_clust_5="13000.00000" pt_clust_6="13000.00000" pt_clust_7="13000.00000" pt_clust_8="13000.00000" pt_clust_9="35.54238"></scales>
<clustering>
<clus scale="   35.542">  1  9  2 -1</clus>
<clus scale="   78.339">  7  8 -1 -1</clus>
<clus scale="   90.927">  5  6 -1 -1</clus>
<clus scale="   92.722">  1  7  2 -1</clus>
<clus scale="   35.542">  1  5  2 -1</clus>
</clustering>
</event>
<event>
 9    1  0.1504846E-005  0.2128938E+03  0.7546771E-02  0.1139329E+00
         21   -1    0    0  501  502  0.00000000000E+00  0.00000000000E+00  0.14379029341E+03  0.14379029341E+03  0.00000000000E+00 0. -1.
          1   -1    0    0  502    0 -0.00000000000E+00 -0.00000000000E+00 -0.77030285443E+03  0.77030285443E+03  0.00000000000E+00 0. -1.
         23    2    1    2    0    0 -0.88348445546E+00 -0.18601765342E+03 -0.57468388222E+03  0.61144447511E+03  0.94865345277E+02 0.  0.
         23    2    1    2    0    0 -0.41602822113E+02  0.20975940489E+03 -0.78796666775E+02  0.24700669771E+03  0.95255400199E+02 0.  0.
        -13    1    4    4    0    0 -0.11930313189E+02  0.43034020068E+02 -0.62589580084E+02  0.76887676458E+02  0.00000000000E+00 0.  1.
         13    1    4    4    0    0 -0.29672508924E+02  0.16672538483E+03 -0.16207086692E+02  0.17011902125E+03  0.00000000000E+00 0. -1.
        -13    1    3    3    0    0 -0.28771137527E+02 -0.68771193273E+02 -0.12182606867E+03  0.14282453006E+03  0.00000000000E+00 0.  1.
         13    1    3    3    0    0  0.27887653071E+02 -0.11724646015E+03 -0.45285781354E+03  0.46861994505E+03  0.00000000000E+00 0. -1.
          1    1    1    2  501    0  0.42486306568E+02 -0.23741751470E+02  0.26967987972E+02  0.55641975018E+02  0.00000000000E+00 0. -1.
<scales pt_clust_5="13000.00000" pt_clust_6="13000.00000" pt_clust_7="13000.00000" pt_clust_8="13000.00000" pt_clust_9="48.66988"></scales>
<clustering>
<clus scale="   48.670">  1  9  2 -1</clus>
<clus scale="   94.865">  7  8 -1 -1</clus>
<clus scale="   95.255">  5  6 -1 -1</clus>
<clus scale="  212.720">  2  7  1 -1</clus>
<clus scale="   48.670">  1  5  2 -1</clus>
</clustering>
</event>
<event>
 9    1  0.1504846E-005  0.1077640E+03  0.7546771E-02  0.1266067E+00
          1   -1    0    0  502    0 -0.00000000000E+00  0.00000000000E+00  0.65254109051E+03  0.65254109051E+03  0.00000000000E+00 0. -1.
         21   -1    0    0  501  502  0.00000000000E+00 -0.00000000000E+00 -0.28076751005E+02  0.28076751005E+02  0.00000000000E+00 0. -1.
         23    2    1    2    0    0  0.60618618109E+01 -0.61160727631E+02  0.41668542648E+03  0.43079634385E+03  0.90450895280E+02 0.  0.
         23    2    1    2    0    0 -0.10741416918E+02  0.38702094301E+02  0.20192505212E+03  0.22614543097E+03  0.93567083599E+02 0.  0.
        -13    1    3    3    0    0 -0.20581525557E+02  0.90655131518E+01  0.33699800828E+02  0.40514926864E+02  0.00000000000E+00 0.  1.
         13    1    3    3    0    0  0.26643387368E+02 -0.70226240783E+02  0.38298562566E+03  0.39028141698E+03  0.00000000000E+00 0. -1.
        -13    1    4    4    0    0 -0.13293624004E+02  0.64781915519E+02  0.18070727795E+03  0.19242800555E+03  0.00000000000E+00 0.  1.
         13    1    4    4    0    0  0.25522070864E+01 -0.26079821218E+02  0.21217774171E+02  0.33717425414E+02  0.00000000000E+00 0. -1.
          1    1    1    2  501    0  0.46795551069E+01  0.22458633331E+02  0.58538609086E+01  0.23676066705E+02  0.00000000000E+00 0. -1.
<scales pt_clust_5="13000.00000" pt_clust_6="13000.00000" pt_clust_7="13000.00000" pt_clust_8="13000.00000" pt_clust_9="22.94098"></scales>
<clustering>
<clus scale="   22.941">  2  9  1 -1</clus>
<clus scale="   90.451">  5  6 -1 -1</clus>
<clus scale="   93.567">  7  8 -1 -1</clus>
<clus scale="  105.070">  1  5  2 -1</clus>
<clus scale="   22.941">  2  5  1 -1</clus>
</clustering>
</event>
<event>
 9    1  0.1504846E-005  0.9645118E+02  0.7546771E-02  0.1287994E+00
         -1   -1    0    0    0  501 -0.00000000000E+00  0.00000000000E+00  0.70459754395E+02  0.70459754395E+02  0.00000000000E+00 0.  1.
         21   -1    0    0  501  502  0.00000000000E+00 -0.00000000000E+00 -0.34001843148E+03  0.34001843148E+03  0.00000000000E+00 0.  1.
         23    2    1    2    0    0 -0.42707274366E+01 -0.67849410427E+01 -0.68998199662E+02  0.11523271155E+03  0.91943198318E+02 0.  0.
         23    2    1    2    0    0 -0.16487075837E+02 -0.82671211261E+02 -0.11347412450E+03  0.16868591345E+03  0.92044595857E+02 0.  0.
        -13    1    3    3    0    0  0.29668133809E+02 -0.57789552261E+01  0.78408597268E+01  0.31226168009E+02  0.00000000000E+00 0. -1.
         13    1    3    3    0    0 -0.33938861246E+02 -0.10059858165E+01 -0.76839059389E+02  0.84006543542E+02  0.00000000000E+00 0.  1.
        -13    1    4    4    0    0 -0.49548952827E+02 -0.51242235744E+02 -0.96592731548E+02  0.12004591304E+03  0.00000000000E+00 0.  1.
         13    1    4    4    0    0  0.33061876990E+02 -0.31428975516E+02 -0.16881392947E+02  0.48640000410E+02  0.00000000000E+00 0. -1.
         -1    1    1    2    0  502  0.20757803274E+02  0.89456152303E+02 -0.87086352928E+02  0.12655956087E+03  0.00000000000E+00 0.  1.
<scales pt_clust_5="13000.00000" pt_clust_6="13000.00000" pt_clust_7="13000.00000" pt_clust_8="13000.00000" pt_clust_9="91.83294"></scales>
<clustering>
<clus scale="   91.833">  2  9  1 -1</clus>
<clus scale="   91.943">  5  6 -1 -1</clus>
<clus scale="   92.045">  7  8 -1 -1</clus>
<clus scale="   96.354">  1  5  2 -1</clus>
<clus scale="   91.833">  2  5  1 -1</clus>
</clustering>
</event>
<event>
 9    1  0.1504846E-005  0.9673336E+02  0.7546771E-02  0.1287324E+00
          1   -1    0    0  502    0 -0.00000000000E+00  0.00000000000E+00  0.25337950728E+03  0.25337950728E+03  0.00000000000E+00 0. -1.
         21   -1    0    0  501  502  0.00000000000E+00 -0.00000000000E+00 -0.16531949402E+03  0.16531949402E+03  0.00000000000E+00 0. -1.
         23    2    1    2    0    0  0.26399989879E+02 -0.14376787706E+02  0.20364495372E+03  0.22531950605E+03  0.91618563304E+02 0.  0.
         23    2    1    2    0    0 -0.41444281011E+02 -0.44825193057E+00 -0.29566725895E+02  0.10480610345E+03  0.91609490133E+02 0.  0.
        -13    1    3    3    0    0  0.38110162945E+02  0.19055558251E+02  0.41964888154E+02  0.59804269561E+02  0.00000000000E+00 0.  1.
         13    1    3    3    0    0 -0.11710173066E+02 -0.33432345958E+02  0.16168006557E+03  0.16551523649E+03  0.00000000000E+00 0. -1.
        -13    1    4    4    0    0  0.93166770266E+01  0.33789175278E+02  0.34915915638E+01  0.35223572340E+02  0.00000000000E+00 0.  1.
         13    1    4    4    0    0 -0.50760958038E+02 -0.34237427208E+02 -0.33058317458E+02  0.69582531112E+02  0.00000000000E+00 0. -1.
          1    1    1    2  501    0  0.15044291132E+02  0.14825039637E+02 -0.86018214569E+02  0.88573391792E+02  0.00000000000E+00 0. -1.
<scales pt_clust_5="13000.00000" pt_clust_6="13000.00000" pt_clust_7="13000.00000" pt_clust_8="13000.00000" pt_clust_9="21.12138"></scales>
<clustering>
<clus scale="   21.121">  2  9  1 -1</clus>
<clus scale="   91.609">  7  8 -1 -1</clus>
<clus scale="   91.619">  5  6 -1 -1</clus>
<clus scale="   96.725">  2  7  1 -1</clus>
<clus scale="   21.121">  2  5  1 -1</clus>
</clustering>
</event>
<event>
 9    1  0.1504846E-005  0.9192977E+02  0.7546771E-02  0.1298654E+00
         21   -1    0    0  501  502  0.00000000000E+00  0.00000000000E+00  0.32907636695E+03  0.32907636695E+03  0.00000000000E+00 0. -1.
         -2   -1    0    0    0  501 -0.00000000000E+00 -0.00000000000E+00 -0.43738008229E+02  0.43738008229E+02  0.00000000000E+00 0.  1.
         23    2    1    2    0    0 -0.49783528575E+00 -0.11206633763E+02  0.57112959803E+02  0.10879456281E+03  0.91915886766E+02 0.  0.
         23    2    1    2    0    0 -0.34719964760E+01 -0.14451407792E+02  0.11339218011E+03  0.14628807152E+03  0.91222340535E+02 0.  0.
        -11    1    4    4    0    0  0.42473296872E+02 -0.34220282350E+01  0.36842599366E+02  0.56329995139E+02  0.00000000000E+00 0.  1.
         11    1    4    4    0    0 -0.45945293348E+02 -0.11029379557E+02  0.76549580747E+02  0.89958076384E+02  0.00000000000E+00 0. -1.
        -13    1    3    3    0    0  0.36208089542E+02  0.13182025211E+02  0.24939750502E+01  0.38613617398E+02  0.00000000000E+00 0.  1.
         13    1    3    3    0    0 -0.36705924828E+02 -0.24388658974E+02  0.54618984753E+02  0.70180945416E+02  0.00000000000E+00 0. -1.
         -2    1    1    2    0  502  0.39698317617E+01  0.25658041555E+02  0.11483321881E+03  0.11773174085E+03  0.00000000000E+00 0.  1.
<scales pt_clust_5="13000.00000" pt_clust_6="13000.00000" pt_clust_7="13000.00000" pt_clust_8="13000.00000" pt_clust_9="25.96333"></scales>
<clustering>
<clus scale="   25.963">  1  9  2 -1</clus>
<clus scale="   91.222">  5  6 -1 -1</clus>
<clus scale="   91.236">  1  5  2 -1</clus>
<clus scale="   91.916">  7  8 -1 -1</clus>
<clus scale="   25.963">  1  5  2 -1</clus>
</clustering>
</event>
<event>
 9    1  0.1504846E-005  0.1284982E+03  0.7546771E-02  0.1230168E+00
         21   -1    0    0  501  502  0.00000000000E+00  0.00000000000E+00  0.62593842099E+02  0.62593842099E+02  0.00000000000E+00 0. -1.
          2   -1    0    0  502    0 -0.00000000000E+00 -0.00000000000E+00 -0.56004117832E+03  0.56004117832E+03  0.00000000000E+00 0. -1.
         23    2    1    2    0    0  0.71283160108E+02  0.41772446121E+02 -0.28070061158E+03  0.30657711330E+03  0.91490255715E+02 0.  0.
         23    2    1    2    0    0 -0.94175398637E+02 -0.36867533412E+02 -0.24471340505E+03  0.27958534254E+03  0.89750166709E+02 0.  0.
        -13    1    3    3    0    0 -0.11559975461E+02  0.29088548374E+02 -0.13416394594E+03  0.13776698105E+03  0.00000000000E+00 0.  1.
         13    1    3    3    0    0  0.82843135568E+02  0.12683897747E+02 -0.14653666564E+03  0.16881013225E+03  0.00000000000E+00 0. -1.
        -13    1    4    4    0    0 -0.68152311988E+02  0.14962749314E+02 -0.17799803623E+03  0.19118557058E+03  0.00000000000E+00 0. -1.
         13    1    4    4    0    0 -0.26023086649E+02 -0.51830282726E+02 -0.66715368829E+02  0.88399771969E+02  0.00000000000E+00 0.  1.
          2    1    1    2  501    0  0.22892238529E+02 -0.49049127091E+01  0.27966680408E+02  0.36472564574E+02  0.00000000000E+00 0. -1.
<scales pt_clust_5="13000.00000" pt_clust_6="13000.00000" pt_clust_7="13000.00000" pt_clust_8="13000.00000" pt_clust_9="23.41181"></scales>
<clustering>
<clus scale="   23.412">  1  9  2 -1</clus>
<clus scale="   89.750">  7  8 -1 -1</clus>
<clus scale="   91.490">  5  6 -1 -1</clus>
<clus scale="  127.265">  1  7  2 -1</clus>
<clus scale="   23.412">  1  5  2 -1</clus>
</clustering>
</event>
<event>
 9    1  0.1504846E-005  0.1026239E+03  0.7546771E-02  0.1277594E+00
         21   -1    0    0  501  502  0.00000000000E+00  0.00000000000E+00  0.22167923452E+03  0.22167923452E+03  0.00000000000E+00 0. -1.
          1   -1    0    0  502    0 -0.00000000000E+00 -0.00000000000E+00 -0.19933273052E+03  0.19933273052E+03  0.00000000000E+00 0. -1.
         23    2    1    2    0    0  0.65033743263E+01  0.16434886390E+02 -0.68006214125E+02  0.11436933164E+03  0.90239123951E+02 0.  0.
         23    2    1    2    0    0 -0.28901851772E+02 -0.55156235062E+02 -0.74102097329E+02  0.13621252760E+03  0.95839472795E+02 0.  0.
        -13    1    4    4    0    0 -0.89231286349E+01  0.27589997525E+02 -0.22130018881E+02  0.36476950582E+02  0.00000000000E+00 0.  1.
         13    1    4    4    0    0 -0.19978723137E+02 -0.82746232588E+02 -0.51972078448E+02  0.99735577022E+02  0.00000000000E+00 0. -1.
        -13    1    3    3    0    0  0.44624870356E+02 -0.84712837057E+01 -0.42353102805E+02  0.62104162655E+02  0.00000000000E+00 0.  1.
         13    1    3    3    0    0 -0.38121496030E+02  0.24906170096E+02 -0.25653111321E+02  0.52265168983E+02  0.00000000000E+00 0. -1.
          1    1    1    2  501    0  0.22398477446E+02  0.38721348672E+02  0.16445481546E+03  0.17043010580E+03  0.00000000000E+00 0. -1.
<scales pt_clust_5="13000.00000" pt_clust_6="13000.00000" pt_clust_7="13000.00000" pt_clust_8="13000.00000" pt_clust_9="44.73293"></scales>
<clustering>
<clus scale="   44.733">  1  9  2 -1</clus>
<clus scale="   90.239">  7  8 -1 -1</clus>
<clus scale="   95.839">  5  6 -1 -1</clus>
<clus scale="   97.414">  2  7  1 -1</clus>
<clus scale="   44.733">  1  5  2 -1</clus>
</clustering>
</event>
<event>
 9    1  0.1504846E-005  0.9696818E+02  0.7546771E-02  0.1286816E+00
         21   -1    0    0  501  502  0.00000000000E+00  0.00000000000E+00  0.19366650889E+03  0.19366650889E+03  0.00000000000E+00 0. -1.
          2   -1    0    0  502    0 -0.00000000000E+00 -0.00000000000E+00 -0.10641409600E+03  0.10641409600E+03  0.00000000000E+00 0. -1.
         23    2    1    2    0    0 -0.37206994337E+02 -0.21887346696E+02 -0.39226321752E+02  0.10856140142E+03  0.91561220974E+02 0.  0.
         23    2    1    2    0    0  0.65362207504E+01  0.52445492507E+01  0.43890173301E+02  0.10186124497E+03  0.91537633983E+02 0.  0.
        -13    1    3    3    0    0 -0.80830211928E+01  0.35603949620E+02 -0.18019720936E+02  0.40714700082E+02  0.00000000000E+00 0.  1.
         13    1    3    3    0    0 -0.29123973144E+02 -0.57491296316E+02 -0.21206600816E+02  0.67846701334E+02  0.00000000000E+00 0. -1.
        -13    1    4    4    0    0  0.37038407489E+02 -0.23001807939E+02  0.32434907931E+01  0.43720098700E+02  0.00000000000E+00 0. -1.
         13    1    4    4    0    0 -0.30502186739E+02  0.28246357189E+02  0.40646682508E+02  0.58141146267E+02  0.00000000000E+00 0.  1.
          2    1    1    2  501    0  0.30670773586E+02  0.16642797445E+02  0.82588561341E+02  0.89657958506E+02  0.00000000000E+00 0. -1.
<scales pt_clust_5="13000.00000" pt_clust_6="13000.00000" pt_clust_7="13000.00000" pt_clust_8="13000.00000" pt_clust_9="34.89526"></scales>
<clustering>
<clus scale="   34.895">  1  9  2 -1</clus>
<clus scale="   91.538">  7  8 -1 -1</clus>
<clus scale="   91.561">  5  6 -1 -1</clus>
<clus scale="   96.946">  1  7  2 -1</clus>
<clus scale="   34.895">  1  5  2 -1</clus>
</clustering>
</event>
<event>
 9    1  0.1504846E-005  0.1001051E+03  0.7546771E-02  0.1290837E+00
         21   -1    0    0  501  502  0.00000000000E+00  0.00000000000E+00  0.28097363536E+02  0.28097363536E+02  0.00000000000E+00 0.  1.
          1   -1    0    0  502    0 -0.00000000000E+00 -0.00000000000E+00 -0.46784941832E+03  0.46784941832E+03  0.00000000000E+00 0. -1.
         23    2    1    2    0    0 -0.38903000265E+02 -0.12167111766E+02 -0.31305767095E+03  0.32880813510E+03  0.91914102983E+02 0.  0.
         23    2    1    2    0    0  0.40671504778E+02 -0.13227586448E+02 -0.10203161156E+03  0.13169473837E+03  0.71441682596E+02 0.  0.
        -11    1    3    3    0    0 -0.44248486993E+02 -0.45813821465E+02 -0.23809040192E+03  0.24646272401E+03  0.00000000000E+00 0.  1.
         11    1    3    3    0    0  0.53454867285E+01  0.33646709699E+02 -0.74967269036E+02  0.82345411096E+02  0.00000000000E+00 0. -1.
        -11    1    4    4    0    0  0.18050749757E+02  0.16051504772E+02 -0.10834257164E+01  0.24179623312E+02  0.00000000000E+00 0.  1.
         11    1    4    4    0    0  0.22620755021E+02 -0.29279091221E+02 -0.10094818584E+03  0.10751511505E+03  0.00000000000E+00 0. -1.
          1    1    1    2  501    0 -0.17685045132E+01  0.25394698215E+02 -0.24662772268E+02  0.35443908384E+02  0.00000000000E+00 0. -1.
<scales pt_clust_5="13000.00000" pt_clust_6="13000.00000" pt_clust_7="13000.00000" pt_clust_8="13000.00000" pt_clust_9="25.45620"></scales>
<clustering>
<clus scale="   25.456">  1  9  2 -1</clus>
<clus scale="   71.442">  7  8 -1 -1</clus>
<clus scale="   81.711">  1  7  2 -1</clus>
<clus scale="   91.914">  5  6 -1 -1</clus>
<clus scale="   25.456">  1  5  2 -1</clus>
</clustering>
</event>
<event>
 9    1  0.1504846E-005  0.1892751E+03  0.7546771E-02  0.1188630E+00
          1   -1    0    0  502    0 -0.00000000000E+00  0.00000000000E+00  0.26918462188E+03  0.26918462188E+03  0.00000000000E+00 0. -1.
         21   -1    0    0  501  502  0.00000000000E+00 -0.00000000000E+00 -0.19748196157E+03  0.19748196157E+03  0.00000000000E+00 0. -1.
         23    2    1    2    0    0 -0.26022535075E+02  0.21960144506E+02  0.12149479114E+01  0.96800201203E+02  0.90605643180E+02 0.  0.
         23    2    1    2    0    0 -0.64705712951E+02  0.13123499864E+03  0.83307564153E+02  0.19135947629E+03  0.90933188466E+02 0.  0.
        -13    1    4    4    0    0 -0.52983580636E+02  0.18772964231E+02  0.11385956407E+02  0.57352628592E+02  0.00000000000E+00 0.  1.
         13    1    4    4    0    0 -0.11722132315E+02  0.11246203441E+03  0.71921607746E+02  0.13400684770E+03  0.00000000000E+00 0. -1.
        -13    1    3    3    0    0  0.19037263435E+02 -0.25115357322E+02 -0.17902231754E+01  0.31565859271E+02  0.00000000000E+00 0.  1.
         13    1    3    3    0    0 -0.45059798509E+02  0.47075501828E+02  0.30051710868E+01  0.65234341932E+02  0.00000000000E+00 0. -1.
          1    1    1    2  501    0  0.90728248026E+02 -0.15319514315E+03 -0.12819851757E+02  0.17850690595E+03  0.00000000000E+00 0. -1.
<scales pt_clust_5="13000.00000" pt_clust_6="13000.00000" pt_clust_7="13000.00000" pt_clust_8="13000.00000" pt_clust_9="166.00066"></scales>
<clustering>
<clus scale="   90.606">  7  8 -1 -1</clus>
<clus scale="   90.933">  5  6 -1 -1</clus>
<clus scale="   96.793">  1  7  2 -1</clus>
<clus scale="  166.001">  2  9  1 -1</clus>
<clus scale="  166.001">  2  5  1 -1</clus>
</clustering>
</event>
<event>
 9    1  0.1504846E-005  0.2043857E+03  0.7546771E-02  0.1146582E+00
         21   -1    0    0  501  502  0.00000000000E+00  0.00000000000E+00  0.82963136959E+02  0.82963136959E+02  0.00000000000E+00 0.  1.
          1   -1    0    0  502    0 -0.00000000000E+00 -0.00000000000E+00 -0.97261197330E+03  0.97261197330E+03  0.00000000000E+00 0. -1.
         23    2    1    2    0    0  0.17689636506E+03  0.52717046837E+02 -0.79578205045E+03  0.82190407085E+03  0.90475515231E+02 0.  0.
         23    2    1    2    0    0 -0.15657150713E+03 -0.38554912358E+02 -0.72726816475E+02  0.20110473459E+03  0.95670300131E+02 0.  0.
        -11    1    3    3    0    0  0.13952559361E+03  0.11963845885E+01 -0.48502081206E+03  0.50469199592E+03  0.00000000000E+00 0. -1.
         11    1    3    3    0    0  0.37370771453E+02  0.51520662248E+02 -0.31076123839E+03  0.31721207493E+03  0.00000000000E+00 0.  1.
        -11    1    4    4    0    0 -0.91611498451E+02 -0.45506651470E+02 -0.86939113753E+02  0.13424578756E+03  0.00000000000E+00 0. -1.
         11    1    4    4    0    0 -0.64960008678E+02  0.69517391120E+01  0.14212297278E+02  0.66858947030E+02  0.00000000000E+00 0.  1.
          1    1    1    2  501    0 -0.20324857933E+02 -0.14162134479E+02 -0.21139969411E+02  0.32566304821E+02  0.00000000000E+00 0. -1.
<scales pt_clust_5="13000.00000" pt_clust_6="13000.00000" pt_clust_7="13000.00000" pt_clust_8="13000.00000" pt_clust_9="24.77228"></scales>
<clustering>
<clus scale="   24.772">  1  9  2 -1</clus>
<clus scale="   90.476">  5  6 -1 -1</clus>
<clus scale="   95.670">  7  8 -1 -1</clus>
<clus scale="  202.006">  2  5  1 -1</clus>
<clus scale="   24.772">  1  5  2 -1</clus>
</clustering>
</event>
<event>
 9    1  0.1504846E-005  0.1129460E+03  0.7546771E-02  0.1256749E+00
         21   -1    0    0  501  502  0.00000000000E+00  0.00000000000E+00  0.35395871499E+03  0.35395871499E+03  0.00000000000E+00 0. -1.
         -3   -1    0    0    0  501 -0.00000000000E+00 -0.00000000000E+00 -0.90959827795E+02  0.90959827795E+02  0.00000000000E+00 0.  1.
         23    2    1    2    0    0 -0.62343156757E+02  0.43164450354E+02 -0.50139582655E+01  0.11928552527E+03  0.91945950391E+02 0.  0.
         23    2    1    2    0    0  0.37139188312E+02  0.60828324474E+01  0.82430104367E+02  0.13198000648E+03  0.95956656082E+02 0.  0.
        -11    1    4    4    0    0  0.29222389599E+02 -0.33232617782E+02  0.46852664560E+01  0.44500636628E+02  0.00000000000E+00 0.  1.
         11    1    4    4    0    0  0.79167987132E+01  0.39315450229E+02  0.77744837911E+02  0.87479369856E+02  0.00000000000E+00 0. -1.
        -11    1    3    3    0    0 -0.81400607833E+02  0.11489340326E+02 -0.28836312984E+01  0.82258004025E+02  0.00000000000E+00 0.  1.
         11    1    3    3    0    0  0.19057451076E+02  0.31675110027E+02 -0.21303269671E+01  0.37027521248E+02  0.00000000000E+00 0. -1.
         -3    1    1    2    0  502  0.25203968445E+02 -0.49247282801E+02  0.18558274109E+03  0.19365301103E+03  0.00000000000E+00 0.  1.
<scales pt_clust_5="13000.00000" pt_clust_6="13000.00000" pt_clust_7="13000.00000" pt_clust_8="13000.00000" pt_clust_9="55.32210"></scales>
<clustering>
<clus scale="   55.322">  1  9  2 -1</clus>
<clus scale="   91.946">  7  8 -1 -1</clus>
<clus scale="   95.957">  5  6 -1 -1</clus>
<clus scale="  109.559">  2  7  1 -1</clus>
<clus scale="   55.322">  1  5  2 -1</clus>
</clustering>
</event>
<event>
 9    1  0.1504846E-005  0.1242070E+03  0.7546771E-02  0.1236934E+00
         21   -1    0    0  501  502  0.00000000000E+00  0.00000000000E+00  0.40852347254E+03  0.40852347254E+03  0.00000000000E+00 0. -1.
         -1   -1    0    0    0  501 -0.00000000000E+00 -0.00000000000E+00 -0.14448093316E+03  0.14448093316E+03  0.00000000000E+00 0.  1.
         23    2    1    2    0    0 -0.20044618287E+02  0.89855722284E+02 -0.67521116971E+02  0.14554745524E+03  0.90272492712E+02 0.  0.
         23    2    1    2    0    0 -0.23523302274E+02 -0.16333259131E+02  0.30186508666E+03  0.31698197419E+03  0.92384632426E+02 0.  0.
        -11    1    4    4    0    0  0.28480832125E+02  0.18207711352E+02  0.12167355858E+03  0.12628195995E+03  0.00000000000E+00 0.  1.
         11    1    4    4    0    0 -0.52004134399E+02 -0.34540970483E+02  0.18019152808E+03  0.19070001424E+03  0.00000000000E+00 0. -1.
        -13    1    3    3    0    0  0.33880248524E+02  0.49350368085E+02 -0.43328648941E+02  0.73896562094E+02  0.00000000000E+00 0.  1.
         13    1    3    3    0    0 -0.53924866811E+02  0.40505354199E+02 -0.24192468030E+02  0.71650893147E+02  0.00000000000E+00 0. -1.
         -1    1    1    2    0  502  0.43567920560E+02 -0.73522463153E+02  0.29698569690E+02  0.90474976274E+02  0.00000000000E+00 0.  1.
<scales pt_clust_5="13000.00000" pt_clust_6="13000.00000" pt_clust_7="13000.00000" pt_clust_8="13000.00000" pt_clust_9="85.46183"></scales>
<clustering>
<clus scale="   85.462">  1  9  2 -1</clus>
<clus scale="   90.272">  7  8 -1 -1</clus>
<clus scale="   92.385">  5  6 -1 -1</clus>
<clus scale="  122.644">  2  7  1 -1</clus>
<clus scale="   85.462">  1  5  2 -1</clus>
</clustering>
</event>
<event>
 9    1  0.1504846E-005  0.2620835E+03  0.7546771E-02  0.1106014E+00
         21   -1    0    0  501  502  0.00000000000E+00  0.00000000000E+00  0.29697754919E+03  0.29697754919E+03  0.00000000000E+00 0. -1.
          2   -1    0    0  502    0 -0.00000000000E+00 -0.00000000000E+00 -0.45347236061E+03  0.45347236061E+03  0.00000000000E+00 0. -1.
         23    2    1    2    0    0 -0.24102798655E+03 -0.11608210083E+03 -0.30999836596E+03  0.41951935228E+03  0.91257633123E+02 0.  0.
         23    2    1    2    0    0  0.15060230892E+03  0.90107644221E+02  0.12289236041E+03  0.23199360397E+03  0.88983464969E+02 0.  0.
        -11    1    3    3    0    0 -0.30262492986E+02 -0.54221303122E+02 -0.54911707266E+02  0.82891880114E+02  0.00000000000E+00 0.  1.
         11    1    3    3    0    0 -0.21076549357E+03 -0.61860797703E+02 -0.25508665870E+03  0.33662747216E+03  0.00000000000E+00 0. -1.
        -11    1    4    4    0    0 -0.16861173040E+01  0.33489779504E+02  0.13617310880E+02  0.36191704552E+02  0.00000000000E+00 0. -1.
         11    1    4    4    0    0  0.15228842622E+03  0.56617864718E+02  0.10927504954E+03  0.19580189942E+03  0.00000000000E+00 0.  1.
          2    1    1    2  501    0  0.90425677635E+02  0.25974456604E+02  0.30611194130E+02  0.98936953549E+02  0.00000000000E+00 0. -1.
<scales pt_clust_5="13000.00000" pt_clust_6="13000.00000" pt_clust_7="13000.00000" pt_clust_8="13000.00000" pt_clust_9="94.08228"></scales>
<clustering>
<clus scale="   88.983">  7  8 -1 -1</clus>
<clus scale="   91.258">  5  6 -1 -1</clus>
<clus scale="   94.082">  1  9  2 -1</clus>
<clus scale="  261.300">  1  7  2 -1</clus>
<clus scale="   94.082">  1  5  2 -1</clus>
</clustering>
</event>
<event>
 9    1  0.1504846E-005  0.1068910E+03  0.7546771E-02  0.1266880E+00
          4   -1    0    0  502    0 -0.00000000000E+00  0.00000000000E+00  0.98324962391E+02  0.98324962391E+02  0.00000000000E+00 0. -1.
         21   -1    0    0  501  502  0.00000000000E+00 -0.00000000000E+00 -0.29621540145E+03  0.29621540145E+03  0.00000000000E+00 0.  1.
         23    2    1    2    0    0 -0.22827021903E+02  0.42389043607E+02  0.17987218862E+02  0.10506490321E+03  0.91636182249E+02 0.  0.
         23    2    1    2    0    0 -0.93704238945E+01 -0.82522120334E+02 -0.86591332178E+02  0.15032700255E+03  0.90567343441E+02 0.  0.
        -11    1    4    4    0    0  0.36424875315E+02 -0.59430307721E+02 -0.36700252657E+02  0.78775894553E+02  0.00000000000E+00 0.  1.
         11    1    4    4    0    0 -0.45795299209E+02 -0.23091812613E+02 -0.49891079521E+02  0.71551107994E+02  0.00000000000E+00 0. -1.
        -13    1    3    3    0    0 -0.31577091094E+02 -0.18093700735E+02 -0.10155331487E+02  0.37783931054E+02  0.00000000000E+00 0.  1.
         13    1    3    3    0    0  0.87500691911E+01  0.60482744342E+02  0.28142550349E+02  0.67280972155E+02  0.00000000000E+00 0. -1.
          4    1    1    2  501    0  0.32197445798E+02  0.40133076728E+02 -0.12928632574E+03  0.13914845808E+03  0.00000000000E+00 0. -1.
<scales pt_clust_5="13000.00000" pt_clust_6="13000.00000" pt_clust_7="13000.00000" pt_clust_8="13000.00000" pt_clust_9="51.45230"></scales>
<clustering>
<clus scale="   51.452">  2  9  1 -1</clus>
<clus scale="   90.567">  5  6 -1 -1</clus>
<clus scale="   91.636">  7  8 -1 -1</clus>
<clus scale="  105.976">  2  5  1 -1</clus>
<clus scale="   51.452">  2  5  1 -1</clus>
</clustering>
</event>
<event>
 9    1  0.1504846E-005  0.9929429E+02  0.7546771E-02  0.1281943E+00
          2   -1    0    0  502    0 -0.00000000000E+00  0.00000000000E+00  0.44666904065E+03  0.44666904065E+03  0.00000000000E+00 0. -1.
         21   -1    0    0  501  502  0.00000000000E+00 -0.00000000000E+00 -0.12991697606E+03  0.12991697606E+03  0.00000000000E+00 0.  1.
         23    2    1    2    0    0  0.30183188729E+02 -0.18644287281E+02  0.38422034043E+03  0.39658650613E+03  0.91634887004E+02 0.  0.
         23    2    1    2    0    0 -0.30316126053E+02  0.62319299099E+02 -0.22515967542E+02  0.11732388254E+03  0.91951955286E+02 0.  0.
        -11    1    4    4    0    0 -0.24011478811E+02 -0.17928318158E+02  0.83598843101E+01  0.31110502605E+02  0.00000000000E+00 0.  1.
         11    1    4    4    0    0 -0.63046472418E+01  0.80247617257E+02 -0.30875851852E+02  0.86213379935E+02  0.00000000000E+00 0. -1.
        -13    1    3    3    0    0  0.55866486037E+02 -0.32156980426E+02  0.31501471521E+03  0.32154223121E+03  0.00000000000E+00 0.  1.
         13    1    3    3    0    0 -0.25683297308E+02  0.13512693145E+02  0.69205625219E+02  0.75044274922E+02  0.00000000000E+00 0. -1.
          2    1    1    2  501    0  0.13293732360E+00 -0.43675011817E+02 -0.44952308298E+02  0.62675628045E+02  0.00000000000E+00 0. -1.
<scales pt_clust_5="13000.00000" pt_clust_6="13000.00000" pt_clust_7="13000.00000" pt_clust_8="13000.00000" pt_clust_9="43.67521"></scales>
<clustering>
<clus scale="   43.675">  2  9  1 -1</clus>
<clus scale="   91.635">  7  8 -1 -1</clus>
<clus scale="   91.952">  5  6 -1 -1</clus>
<clus scale="   99.001">  1  7  2 -1</clus>
<clus scale="   43.675">  2  5  1 -1</clus>
</clustering>
</event>
<event>
 9    1  0.1504846E-005  0.1015801E+03  0.7546771E-02  0.1278361E+00
         -2   -1    0    0    0  501 -0.00000000000E+00  0.00000000000E+00  0.32478633749E+03  0.32478633749E+03  0.00000000000E+00 0.  1.
         21   -1    0    0  501  502  0.00000000000E+00 -0.00000000000E+00 -0.58510644845E+02  0.58510644845E+02  0.00000000000E+00 0.  1.
         23    2    1    2    0    0 -0.52035529247E+02  0.15783304546E+02  0.19828692340E+03  0.22602596354E+03  0.93878768617E+02 0.  0.
         23    2    1    2    0    0  0.38774903731E+01 -0.15510758372E+02  0.54207835748E+02  0.10717925183E+03  0.91067469547E+02 0.  0.
        -11    1    3    3    0    0 -0.17340382043E+02 -0.38223925972E+02  0.10205315067E+03  0.11034764578E+03  0.00000000000E+00 0. -1.
         11    1    3    3    0    0 -0.34695147204E+02  0.54007230518E+02  0.96233772726E+02  0.11567831776E+03  0.00000000000E+00 0.  1.
        -11    1    4    4    0    0  0.29327018066E+01  0.32928751938E+02 -0.18198565217E+01  0.33109142572E+02  0.00000000000E+00 0. -1.
         11    1    4    4    0    0  0.94478856655E+00 -0.48439510311E+02  0.56027692270E+02  0.74070109259E+02  0.00000000000E+00 0.  1.
         -2    1    1    2    0  502  0.48158038874E+02 -0.27254617421E+00  0.13780933500E+02  0.50091766965E+02  0.00000000000E+00 0.  1.
<scales pt_clust_5="13000.00000" pt_clust_6="13000.00000" pt_clust_7="13000.00000" pt_clust_8="13000.00000" pt_clust_9="48.15881"></scales>
<clustering>
<clus scale="   48.159">  2  9  1 -1</clus>
<clus scale="   91.067">  7  8 -1 -1</clus>
<clus scale="   93.879">  5  6 -1 -1</clus>
<clus scale="   98.988">  2  7  1 -1</clus>
<clus scale="   48.159">  2  5  1 -1</clus>
</clustering>
</event>
<event>
 9    1  0.1504846E-005  0.1037116E+03  0.7546771E-02  0.1277562E+00
         21   -1    0    0  501  502  0.00000000000E+00  0.00000000000E+00  0.46425826010E+02  0.46425826010E+02  0.00000000000E+00 0.  1.
          2   -1    0    0  502    0 -0.00000000000E+00 -0.00000000000E+00 -0.44095630241E+03  0.44095630241E+03  0.00000000000E+00 0. -1.
         23    2    1    2    0    0 -0.38180159643E+02  0.25396369573E+02 -0.28403395472E+03  0.30321966757E+03  0.95729719481E+02 0.  0.
         23    2    1    2    0    0  0.14738730331E+02 -0.30406985977E+02 -0.12569369764E+03  0.15578005359E+03  0.85596171075E+02 0.  0.
        -13    1    4    4    0    0  0.37517596349E+02 -0.19115156944E+02 -0.12324382792E+03  0.13023824469E+03  0.00000000000E+00 0. -1.
         13    1    4    4    0    0 -0.22778866017E+02 -0.11291829034E+02 -0.24498697156E+01  0.25541808894E+02  0.00000000000E+00 0.  1.
        -13    1    3    3    0    0  0.12270399485E+02 -0.28581257475E+02 -0.64967076309E+02  0.72028966302E+02  0.00000000000E+00 0.  1.
         13    1    3    3    0    0 -0.50450559128E+02  0.53977627048E+02 -0.21906687841E+03  0.23119070127E+03  0.00000000000E+00 0. -1.
          2    1    1    2  501    0  0.23441429312E+02  0.50106164040E+01  0.15197175953E+02  0.28382407260E+02  0.00000000000E+00 0. -1.
<scales pt_clust_5="13000.00000" pt_clust_6="13000.00000" pt_clust_7="13000.00000" pt_clust_8="13000.00000" pt_clust_9="23.97096"></scales>
<clustering>
<clus scale="   23.971">  1  9  2 -1</clus>
<clus scale="   85.596">  5  6 -1 -1</clus>
<clus scale="   94.439">  1  5  2 -1</clus>
<clus scale="   95.730">  7  8 -1 -1</clus>
<clus scale="   23.971">  1  5  2 -1</clus>
</clustering>
</event>
<event>
 9    1  0.1504846E-005  0.1444008E+03  0.7546771E-02  0.1207976E+00
         21   -1    0    0  501  502  0.00000000000E+00  0.00000000000E+00  0.14192068912E+03  0.14192068912E+03  0.00000000000E+00 0. -1.
          2   -1    0    0  502    0 -0.00000000000E+00 -0.00000000000E+00 -0.24051086506E+03  0.24051086506E+03  0.00000000000E+00 0. -1.
         23    2    1    2    0    0  0.62358558392E+02  0.52334079375E+02 -0.15160073046E+02  0.12365427977E+03  0.91831952073E+02 0.  0.
         23    2    1    2    0    0 -0.86267335523E+02 -0.12018064961E+03 -0.56621569199E+02  0.18200824292E+03  0.89641266567E+02 0.  0.
        -11    1    4    4    0    0 -0.89696757390E+02 -0.10013431239E+03 -0.14474101689E+02  0.13521053370E+03  0.00000000000E+00 0.  1.
         11    1    4    4    0    0  0.34294218669E+01 -0.20046337222E+02 -0.42147467510E+02  0.46797709216E+02  0.00000000000E+00 0. -1.
        -13    1    3    3    0    0  0.29666312142E+02  0.64204378111E+02  0.20704144726E+02  0.73695005622E+02  0.00000000000E+00 0.  1.
         13    1    3    3    0    0  0.32692246250E+02 -0.11870298736E+02 -0.35864217772E+02  0.49959274147E+02  0.00000000000E+00 0. -1.
          2    1    1    2  501    0  0.23908777130E+02  0.67846570237E+02 -0.26808533700E+02  0.76769031490E+02  0.00000000000E+00 0. -1.
<scales pt_clust_5="13000.00000" pt_clust_6="13000.00000" pt_clust_7="13000.00000" pt_clust_8="13000.00000" pt_clust_9="71.93603"></scales>
<clustering>
<clus scale="   71.936">  1  9  2 -1</clus>
<clus scale="   89.641">  5  6 -1 -1</clus>
<clus scale="   91.832">  7  8 -1 -1</clus>
<clus scale="  143.018">  1  5  2 -1</clus>
<clus scale="   71.936">  1  5  2 -1</clus>
</clustering>
</event>
<event>
 9    1  0.1504846E-005  0.1331222E+03  0.7546771E-02  0.1224668E+00
          1   -1    0    0  502    0 -0.00000000000E+00  0.00000000000E+00  0.37882417345E+03  0.37882417345E+03  0.00000000000E+00 0. -1.
         21   -1    0    0  501  502  0.00000000000E+00 -0.00000000000E+00 -0.30331990496E+03  0.30331990496E+03  0.00000000000E+00 0. -1.
         23    2    1    2    0    0 -0.10092852410E+02  0.93687073613E+02  0.18442925588E+03  0.22785347727E+03  0.94994332716E+02 0.  0.
         23    2    1    2    0    0  0.56480174226E+02 -0.80913918822E+02  0.14475411919E+03  0.19608907863E+03  0.88091426334E+02 0.  0.
        -11    1    3    3    0    0 -0.50333521890E+02  0.62098931740E+02  0.13392012695E+03  0.15596262742E+03  0.00000000000E+00 0. -1.
         11    1    3    3    0    0  0.40240669480E+02  0.31588141873E+02  0.50509128930E+02  0.71890849852E+02  0.00000000000E+00 0.  1.
        -13    1    4    4    0    0  0.79459108023E+00 -0.76023400867E+02  0.90399630572E+02  0.11811977845E+03  0.00000000000E+00 0.  1.
         13    1    4    4    0    0  0.55685583146E+02 -0.48905179544E+01  0.54354488619E+02  0.77969300172E+02  0.00000000000E+00 0. -1.
          1    1    1    2  501    0 -0.46387321817E+02 -0.12773154791E+02 -0.25367910658E+03  0.25820152251E+03  0.00000000000E+00 0. -1.
<scales pt_clust_5="13000.00000" pt_clust_6="13000.00000" pt_clust_7="13000.00000" pt_clust_8="13000.00000" pt_clust_9="48.11379"></scales>
<clustering>
<clus scale="   48.114">  2  9  1 -1</clus>
<clus scale="   88.091">  7  8 -1 -1</clus>
<clus scale="   94.994">  5  6 -1 -1</clus>
<clus scale="  128.288">  2  7  1 -1</clus>
<clus scale="   48.114">  2  5  1 -1</clus>
</clustering>
</event>
<event>
 9    1  0.1504846E-005  0.1056199E+03  0.7546771E-02  0.1269749E+00
         21   -1    0    0  501  502  0.00000000000E+00  0.00000000000E+00  0.30701605651E+02  0.30701605651E+02  0.00000000000E+00 0.  1.
          1   -1    0    0  502    0 -0.00000000000E+00 -0.00000000000E+00 -0.54151820502E+03  0.54151820502E+03  0.00000000000E+00 0. -1.
         23    2    1    2    0    0 -0.44718065353E+02 -0.27459366775E+02 -0.25121241342E+03  0.27253163223E+03  0.91717455913E+02 0.  0.
         23    2    1    2    0    0  0.18906303820E+02  0.46523649426E+02 -0.23897866123E+03  0.26154232445E+03  0.93657293764E+02 0.  0.
        -11    1    3    3    0    0 -0.19902239470E+02  0.30477664868E+02 -0.51178895927E+02  0.62803396246E+02  0.00000000000E+00 0.  1.
         11    1    3    3    0    0 -0.24815825883E+02 -0.57937031643E+02 -0.20003351749E+03  0.20972823598E+03  0.00000000000E+00 0. -1.
        -11    1    4    4    0    0  0.51113592025E+02  0.36985698841E+02 -0.20182070497E+03  0.21145244895E+03  0.00000000000E+00 0. -1.
         11    1    4    4    0    0 -0.32207288205E+02  0.95379505855E+01 -0.37157956252E+02  0.50089875502E+02  0.00000000000E+00 0.  1.
          1    1    1    2  501    0  0.25811761534E+02 -0.19064282652E+02 -0.20625524722E+02  0.38145853989E+02  0.00000000000E+00 0. -1.
<scales pt_clust_5="13000.00000" pt_clust_6="13000.00000" pt_clust_7="13000.00000" pt_clust_8="13000.00000" pt_clust_9="32.08884"></scales>
<clustering>
<clus scale="   32.089">  1  9  2 -1</clus>
<clus scale="   91.717">  5  6 -1 -1</clus>
<clus scale="   93.657">  7  8 -1 -1</clus>
<clus scale="  103.904">  2  5  1 -1</clus>
<clus scale="   32.089">  1  5  2 -1</clus>
</clustering>
</event>
<event>
 9    1  0.1504846E-005  0.1274320E+03  0.7546771E-02  0.1232099E+00
         21   -1    0    0  501  502  0.00000000000E+00  0.00000000000E+00  0.14196752911E+03  0.14196752911E+03  0.00000000000E+00 0.  1.
         -1   -1    0    0    0  501 -0.00000000000E+00 -0.00000000000E+00 -0.21467863996E+03  0.21467863996E+03  0.00000000000E+00 0.  1.
         23    2    1    2    0    0  0.48944227876E+02 -0.88081263288E+02 -0.13381338025E+03  0.19103851656E+03  0.91846870890E+02 0.  0.
         23    2    1    2    0    0 -0.38751641922E+02  0.40380789213E+02  0.42630238619E+02  0.11344981555E+03  0.89001266920E+02 0.  0.
        -11    1    4    4    0    0 -0.27095895613E+02 -0.88848966063E+01 -0.18566317879E+02  0.34027005544E+02  0.00000000000E+00 0.  1.
         11    1    4    4    0    0 -0.11655746309E+02  0.49265685819E+02  0.61196556498E+02  0.79422810001E+02  0.00000000000E+00 0. -1.
        -13    1    3    3    0    0  0.33503001802E+02 -0.10555664926E+03 -0.12243459506E+03  0.16509054304E+03  0.00000000000E+00 0.  1.
         13    1    3    3    0    0  0.15441226074E+02  0.17475385975E+02 -0.11378785188E+02  0.25947973524E+02  0.00000000000E+00 0. -1.
         -1    1    1    2    0  502 -0.10192585954E+02  0.47700474075E+02  0.18472030783E+02  0.52157836963E+02  0.00000000000E+00 0.  1.
<scales pt_clust_5="13000.00000" pt_clust_6="13000.00000" pt_clust_7="13000.00000" pt_clust_8="13000.00000" pt_clust_9="48.77729"></scales>
<clustering>
<clus scale="   48.777">  1  9  2 -1</clus>
<clus scale="   89.001">  5  6 -1 -1</clus>
<clus scale="   91.847">  7  8 -1 -1</clus>
<clus scale="  125.397">  1  5  2 -1</clus>
<clus scale="   48.777">  1  5  2 -1</clus>
</clustering>
</event>
<event>
 9    1  0.1504846E-005  0.1021353E+03  0.7546771E-02  0.1281504E+00
          3   -1    0    0  502    0 -0.00000000000E+00  0.00000000000E+00  0.34182534946E+03  0.34182534946E+03  0.00000000000E+00 0. -1.
         21   -1    0    0  501  502  0.00000000000E+00 -0.00000000000E+00 -0.17971243574E+03  0.17971243574E+03  0.00000000000E+00 0. -1.
         23    2    1    2    0    0  0.13937064513E+02  0.45244009648E+02  0.29122668153E+03  0.30916305101E+03  0.92344733987E+02 0.  0.
         23    2    1    2    0    0 -0.70894289748E+01 -0.24453962543E+02 -0.32992485584E+01  0.84670351232E+02  0.80684118942E+02 0.  0.
        -11    1    4    4    0    0  0.23665945648E+02  0.48337211856E+01  0.24106678915E+02  0.34125852549E+02  0.00000000000E+00 0. -1.
         11    1    4    4    0    0 -0.30755374623E+02 -0.29287683728E+02 -0.27405927473E+02  0.50544498682E+02  0.00000000000E+00 0.  1.
        -13    1    3    3    0    0 -0.38724043864E+02  0.28465114152E+02  0.14977143104E+03  0.15729366120E+03  0.00000000000E+00 0.  1.
         13    1    3    3    0    0  0.52661108376E+02  0.16778895496E+02  0.14145525049E+03  0.15186938981E+03  0.00000000000E+00 0. -1.
          3    1    1    2  501    0 -0.68476355378E+01 -0.20790047105E+02 -0.12581451926E+03  0.12770438296E+03  0.00000000000E+00 0. -1.
<scales pt_clust_5="13000.00000" pt_clust_6="13000.00000" pt_clust_7="13000.00000" pt_clust_8="13000.00000" pt_clust_9="21.88872"></scales>
<clustering>
<clus scale="   21.889">  2  9  1 -1</clus>
<clus scale="   80.684">  5  6 -1 -1</clus>
<clus scale="   91.728">  2  5  1 -1</clus>
<clus scale="   92.345">  7  8 -1 -1</clus>
<clus scale="   21.889">  2  5  1 -1</clus>
</clustering>
</event>
<event>
 9    1  0.1504846E-005  0.1160351E+03  0.7546771E-02  0.1250490E+00
         21   -1    0    0  501  502  0.00000000000E+00  0.00000000000E+00  0.23304868478E+03  0.23304868478E+03  0.00000000000E+00 0.  1.
         -2   -1    0    0    0  501 -0.00000000000E+00 -0.00000000000E+00 -0.87986894715E+02  0.87986894715E+02  0.00000000000E+00 0.  1.
         23    2    1    2    0    0  0.20021136873E+01 -0.81677509980E+02  0.85329307021E+00  0.12155175264E+03  0.89993757362E+02 0.  0.
         23    2    1    2    0    0 -0.34567196670E+01  0.47857115112E+02  0.10430281455E+03  0.14715411753E+03  0.92048926143E+02 0.  0.
        -13    1    4    4    0    0  0.23047269041E+02  0.67154915086E+02  0.72658109704E+02  0.10158818896E+03  0.00000000000E+00 0.  1.
         13    1    4    4    0    0 -0.26503988708E+02 -0.19297799974E+02  0.31644704850E+02  0.45565928569E+02  0.00000000000E+00 0. -1.
        -13    1    3    3    0    0  0.45490943189E+02 -0.50927749389E+02  0.34970869275E+00  0.68287508860E+02  0.00000000000E+00 0.  1.
         13    1    3    3    0    0 -0.43488829502E+02 -0.30749760590E+02  0.50358437745E+00  0.53264243776E+02  0.00000000000E+00 0. -1.
         -2    1    1    2    0  502  0.14546059797E+01  0.33820394867E+02  0.39905682442E+02  0.52329709331E+02  0.00000000000E+00 0.  1.
<scales pt_clust_5="13000.00000" pt_clust_6="13000.00000" pt_clust_7="13000.00000" pt_clust_8="13000.00000" pt_clust_9="33.85166"></scales>
<clustering>
<clus scale="   33.852">  1  9  2 -1</clus>
<clus scale="   89.994">  7  8 -1 -1</clus>
<clus scale="   92.049">  5  6 -1 -1</clus>
<clus scale="  114.412">  2  7  1 -1</clus>
<clus scale="   33.852">  1  5  2 -1</clus>
</clustering>
</event>
<event>
 9    1  0.1504846E-005  0.1355059E+03  0.7546771E-02  0.1220123E+00
          2   -1    0    0  502    0 -0.00000000000E+00  0.00000000000E+00  0.15633945677E+03  0.15633945677E+03  0.00000000000E+00 0. -1.
         21   -1    0    0  501  502  0.00000000000E+00 -0.00000000000E+00 -0.17897833973E+03  0.17897833973E+03  0.00000000000E+00 0. -1.
         23    2    1    2    0    0  0.55851178941E+02 -0.80435113281E+02  0.28849655256E+02  0.13694254552E+03  0.91278675101E+02 0.  0.
         23    2    1    2    0    0 -0.86412143244E+02  0.55533322365E+02 -0.68948092901E+02  0.15526019815E+03  0.93813012015E+02 0.  0.
        -11    1    4    4    0    0 -0.17668756626E+02  0.66872726052E+02 -0.29504157399E+02  0.75197352042E+02  0.00000000000E+00 0.  1.
         11    1    4    4    0    0 -0.68743386618E+02 -0.11339403687E+02 -0.39443935502E+02  0.80062846112E+02  0.00000000000E+00 0. -1.
        -13    1    3    3    0    0  0.23639259892E+02  0.98540405357E+01 -0.16938545559E+02  0.30705554038E+02  0.00000000000E+00 0.  1.
         13    1    3    3    0    0  0.32211919049E+02 -0.90289153817E+02  0.45788200815E+02  0.10623699148E+03  0.00000000000E+00 0. -1.
          2    1    1    2  501    0  0.30560964304E+02  0.24901790916E+02  0.17459554689E+02  0.43115052823E+02  0.00000000000E+00 0. -1.
<scales pt_clust_5="13000.00000" pt_clust_6="13000.00000" pt_clust_7="13000.00000" pt_clust_8="13000.00000" pt_clust_9="39.42174"></scales>
<clustering>
<clus scale="   39.422">  2  9  1 -1</clus>
<clus scale="   91.279">  7  8 -1 -1</clus>
<clus scale="   93.813">  5  6 -1 -1</clus>
<clus scale="  133.764">  1  7  2 -1</clus>
<clus scale="   39.422">  2  5  1 -1</clus>
</clustering>
</event>
<event>
 9    1  0.1504846E-005  0.1147911E+03  0.7546771E-02  0.1254140E+00
          1   -1    0    0  502    0 -0.00000000000E+00  0.00000000000E+00  0.18385847970E+03  0.18385847970E+03  0.00000000000E+00 0. -1.
         21   -1    0    0  501  502  0.00000000000E+00 -0.00000000000E+00 -0.19471076440E+03  0.19471076440E+03  0.00000000000E+00 0. -1.
         23    2    1    2    0    0  0.39974067097E+02  0.33549954823E+02  0.38576498124E+02  0.11502852654E+03  0.94973102515E+02 0.  0.
         23    2    1    2    0    0 -0.93522835488E+02  0.25205380530E+02  0.45993520388E+02  0.13934298820E+03  0.88990069550E+02 0.  0.
        -13    1    3    3    0    0 -0.21309936300E+02 -0.47652598948E+01  0.36728169720E+02  0.42729141554E+02  0.00000000000E+00 0. -1.
         13    1    3    3    0    0  0.61284003397E+02  0.38315214717E+02  0.18483284037E+01  0.72299384984E+02  0.00000000000E+00 0.  1.
        -13    1    4    4    0    0 -0.83976496338E+01  0.43537667810E+02  0.18304761353E+02  0.47969921054E+02  0.00000000000E+00 0.  1.
         13    1    4    4    0    0 -0.85125185854E+02 -0.18332287280E+02  0.27688759036E+02  0.91373067150E+02  0.00000000000E+00 0. -1.
          1    1    1    2  501    0  0.53548768391E+02 -0.58755335353E+02 -0.95422303207E+02  0.12419772936E+03  0.00000000000E+00 0. -1.
<scales pt_clust_5="13000.00000" pt_clust_6="13000.00000" pt_clust_7="13000.00000" pt_clust_8="13000.00000" pt_clust_9="79.49629"></scales>
<clustering>
<clus scale="   79.496">  2  9  1 -1</clus>
<clus scale="   88.990">  7  8 -1 -1</clus>
<clus scale="   94.973">  5  6 -1 -1</clus>
<clus scale="  109.892">  2  7  1 -1</clus>
<clus scale="   79.496">  2  5  1 -1</clus>
</clustering>
</event>
<event>
 9    1  0.1504846E-005  0.1156194E+03  0.7546771E-02  0.1252877E+00
         21   -1    0    0  501  502  0.00000000000E+00  0.00000000000E+00  0.78399467899E+02  0.78399467899E+02  0.00000000000E+00 0. -1.
          1   -1    0    0  502    0 -0.00000000000E+00 -0.00000000000E+00 -0.54329729725E+03  0.54329729725E+03  0.00000000000E+00 0. -1.
         23    2    1    2    0    0 -0.17975879203E+02  0.47679387253E+02 -0.21320925174E+03  0.23758695660E+03  0.91612885104E+02 0.  0.
         23    2    1    2    0    0  0.65487873979E+01 -0.92234797923E+02 -0.29522721689E+03  0.32077438278E+03  0.84775883913E+02 0.  0.
        -11    1    4    4    0    0 -0.16669569375E+02 -0.94950017795E+02 -0.19089959808E+03  0.21385985357E+03  0.00000000000E+00 0. -1.
         11    1    4    4    0    0  0.23218356773E+02  0.27152198717E+01 -0.10432761881E+03  0.10691452921E+03  0.00000000000E+00 0.  1.
        -11    1    3    3    0    0 -0.28197370502E+02  0.69352396719E+02 -0.19004102946E+03  0.20425581879E+03  0.00000000000E+00 0.  1.
         11    1    3    3    0    0  0.10221491300E+02 -0.21673009466E+02 -0.23168222280E+02  0.33331137804E+02  0.00000000000E+00 0. -1.
          1    1    1    2  501    0  0.11427091805E+02  0.44555410670E+02  0.43538639276E+02  0.63335425767E+02  0.00000000000E+00 0. -1.
<scales pt_clust_5="13000.00000" pt_clust_6="13000.00000" pt_clust_7="13000.00000" pt_clust_8="13000.00000" pt_clust_9="45.99742"></scales>
<clustering>
<clus scale="   45.997">  1  9  2 -1</clus>
<clus scale="   84.776">  5  6 -1 -1</clus>
<clus scale="   91.613">  7  8 -1 -1</clus>
<clus scale="  110.281">  1  5  2 -1</clus>
<clus scale="   45.997">  1  5  2 -1</clus>
</clustering>
</event>
<event>
 9    1  0.1504846E-005  0.1040887E+03  0.7546771E-02  0.1272873E+00
         21   -1    0    0  501  502  0.00000000000E+00  0.00000000000E+00  0.39464118877E+02  0.39464118877E+02  0.00000000000E+00 0. -1.
          2   -1    0    0  502    0 -0.00000000000E+00 -0.00000000000E+00 -0.61372732249E+03  0.61372732249E+03  0.00000000000E+00 0. -1.
         23    2    1    2    0    0 -0.50493591283E+02 -0.81533864770E+00 -0.20568172506E+03  0.23151441604E+03  0.93507674960E+02 0.  0.
         23    2    1    2    0    0  0.10792396708E+02 -0.73881093438E+02 -0.18349866710E+03  0.21817914103E+03  0.91408341832E+02 0.  0.
        -11    1    4    4    0    0  0.35605311931E+02 -0.59990385984E+01 -0.24817823869E+02  0.43813822972E+02  0.00000000000E+00 0.  1.
         11    1    4    4    0    0 -0.24812915223E+02 -0.67882054839E+02 -0.15868084323E+03  0.17436531806E+03  0.00000000000E+00 0. -1.
        -13    1    3    3    0    0  0.95894614267E+01 -0.31781727543E+02 -0.36547675730E+02  0.49373764059E+02  0.00000000000E+00 0.  1.
         13    1    3    3    0    0 -0.60083052710E+02  0.30966388895E+02 -0.16913404933E+03  0.18214065199E+03  0.00000000000E+00 0. -1.
          2    1    1    2  501    0  0.39701194575E+02  0.74696432085E+02 -0.18508281145E+03  0.20349788429E+03  0.00000000000E+00 0. -1.
<scales pt_clust_5="13000.00000" pt_clust_6="13000.00000" pt_clust_7="13000.00000" pt_clust_8="13000.00000" pt_clust_9="84.59166"></scales>
<clustering>
<clus scale="   84.592">  1  9  2 -1</clus>
<clus scale="   91.408">  5  6 -1 -1</clus>
<clus scale="   93.508">  7  8 -1 -1</clus>
<clus scale="  102.207">  1  5  2 -1</clus>
<clus scale="   84.592">  1  5  2 -1</clus>
</clustering>
</event>
<event>
 9    1  0.1504846E-005  0.1164407E+03  0.7546771E-02  0.1250544E+00
         21   -1    0    0  501  502  0.00000000000E+00  0.00000000000E+00  0.26241118280E+03  0.26241118280E+03  0.00000000000E+00 0.  1.
          1   -1    0    0  502    0 -0.00000000000E+00 -0.00000000000E+00 -0.85920222392E+02  0.85920222392E+02  0.00000000000E+00 0. -1.
         23    2    1    2    0    0  0.66453508867E+02 -0.15644073244E+02 -0.51261321796E+01  0.11339871051E+03  0.90400135203E+02 0.  0.
         23    2    1    2    0    0 -0.69881922260E+02 -0.94239479945E+01  0.17044408899E+03  0.20727413875E+03  0.94546746469E+02 0.  0.
        -13    1    3    3    0    0  0.44493341808E+02 -0.50187734827E+02 -0.19772285309E+02  0.69924312357E+02  0.00000000000E+00 0. -1.
         13    1    3    3    0    0  0.21960167059E+02  0.34543661583E+02  0.14646153129E+02  0.43474398148E+02  0.00000000000E+00 0.  1.
        -13    1    4    4    0    0 -0.26519277608E+02  0.26598263761E+02  0.12522302316E+02  0.39592269135E+02  0.00000000000E+00 0. -1.
         13    1    4    4    0    0 -0.43362644651E+02 -0.36022211755E+02  0.15792178667E+03  0.16768186961E+03  0.00000000000E+00 0.  1.
          1    1    1    2  501    0  0.34284133922E+01  0.25068021238E+02  0.11173003599E+02  0.27658555939E+02  0.00000000000E+00 0. -1.
<scales pt_clust_5="13000.00000" pt_clust_6="13000.00000" pt_clust_7="13000.00000" pt_clust_8="13000.00000" pt_clust_9="25.30139"></scales>
<clustering>
<clus scale="   25.301">  1  9  2 -1</clus>
<clus scale="   90.400">  5  6 -1 -1</clus>
<clus scale="   94.547">  7  8 -1 -1</clus>
<clus scale="  113.100">  2  5  1 -1</clus>
<clus scale="   25.301">  1  5  2 -1</clus>
</clustering>
</event>
<event>
 9    1  0.1504846E-005  0.9498445E+02  0.7546771E-02  0.1291231E+00
         21   -1    0    0  501  502  0.00000000000E+00  0.00000000000E+00  0.62229403175E+02  0.62229403175E+02  0.00000000000E+00 0.  1.
          2   -1    0    0  502    0 -0.00000000000E+00 -0.00000000000E+00 -0.25318264029E+03  0.25318264029E+03  0.00000000000E+00 0. -1.
         23    2    1    2    0    0  0.25250897312E+01  0.34057406144E+02 -0.14794085715E+03  0.17665937433E+03  0.90309215110E+02 0.  0.
         23    2    1    2    0    0  0.14625945701E+02 -0.15070336879E+02 -0.48544290410E+01  0.92810357108E+02  0.90272717716E+02 0.  0.
        -11    1    3    3    0    0  0.32363895510E+02  0.48561483069E+02 -0.65133146781E+02  0.87452651075E+02  0.00000000000E+00 0. -1.
         11    1    3    3    0    0 -0.29838805779E+02 -0.14504076925E+02 -0.82807710366E+02  0.89206723255E+02  0.00000000000E+00 0.  1.
        -13    1    4    4    0    0 -0.21591839189E+02 -0.25979793972E+02  0.27089443723E+02  0.43301214482E+02  0.00000000000E+00 0.  1.
         13    1    4    4    0    0  0.36217784890E+02  0.10909457093E+02 -0.31943872764E+02  0.49509142626E+02  0.00000000000E+00 0. -1.
          2    1    1    2  501    0 -0.17151035432E+02 -0.18987069265E+02 -0.38157950931E+02  0.45942312032E+02  0.00000000000E+00 0. -1.
<scales pt_clust_5="13000.00000" pt_clust_6="13000.00000" pt_clust_7="13000.00000" pt_clust_8="13000.00000" pt_clust_9="25.58647"></scales>
<clustering>
<clus scale="   25.586">  1  9  2 -1</clus>
<clus scale="   90.273">  7  8 -1 -1</clus>
<clus scale="   90.309">  5  6 -1 -1</clus>
<clus scale="   94.950">  1  7  2 -1</clus>
<clus scale="   25.586">  1  5  2 -1</clus>
</clustering>
</event>
<event>
 9    1  0.1504846E-005  0.9362259E+02  0.7546771E-02  0.1295278E+00
         21   -1    0    0  501  502  0.00000000000E+00  0.00000000000E+00  0.74122392977E+02  0.74122392977E+02  0.00000000000E+00 0. -1.
          1   -1    0    0  502    0 -0.00000000000E+00 -0.00000000000E+00 -0.29839570814E+03  0.29839570814E+03  0.00000000000E+00 0. -1.
         23    2    1    2    0    0 -0.19060590311E+02 -0.14476077902E+02 -0.17080653445E+03  0.19411831727E+03  0.89074047602E+02 0.  0.
         23    2    1    2    0    0  0.26939635844E+02 -0.79782747750E+01 -0.92536938820E+02  0.13265314935E+03  0.90798547006E+02 0.  0.
        -11    1    4    4    0    0  0.80422962393E+00 -0.42480987556E+02 -0.74493999541E+02  0.85759180597E+02  0.00000000000E+00 0. -1.
         11    1    4    4    0    0  0.26135406220E+02  0.34502712781E+02 -0.18042939279E+02  0.46893968753E+02  0.00000000000E+00 0.  1.
        -11    1    3    3    0    0  0.19576661091E+02 -0.40906118216E+02 -0.80211276116E+02  0.92143393595E+02  0.00000000000E+00 0. -1.
         11    1    3    3    0    0 -0.38637251403E+02  0.26430040314E+02 -0.90595258332E+02  0.10197492368E+03  0.00000000000E+00 0.  1.
          1    1    1    2  501    0 -0.78790455327E+01  0.22454352677E+02  0.39070158108E+02  0.45746634491E+02  0.00000000000E+00 0. -1.
<scales pt_clust_5="13000.00000" pt_clust_6="13000.00000" pt_clust_7="13000.00000" pt_clust_8="13000.00000" pt_clust_9="23.79658"></scales>
<clustering>
<clus scale="   23.797">  1  9  2 -1</clus>
<clus scale="   89.074">  7  8 -1 -1</clus>
<clus scale="   90.799">  5  6 -1 -1</clus>
<clus scale="   91.951">  2  7  1 -1</clus>
<clus scale="   23.797">  1  5  2 -1</clus>
</clustering>
</event>
<event>
 9    1  0.1504846E-005  0.1393755E+03  0.7546771E-02  0.1215315E+00
          2   -1    0    0  502    0 -0.00000000000E+00  0.00000000000E+00  0.10178729124E+04  0.10178729124E+04  0.00000000000E+00 0. -1.
         21   -1    0    0  501  502  0.00000000000E+00 -0.00000000000E+00 -0.24893450547E+02  0.24893450547E+02  0.00000000000E+00 0.  1.
         23    2    1    2    0    0 -0.60007862185E+02 -0.89398490574E+02  0.57126413330E+03  0.58872002985E+03  0.93035100416E+02 0.  0.
         23    2    1    2    0    0  0.37565615417E+02  0.81369882102E+02  0.40128509334E+03  0.42265353926E+03  0.97847099771E+02 0.  0.
        -13    1    3    3    0    0 -0.49036101704E+02 -0.11559496897E+02  0.11244120676E+03  0.12321195647E+03  0.00000000000E+00 0.  1.
         13    1    3    3    0    0 -0.10971760481E+02 -0.77838993677E+02  0.45882292654E+03  0.46550807338E+03  0.00000000000E+00 0. -1.
        -13    1    4    4    0    0 -0.54236769147E+01  0.83788866387E+02  0.20173235478E+03  0.21850842859E+03  0.00000000000E+00 0.  1.
         13    1    4    4    0    0  0.42989292331E+02 -0.24189842849E+01  0.19955273856E+03  0.20414511066E+03  0.00000000000E+00 0. -1.
          2    1    1    2  501    0  0.22442246768E+02  0.80286084719E+01  0.20430235199E+02  0.31392793827E+02  0.00000000000E+00 0. -1.
<scales pt_clust_5="13000.00000" pt_clust_6="13000.00000" pt_clust_7="13000.00000" pt_clust_8="13000.00000" pt_clust_9="23.83512"></scales>
<clustering>
<clus scale="   23.835">  2  9  1 -1</clus>
<clus scale="   93.035">  5  6 -1 -1</clus>
<clus scale="   97.847">  7  8 -1 -1</clus>
<clus scale="  136.040">  1  5  2 -1</clus>
<clus scale="   23.835">  2  5  1 -1</clus>
</clustering>
</event>
<event>
 9    1  0.1504846E-005  0.1312395E+03  0.7546771E-02  0.1225868E+00
          1   -1    0    0  502    0 -0.00000000000E+00  0.00000000000E+00  0.34778690113E+02  0.34778690113E+02  0.00000000000E+00 0. -1.
         21   -1    0    0  501  502  0.00000000000E+00 -0.00000000000E+00 -0.13947036191E+04  0.13947036191E+04  0.00000000000E+00 0.  1.
         23    2    1    2    0    0  0.85031912393E+02  0.27295437813E+02 -0.16743355819E+03  0.21001745181E+03  0.89988147030E+02 0.  0.
         23    2    1    2    0    0 -0.84641493082E+02 -0.11436251401E+03 -0.80545464231E+03  0.82275557168E+03  0.89031359316E+02 0.  0.
        -13    1    4    4    0    0 -0.85493074624E+02 -0.53768308883E+02 -0.60393189645E+03  0.61231840769E+03  0.00000000000E+00 0.  1.
         13    1    4    4    0    0  0.85158154175E+00 -0.60594205131E+02 -0.20152274587E+03  0.21043716399E+03  0.00000000000E+00 0. -1.
        -13    1    3    3    0    0  0.33195276929E+02 -0.32687171574E+02 -0.50114487940E+02  0.68423968735E+02  0.00000000000E+00 0. -1.
         13    1    3    3    0    0  0.51836635464E+02  0.59982609387E+02 -0.11731907025E+03  0.14159348308E+03  0.00000000000E+00 0.  1.
          1    1    1    2  501    0 -0.39041931117E+00  0.87067076200E+02 -0.38703672850E+03  0.39670928574E+03  0.00000000000E+00 0. -1.
<scales pt_clust_5="13000.00000" pt_clust_6="13000.00000" pt_clust_7="13000.00000" pt_clust_8="13000.00000" pt_clust_9="87.06795"></scales>
<clustering>
<clus scale="   87.068">  2  9  1 -1</clus>
<clus scale="   89.031">  5  6 -1 -1</clus>
<clus scale="   89.988">  7  8 -1 -1</clus>
<clus scale="  130.585">  2  5  1 -1</clus>
<clus scale="   87.068">  2  5  1 -1</clus>
</clustering>
</event>
<event>
 9    1  0.1504846E-005  0.9332191E+02  0.7546771E-02  0.1295778E+00
          1   -1    0    0  502    0 -0.00000000000E+00  0.00000000000E+00  0.80516467783E+02  0.80516467783E+02  0.00000000000E+00 0. -1.
         21   -1    0    0  501  502  0.00000000000E+00 -0.00000000000E+00 -0.27072097428E+03  0.27072097428E+03  0.00000000000E+00 0. -1.
         23    2    1    2    0    0  0.63704809482E+00  0.48186578097E+01 -0.35629671153E+01  0.90708751371E+02  0.90508328607E+02 0.  0.
         23    2    1    2    0    0  0.45291556237E+02  0.74073865058E+01 -0.46843115288E+02  0.11287195284E+03  0.91867327413E+02 0.  0.
        -13    1    3    3    0    0  0.33037965444E+01  0.46029606964E+02  0.10042633902E+02  0.47228109051E+02  0.00000000000E+00 0.  1.
         13    1    3    3    0    0 -0.26667484496E+01 -0.41210949154E+02 -0.13605601018E+02  0.43480642320E+02  0.00000000000E+00 0. -1.
        -13    1    4    4    0    0  0.13775529317E+02 -0.37966323148E+02  0.80747302963E-01  0.40388283220E+02  0.00000000000E+00 0.  1.
         13    1    4    4    0    0  0.31516026920E+02  0.45373709654E+02 -0.46923862591E+02  0.72483669616E+02  0.00000000000E+00 0. -1.
          1    1    1    2  501    0 -0.45928604332E+02 -0.12226044316E+02 -0.13979842409E+03  0.14765673785E+03  0.00000000000E+00 0. -1.
<scales pt_clust_5="13000.00000" pt_clust_6="13000.00000" pt_clust_7="13000.00000" pt_clust_8="13000.00000" pt_clust_9="47.52802"></scales>
<clustering>
<clus scale="   47.528">  2  9  1 -1</clus>
<clus scale="   90.508">  5  6 -1 -1</clus>
<clus scale="   91.867">  7  8 -1 -1</clus>
<clus scale="   91.984">  1  5  2 -1</clus>
<clus scale="   47.528">  2  5  1 -1</clus>
</clustering>
</event>
<event>
 9    1  0.1504846E-005  0.9247591E+02  0.7546771E-02  0.1297496E+00
         21   -1    0    0  501  502  0.00000000000E+00  0.00000000000E+00  0.37162370710E+02  0.37162370710E+02  0.00000000000E+00 0.  1.
          2   -1    0    0  502    0 -0.00000000000E+00 -0.00000000000E+00 -0.32448630221E+03  0.32448630221E+03  0.00000000000E+00 0. -1.
         23    2    1    2    0    0  0.90702358284E+01  0.67480838490E+00 -0.17956596788E+03  0.20164689191E+03  0.91295167734E+02 0.  0.
         23    2    1    2    0    0 -0.18012003508E+02 -0.22204884798E+02 -0.89797787096E+02  0.13057275894E+03  0.90377616863E+02 0.  0.
        -11    1    3    3    0    0 -0.34919086640E+02  0.23579043531E+02 -0.84453551744E+02  0.94380698810E+02  0.00000000000E+00 0. -1.
         11    1    3    3    0    0  0.43989322468E+02 -0.22904235146E+02 -0.95112416134E+02  0.10726619310E+03  0.00000000000E+00 0.  1.
        -11    1    4    4    0    0 -0.36240444036E+02 -0.41664315354E+02 -0.25220060834E+02  0.60706971810E+02  0.00000000000E+00 0.  1.
         11    1    4    4    0    0  0.18228440528E+02  0.19459430556E+02 -0.64577726263E+02  0.69865787127E+02  0.00000000000E+00 0. -1.
          2    1    1    2  501    0  0.89417676798E+01  0.21530076413E+02 -0.17960176527E+02  0.29429022079E+02  0.00000000000E+00 0. -1.
<scales pt_clust_5="13000.00000" pt_clust_6="13000.00000" pt_clust_7="13000.00000" pt_clust_8="13000.00000" pt_clust_9="23.31307"></scales>
<clustering>
<clus scale="   23.313">  1  9  2 -1</clus>
<clus scale="   90.378">  7  8 -1 -1</clus>
<clus scale="   91.295">  5  6 -1 -1</clus>
<clus scale="   91.570">  1  7  2 -1</clus>
<clus scale="   23.313">  1  5  2 -1</clus>
</clustering>
</event>
<event>
 9    1  0.1504846E-005  0.2529712E+03  0.7546771E-02  0.1111662E+00
         21   -1    0    0  501  502  0.00000000000E+00  0.00000000000E+00  0.34896106835E+03  0.34896106835E+03  0.00000000000E+00 0. -1.
         -1   -1    0    0    0  501 -0.00000000000E+00 -0.00000000000E+00 -0.30313018550E+03  0.30313018550E+03  0.00000000000E+00 0.  1.
         23    2    1    2    0    0  0.20527508480E+03  0.95401425743E+02 -0.10866985648E+03  0.26729037028E+03  0.91628117215E+02 0.  0.
         23    2    1    2    0    0 -0.25559801646E+03 -0.45371564234E+02  0.95791123510E+02  0.29270200472E+03  0.95444221218E+02 0.  0.
        -11    1    4    4    0    0 -0.13246425587E+03 -0.31971378725E+02  0.23974216165E+00  0.13626813868E+03  0.00000000000E+00 0.  1.
         11    1    4    4    0    0 -0.12313376059E+03 -0.13400185508E+02  0.95551381348E+02  0.15643386604E+03  0.00000000000E+00 0. -1.
        -13    1    3    3    0    0  0.61040906309E+02  0.70619867221E+02 -0.17800385255E+02  0.95026373206E+02  0.00000000000E+00 0.  1.
         13    1    3    3    0    0  0.14423417849E+03  0.24781558521E+02 -0.90869471228E+02  0.17226399708E+03  0.00000000000E+00 0. -1.
         -1    1    1    2    0  502  0.50322931659E+02 -0.50029861509E+02  0.58709615823E+02  0.92098878839E+02  0.00000000000E+00 0.  1.
<scales pt_clust_5="13000.00000" pt_clust_6="13000.00000" pt_clust_7="13000.00000" pt_clust_8="13000.00000" pt_clust_9="70.96044"></scales>
<clustering>
<clus scale="   70.960">  1  9  2 -1</clus>
<clus scale="   91.628">  7  8 -1 -1</clus>
<clus scale="   95.444">  5  6 -1 -1</clus>
<clus scale="  251.556">  2  7  1 -1</clus>
<clus scale="   70.960">  1  5  2 -1</clus>
</clustering>
</event>
<event>
 9    1  0.1504846E-005  0.1323632E+03  0.7546771E-02  0.1224226E+00
         -2   -1    0    0    0  501 -0.00000000000E+00  0.00000000000E+00  0.14288442042E+03  0.14288442042E+03  0.00000000000E+00 0.  1.
         21   -1    0    0  501  502  0.00000000000E+00 -0.00000000000E+00 -0.22115465624E+03  0.22115465624E+03  0.00000000000E+00 0. -1.
         23    2    1    2    0    0  0.55861581920E+02 -0.78875968966E+02  0.49338636926E+02  0.14253877924E+03  0.92417896962E+02 0.  0.
         23    2    1    2    0    0 -0.76311593590E+02  0.52557081359E+02 -0.13478055003E+03  0.18740748619E+03  0.91488048933E+02 0.  0.
        -11    1    3    3    0    0  0.57766660821E+02 -0.54555406996E+02  0.73475048390E+02  0.10822135774E+03  0.00000000000E+00 0.  1.
         11    1    3    3    0    0 -0.19050789011E+01 -0.24320561970E+02 -0.24136411464E+02  0.34317421502E+02  0.00000000000E+00 0. -1.
        -13    1    4    4    0    0 -0.42970848533E+02  0.19028155924E+02 -0.26486828178E+01  0.47069948611E+02  0.00000000000E+00 0.  1.
         13    1    4    4    0    0 -0.33340745057E+02  0.33528925435E+02 -0.13213186721E+03  0.14033753758E+03  0.00000000000E+00 0. -1.
         -2    1    1    2    0  502  0.20450011671E+02  0.26318887607E+02  0.71716772853E+01  0.34092811226E+02  0.00000000000E+00 0.  1.
<scales pt_clust_5="13000.00000" pt_clust_6="13000.00000" pt_clust_7="13000.00000" pt_clust_8="13000.00000" pt_clust_9="33.32999"></scales>
<clustering>
<clus scale="   33.330">  2  9  1 -1</clus>
<clus scale="   91.488">  7  8 -1 -1</clus>
<clus scale="   92.418">  5  6 -1 -1</clus>
<clus scale="  131.716">  2  7  1 -1</clus>
<clus scale="   33.330">  2  5  1 -1</clus>
</clustering>
</event>
<event>
 9    1  0.1504846E-005  0.1090210E+03  0.7546771E-02  0.1262434E+00
          1   -1    0    0  502    0 -0.00000000000E+00  0.00000000000E+00  0.81021764253E+03  0.81021764253E+03  0.00000000000E+00 0. -1.
         21   -1    0    0  501  502  0.00000000000E+00 -0.00000000000E+00 -0.33913906176E+02  0.33913906176E+02  0.00000000000E+00 0.  1.
         23    2    1    2    0    0  0.56097905142E+02 -0.10888397383E+02  0.54604537254E+03  0.55639517978E+03  0.90246967008E+02 0.  0.
         23    2    1    2    0    0 -0.65346513902E+02  0.31936765915E+02  0.23692983973E+03  0.26379729683E+03  0.90350102173E+02 0.  0.
        -11    1    3    3    0    0 -0.24881135988E+02 -0.16270710599E+01  0.14873349088E+03  0.15080905012E+03  0.00000000000E+00 0.  1.
         11    1    3    3    0    0  0.80979041130E+02 -0.92613263228E+01  0.39731188166E+03  0.40558612966E+03  0.00000000000E+00 0. -1.
        -11    1    4    4    0    0 -0.32989819798E+02  0.60431753130E+02  0.11025900221E+03  0.12998989409E+03  0.00000000000E+00 0.  1.
         11    1    4    4    0    0 -0.32356694104E+02 -0.28494987215E+02  0.12667083752E+03  0.13380740274E+03  0.00000000000E+00 0. -1.
          1    1    1    2  501    0  0.92486087603E+01 -0.21048368532E+02 -0.66714759165E+01  0.23939072095E+02  0.00000000000E+00 0. -1.
<scales pt_clust_5="13000.00000" pt_clust_6="13000.00000" pt_clust_7="13000.00000" pt_clust_8="13000.00000" pt_clust_9="22.99066"></scales>
<clustering>
<clus scale="   22.991">  2  9  1 -1</clus>
<clus scale="   90.247">  5  6 -1 -1</clus>
<clus scale="   90.350">  7  8 -1 -1</clus>
<clus scale="  108.936">  1  5  2 -1</clus>
<clus scale="   22.991">  2  5  1 -1</clus>
</clustering>
</event>
<event>
 9    1  0.1504846E-005  0.1453324E+03  0.7546771E-02  0.1224822E+00
         21   -1    0    0  501  502  0.00000000000E+00  0.00000000000E+00  0.19819618802E+03  0.19819618802E+03  0.00000000000E+00 0. -1.
          1   -1    0    0  502    0 -0.00000000000E+00 -0.00000000000E+00 -0.47155259364E+03  0.47155259364E+03  0.00000000000E+00 0. -1.
         23    2    1    2    0    0 -0.24088314940E+02 -0.21617377396E+01 -0.16999764786E+03  0.19636125403E+03  0.95255560344E+02 0.  0.
         23    2    1    2    0    0  0.88192602631E+02  0.97215989978E+02 -0.24478013952E+03  0.29133072938E+03  0.87905593160E+02 0.  0.
        -11    1    4    4    0    0  0.46096204050E+02  0.10284265432E+03 -0.20030889806E+03  0.22983717327E+03  0.00000000000E+00 0. -1.
         11    1    4    4    0    0  0.42096398582E+02 -0.56266643446E+01 -0.44471241460E+02  0.61493556103E+02  0.00000000000E+00 0.  1.
        -11    1    3    3    0    0 -0.11853676479E+02 -0.35872822469E+02 -0.15124373879E+03  0.15589110802E+03  0.00000000000E+00 0.  1.
         11    1    3    3    0    0 -0.12234638461E+02  0.33711084729E+02 -0.18753909077E+02  0.40470146004E+02  0.00000000000E+00 0. -1.
          1    1    1    2  501    0 -0.64104287691E+02 -0.95054252238E+02  0.14142138176E+03  0.18205679825E+03  0.00000000000E+00 0. -1.
<scales pt_clust_5="13000.00000" pt_clust_6="13000.00000" pt_clust_7="13000.00000" pt_clust_8="13000.00000" pt_clust_9="115.73297"></scales>
<clustering>
<clus scale="   87.906">  5  6 -1 -1</clus>
<clus scale="   95.256">  7  8 -1 -1</clus>
<clus scale="   98.278">  2  7  1 -1</clus>
<clus scale="  115.733">  1  9  2 -1</clus>
<clus scale="  115.733">  1  5  2 -1</clus>
</clustering>
</event>
<event>
 9    1  0.1504846E-005  0.1416265E+03  0.7546771E-02  0.1211466E+00
         -1   -1    0    0    0  501 -0.00000000000E+00  0.00000000000E+00  0.39993494931E+03  0.39993494931E+03  0.00000000000E+00 0.  1.
         21   -1    0    0  501  502  0.00000000000E+00 -0.00000000000E+00 -0.17906406973E+03  0.17906406973E+03  0.00000000000E+00 0. -1.
         23    2    1    2    0    0  0.11018957278E+03 -0.39113172906E+01  0.33697138630E+03  0.36486338504E+03  0.86130913152E+02 0.  0.
         23    2    1    2    0    0 -0.11896668369E+03  0.25878620992E+02 -0.77464229201E+02  0.16883263136E+03  0.87641176139E+02 0.  0.
        -13    1    3    3    0    0  0.10953462927E+03 -0.29161561243E+02  0.29288349789E+03  0.31405250357E+03  0.00000000000E+00 0.  1.
         13    1    3    3    0    0  0.65494351683E+00  0.25250243952E+02  0.44087888415E+02  0.50810881468E+02  0.00000000000E+00 0. -1.
        -13    1    4    4    0    0 -0.96461352816E+02  0.43150073873E+02 -0.24084253609E+02  0.10838252965E+03  0.00000000000E+00 0.  1.
         13    1    4    4    0    0 -0.22505330870E+02 -0.17271452881E+02 -0.53379975592E+02  0.60450101707E+02  0.00000000000E+00 0. -1.
         -1    1    1    2    0  502  0.87771109023E+01 -0.21967303701E+02 -0.38636277524E+02  0.45303002644E+02  0.00000000000E+00 0.  1.
<scales pt_clust_5="13000.00000" pt_clust_6="13000.00000" pt_clust_7="13000.00000" pt_clust_8="13000.00000" pt_clust_9="23.65587"></scales>
<clustering>
<clus scale="   23.656">  2  9  1 -1</clus>
<clus scale="   86.131">  5  6 -1 -1</clus>
<clus scale="   87.641">  7  8 -1 -1</clus>
<clus scale="  140.697">  1  5  2 -1</clus>
<clus scale="   23.656">  2  5  1 -1</clus>
</clustering>
</event>
<event>
 9    1  0.1504846E-005  0.9703974E+02  0.7546771E-02  0.1287781E+00
         21   -1    0    0  501  502  0.00000000000E+00  0.00000000000E+00  0.11768410377E+03  0.11768410377E+03  0.00000000000E+00 0.  1.
          4   -1    0    0  502    0 -0.00000000000E+00 -0.00000000000E+00 -0.24033531102E+03  0.24033531102E+03  0.00000000000E+00 0. -1.
         23    2    1    2    0    0  0.37842401435E+02  0.22277285915E+02 -0.14009174124E+03  0.17117761473E+03  0.88021332671E+02 0.  0.
         23    2    1    2    0    0 -0.38455529036E+02 -0.21095064365E+01 -0.56849186926E+02  0.10986077715E+03  0.85757113821E+02 0.  0.
        -11    1    3    3    0    0  0.34763944809E+02  0.43381122957E+02 -0.13913394824E+03  0.14982893326E+03  0.00000000000E+00 0. -1.
         11    1    3    3    0    0  0.30784566253E+01 -0.21103837042E+02 -0.95779300253E+00  0.21348681471E+02  0.00000000000E+00 0.  1.
        -11    1    4    4    0    0 -0.27575930220E+02 -0.43276280880E+02 -0.33740734465E+02  0.61414213147E+02  0.00000000000E+00 0.  1.
         11    1    4    4    0    0 -0.10879598816E+02  0.41166774443E+02 -0.23108452461E+02  0.48446564002E+02  0.00000000000E+00 0. -1.
          4    1    1    2  501    0  0.61312760163E+00 -0.20167779478E+02  0.74289720916E+02  0.76981022910E+02  0.00000000000E+00 0. -1.
<scales pt_clust_5="13000.00000" pt_clust_6="13000.00000" pt_clust_7="13000.00000" pt_clust_8="13000.00000" pt_clust_9="20.17710"></scales>
<clustering>
<clus scale="   20.177">  1  9  2 -1</clus>
<clus scale="   85.757">  7  8 -1 -1</clus>
<clus scale="   88.021">  5  6 -1 -1</clus>
<clus scale="   94.991">  1  7  2 -1</clus>
<clus scale="   20.177">  1  5  2 -1</clus>
</clustering>
</event>
<event>
 9    1  0.1504846E-005  0.1033600E+03  0.7546771E-02  0.1273592E+00
         -3   -1    0    0    0  501 -0.00000000000E+00  0.00000000000E+00  0.21174848372E+03  0.21174848372E+03  0.00000000000E+00 0.  1.
         21   -1    0    0  501  502  0.00000000000E+00 -0.00000000000E+00 -0.11443629306E+03  0.11443629306E+03  0.00000000000E+00 0.  1.
         23    2    1    2    0    0 -0.20140807520E+02  0.53422940956E+02  0.10306921100E+03  0.14913923231E+03  0.91430769489E+02 0.  0.
         23    2    1    2    0    0  0.21204633464E+02 -0.28856252121E+02  0.53991181016E+02  0.11243516225E+03  0.91892863242E+02 0.  0.
        -11    1    4    4    0    0 -0.25103285549E+02 -0.42577375335E+02  0.34874008704E+02  0.60491357390E+02  0.00000000000E+00 0. -1.
         11    1    4    4    0    0  0.46307919014E+02  0.13721123214E+02  0.19117172312E+02  0.51943804855E+02  0.00000000000E+00 0.  1.
        -13    1    3    3    0    0 -0.47826687036E+02  0.62447357619E+02  0.76326335940E+02  0.10960280117E+03  0.00000000000E+00 0.  1.
         13    1    3    3    0    0  0.27685879515E+02 -0.90244166629E+01  0.26742875059E+02  0.39536431137E+02  0.00000000000E+00 0. -1.
         -3    1    1    2    0  502 -0.10638259439E+01 -0.24566688835E+02 -0.59748201358E+02  0.64610382226E+02  0.00000000000E+00 0.  1.
<scales pt_clust_5="13000.00000" pt_clust_6="13000.00000" pt_clust_7="13000.00000" pt_clust_8="13000.00000" pt_clust_9="24.58971"></scales>
<clustering>
<clus scale="   24.590">  2  9  1 -1</clus>
<clus scale="   91.431">  7  8 -1 -1</clus>
<clus scale="   91.893">  5  6 -1 -1</clus>
<clus scale="  102.949">  1  7  2 -1</clus>
<clus scale="   24.590">  2  5  1 -1</clus>
</clustering>
</event>
<event>
 9    1  0.1504846E-005  0.1188707E+03  0.7546771E-02  0.1246076E+00
         21   -1    0    0  501  502  0.00000000000E+00  0.00000000000E+00  0.11651577796E+03  0.11651577796E+03  0.00000000000E+00 0.  1.
          1   -1    0    0  502    0 -0.00000000000E+00 -0.00000000000E+00 -0.26912938462E+03  0.26912938462E+03  0.00000000000E+00 0. -1.
         23    2    1    2    0    0  0.25540305675E+01  0.76918029681E+02 -0.20370955570E+03  0.23744007107E+03  0.94643002416E+02 0.  0.
         23    2    1    2    0    0  0.16681044242E+02 -0.50753395221E+02  0.32079677639E+02  0.11057272809E+03  0.91340342215E+02 0.  0.
        -13    1    3    3    0    0  0.48129720839E+02  0.39747357215E+02 -0.11800881316E+03  0.13350057085E+03  0.00000000000E+00 0.  1.
         13    1    3    3    0    0 -0.45575690271E+02  0.37170672466E+02 -0.85700742540E+02  0.10393950023E+03  0.00000000000E+00 0. -1.
        -13    1    4    4    0    0 -0.28858001189E+02 -0.30930195999E+02  0.42347152690E+02  0.59856015555E+02  0.00000000000E+00 0.  1.
         13    1    4    4    0    0  0.45539045432E+02 -0.19823199222E+02 -0.10267475051E+02  0.50716712533E+02  0.00000000000E+00 0. -1.
          1    1    1    2  501    0 -0.19235074810E+02 -0.26164634460E+02  0.19016271398E+02  0.37632363428E+02  0.00000000000E+00 0. -1.
<scales pt_clust_5="13000.00000" pt_clust_6="13000.00000" pt_clust_7="13000.00000" pt_clust_8="13000.00000" pt_clust_9="32.47424"></scales>
<clustering>
<clus scale="   32.474">  1  9  2 -1</clus>
<clus scale="   91.340">  7  8 -1 -1</clus>
<clus scale="   94.643">  5  6 -1 -1</clus>
<clus scale="  116.258">  1  7  2 -1</clus>
<clus scale="   32.474">  1  5  2 -1</clus>
</clustering>
</event>
<event>
 9    1  0.1504846E-005  0.2423038E+03  0.7546771E-02  0.1118278E+00
          1   -1    0    0  502    0 -0.00000000000E+00  0.00000000000E+00  0.71268008629E+03  0.71268008629E+03  0.00000000000E+00 0. -1.
         21   -1    0    0  501  502  0.00000000000E+00 -0.00000000000E+00 -0.11323320469E+03  0.11323320469E+03  0.00000000000E+00 0. -1.
         23    2    1    2    0    0 -0.11382267720E+03  0.21336942998E+03  0.46131050502E+03  0.52887538337E+03  0.91758779464E+02 0.  0.
         23    2    1    2    0    0  0.90001565162E+02 -0.16882368211E+03  0.11599862191E+03  0.24188494564E+03  0.91928935990E+02 0.  0.
        -13    1    4    4    0    0 -0.77756303793E+01 -0.58438640770E+02  0.60087403957E+02  0.84178567802E+02  0.00000000000E+00 0.  1.
         13    1    4    4    0    0  0.97777195542E+02 -0.11038504134E+03  0.55911217949E+02  0.15770637784E+03  0.00000000000E+00 0. -1.
        -13    1    3    3    0    0 -0.83800032662E+02  0.18558874170E+03  0.30086473709E+03  0.36329769686E+03  0.00000000000E+00 0. -1.
         13    1    3    3    0    0 -0.30022644534E+02  0.27780688277E+02  0.16044576793E+03  0.16557768651E+03  0.00000000000E+00 0.  1.
          1    1    1    2  501    0  0.23821112034E+02 -0.44545747864E+02  0.22137754681E+02  0.55152961966E+02  0.00000000000E+00 0. -1.
<scales pt_clust_5="13000.00000" pt_clust_6="13000.00000" pt_clust_7="13000.00000" pt_clust_8="13000.00000" pt_clust_9="50.51504"></scales>
<clustering>
<clus scale="   50.515">  2  9  1 -1</clus>
<clus scale="   91.759">  7  8 -1 -1</clus>
<clus scale="   91.929">  5  6 -1 -1</clus>
<clus scale="  242.239">  1  7  2 -1</clus>
<clus scale="   50.515">  2  5  1 -1</clus>
</clustering>
</event>
<event>
 9    1  0.1504846E-005  0.1201220E+03  0.7546771E-02  0.1245609E+00
         21   -1    0    0  501  502  0.00000000000E+00  0.00000000000E+00  0.50138345452E+02  0.50138345452E+02  0.00000000000E+00 0. -1.
          1   -1    0    0  502    0 -0.00000000000E+00 -0.00000000000E+00 -0.69012782873E+03  0.69012782873E+03  0.00000000000E+00 0. -1.
         23    2    1    2    0    0  0.56751047052E+02  0.41841545922E+02 -0.42295303177E+03  0.44057329321E+03  0.10121345415E+03 0.  0.
         23    2    1    2    0    0 -0.64818263999E+02  0.24480627891E+01 -0.22668080867E+03  0.25365308239E+03  0.93532330381E+02 0.  0.
        -11    1    3    3    0    0  0.12421749712E+02 -0.33202081761E+02 -0.10144046024E+03  0.10745624724E+03  0.00000000000E+00 0.  1.
         11    1    3    3    0    0  0.44329297340E+02  0.75043627683E+02 -0.32151257153E+03  0.33311704596E+03  0.00000000000E+00 0. -1.
        -11    1    4    4    0    0  0.10492484110E+02 -0.23482984737E+02 -0.21391407009E+02  0.33453476483E+02  0.00000000000E+00 0.  1.
         11    1    4    4    0    0 -0.75310748110E+02  0.25931047526E+02 -0.20528940166E+03  0.22019960591E+03  0.00000000000E+00 0. -1.
          1    1    1    2  501    0  0.80672169474E+01 -0.44289608711E+02  0.96443571566E+01  0.46039798588E+02  0.00000000000E+00 0. -1.
<scales pt_clust_5="13000.00000" pt_clust_6="13000.00000" pt_clust_7="13000.00000" pt_clust_8="13000.00000" pt_clust_9="45.01832"></scales>
<clustering>
<clus scale="   45.018">  1  9  2 -1</clus>
<clus scale="   93.532">  7  8 -1 -1</clus>
<clus scale="  101.213">  5  6 -1 -1</clus>
<clus scale="  113.725">  1  7  2 -1</clus>
<clus scale="   45.018">  1  5  2 -1</clus>
</clustering>
</event>
<event>
 9    1  0.1504846E-005  0.1129487E+03  0.7546771E-02  0.1262045E+00
         21   -1    0    0  501  502  0.00000000000E+00  0.00000000000E+00  0.45781699602E+02  0.45781699602E+02  0.00000000000E+00 0. -1.
          2   -1    0    0  502    0 -0.00000000000E+00 -0.00000000000E+00 -0.88202009399E+03  0.88202009399E+03  0.00000000000E+00 0. -1.
         23    2    1    2    0    0  0.20808732549E+02 -0.20056789271E+02 -0.42907042909E+03  0.44262360408E+03  0.10478045437E+03 0.  0.
         23    2    1    2    0    0 -0.27808959094E+02  0.11035204940E+03 -0.13315702417E+03  0.19658811167E+03  0.89247854606E+02 0.  0.
        -11    1    4    4    0    0 -0.29129961168E+02  0.50214912133E+01 -0.64221571831E+02  0.70697809726E+02  0.00000000000E+00 0.  1.
         11    1    4    4    0    0  0.13210020741E+01  0.10533055819E+03 -0.68935452340E+02  0.12589030195E+03  0.00000000000E+00 0. -1.
        -11    1    3    3    0    0  0.30408513699E+02 -0.59549553842E+02 -0.23408115424E+03  0.24344365640E+03  0.00000000000E+00 0.  1.
         11    1    3    3    0    0 -0.95997811497E+01  0.39492764571E+02 -0.19498927485E+03  0.19917994768E+03  0.00000000000E+00 0. -1.
          2    1    1    2  501    0  0.70002265454E+01 -0.90295260130E+02 -0.27401094113E+03  0.28859007785E+03  0.00000000000E+00 0. -1.
<scales pt_clust_5="13000.00000" pt_clust_6="13000.00000" pt_clust_7="13000.00000" pt_clust_8="13000.00000" pt_clust_9="90.56625"></scales>
<clustering>
<clus scale="   89.248">  5  6 -1 -1</clus>
<clus scale="   90.566">  1  9  2 -1</clus>
<clus scale="   98.710">  1  5  2 -1</clus>
<clus scale="  104.780">  7  8 -1 -1</clus>
<clus scale="   90.566">  1  5  2 -1</clus>
</clustering>
</event>
<event>
 9    1  0.1504846E-005  0.1884226E+03  0.7546771E-02  0.1160135E+00
         -2   -1    0    0    0  501 -0.00000000000E+00  0.00000000000E+00  0.71147920775E+03  0.71147920775E+03  0.00000000000E+00 0.  1.
         21   -1    0    0  501  502  0.00000000000E+00 -0.00000000000E+00 -0.33190095830E+03  0.33190095830E+03  0.00000000000E+00 0.  1.
         23    2    1    2    0    0 -0.12517339662E+03 -0.76460479798E+02  0.46204454832E+03  0.49350047141E+03  0.92428169154E+02 0.  0.
         23    2    1    2    0    0  0.25080689237E+03  0.11137256468E+03  0.11691844255E+03  0.31164261937E+03  0.90239983251E+02 0.  0.
        -13    1    4    4    0    0  0.18447772288E+03  0.11622928589E+03  0.11155496035E+03  0.24491995900E+03  0.00000000000E+00 0.  1.
         13    1    4    4    0    0  0.66329169485E+02 -0.48567212091E+01  0.53634821994E+01  0.66722660370E+02  0.00000000000E+00 0. -1.
        -13    1    3    3    0    0 -0.76988212641E+02 -0.84283832691E+02  0.23488610037E+03  0.26115594859E+03  0.00000000000E+00 0. -1.
         13    1    3    3    0    0 -0.48185183979E+02  0.78233528932E+01  0.22715844796E+03  0.23234452282E+03  0.00000000000E+00 0.  1.
         -2    1    1    2    0  502 -0.12563349575E+03 -0.34912084880E+02 -0.19938474142E+03  0.23823707528E+03  0.00000000000E+00 0.  1.
<scales pt_clust_5="13000.00000" pt_clust_6="13000.00000" pt_clust_7="13000.00000" pt_clust_8="13000.00000" pt_clust_9="130.39413"></scales>
<clustering>
<clus scale="   90.240">  5  6 -1 -1</clus>
<clus scale="   92.428">  7  8 -1 -1</clus>
<clus scale="  130.394">  2  9  1 -1</clus>
<clus scale="  187.359">  2  5  1 -1</clus>
<clus scale="  130.394">  2  5  1 -1</clus>
</clustering>
</event>
<event>
 9    1  0.1504846E-005  0.1052167E+03  0.7546771E-02  0.1270893E+00
         21   -1    0    0  501  502  0.00000000000E+00  0.00000000000E+00  0.70939732461E+02  0.70939732461E+02  0.00000000000E+00 0. -1.
          4   -1    0    0  502    0 -0.00000000000E+00 -0.00000000000E+00 -0.45384371527E+03  0.45384371527E+03  0.00000000000E+00 0. -1.
         23    2    1    2    0    0 -0.44418587790E+02  0.44280544531E+01 -0.24780868310E+03  0.27025220279E+03  0.98155443473E+02 0.  0.
         23    2    1    2    0    0  0.13697494468E+02  0.33416244988E+01 -0.17572046910E+03  0.20300884328E+03  0.10067829647E+03 0.  0.
        -11    1    3    3    0    0 -0.51246143581E+02 -0.36504192610E+02 -0.11468387645E+03  0.13080946001E+03  0.00000000000E+00 0.  1.
         11    1    3    3    0    0  0.68275557912E+01  0.40932247064E+02 -0.13312480665E+03  0.13944274278E+03  0.00000000000E+00 0. -1.
        -13    1    4    4    0    0  0.11726199023E+01 -0.39159027477E+02 -0.14206642901E+03  0.14736917833E+03  0.00000000000E+00 0.  1.
         13    1    4    4    0    0  0.12524874566E+02  0.42500651976E+02 -0.33654040093E+02  0.55639664951E+02  0.00000000000E+00 0. -1.
          4    1    1    2  501    0  0.30721093321E+02 -0.77696789519E+01  0.40625169388E+02  0.51522401668E+02  0.00000000000E+00 0. -1.
<scales pt_clust_5="13000.00000" pt_clust_6="13000.00000" pt_clust_7="13000.00000" pt_clust_8="13000.00000" pt_clust_9="31.68838"></scales>
<clustering>
<clus scale="   31.688">  1  9  2 -1</clus>
<clus scale="   98.155">  5  6 -1 -1</clus>
<clus scale="  100.678">  7  8 -1 -1</clus>
<clus scale="  102.805">  2  5  1 -1</clus>
<clus scale="   31.688">  1  5  2 -1</clus>
</clustering>
</event>
<event>
 9    1  0.1504846E-005  0.1111566E+03  0.7546771E-02  0.1261367E+00
         -1   -1    0    0    0  501 -0.00000000000E+00  0.00000000000E+00  0.17322339991E+03  0.17322339991E+03  0.00000000000E+00 0.  1.
         21   -1    0    0  501  502  0.00000000000E+00 -0.00000000000E+00 -0.11324618301E+03  0.11324618301E+03  0.00000000000E+00 0. -1.
         23    2    1    2    0    0 -0.64796752771E+02 -0.85995747250E+01  0.56368001667E+02  0.12753041571E+03  0.93883350306E+02 0.  0.
         23    2    1    2    0    0  0.27043733608E+02  0.38954930285E+01  0.34464348948E+02  0.10995490323E+03  0.10077574611E+03 0.  0.
        -13    1    4    4    0    0 -0.15631645814E+02 -0.40070509040E+02  0.11512076161E+02  0.44525520133E+02  0.00000000000E+00 0.  1.
         13    1    4    4    0    0  0.42675379422E+02  0.43966002068E+02  0.22952272786E+02  0.65429383099E+02  0.00000000000E+00 0. -1.
        -13    1    3    3    0    0 -0.53755414475E+02 -0.45530882947E+02  0.54270487063E+02  0.88926889372E+02  0.00000000000E+00 0.  1.
         13    1    3    3    0    0 -0.11041338295E+02  0.36931308222E+02  0.20975146034E+01  0.38603526339E+02  0.00000000000E+00 0. -1.
         -1    1    1    2    0  502  0.37753019162E+02  0.47040816965E+01 -0.30855133720E+02  0.48984263977E+02  0.00000000000E+00 0.  1.
<scales pt_clust_5="13000.00000" pt_clust_6="13000.00000" pt_clust_7="13000.00000" pt_clust_8="13000.00000" pt_clust_9="38.04496"></scales>
<clustering>
<clus scale="   38.045">  2  9  1 -1</clus>
<clus scale="   93.883">  7  8 -1 -1</clus>
<clus scale="  100.776">  5  6 -1 -1</clus>
<clus scale="  104.948">  1  7  2 -1</clus>
<clus scale="   38.045">  2  5  1 -1</clus>
</clustering>
</event>
<event>
 9    1  0.1504846E-005  0.1910512E+03  0.7546771E-02  0.1157597E+00
         21   -1    0    0  501  502  0.00000000000E+00  0.00000000000E+00  0.28262243158E+02  0.28262243158E+02  0.00000000000E+00 0. -1.
          2   -1    0    0  502    0 -0.00000000000E+00 -0.00000000000E+00 -0.18954423961E+04  0.18954423961E+04  0.00000000000E+00 0. -1.
         23    2    1    2    0    0 -0.47658370342E+01 -0.16161473429E+03 -0.10734265738E+04  0.10894272491E+04  0.92005903734E+02 0.  0.
         23    2    1    2    0    0  0.48580683268E+02  0.17411960053E+03 -0.71672222002E+03  0.74477910678E+03  0.91254912993E+02 0.  0.
        -11    1    4    4    0    0 -0.22636310600E+02  0.25302275345E+02 -0.77504303593E+02  0.84613975031E+02  0.00000000000E+00 0.  1.
         11    1    4    4    0    0  0.71216993868E+02  0.14881732518E+03 -0.63921791643E+03  0.66016513175E+03  0.00000000000E+00 0. -1.
        -13    1    3    3    0    0  0.43587212642E+02 -0.71359720360E+02 -0.47460041410E+03  0.48191037326E+03  0.00000000000E+00 0. -1.
         13    1    3    3    0    0 -0.48353049677E+02 -0.90255013929E+02 -0.59882615968E+03  0.60751687587E+03  0.00000000000E+00 0.  1.
          2    1    1    2  501    0 -0.43814846234E+02 -0.12504866237E+02 -0.77031359130E+02  0.89498283333E+02  0.00000000000E+00 0. -1.
<scales pt_clust_5="13000.00000" pt_clust_6="13000.00000" pt_clust_7="13000.00000" pt_clust_8="13000.00000" pt_clust_9="45.56438"></scales>
<clustering>
<clus scale="   45.564">  1  9  2 -1</clus>
<clus scale="   91.255">  5  6 -1 -1</clus>
<clus scale="   92.006">  7  8 -1 -1</clus>
<clus scale="  190.691">  1  5  2 -1</clus>
<clus scale="   45.564">  1  5  2 -1</clus>
</clustering>
</event>
<event>
 9    1  0.1504846E-005  0.9995986E+02  0.7546771E-02  0.1281953E+00
         21   -1    0    0  501  502  0.00000000000E+00  0.00000000000E+00  0.18855045218E+03  0.18855045218E+03  0.00000000000E+00 0.  1.
          1   -1    0    0  502    0 -0.00000000000E+00 -0.00000000000E+00 -0.27540443809E+03  0.27540443809E+03  0.00000000000E+00 0. -1.
         23    2    1    2    0    0 -0.35972730544E+02  0.99385572845E+01 -0.24094716586E+03  0.26069677779E+03  0.92273836750E+02 0.  0.
         23    2    1    2    0    0  0.45590383530E+02 -0.32581967000E+02  0.10673290756E+03  0.14988940768E+03  0.89077793721E+02 0.  0.
        -11    1    4    4    0    0 -0.25801748383E+02 -0.20095948831E+02  0.35498319389E+02  0.48267049407E+02  0.00000000000E+00 0.  1.
         11    1    4    4    0    0  0.71392131913E+02 -0.12486018169E+02  0.71234588175E+02  0.10162235827E+03  0.00000000000E+00 0. -1.
        -13    1    3    3    0    0 -0.33296926073E+01 -0.21727753556E+02 -0.80630839628E+01  0.23413574063E+02  0.00000000000E+00 0.  1.
         13    1    3    3    0    0 -0.32643037937E+02  0.31666310840E+02 -0.23288408190E+03  0.23728320372E+03  0.00000000000E+00 0. -1.
          1    1    1    2  501    0 -0.96176529857E+01  0.22643409716E+02  0.47360272378E+02  0.53368704801E+02  0.00000000000E+00 0. -1.
<scales pt_clust_5="13000.00000" pt_clust_6="13000.00000" pt_clust_7="13000.00000" pt_clust_8="13000.00000" pt_clust_9="24.60129"></scales>
<clustering>
<clus scale="   24.601">  1  9  2 -1</clus>
<clus scale="   89.078">  5  6 -1 -1</clus>
<clus scale="   92.274">  7  8 -1 -1</clus>
<clus scale="   97.017">  1  5  2 -1</clus>
<clus scale="   24.601">  1  5  2 -1</clus>
</clustering>
</event>
<event>
 9    1  0.1504846E-005  0.1221238E+03  0.7546771E-02  0.1246166E+00
         21   -1    0    0  501  502  0.00000000000E+00  0.00000000000E+00  0.25970004779E+02  0.25970004779E+02  0.00000000000E+00 0. -1.
          1   -1    0    0  502    0 -0.00000000000E+00 -0.00000000000E+00 -0.10115580661E+04  0.10115580661E+04  0.00000000000E+00 0. -1.
         23    2    1    2    0    0 -0.27547448054E+02  0.73642469036E+02 -0.63899648690E+03  0.65021461720E+03  0.90997049455E+02 0.  0.
         23    2    1    2    0    0 -0.18923100980E+02 -0.95641796560E+02 -0.26645451144E+03  0.29210089567E+03  0.69422543785E+02 0.  0.
        -13    1    3    3    0    0 -0.22557710882E+02  0.94187987261E+02 -0.56564966630E+03  0.57388132244E+03  0.00000000000E+00 0.  1.
         13    1    3    3    0    0 -0.49897371719E+01 -0.20545518225E+02 -0.73346820602E+02  0.76333294758E+02  0.00000000000E+00 0. -1.
        -13    1    4    4    0    0  0.23558919679E+02 -0.19388109368E+02 -0.93762365515E+02  0.98601737653E+02  0.00000000000E+00 0.  1.
         13    1    4    4    0    0 -0.42482020658E+02 -0.76253687192E+02 -0.17269214592E+03  0.19349915801E+03  0.00000000000E+00 0. -1.
          1    1    1    2  501    0  0.46470549034E+02  0.21999327524E+02 -0.80137062976E+02  0.95212558003E+02  0.00000000000E+00 0. -1.
<scales pt_clust_5="13000.00000" pt_clust_6="13000.00000" pt_clust_7="13000.00000" pt_clust_8="13000.00000" pt_clust_9="51.41481"></scales>
<clustering>
<clus scale="   51.415">  1  9  2 -1</clus>
<clus scale="   69.423">  7  8 -1 -1</clus>
<clus scale="   90.997">  5  6 -1 -1</clus>
<clus scale="  107.020">  1  7  2 -1</clus>
<clus scale="   51.415">  1  5  2 -1</clus>
</clustering>
</event>
<event>
 9    1  0.1504846E-005  0.2068958E+03  0.7546771E-02  0.1144145E+00
          1   -1    0    0  502    0 -0.00000000000E+00  0.00000000000E+00  0.19655154777E+03  0.19655154777E+03  0.00000000000E+00 0. -1.
         21   -1    0    0  501  502  0.00000000000E+00 -0.00000000000E+00 -0.38480167913E+03  0.38480167913E+03  0.00000000000E+00 0. -1.
         23    2    1    2    0    0 -0.16776147405E+03 -0.11383147937E+03  0.64570578910E+02  0.23198244628E+03  0.92439049371E+02 0.  0.
         23    2    1    2    0    0  0.12434371422E+03  0.57158009577E+02 -0.20744457189E+03  0.26477776684E+03  0.91354354455E+02 0.  0.
        -11    1    3    3    0    0 -0.99295161163E+02 -0.11877178789E+02  0.28507226303E+02  0.10398681819E+03  0.00000000000E+00 0.  1.
         11    1    3    3    0    0 -0.68466312892E+02 -0.10195430058E+03  0.36063352607E+02  0.12799562809E+03  0.00000000000E+00 0. -1.
        -13    1    4    4    0    0  0.18405055891E+02  0.22892329507E+02 -0.11903029533E+03  0.12260104420E+03  0.00000000000E+00 0.  1.
         13    1    4    4    0    0  0.10593865833E+03  0.34265680069E+02 -0.88414276559E+02  0.14217672263E+03  0.00000000000E+00 0. -1.
          1    1    1    2  501    0  0.43417759838E+02  0.56673469794E+02 -0.45376138368E+02  0.84593013784E+02  0.00000000000E+00 0. -1.
<scales pt_clust_5="13000.00000" pt_clust_6="13000.00000" pt_clust_7="13000.00000" pt_clust_8="13000.00000" pt_clust_9="71.39317"></scales>
<clustering>
<clus scale="   71.393">  2  9  1 -1</clus>
<clus scale="   91.354">  7  8 -1 -1</clus>
<clus scale="   92.439">  5  6 -1 -1</clus>
<clus scale="  206.413">  2  7  1 -1</clus>
<clus scale="   71.393">  2  5  1 -1</clus>
</clustering>
</event>
<event>
 9    1  0.1504846E-005  0.9091828E+02  0.7546771E-02  0.1304060E+00
          3   -1    0    0  502    0 -0.00000000000E+00  0.00000000000E+00  0.44340052232E+02  0.44340052232E+02  0.00000000000E+00 0. -1.
         21   -1    0    0  501  502  0.00000000000E+00 -0.00000000000E+00 -0.29873948241E+03  0.29873948241E+03  0.00000000000E+00 0. -1.
         23    2    1    2    0    0 -0.41985975905E+01 -0.12381240742E+02 -0.73760948823E+02  0.11341807462E+03  0.85159020287E+02 0.  0.
         23    2    1    2    0    0  0.51394936551E+00 -0.32808143781E+02 -0.12501753269E+03  0.15790250910E+03  0.90703806195E+02 0.  0.
        -11    1    4    4    0    0 -0.14249437626E+02  0.16641081492E+02  0.78939990223E+00  0.21922482024E+02  0.00000000000E+00 0.  1.
         11    1    4    4    0    0  0.14763386991E+02 -0.49449225273E+02 -0.12580693259E+03  0.13598002708E+03  0.00000000000E+00 0. -1.
        -13    1    3    3    0    0 -0.38489534331E+02 -0.41553791598E+01 -0.91030235552E+01  0.39769039049E+02  0.00000000000E+00 0. -1.
         13    1    3    3    0    0  0.34290936741E+02 -0.82258615827E+01 -0.64657925268E+02  0.73649035576E+02  0.00000000000E+00 0.  1.
          3    1    1    2  501    0  0.36846482250E+01  0.45189384524E+02 -0.55620948663E+02  0.71758950915E+02  0.00000000000E+00 0. -1.
<scales pt_clust_5="13000.00000" pt_clust_6="13000.00000" pt_clust_7="13000.00000" pt_clust_8="13000.00000" pt_clust_9="45.33935"></scales>
<clustering>
<clus scale="   45.339">  2  9  1 -1</clus>
<clus scale="   85.159">  7  8 -1 -1</clus>
<clus scale="   85.387">  1  7  2 -1</clus>
<clus scale="   90.704">  5  6 -1 -1</clus>
<clus scale="   45.339">  2  5  1 -1</clus>
</clustering>
</event>
<event>
 9    1  0.1504846E-005  0.9278868E+02  0.7546771E-02  0.1298099E+00
         21   -1    0    0  501  502  0.00000000000E+00  0.00000000000E+00  0.51850265824E+02  0.51850265824E+02  0.00000000000E+00 0. -1.
         -3   -1    0    0    0  501 -0.00000000000E+00 -0.00000000000E+00 -0.48112500071E+03  0.48112500071E+03  0.00000000000E+00 0.  1.
         23    2    1    2    0    0 -0.11432509501E+02  0.13953046790E+02 -0.24057850900E+03  0.25797959453E+03  0.91378675920E+02 0.  0.
         23    2    1    2    0    0 -0.31983433672E+02 -0.23669952367E+02 -0.17753677154E+02  0.98358424113E+02  0.88181516583E+02 0.  0.
        -13    1    3    3    0    0 -0.34356962280E+02  0.43358500818E+02 -0.15700401238E+03  0.16646507247E+03  0.00000000000E+00 0. -1.
         13    1    3    3    0    0  0.22924452779E+02 -0.29405454028E+02 -0.83574496620E+02  0.91514522056E+02  0.00000000000E+00 0.  1.
        -13    1    4    4    0    0 -0.32048318278E+02  0.36070664993E+01 -0.47873271480E+02  0.57723095511E+02  0.00000000000E+00 0.  1.
         13    1    4    4    0    0  0.64884606025E-01 -0.27277018866E+02  0.30119594326E+02  0.40635328602E+02  0.00000000000E+00 0. -1.
         -3    1    1    2    0  502  0.43415943173E+02  0.97169055766E+01 -0.17094254873E+03  0.17663724789E+03  0.00000000000E+00 0.  1.
<scales pt_clust_5="13000.00000" pt_clust_6="13000.00000" pt_clust_7="13000.00000" pt_clust_8="13000.00000" pt_clust_9="44.49005"></scales>
<clustering>
<clus scale="   44.490">  1  9  2 -1</clus>
<clus scale="   88.182">  7  8 -1 -1</clus>
<clus scale="   89.642">  1  7  2 -1</clus>
<clus scale="   91.379">  5  6 -1 -1</clus>
<clus scale="   44.490">  1  5  2 -1</clus>
</clustering>
</event>
<event>
 9    1  0.1504846E-005  0.2880993E+03  0.7546771E-02  0.1091363E+00
         21   -1    0    0  501  502  0.00000000000E+00  0.00000000000E+00  0.87584214417E+02  0.87584214417E+02  0.00000000000E+00 0.  1.
          2   -1    0    0  502    0 -0.00000000000E+00 -0.00000000000E+00 -0.17501618415E+04  0.17501618415E+04  0.00000000000E+00 0. -1.
         23    2    1    2    0    0 -0.26723025456E+03  0.67743690600E+02 -0.14098860670E+04  0.14394768742E+04  0.91179673855E+02 0.  0.
         23    2    1    2    0    0  0.26069852176E+03 -0.39514829024E+02 -0.22933727190E+03  0.36105419901E+03  0.90771192423E+02 0.  0.
        -11    1    4    4    0    0  0.20790280676E+03 -0.60296682996E+02 -0.20866635080E+03  0.30066744585E+03  0.00000000000E+00 0. -1.
         11    1    4    4    0    0  0.52795715005E+02  0.20781853973E+02 -0.20670921103E+02  0.60386753156E+02  0.00000000000E+00 0.  1.
        -13    1    3    3    0    0 -0.28261915289E+02 -0.14050650014E+02 -0.83710452646E+02  0.89462821909E+02  0.00000000000E+00 0.  1.
         13    1    3    3    0    0 -0.23896833927E+03  0.81794340615E+02 -0.13261756143E+04  0.13500140523E+04  0.00000000000E+00 0. -1.
          2    1    1    2  501    0  0.65317327935E+01 -0.28228861577E+02 -0.23354288145E+02  0.37214982654E+02  0.00000000000E+00 0. -1.
<scales pt_clust_5="13000.00000" pt_clust_6="13000.00000" pt_clust_7="13000.00000" pt_clust_8="13000.00000" pt_clust_9="28.97468"></scales>
<clustering>
<clus scale="   28.975">  1  9  2 -1</clus>
<clus scale="   90.771">  5  6 -1 -1</clus>
<clus scale="   91.180">  7  8 -1 -1</clus>
<clus scale="  287.970">  1  5  2 -1</clus>
<clus scale="   28.975">  1  5  2 -1</clus>
</clustering>
</event>
<event>
 9    1  0.1504846E-005  0.1302347E+03  0.7546771E-02  0.1228667E+00
          1   -1    0    0  502    0 -0.00000000000E+00  0.00000000000E+00  0.16887265680E+03  0.16887265680E+03  0.00000000000E+00 0. -1.
         21   -1    0    0  501  502  0.00000000000E+00 -0.00000000000E+00 -0.18350719112E+03  0.18350719112E+03  0.00000000000E+00 0.  1.
         23    2    1    2    0    0  0.80169311845E+02  0.23082841328E+02  0.83447045065E+02  0.15133204971E+03  0.94752539882E+02 0.  0.
         23    2    1    2    0    0 -0.99674976795E+02 -0.39949362927E+02 -0.53145331211E+02  0.14923836937E+03  0.88975345266E+02 0.  0.
        -11    1    4    4    0    0 -0.43727495710E+02  0.82067614051E+01  0.16788583555E+02  0.47553142394E+02  0.00000000000E+00 0.  1.
         11    1    4    4    0    0 -0.55947481085E+02 -0.48156124332E+02 -0.69933914766E+02  0.10168522697E+03  0.00000000000E+00 0. -1.
        -13    1    3    3    0    0  0.42158505771E+02  0.52393921342E+02  0.78056866584E+02  0.10303075766E+03  0.00000000000E+00 0. -1.
         13    1    3    3    0    0  0.38010806074E+02 -0.29311080014E+02  0.53901784807E+01  0.48301292053E+02  0.00000000000E+00 0.  1.
          1    1    1    2  501    0  0.19505664950E+02  0.16866521598E+02 -0.44936248176E+02  0.51809428833E+02  0.00000000000E+00 0. -1.
<scales pt_clust_5="13000.00000" pt_clust_6="13000.00000" pt_clust_7="13000.00000" pt_clust_8="13000.00000" pt_clust_9="25.78663"></scales>
<clustering>
<clus scale="   25.787">  2  9  1 -1</clus>
<clus scale="   88.975">  5  6 -1 -1</clus>
<clus scale="   94.753">  7  8 -1 -1</clus>
<clus scale="  126.094">  2  5  1 -1</clus>
<clus scale="   25.787">  2  5  1 -1</clus>
</clustering>
</event>
<event>
 9    1  0.1504846E-005  0.1044531E+03  0.7546771E-02  0.1272856E+00
         -1   -1    0    0    0  501 -0.00000000000E+00  0.00000000000E+00  0.75424916203E+02  0.75424916203E+02  0.00000000000E+00 0.  1.
         21   -1    0    0  501  502  0.00000000000E+00 -0.00000000000E+00 -0.24856046657E+03  0.24856046657E+03  0.00000000000E+00 0.  1.
         23    2    1    2    0    0  0.14009373699E+02 -0.23343018563E+02 -0.56339505975E+02  0.11261191154E+03  0.93627686187E+02 0.  0.
         23    2    1    2    0    0 -0.72050162695E+02  0.25611878394E+02 -0.76583104632E+02  0.14072673432E+03  0.89954697358E+02 0.  0.
        -11    1    3    3    0    0 -0.24939323487E+02 -0.23085946279E+01 -0.63048171994E+02  0.67840780191E+02  0.00000000000E+00 0.  1.
         11    1    3    3    0    0  0.38948697185E+02 -0.21034423935E+02  0.67086660194E+01  0.44771131351E+02  0.00000000000E+00 0. -1.
        -11    1    4    4    0    0 -0.29452615854E+02  0.27894871245E+02 -0.87713643688E+02  0.96639866056E+02  0.00000000000E+00 0. -1.
         11    1    4    4    0    0 -0.42597546841E+02 -0.22829928507E+01  0.11130539056E+02  0.44086868259E+02  0.00000000000E+00 0.  1.
         -1    1    1    2    0  502  0.58040788997E+02 -0.22688598314E+01 -0.40212939757E+02  0.70646736911E+02  0.00000000000E+00 0.  1.
<scales pt_clust_5="13000.00000" pt_clust_6="13000.00000" pt_clust_7="13000.00000" pt_clust_8="13000.00000" pt_clust_9="58.08512"></scales>
<clustering>
<clus scale="   58.085">  2  9  1 -1</clus>
<clus scale="   89.955">  7  8 -1 -1</clus>
<clus scale="   93.628">  5  6 -1 -1</clus>
<clus scale="  101.174">  2  7  1 -1</clus>
<clus scale="   58.085">  2  5  1 -1</clus>
</clustering>
</event>
<event>
 9    1  0.1504846E-005  0.1892422E+03  0.7546771E-02  0.1177102E+00
         21   -1    0    0  501  502  0.00000000000E+00  0.00000000000E+00  0.48449420512E+03  0.48449420512E+03  0.00000000000E+00 0. -1.
          1   -1    0    0  502    0 -0.00000000000E+00 -0.00000000000E+00 -0.27530844810E+03  0.27530844810E+03  0.00000000000E+00 0. -1.
         23    2    1    2    0    0 -0.63230798981E+02  0.56165083385E+02 -0.40296650621E+01  0.12539347925E+03  0.92491274753E+02 0.  0.
         23    2    1    2    0    0 -0.10699078146E+03 -0.63944194116E+02 -0.16077599212E+03  0.22342805651E+03  0.92386630615E+02 0.  0.
        -11    1    4    4    0    0 -0.66372382319E+02 -0.20291617152E+02 -0.14651013803E+03  0.16211805392E+03  0.00000000000E+00 0. -1.
         11    1    4    4    0    0 -0.40618399143E+02 -0.43652576964E+02 -0.14265854082E+02  0.61310002587E+02  0.00000000000E+00 0.  1.
        -13    1    3    3    0    0  0.20388664566E+02  0.32326900218E+02  0.16697520644E+01  0.38255904021E+02  0.00000000000E+00 0.  1.
         13    1    3    3    0    0 -0.83619463546E+02  0.23838183166E+02 -0.56994171265E+01  0.87137575224E+02  0.00000000000E+00 0. -1.
          1    1    1    2  501    0  0.17022158044E+03  0.77791107311E+01  0.37399141420E+03  0.41098111746E+03  0.00000000000E+00 0. -1.
<scales pt_clust_5="13000.00000" pt_clust_6="13000.00000" pt_clust_7="13000.00000" pt_clust_8="13000.00000" pt_clust_9="165.15849"></scales>
<clustering>
<clus scale="   92.387">  5  6 -1 -1</clus>
<clus scale="   92.491">  7  8 -1 -1</clus>
<clus scale="  125.329">  2  7  1 -1</clus>
<clus scale="  165.158">  1  9  2 -1</clus>
<clus scale="  165.158">  1  5  2 -1</clus>
</clustering>
</event>
<event>
 9    1  0.1504846E-005  0.9472571E+02  0.7546771E-02  0.1292007E+00
          3   -1    0    0  502    0 -0.00000000000E+00  0.00000000000E+00  0.27896049144E+03  0.27896049144E+03  0.00000000000E+00 0. -1.
         21   -1    0    0  501  502  0.00000000000E+00 -0.00000000000E+00 -0.11434585531E+03  0.11434585531E+03  0.00000000000E+00 0. -1.
         23    2    1    2    0    0  0.21417859470E+01  0.39193855999E+01  0.14632636413E+03  0.17395100584E+03  0.93955301954E+02 0.  0.
         23    2    1    2    0    0  0.12087099016E+02  0.25911303422E+02  0.94335340332E+02  0.13643677980E+03  0.94331038572E+02 0.  0.
        -11    1    3    3    0    0  0.18889071793E+02 -0.41394256748E+02  0.64628879319E+02  0.79039063551E+02  0.00000000000E+00 0.  1.
         11    1    3    3    0    0 -0.16747285846E+02  0.45313642348E+02  0.81697484807E+02  0.94911942294E+02  0.00000000000E+00 0. -1.
        -11    1    4    4    0    0  0.23034629648E+02  0.48926238583E+02  0.96749212782E+02  0.11083673199E+03  0.00000000000E+00 0. -1.
         11    1    4    4    0    0 -0.10947530631E+02 -0.23014935161E+02 -0.24138724502E+01  0.25600047804E+02  0.00000000000E+00 0.  1.
          3    1    1    2  501    0 -0.14228884963E+02 -0.29830689022E+02 -0.76047068334E+02  0.82918561113E+02  0.00000000000E+00 0. -1.
<scales pt_clust_5="13000.00000" pt_clust_6="13000.00000" pt_clust_7="13000.00000" pt_clust_8="13000.00000" pt_clust_9="33.05043"></scales>
<clustering>
<clus scale="   33.050">  2  9  1 -1</clus>
<clus scale="   93.955">  5  6 -1 -1</clus>
<clus scale="   94.331">  7  8 -1 -1</clus>
<clus scale="   94.352">  1  5  2 -1</clus>
<clus scale="   33.050">  2  5  1 -1</clus>
</clustering>
</event>
<event>
 9    1  0.1504846E-005  0.9466819E+02  0.7546771E-02  0.1293854E+00
         21   -1    0    0  501  502  0.00000000000E+00  0.00000000000E+00  0.70750407759E+02  0.70750407759E+02  0.00000000000E+00 0. -1.
         -2   -1    0    0    0  501 -0.00000000000E+00 -0.00000000000E+00 -0.22837073407E+03  0.22837073407E+03  0.00000000000E+00 0.  1.
         23    2    1    2    0    0 -0.22065227811E+02  0.25716319834E+02 -0.13392263781E+03  0.16549934159E+03  0.91140308129E+02 0.  0.
         23    2    1    2    0    0 -0.58905716827E+01 -0.16950774173E+02 -0.42240046542E+02  0.98949324733E+02  0.87662533350E+02 0.  0.
        -11    1    4    4    0    0 -0.14459545348E+02 -0.51390068930E+02 -0.30945458037E+02  0.61706069470E+02  0.00000000000E+00 0.  1.
         11    1    4    4    0    0  0.85689736654E+01  0.34439294757E+02 -0.11294588505E+02  0.37243255262E+02  0.00000000000E+00 0. -1.
        -11    1    3    3    0    0  0.28170481381E+00 -0.30859327801E+02 -0.73706146461E+02  0.79906029159E+02  0.00000000000E+00 0.  1.
         11    1    3    3    0    0 -0.22346932624E+02  0.56575647635E+02 -0.60216491347E+02  0.85593312432E+02  0.00000000000E+00 0. -1.
         -2    1    1    2    0  502  0.27955799493E+02 -0.87655456612E+01  0.18542358038E+02  0.34672475505E+02  0.00000000000E+00 0.  1.
<scales pt_clust_5="13000.00000" pt_clust_6="13000.00000" pt_clust_7="13000.00000" pt_clust_8="13000.00000" pt_clust_9="29.29781"></scales>
<clustering>
<clus scale="   29.298">  1  9  2 -1</clus>
<clus scale="   87.663">  5  6 -1 -1</clus>
<clus scale="   91.140">  7  8 -1 -1</clus>
<clus scale="   91.325">  1  5  2 -1</clus>
<clus scale="   29.298">  1  5  2 -1</clus>
</clustering>
</event>
<event>
 9    1  0.1504846E-005  0.9531099E+02  0.7546771E-02  0.1292209E+00
          4   -1    0    0  502    0 -0.00000000000E+00  0.00000000000E+00  0.54162251241E+02  0.54162251241E+02  0.00000000000E+00 0. -1.
         21   -1    0    0  501  502  0.00000000000E+00 -0.00000000000E+00 -0.24432059392E+03  0.24432059392E+03  0.00000000000E+00 0.  1.
         23    2    1    2    0    0  0.17614302037E+02 -0.29824893665E+02 -0.46680404534E+02  0.10826177210E+03  0.91333253600E+02 0.  0.
         23    2    1    2    0    0 -0.19934813976E+02  0.76288135075E+01 -0.73430258025E+02  0.11670421621E+03  0.88160510913E+02 0.  0.
        -11    1    4    4    0    0 -0.32104117863E+02 -0.12098860266E+02 -0.84365808104E+02  0.91074949248E+02  0.00000000000E+00 0.  1.
         11    1    4    4    0    0  0.12169303887E+02  0.19727673774E+02  0.10935550079E+02  0.25629266965E+02  0.00000000000E+00 0. -1.
        -11    1    3    3    0    0 -0.30477199296E+02 -0.15476891498E+02 -0.46949874680E+02  0.58074818810E+02  0.00000000000E+00 0.  1.
         11    1    3    3    0    0  0.48091501333E+02 -0.14348002167E+02  0.26947014597E+00  0.50186953293E+02  0.00000000000E+00 0. -1.
          4    1    1    2  501    0  0.23205119396E+01  0.22196080158E+02 -0.70047680117E+02  0.73516856841E+02  0.00000000000E+00 0. -1.
<scales pt_clust_5="13000.00000" pt_clust_6="13000.00000" pt_clust_7="13000.00000" pt_clust_8="13000.00000" pt_clust_9="22.31705"></scales>
<clustering>
<clus scale="   22.317">  2  9  1 -1</clus>
<clus scale="   88.161">  5  6 -1 -1</clus>
<clus scale="   91.333">  7  8 -1 -1</clus>
<clus scale="   92.275">  2  5  1 -1</clus>
<clus scale="   22.317">  2  5  1 -1</clus>
</clustering>
</event>
<event>
 9    1  0.1504846E-005  0.1241772E+03  0.7546771E-02  0.1240408E+00
         -2   -1    0    0    0  501 -0.00000000000E+00  0.00000000000E+00  0.13575885961E+03  0.13575885961E+03  0.00000000000E+00 0.  1.
         21   -1    0    0  501  502  0.00000000000E+00 -0.00000000000E+00 -0.18478983545E+03  0.18478983545E+03  0.00000000000E+00 0.  1.
         23    2    1    2    0    0  0.31115189812E+02  0.54609808545E+02  0.53180286957E+02  0.13181310774E+03  0.10293768127E+03 0.  0.
         23    2    1    2    0    0 -0.54913429647E+02 -0.67824373748E+02 -0.62584642588E+02  0.14066012599E+03  0.90844940008E+02 0.  0.
        -13    1    3    3    0    0  0.52988983850E+02  0.59635584241E+02  0.68077644716E+02  0.10487516878E+03  0.00000000000E+00 0.  1.
         13    1    3    3    0    0 -0.21873794038E+02 -0.50257756960E+01 -0.14897357759E+02  0.26937938955E+02  0.00000000000E+00 0. -1.
        -13    1    4    4    0    0 -0.40165534936E+02 -0.88772133209E+02 -0.36360357812E+02  0.10399921851E+03  0.00000000000E+00 0.  1.
         13    1    4    4    0    0 -0.14747894711E+02  0.20947759461E+02 -0.26224284776E+02  0.36660907474E+02  0.00000000000E+00 0. -1.
         -2    1    1    2    0  502  0.23798239835E+02  0.13214565203E+02 -0.39626620212E+02  0.48075461330E+02  0.00000000000E+00 0.  1.
<scales pt_clust_5="13000.00000" pt_clust_6="13000.00000" pt_clust_7="13000.00000" pt_clust_8="13000.00000" pt_clust_9="27.22097"></scales>
<clustering>
<clus scale="   27.221">  2  9  1 -1</clus>
<clus scale="   90.845">  7  8 -1 -1</clus>
<clus scale="  102.938">  5  6 -1 -1</clus>
<clus scale="  114.353">  2  7  1 -1</clus>
<clus scale="   27.221">  2  5  1 -1</clus>
</clustering>
</event>
<event>
 9    1  0.1504846E-005  0.1142010E+03  0.7546771E-02  0.1267787E+00
         21   -1    0    0  501  502  0.00000000000E+00  0.00000000000E+00  0.97178115573E+02  0.97178115573E+02  0.00000000000E+00 0.  1.
          4   -1    0    0  502    0 -0.00000000000E+00 -0.00000000000E+00 -0.19813414347E+03  0.19813414347E+03  0.00000000000E+00 0. -1.
         23    2    1    2    0    0 -0.27685242156E+02  0.33837251788E+02 -0.10012628408E+03  0.14755922043E+03  0.99181744941E+02 0.  0.
         23    2    1    2    0    0  0.40839538742E+02 -0.73095561258E+02 -0.83599255649E+01  0.10567033410E+03  0.63917932961E+02 0.  0.
        -11    1    4    4    0    0  0.52375333137E+02 -0.29331617560E+02 -0.63938066573E+01  0.60368866757E+02  0.00000000000E+00 0.  1.
         11    1    4    4    0    0 -0.11535794395E+02 -0.43763943697E+02 -0.19661189076E+01  0.45301467347E+02  0.00000000000E+00 0. -1.
        -13    1    3    3    0    0  0.56294868238E+01  0.21664190287E+02  0.15097819936E+02  0.26999489431E+02  0.00000000000E+00 0.  1.
         13    1    3    3    0    0 -0.33314728980E+02  0.12173061501E+02 -0.11522410401E+03  0.12055973100E+03  0.00000000000E+00 0. -1.
          4    1    1    2  501    0 -0.13154296585E+02  0.39258309470E+02  0.75301817492E+01  0.42082704502E+02  0.00000000000E+00 0. -1.
<scales pt_clust_5="13000.00000" pt_clust_6="13000.00000" pt_clust_7="13000.00000" pt_clust_8="13000.00000" pt_clust_9="41.40351"></scales>
<clustering>
<clus scale="   41.404">  1  9  2 -1</clus>
<clus scale="   63.918">  5  6 -1 -1</clus>
<clus scale="   85.384">  1  5  2 -1</clus>
<clus scale="   99.182">  7  8 -1 -1</clus>
<clus scale="   41.404">  1  5  2 -1</clus>
</clustering>
</event>
<event>
 9    1  0.1504846E-005  0.9333323E+02  0.7546771E-02  0.1296645E+00
          1   -1    0    0  502    0 -0.00000000000E+00  0.00000000000E+00  0.82795384322E+02  0.82795384322E+02  0.00000000000E+00 0. -1.
         21   -1    0    0  501  502  0.00000000000E+00 -0.00000000000E+00 -0.15910973377E+03  0.15910973377E+03  0.00000000000E+00 0. -1.
         23    2    1    2    0    0  0.49251790172E+01 -0.20139470532E+02 -0.75268429697E+01  0.89132375734E+02  0.86360126084E+02 0.  0.
         23    2    1    2    0    0  0.98285937371E+01  0.35184870842E+02 -0.18539122903E+02  0.98284781000E+02  0.89339927845E+02 0.  0.
        -11    1    4    4    0    0 -0.21441022639E+01 -0.27834818849E+02  0.77296111675E+01  0.28967588848E+02  0.00000000000E+00 0.  1.
         11    1    4    4    0    0  0.11972696001E+02  0.63019689690E+02 -0.26268734071E+02  0.69317192152E+02  0.00000000000E+00 0. -1.
        -13    1    3    3    0    0 -0.21610594724E+02 -0.45699902408E+02 -0.12171932800E+02  0.51996680975E+02  0.00000000000E+00 0.  1.
         13    1    3    3    0    0  0.26535773741E+02  0.25560431875E+02  0.46450898302E+01  0.37135694759E+02  0.00000000000E+00 0. -1.
          1    1    1    2  501    0 -0.14753772754E+02 -0.15045400309E+02 -0.50248383576E+02  0.54487961358E+02  0.00000000000E+00 0. -1.
<scales pt_clust_5="13000.00000" pt_clust_6="13000.00000" pt_clust_7="13000.00000" pt_clust_8="13000.00000" pt_clust_9="21.07221"></scales>
<clustering>
<clus scale="   21.072">  2  9  1 -1</clus>
<clus scale="   86.360">  7  8 -1 -1</clus>
<clus scale="   89.340">  5  6 -1 -1</clus>
<clus scale="   90.485">  1  7  2 -1</clus>
<clus scale="   21.072">  2  5  1 -1</clus>
</clustering>
</event>
<event>
 9    1  0.1504846E-005  0.1099660E+03  0.7546771E-02  0.1261940E+00
          2   -1    0    0  502    0 -0.00000000000E+00  0.00000000000E+00  0.35266086762E+03  0.35266086762E+03  0.00000000000E+00 0. -1.
         21   -1    0    0  501  502  0.00000000000E+00 -0.00000000000E+00 -0.73863006365E+02  0.73863006365E+02  0.00000000000E+00 0.  1.
         23    2    1    2    0    0 -0.11327463354E+02 -0.57091021644E+02  0.20906302335E+03  0.23356798999E+03  0.86365282598E+02 0.  0.
         23    2    1    2    0    0  0.53646547071E+02  0.65005056544E+02  0.82282115578E+02  0.14811203300E+03  0.89795425193E+02 0.  0.
        -11    1    4    4    0    0  0.12116107906E+02 -0.21660533370E+02  0.63137869600E+01  0.25609425656E+02  0.00000000000E+00 0. -1.
         11    1    4    4    0    0  0.41530439165E+02  0.86665589913E+02  0.75968328618E+02  0.12250260734E+03  0.00000000000E+00 0.  1.
        -13    1    3    3    0    0 -0.30951232417E+02  0.84531932542E+01  0.40642801171E+02  0.51781005701E+02  0.00000000000E+00 0.  1.
         13    1    3    3    0    0  0.19623769063E+02 -0.65544214899E+02  0.16842022218E+03  0.18178698429E+03  0.00000000000E+00 0. -1.
          2    1    1    2  501    0 -0.42319083717E+02 -0.79140348992E+01 -0.12547277674E+02  0.44843850995E+02  0.00000000000E+00 0. -1.
<scales pt_clust_5="13000.00000" pt_clust_6="13000.00000" pt_clust_7="13000.00000" pt_clust_8="13000.00000" pt_clust_9="43.05272"></scales>
<clustering>
<clus scale="   43.053">  2  9  1 -1</clus>
<clus scale="   86.365">  7  8 -1 -1</clus>
<clus scale="   89.795">  5  6 -1 -1</clus>
<clus scale="  107.183">  1  7  2 -1</clus>
<clus scale="   43.053">  2  5  1 -1</clus>
</clustering>
</event>
<event>
 9    1  0.1504846E-005  0.9950801E+02  0.7546771E-02  0.1281936E+00
          4   -1    0    0  502    0 -0.00000000000E+00  0.00000000000E+00  0.65254802943E+02  0.65254802943E+02  0.00000000000E+00 0. -1.
         21   -1    0    0  501  502  0.00000000000E+00 -0.00000000000E+00 -0.43064773235E+03  0.43064773235E+03  0.00000000000E+00 0. -1.
         23    2    1    2    0    0 -0.21100296180E+02 -0.28315665593E+02 -0.47182057962E+02  0.10765290913E+03  0.90088860769E+02 0.  0.
         23    2    1    2    0    0  0.37654904725E+02  0.44810237240E+02 -0.33964151690E+03  0.35654160631E+03  0.91322000743E+02 0.  0.
        -11    1    3    3    0    0  0.26166563184E+02 -0.69980845120E+01 -0.48759014656E+02  0.55777268900E+02  0.00000000000E+00 0.  1.
         11    1    3    3    0    0 -0.47266859364E+02 -0.21317581081E+02  0.15769566935E+01  0.51875640234E+02  0.00000000000E+00 0. -1.
        -13    1    4    4    0    0 -0.26094579118E+02 -0.24329013266E+01 -0.12464622750E+03  0.12737161418E+03  0.00000000000E+00 0.  1.
         13    1    4    4    0    0  0.63749483842E+02  0.47243138567E+02 -0.21499528940E+03  0.22916999214E+03  0.00000000000E+00 0. -1.
          4    1    1    2  501    0 -0.16554608544E+02 -0.16494571647E+02  0.21430645455E+02  0.31708019845E+02  0.00000000000E+00 0. -1.
<scales pt_clust_5="13000.00000" pt_clust_6="13000.00000" pt_clust_7="13000.00000" pt_clust_8="13000.00000" pt_clust_9="23.36935"></scales>
<clustering>
<clus scale="   23.369">  2  9  1 -1</clus>
<clus scale="   90.089">  5  6 -1 -1</clus>
<clus scale="   91.322">  7  8 -1 -1</clus>
<clus scale="   98.378">  1  5  2 -1</clus>
<clus scale="   23.369">  2  5  1 -1</clus>
</clustering>
</event>
<event>
 9    1  0.1504846E-005  0.2214516E+03  0.7546771E-02  0.1132926E+00
          1   -1    0    0  502    0 -0.00000000000E+00  0.00000000000E+00  0.15375591030E+03  0.15375591030E+03  0.00000000000E+00 0. -1.
         21   -1    0    0  501  502  0.00000000000E+00 -0.00000000000E+00 -0.38336176162E+03  0.38336176162E+03  0.00000000000E+00 0. -1.
         23    2    1    2    0    0  0.96850004658E+02  0.17461044724E+03 -0.58357974266E+02  0.22735499531E+03  0.91738263802E+02 0.  0.
         23    2    1    2    0    0 -0.12050673768E+03 -0.16644763565E+03 -0.17485069673E+03  0.28447922708E+03  0.90160829927E+02 0.  0.
        -11    1    3    3    0    0 -0.16886055571E+01  0.85630828696E+02 -0.35123557477E+02  0.92569727783E+02  0.00000000000E+00 0.  1.
         11    1    3    3    0    0  0.98538610215E+02  0.88979618539E+02 -0.23234416789E+02  0.13478526753E+03  0.00000000000E+00 0. -1.
        -13    1    4    4    0    0  0.32536721003E+01 -0.36711429450E+02 -0.44479467002E+01  0.37122764771E+02  0.00000000000E+00 0.  1.
         13    1    4    4    0    0 -0.12376040978E+03 -0.12973620620E+03 -0.17040275003E+03  0.24735646231E+03  0.00000000000E+00 0. -1.
          1    1    1    2  501    0  0.23656733027E+02 -0.81628115802E+01  0.36028196667E+01  0.25283449526E+02  0.00000000000E+00 0. -1.
<scales pt_clust_5="13000.00000" pt_clust_6="13000.00000" pt_clust_7="13000.00000" pt_clust_8="13000.00000" pt_clust_9="25.02545"></scales>
<clustering>
<clus scale="   25.025">  2  9  1 -1</clus>
<clus scale="   90.161">  7  8 -1 -1</clus>
<clus scale="   91.738">  5  6 -1 -1</clus>
<clus scale="  220.803">  2  7  1 -1</clus>
<clus scale="   25.025">  2  5  1 -1</clus>
</clustering>
</event>
<event>
 9    1  0.1504846E-005  0.1120331E+03  0.7546771E-02  0.1257186E+00
         21   -1    0    0  501  502  0.00000000000E+00  0.00000000000E+00  0.27419419036E+02  0.27419419036E+02  0.00000000000E+00 0.  1.
          2   -1    0    0  502    0 -0.00000000000E+00 -0.00000000000E+00 -0.67649482936E+03  0.67649482936E+03  0.00000000000E+00 0. -1.
         23    2    1    2    0    0  0.31421872911E+02  0.42961926358E+02 -0.30058731840E+03  0.31851698949E+03  0.90924558833E+02 0.  0.
         23    2    1    2    0    0 -0.33466034502E+02 -0.80662883778E+02 -0.24493641459E+03  0.27517706717E+03  0.90011637134E+02 0.  0.
        -13    1    3    3    0    0 -0.10772857031E+02  0.48716660292E+02 -0.83326712333E+02  0.97122131499E+02  0.00000000000E+00 0.  1.
         13    1    3    3    0    0  0.42194729942E+02 -0.57547339343E+01 -0.21726060607E+03  0.22139485799E+03  0.00000000000E+00 0. -1.
        -13    1    4    4    0    0  0.23802021217E+02 -0.14355583000E+02 -0.11604039199E+03  0.11932305540E+03  0.00000000000E+00 0. -1.
         13    1    4    4    0    0 -0.57268055718E+02 -0.66307300777E+02 -0.12889602260E+03  0.15585401177E+03  0.00000000000E+00 0.  1.
          2    1    1    2  501    0  0.20441615907E+01  0.37700957420E+02 -0.10355167734E+03  0.11022019174E+03  0.00000000000E+00 0. -1.
<scales pt_clust_5="13000.00000" pt_clust_6="13000.00000" pt_clust_7="13000.00000" pt_clust_8="13000.00000" pt_clust_9="37.75635"></scales>
<clustering>
<clus scale="   37.756">  1  9  2 -1</clus>
<clus scale="   90.012">  7  8 -1 -1</clus>
<clus scale="   90.925">  5  6 -1 -1</clus>
<clus scale="  111.293">  1  7  2 -1</clus>
<clus scale="   37.756">  1  5  2 -1</clus>
</clustering>
</event>
<event>
 9    1  0.1504846E-005  0.1444853E+03  0.7546771E-02  0.1207628E+00
         21   -1    0    0  501  502  0.00000000000E+00  0.00000000000E+00  0.18639603999E+03  0.18639603999E+03  0.00000000000E+00 0. -1.
          2   -1    0    0  502    0 -0.00000000000E+00 -0.00000000000E+00 -0.46516729241E+03  0.46516729241E+03  0.00000000000E+00 0. -1.
         23    2    1    2    0    0 -0.38750555023E+02  0.94695625360E+02 -0.19081654326E+03  0.23505694518E+03  0.91498345970E+02 0.  0.
         23    2    1    2    0    0  0.78234237727E+02 -0.96831950596E+02 -0.22571524190E+03  0.27318336232E+03  0.90469643604E+02 0.  0.
        -13    1    4    4    0    0 -0.13771654528E+02 -0.17373351468E+02 -0.75248384304E+01  0.23411856037E+02  0.00000000000E+00 0.  1.
         13    1    4    4    0    0  0.92005892256E+02 -0.79458599128E+02 -0.21819040347E+03  0.24977150628E+03  0.00000000000E+00 0. -1.
        -13    1    3    3    0    0 -0.44548482568E+02  0.22560072241E+02 -0.28878978249E+02  0.57684656048E+02  0.00000000000E+00 0.  1.
         13    1    3    3    0    0  0.57979275454E+01  0.72135553119E+02 -0.16193756501E+03  0.17737228913E+03  0.00000000000E+00 0. -1.
          2    1    1    2  501    0 -0.39483682705E+02  0.21363252365E+01  0.13776053274E+03  0.14332302490E+03  0.00000000000E+00 0. -1.
<scales pt_clust_5="13000.00000" pt_clust_6="13000.00000" pt_clust_7="13000.00000" pt_clust_8="13000.00000" pt_clust_9="39.54144"></scales>
<clustering>
<clus scale="   39.541">  1  9  2 -1</clus>
<clus scale="   90.470">  5  6 -1 -1</clus>
<clus scale="   91.498">  7  8 -1 -1</clus>
<clus scale="  143.836">  1  5  2 -1</clus>
<clus scale="   39.541">  1  5  2 -1</clus>
</clustering>
</event>
<event>
 9    1  0.1504846E-005  0.1138440E+03  0.7546771E-02  0.1254184E+00
         21   -1    0    0  501  502  0.00000000000E+00  0.00000000000E+00  0.14451939192E+03  0.14451939192E+03  0.00000000000E+00 0.  1.
          1   -1    0    0  502    0 -0.00000000000E+00 -0.00000000000E+00 -0.30619324030E+03  0.30619324030E+03  0.00000000000E+00 0. -1.
         23    2    1    2    0    0 -0.37090822810E+02  0.58696855168E+02 -0.25637668288E+03  0.28060070860E+03  0.90480407833E+02 0.  0.
         23    2    1    2    0    0  0.28685605712E+02 -0.31927240839E+02  0.98858010978E+02  0.14174776636E+03  0.92072309899E+02 0.  0.
        -11    1    3    3    0    0  0.68484812923E+00  0.35989614209E+02 -0.22154235166E+02  0.42267380847E+02  0.00000000000E+00 0.  1.
         11    1    3    3    0    0 -0.37775670939E+02  0.22707240959E+02 -0.23422244771E+03  0.23833332776E+03  0.00000000000E+00 0. -1.
        -13    1    4    4    0    0  0.65355845079E+01  0.27576598720E+02  0.62395080795E+02  0.68529765571E+02  0.00000000000E+00 0.  1.
         13    1    4    4    0    0  0.22150021204E+02 -0.59503839559E+02  0.36462930183E+02  0.73218000786E+02  0.00000000000E+00 0. -1.
          1    1    1    2  501    0  0.84052170985E+01 -0.26769614329E+02 -0.41551764759E+01  0.28364157265E+02  0.00000000000E+00 0. -1.
<scales pt_clust_5="13000.00000" pt_clust_6="13000.00000" pt_clust_7="13000.00000" pt_clust_8="13000.00000" pt_clust_9="28.05815"></scales>
<clustering>
<clus scale="   28.058">  1  9  2 -1</clus>
<clus scale="   90.480">  5  6 -1 -1</clus>
<clus scale="   92.072">  7  8 -1 -1</clus>
<clus scale="  112.560">  2  5  1 -1</clus>
<clus scale="   28.058">  1  5  2 -1</clus>
</clustering>
</event>
<event>
 9    1  0.1504846E-005  0.1308324E+03  0.7546771E-02  0.1226254E+00
         21   -1    0    0  501  502  0.00000000000E+00  0.00000000000E+00  0.19000270113E+03  0.19000270113E+03  0.00000000000E+00 0. -1.
          1   -1    0    0  502    0 -0.00000000000E+00 -0.00000000000E+00 -0.66971284006E+03  0.66971284006E+03  0.00000000000E+00 0. -1.
         23    2    1    2    0    0 -0.36214196729E+02 -0.90300818775E+02 -0.57662874244E+03  0.59171321920E+03  0.90322318679E+02 0.  0.
         23    2    1    2    0    0 -0.35608908746E+02  0.90282836542E+02 -0.16580828213E+02  0.13368672422E+03  0.90433574579E+02 0.  0.
        -13    1    4    4    0    0 -0.44949752251E+01  0.76404422508E+02  0.24457930265E+02  0.80349430202E+02  0.00000000000E+00 0.  1.
         13    1    4    4    0    0 -0.31113933521E+02  0.13878414034E+02 -0.41038758478E+02  0.53337294013E+02  0.00000000000E+00 0. -1.
        -13    1    3    3    0    0 -0.30128818412E+02 -0.29560262634E+01 -0.54945538705E+02  0.62733531813E+02  0.00000000000E+00 0.  1.
         13    1    3    3    0    0 -0.60853783165E+01 -0.87344792511E+02 -0.52168320374E+03  0.52897968739E+03  0.00000000000E+00 0. -1.
          1    1    1    2  501    0  0.71823105475E+02  0.17982232587E-01  0.11349943172E+03  0.13431559777E+03  0.00000000000E+00 0. -1.
<scales pt_clust_5="13000.00000" pt_clust_6="13000.00000" pt_clust_7="13000.00000" pt_clust_8="13000.00000" pt_clust_9="71.82311"></scales>
<clustering>
<clus scale="   71.823">  1  9  2 -1</clus>
<clus scale="   90.322">  7  8 -1 -1</clus>
<clus scale="   90.434">  5  6 -1 -1</clus>
<clus scale="  130.756">  2  7  1 -1</clus>
<clus scale="   71.823">  1  5  2 -1</clus>
</clustering>
</event>
<event>
 9    1  0.1504846E-005  0.1007036E+03  0.7546771E-02  0.1280950E+00
          2   -1    0    0  502    0 -0.00000000000E+00  0.00000000000E+00  0.94421332194E+02  0.94421332194E+02  0.00000000000E+00 0. -1.
         21   -1    0    0  501  502  0.00000000000E+00 -0.00000000000E+00 -0.23311978710E+03  0.23311978710E+03  0.00000000000E+00 0. -1.
         23    2    1    2    0    0  0.25323450757E+02 -0.16845234480E+02 -0.11771057261E+02  0.97349944149E+02  0.91724668186E+02 0.  0.
         23    2    1    2    0    0  0.32333036414E+02  0.59113130719E+02 -0.99008908080E+02  0.15344296588E+03  0.95928058625E+02 0.  0.
        -11    1    4    4    0    0 -0.88460760490E+01  0.42084799622E+02 -0.10001707086E+03  0.10887055563E+03  0.00000000000E+00 0.  1.
         11    1    4    4    0    0  0.41179112463E+02  0.17028331097E+02  0.10081627767E+01  0.44572410249E+02  0.00000000000E+00 0. -1.
        -13    1    3    3    0    0 -0.18625598727E+02 -0.16163784051E+02 -0.38635983641E+02  0.45835794688E+02  0.00000000000E+00 0.  1.
         13    1    3    3    0    0  0.43949049484E+02 -0.68145042930E+00  0.26864926380E+02  0.51514149460E+02  0.00000000000E+00 0. -1.
          2    1    1    2  501    0 -0.57656487171E+02 -0.42267896239E+02 -0.27918489561E+02  0.76748209261E+02  0.00000000000E+00 0. -1.
<scales pt_clust_5="13000.00000" pt_clust_6="13000.00000" pt_clust_7="13000.00000" pt_clust_8="13000.00000" pt_clust_9="71.49021"></scales>
<clustering>
<clus scale="   71.490">  2  9  1 -1</clus>
<clus scale="   91.725">  7  8 -1 -1</clus>
<clus scale="   95.928">  5  6 -1 -1</clus>
<clus scale="   96.708">  1  7  2 -1</clus>
<clus scale="   71.490">  2  5  1 -1</clus>
</clustering>
</event>
<event>
 9    1  0.1504846E-005  0.1069275E+03  0.7546771E-02  0.1272287E+00
         21   -1    0    0  501  502  0.00000000000E+00  0.00000000000E+00  0.23554997354E+03  0.23554997354E+03  0.00000000000E+00 0.  1.
         -2   -1    0    0    0  501 -0.00000000000E+00 -0.00000000000E+00 -0.13305741829E+03  0.13305741829E+03  0.00000000000E+00 0.  1.
         23    2    1    2    0    0 -0.33727706406E+02 -0.97813386379E+01 -0.43609071213E+02  0.11748818341E+03  0.10328837971E+03 0.  0.
         23    2    1    2    0    0  0.19849739572E+02 -0.19324032470E+02 -0.60827979030E+01  0.95556296360E+02  0.91250068229E+02 0.  0.
        -11    1    4    4    0    0 -0.12818667546E+02 -0.46518797679E+02 -0.17854768112E+02  0.51450068217E+02  0.00000000000E+00 0.  1.
         11    1    4    4    0    0  0.32668407118E+02  0.27194765209E+02  0.11771970209E+02  0.44106228143E+02  0.00000000000E+00 0. -1.
        -13    1    3    3    0    0 -0.20277819756E+02  0.36542149059E+02  0.12379465230E+02  0.43586348681E+02  0.00000000000E+00 0. -1.
         13    1    3    3    0    0 -0.13449886651E+02 -0.46323487697E+02 -0.55988536443E+02  0.73901834730E+02  0.00000000000E+00 0.  1.
         -2    1    1    2    0  502  0.13877966834E+02  0.29105371108E+02  0.15218442436E+03  0.15556291206E+03  0.00000000000E+00 0.  1.
<scales pt_clust_5="13000.00000" pt_clust_6="13000.00000" pt_clust_7="13000.00000" pt_clust_8="13000.00000" pt_clust_9="32.24470"></scales>
<clustering>
<clus scale="   32.245">  1  9  2 -1</clus>
<clus scale="   91.250">  5  6 -1 -1</clus>
<clus scale="   95.350">  1  5  2 -1</clus>
<clus scale="  103.288">  7  8 -1 -1</clus>
<clus scale="   32.245">  1  5  2 -1</clus>
</clustering>
</event>
<event>
 9    1  0.1504846E-005  0.9516042E+02  0.7546771E-02  0.1292681E+00
         -2   -1    0    0    0  501 -0.00000000000E+00  0.00000000000E+00  0.52368646684E+03  0.52368646684E+03  0.00000000000E+00 0.  1.
         21   -1    0    0  501  502  0.00000000000E+00 -0.00000000000E+00 -0.52717705497E+02  0.52717705497E+02  0.00000000000E+00 0.  1.
         23    2    1    2    0    0 -0.19499970903E+01  0.20980789034E+02  0.31896496244E+03  0.33259159934E+03  0.91839690169E+02 0.  0.
         23    2    1    2    0    0 -0.60453251104E+01  0.35865330717E+02  0.15597884665E+03  0.18626948034E+03  0.95100214518E+02 0.  0.
        -11    1    3    3    0    0 -0.25560763917E+02  0.50302401738E+02  0.20057795070E+03  0.20836314113E+03  0.00000000000E+00 0.  1.
         11    1    3    3    0    0  0.23610766827E+02 -0.29321612704E+02  0.11838701173E+03  0.12422845821E+03  0.00000000000E+00 0. -1.
        -13    1    4    4    0    0 -0.50576148545E+02  0.19761823142E+02  0.88590776160E+02  0.10390766130E+03  0.00000000000E+00 0.  1.
         13    1    4    4    0    0  0.44530823435E+02  0.16103507575E+02  0.67388070489E+02  0.82361819044E+02  0.00000000000E+00 0. -1.
         -2    1    1    2    0  502  0.79953222007E+01 -0.56846119751E+02 -0.39750477458E+01  0.57543092656E+02  0.00000000000E+00 0.  1.
<scales pt_clust_5="13000.00000" pt_clust_6="13000.00000" pt_clust_7="13000.00000" pt_clust_8="13000.00000" pt_clust_9="57.40563"></scales>
<clustering>
<clus scale="   57.406">  2  9  1 -1</clus>
<clus scale="   91.840">  5  6 -1 -1</clus>
<clus scale="   91.902">  1  5  2 -1</clus>
<clus scale="   95.100">  7  8 -1 -1</clus>
<clus scale="   57.406">  2  5  1 -1</clus>
</clustering>
</event>
<event>
 9    1  0.1504846E-005  0.1472448E+03  0.7546771E-02  0.1214813E+00
         21   -1    0    0  501  502  0.00000000000E+00  0.00000000000E+00  0.38527355327E+03  0.38527355327E+03  0.00000000000E+00 0.  1.
         -1   -1    0    0    0  501 -0.00000000000E+00 -0.00000000000E+00 -0.12051243828E+03  0.12051243828E+03  0.00000000000E+00 0.  1.
         23    2    1    2    0    0 -0.64597061397E+02 -0.18280821900E+02 -0.39165447285E+02  0.11930819834E+03  0.90518203358E+02 0.  0.
         23    2    1    2    0    0  0.96202750631E+02  0.26233120933E+02  0.12487784916E+03  0.20448713323E+03  0.12758277541E+03 0.  0.
        -11    1    4    4    0    0 -0.14605003403E+02  0.29812213679E+02 -0.51687173591E+01  0.33597467880E+02  0.00000000000E+00 0.  1.
         11    1    4    4    0    0  0.11080775403E+03 -0.35790927453E+01  0.13004656652E+03  0.17088966535E+03  0.00000000000E+00 0. -1.
        -13    1    3    3    0    0 -0.57813070800E+02  0.25470830307E+02 -0.40449372295E+02  0.75015105618E+02  0.00000000000E+00 0.  1.
         13    1    3    3    0    0 -0.67839905973E+01 -0.43751652207E+02  0.12839250094E+01  0.44293092720E+02  0.00000000000E+00 0. -1.
         -1    1    1    2    0  502 -0.31605689234E+02 -0.79522990335E+01  0.17904871312E+03  0.18199065998E+03  0.00000000000E+00 0.  1.
<scales pt_clust_5="13000.00000" pt_clust_6="13000.00000" pt_clust_7="13000.00000" pt_clust_8="13000.00000" pt_clust_9="32.59078"></scales>
<clustering>
<clus scale="   32.591">  1  9  2 -1</clus>
<clus scale="   90.518">  7  8 -1 -1</clus>
<clus scale="  116.607">  2  7  1 -1</clus>
<clus scale="  127.583">  5  6 -1 -1</clus>
<clus scale="   32.591">  1  5  2 -1</clus>
</clustering>
</event>
<event>
 9    1  0.1504846E-005  0.9939834E+02  0.7546771E-02  0.1284411E+00
         21   -1    0    0  501  502  0.00000000000E+00  0.00000000000E+00  0.23705876166E+03  0.23705876166E+03  0.00000000000E+00 0.  1.
         -2   -1    0    0    0  501 -0.00000000000E+00 -0.00000000000E+00 -0.37218139886E+03  0.37218139886E+03  0.00000000000E+00 0.  1.
         23    2    1    2    0    0 -0.38429960343E+02  0.73478113533E+01 -0.31599306273E+03  0.33159635767E+03  0.92594149606E+02 0.  0.
         23    2    1    2    0    0  0.21722955519E+02  0.10871041604E+02 -0.47104937265E+01  0.90423803379E+02  0.86972461874E+02 0.  0.
        -11    1    4    4    0    0 -0.28181265458E+02  0.18562606036E+02 -0.17951378997E+02  0.38223109155E+02  0.00000000000E+00 0.  1.
         11    1    4    4    0    0  0.49904220977E+02 -0.76915644314E+01  0.13240885270E+02  0.52200694224E+02  0.00000000000E+00 0. -1.
        -13    1    3    3    0    0  0.91178783356E+01 -0.32927351553E+02 -0.70854466970E+02  0.78661945534E+02  0.00000000000E+00 0. -1.
         13    1    3    3    0    0 -0.47547838679E+02  0.40275162906E+02 -0.24513859576E+03  0.25293441213E+03  0.00000000000E+00 0.  1.
         -2    1    1    2    0  502  0.16707004824E+02 -0.18218852958E+02  0.18558091925E+03  0.18721999947E+03  0.00000000000E+00 0.  1.
<scales pt_clust_5="13000.00000" pt_clust_6="13000.00000" pt_clust_7="13000.00000" pt_clust_8="13000.00000" pt_clust_9="24.71944"></scales>
<clustering>
<clus scale="   24.719">  1  9  2 -1</clus>
<clus scale="   86.972">  5  6 -1 -1</clus>
<clus scale="   92.594">  7  8 -1 -1</clus>
<clus scale="   94.184">  1  5  2 -1</clus>
<clus scale="   24.719">  1  5  2 -1</clus>
</clustering>
</event>
<event>
 9    1  0.1504846E-005  0.9360497E+02  0.7546771E-02  0.1294399E+00
         -1   -1    0    0    0  501 -0.00000000000E+00  0.00000000000E+00  0.92972151052E+03  0.92972151052E+03  0.00000000000E+00 0.  1.
         21   -1    0    0  501  502  0.00000000000E+00 -0.00000000000E+00 -0.14846750828E+02  0.14846750828E+02  0.00000000000E+00 0. -1.
         23    2    1    2    0    0  0.14081825729E+02 -0.13533412459E+02  0.52559767768E+03  0.53378117447E+03  0.91038301652E+02 0.  0.
         23    2    1    2    0    0 -0.35293548570E+00  0.29653908717E+02  0.36995078058E+03  0.38211900787E+03  0.90949861234E+02 0.  0.
        -11    1    3    3    0    0  0.52724648156E+02 -0.12641652099E+02  0.32540830170E+03  0.32989432051E+03  0.00000000000E+00 0. -1.
         11    1    3    3    0    0 -0.38642822427E+02 -0.89176035984E+00  0.20018937598E+03  0.20388685396E+03  0.00000000000E+00 0.  1.
        -13    1    4    4    0    0 -0.39447642073E+02  0.25668719489E+01  0.92076355264E+02  0.10020359522E+03  0.00000000000E+00 0.  1.
         13    1    4    4    0    0  0.39094706588E+02  0.27087036768E+02  0.27787442531E+03  0.28191541265E+03  0.00000000000E+00 0. -1.
         -1    1    1    2    0  502 -0.13728890243E+02 -0.16120496258E+02  0.19326301433E+02  0.28668079007E+02  0.00000000000E+00 0.  1.
<scales pt_clust_5="13000.00000" pt_clust_6="13000.00000" pt_clust_7="13000.00000" pt_clust_8="13000.00000" pt_clust_9="21.17434"></scales>
<clustering>
<clus scale="   21.174">  2  9  1 -1</clus>
<clus scale="   90.950">  7  8 -1 -1</clus>
<clus scale="   91.038">  5  6 -1 -1</clus>
<clus scale="   93.519">  2  7  1 -1</clus>
<clus scale="   21.174">  2  5  1 -1</clus>
</clustering>
</event>
<event>
 9    1  0.1504846E-005  0.1723407E+03  0.7546771E-02  0.1175811E+00
         21   -1    0    0  501  502  0.00000000000E+00  0.00000000000E+00  0.29740379121E+03  0.29740379121E+03  0.00000000000E+00 0. -1.
          3   -1    0    0  502    0 -0.00000000000E+00 -0.00000000000E+00 -0.19965582495E+03  0.19965582495E+03  0.00000000000E+00 0. -1.
         23    2    1    2    0    0 -0.10856510313E+03 -0.10434522922E+03 -0.71936710028E+02  0.18891103683E+03  0.88533502739E+02 0.  0.
         23    2    1    2    0    0  0.11366320615E+03  0.80650265465E+02  0.33704135616E+02  0.17002490502E+03  0.91371274569E+02 0.  0.
        -11    1    3    3    0    0 -0.10967243805E+03 -0.69138187099E+02 -0.80572321224E+02  0.15264347851E+03  0.00000000000E+00 0. -1.
         11    1    3    3    0    0  0.11073349238E+01 -0.35207042126E+02  0.86356111965E+01  0.36267558321E+02  0.00000000000E+00 0.  1.
        -13    1    4    4    0    0  0.77868301946E+02  0.12710679768E+02 -0.13266638347E+02  0.80006484244E+02  0.00000000000E+00 0.  1.
         13    1    4    4    0    0  0.35794904206E+02  0.67939585698E+02  0.46970773963E+02  0.90018420774E+02  0.00000000000E+00 0. -1.
          3    1    1    2  501    0 -0.50981030258E+01  0.23694963759E+02  0.13598054068E+03  0.13812367431E+03  0.00000000000E+00 0. -1.
<scales pt_clust_5="13000.00000" pt_clust_6="13000.00000" pt_clust_7="13000.00000" pt_clust_8="13000.00000" pt_clust_9="24.23720"></scales>
<clustering>
<clus scale="   24.237">  1  9  2 -1</clus>
<clus scale="   88.534">  5  6 -1 -1</clus>
<clus scale="   91.371">  7  8 -1 -1</clus>
<clus scale="  170.853">  2  5  1 -1</clus>
<clus scale="   24.237">  1  5  2 -1</clus>
</clustering>
</event>
<event>
 9    1  0.1504846E-005  0.1744168E+03  0.7546771E-02  0.1173717E+00
         21   -1    0    0  501  502  0.00000000000E+00  0.00000000000E+00  0.86746375064E+02  0.86746375064E+02  0.00000000000E+00 0.  1.
          1   -1    0    0  502    0 -0.00000000000E+00 -0.00000000000E+00 -0.50463788000E+03  0.50463788000E+03  0.00000000000E+00 0. -1.
         23    2    1    2    0    0  0.10837899762E+03  0.10629173715E+03 -0.27972349739E+03  0.33205030195E+03  0.94700726080E+02 0.  0.
         23    2    1    2    0    0 -0.10988312187E+03 -0.86209426151E+02 -0.15877862195E+03  0.23051800213E+03  0.91768910253E+02 0.  0.
        -11    1    4    4    0    0 -0.63175577062E+02 -0.16930709265E+02 -0.19763444317E+02  0.68325662709E+02  0.00000000000E+00 0.  1.
         11    1    4    4    0    0 -0.46707544811E+02 -0.69278716886E+02 -0.13901517763E+03  0.16219233942E+03  0.00000000000E+00 0. -1.
        -11    1    3    3    0    0  0.30977982626E+02  0.17487399260E+02 -0.88315396689E+01  0.36652975778E+02  0.00000000000E+00 0. -1.
         11    1    3    3    0    0  0.77401014993E+02  0.88804337891E+02 -0.27089195772E+03  0.29539732617E+03  0.00000000000E+00 0.  1.
          1    1    1    2  501    0  0.15041242531E+01 -0.20082311000E+02  0.20610614404E+02  0.28815950982E+02  0.00000000000E+00 0. -1.
<scales pt_clust_5="13000.00000" pt_clust_6="13000.00000" pt_clust_7="13000.00000" pt_clust_8="13000.00000" pt_clust_9="20.13856"></scales>
<clustering>
<clus scale="   20.139">  1  9  2 -1</clus>
<clus scale="   91.769">  5  6 -1 -1</clus>
<clus scale="   94.701">  7  8 -1 -1</clus>
<clus scale="  172.843">  1  5  2 -1</clus>
<clus scale="   20.139">  1  5  2 -1</clus>
</clustering>
</event>
<event>
 9    1  0.2177149E-005  0.1269507E+03  0.7546771E-02  0.1244393E+00
          2   -1    0    0  502    0 -0.00000000000E+00  0.00000000000E+00  0.44803357889E+03  0.44803357889E+03  0.00000000000E+00 0. -1.
         21   -1    0    0  501  502  0.00000000000E+00 -0.00000000000E+00 -0.21053858999E+03  0.21053858999E+03  0.00000000000E+00 0. -1.
         23    2    1    2    0    0  0.24289356429E+02 -0.29291566183E+02  0.31322574059E+03  0.32841807724E+03  0.91104885714E+02 0.  0.
         23    2    1    2    0    0  0.62622833678E+02 -0.19527755642E+02  0.88453252638E+02  0.13807743442E+03  0.83297343626E+02 0.  0.
        -11    1    4    4    0    0 -0.25639504163E+01 -0.21785891225E+02 -0.65005553360E+01  0.22879163400E+02  0.00000000000E+00 0.  1.
         11    1    4    4    0    0  0.65186784094E+02  0.22581355832E+01  0.94953807974E+02  0.11519827102E+03  0.00000000000E+00 0. -1.
        -13    1    3    3    0    0  0.32244771922E+02  0.21367340689E+02  0.71297715246E+02  0.81115058797E+02  0.00000000000E+00 0.  1.
         13    1    3    3    0    0 -0.79554154929E+01 -0.50658906872E+02  0.24192802535E+03  0.24730301844E+03  0.00000000000E+00 0. -1.
          2    1    1    2  501    0 -0.86912190107E+02  0.48819321826E+02 -0.16418400433E+03  0.19207665722E+03  0.00000000000E+00 0. -1.
<scales pt_clust_5="13000.00000" pt_clust_6="13000.00000" pt_clust_7="13000.00000" pt_clust_8="13000.00000" pt_clust_9="95.80211"></scales>
<clustering>
<clus scale="   83.297">  5  6 -1 -1</clus>
<clus scale="   91.105">  7  8 -1 -1</clus>
<clus scale="   98.732">  1  7  2 -1</clus>
<clus scale="   95.802">  2  9  1 -1</clus>
<clus scale="   95.802">  2  5  1 -1</clus>
</clustering>
</event>
<event>
 9    1  0.1504846E-005  0.9668523E+02  0.7546771E-02  0.1287734E+00
          1   -1    0    0  502    0 -0.00000000000E+00  0.00000000000E+00  0.89789832929E+02  0.89789832929E+02  0.00000000000E+00 0. -1.
         21   -1    0    0  501  502  0.00000000000E+00 -0.00000000000E+00 -0.60288432655E+03  0.60288432655E+03  0.00000000000E+00 0.  1.
         23    2    1    2    0    0  0.91852154484E+01  0.39111287551E+02  0.38009505860E+02  0.10673131955E+03  0.91284122607E+02 0.  0.
         23    2    1    2    0    0  0.52565735154E+02  0.16111774684E+02 -0.21438784782E+03  0.23918567231E+03  0.90691183432E+02 0.  0.
        -13    1    4    4    0    0  0.75950600864E+02  0.10017582524E+02 -0.18995216232E+03  0.20481862635E+03  0.00000000000E+00 0.  1.
         13    1    4    4    0    0 -0.23384865710E+02  0.60941921596E+01 -0.24435685501E+02  0.34367045963E+02  0.00000000000E+00 0. -1.
        -13    1    3    3    0    0 -0.37825737643E+02  0.32943643589E+02  0.30558062260E+02  0.58735553545E+02  0.00000000000E+00 0. -1.
         13    1    3    3    0    0  0.47010953091E+02  0.61676439624E+01  0.74514436007E+01  0.47995766004E+02  0.00000000000E+00 0.  1.
          1    1    1    2  501    0 -0.61750950603E+02 -0.55223062235E+02 -0.33671615166E+03  0.34675716761E+03  0.00000000000E+00 0. -1.
<scales pt_clust_5="13000.00000" pt_clust_6="13000.00000" pt_clust_7="13000.00000" pt_clust_8="13000.00000" pt_clust_9="82.84182"></scales>
<clustering>
<clus scale="   82.842">  2  9  1 -1</clus>
<clus scale="   90.691">  5  6 -1 -1</clus>
<clus scale="   91.284">  7  8 -1 -1</clus>
<clus scale="   96.126">  2  5  1 -1</clus>
<clus scale="   82.842">  2  5  1 -1</clus>
</clustering>
</event>
<event>
 9    1  0.1504846E-005  0.1128523E+03  0.7546771E-02  0.1258225E+00
          2   -1    0    0  502    0 -0.00000000000E+00  0.00000000000E+00  0.45667006141E+02  0.45667006141E+02  0.00000000000E+00 0. -1.
         21   -1    0    0  501  502  0.00000000000E+00 -0.00000000000E+00 -0.52335616995E+03  0.52335616995E+03  0.00000000000E+00 0.  1.
         23    2    1    2    0    0 -0.66766971911E+02 -0.76419025580E+00 -0.18533714814E+03  0.21997636983E+03  0.97884280039E+02 0.  0.
         23    2    1    2    0    0  0.26054663539E+02 -0.63975055789E+02 -0.18294392134E+03  0.21555975394E+03  0.90696614654E+02 0.  0.
        -13    1    3    3    0    0  0.19158685047E+02 -0.19624291405E+02 -0.25093150529E+02  0.37173030942E+02  0.00000000000E+00 0. -1.
         13    1    3    3    0    0 -0.85925656958E+02  0.18860101149E+02 -0.16024399761E+03  0.18280333889E+03  0.00000000000E+00 0.  1.
        -13    1    4    4    0    0  0.83413582645E+01 -0.79174551862E+02 -0.17250736242E+03  0.18999204723E+03  0.00000000000E+00 0.  1.
         13    1    4    4    0    0  0.17713305275E+02  0.15199496073E+02 -0.10436558917E+02  0.25567706714E+02  0.00000000000E+00 0. -1.
          2    1    1    2  501    0  0.40712308371E+02  0.64739246045E+02 -0.10940809433E+03  0.13348705232E+03  0.00000000000E+00 0. -1.
<scales pt_clust_5="13000.00000" pt_clust_6="13000.00000" pt_clust_7="13000.00000" pt_clust_8="13000.00000" pt_clust_9="76.47658"></scales>
<clustering>
<clus scale="   76.477">  2  9  1 -1</clus>
<clus scale="   90.697">  7  8 -1 -1</clus>
<clus scale="   97.884">  5  6 -1 -1</clus>
<clus scale="  106.678">  2  7  1 -1</clus>
<clus scale="   76.477">  2  5  1 -1</clus>
</clustering>
</event>
<event>
 9    1  0.1504846E-005  0.9985218E+02  0.7546771E-02  0.1284448E+00
          2   -1    0    0  502    0 -0.00000000000E+00  0.00000000000E+00  0.64915721803E+03  0.64915721803E+03  0.00000000000E+00 0. -1.
         21   -1    0    0  501  502  0.00000000000E+00 -0.00000000000E+00 -0.21641488418E+02  0.21641488418E+02  0.00000000000E+00 0. -1.
         23    2    1    2    0    0  0.39796817944E+02 -0.25642756728E+01  0.43538045029E+03  0.44714825943E+03  0.93782019565E+02 0.  0.
         23    2    1    2    0    0 -0.22775640732E+02 -0.13948423302E+02  0.15969195666E+03  0.18346389595E+03  0.86279729780E+02 0.  0.
        -11    1    4    4    0    0 -0.43460094476E+02 -0.11568724810E+02  0.15595522656E+03  0.16231034439E+03  0.00000000000E+00 0.  1.
         11    1    4    4    0    0  0.20684453744E+02 -0.23796984927E+01  0.37367301030E+01  0.21153551557E+02  0.00000000000E+00 0. -1.
        -11    1    3    3    0    0  0.33414651300E+02 -0.45318582451E+02  0.29256739733E+03  0.29793622609E+03  0.00000000000E+00 0. -1.
         11    1    3    3    0    0  0.63821666447E+01  0.42754306779E+02  0.14281305296E+03  0.14921203334E+03  0.00000000000E+00 0.  1.
          2    1    1    2  501    0 -0.17021177213E+02  0.16512698975E+02  0.32443322665E+02  0.40186551067E+02  0.00000000000E+00 0. -1.
<scales pt_clust_5="13000.00000" pt_clust_6="13000.00000" pt_clust_7="13000.00000" pt_clust_8="13000.00000" pt_clust_9="23.71476"></scales>
<clustering>
<clus scale="   23.715">  2  9  1 -1</clus>
<clus scale="   86.280">  5  6 -1 -1</clus>
<clus scale="   92.842">  2  5  1 -1</clus>
<clus scale="   93.782">  7  8 -1 -1</clus>
<clus scale="   23.715">  2  5  1 -1</clus>
</clustering>
</event>
<event>
 9    1  0.1504846E-005  0.9342187E+02  0.7546771E-02  0.1295777E+00
         -2   -1    0    0    0  501 -0.00000000000E+00  0.00000000000E+00  0.29309688268E+02  0.29309688268E+02  0.00000000000E+00 0.  1.
         21   -1    0    0  501  502  0.00000000000E+00 -0.00000000000E+00 -0.41266470063E+03  0.41266470063E+03  0.00000000000E+00 0. -1.
         23    2    1    2    0    0 -0.17764975512E+02  0.33373172279E+01 -0.13368506796E+03  0.16359699000E+03  0.92550233393E+02 0.  0.
         23    2    1    2    0    0  0.16942156692E+00 -0.14515217080E+02 -0.14535841159E+03  0.17200331915E+03  0.90803930247E+02 0.  0.
        -11    1    3    3    0    0 -0.31097229713E+01  0.47458802275E+02 -0.61687247495E+02  0.77893034309E+02  0.00000000000E+00 0.  1.
         11    1    3    3    0    0 -0.14655252540E+02 -0.44121485047E+02 -0.71997820463E+02  0.85703955692E+02  0.00000000000E+00 0. -1.
        -13    1    4    4    0    0  0.44689586432E+02  0.70333377260E+00 -0.76662171253E+02  0.88739744845E+02  0.00000000000E+00 0. -1.
         13    1    4    4    0    0 -0.44520164865E+02 -0.15218550853E+02 -0.68696240333E+02  0.83263574302E+02  0.00000000000E+00 0.  1.
         -2    1    1    2    0  502  0.17595553945E+02  0.11177899853E+02 -0.10431153282E+03  0.10637407975E+03  0.00000000000E+00 0.  1.
<scales pt_clust_5="13000.00000" pt_clust_6="13000.00000" pt_clust_7="13000.00000" pt_clust_8="13000.00000" pt_clust_9="20.84584"></scales>
<clustering>
<clus scale="   20.846">  2  9  1 -1</clus>
<clus scale="   90.804">  7  8 -1 -1</clus>
<clus scale="   91.692">  2  7  1 -1</clus>
<clus scale="   92.550">  5  6 -1 -1</clus>
<clus scale="   20.846">  2  5  1 -1</clus>
</clustering>
</event>
<event>
 9    1  0.1504846E-005  0.4107027E+03  0.7546771E-02  0.1040154E+00
         21   -1    0    0  501  502  0.00000000000E+00  0.00000000000E+00  0.11703244120E+03  0.11703244120E+03  0.00000000000E+00 0.  1.
          2   -1    0    0  502    0 -0.00000000000E+00 -0.00000000000E+00 -0.17956924975E+04  0.17956924975E+04  0.00000000000E+00 0. -1.
         23    2    1    2    0    0  0.35495651790E+03  0.67685790963E+02 -0.59877488230E+03  0.70546439530E+03  0.92591346623E+02 0.  0.
         23    2    1    2    0    0 -0.42331692669E+03 -0.12222238558E+03 -0.86476253431E+03  0.97504268072E+03  0.93586625781E+02 0.  0.
        -11    1    4    4    0    0 -0.23046196808E+03 -0.59023105797E+02 -0.36545121966E+03  0.43606311435E+03  0.00000000000E+00 0.  1.
         11    1    4    4    0    0 -0.19285495861E+03 -0.63199279782E+02 -0.49931131465E+03  0.53897956637E+03  0.00000000000E+00 0. -1.
        -13    1    3    3    0    0  0.74345625596E+02  0.40815221912E+02 -0.19878273852E+03  0.21611971571E+03  0.00000000000E+00 0.  1.
         13    1    3    3    0    0  0.28061089231E+03  0.26870569052E+02 -0.39999214378E+03  0.48934467959E+03  0.00000000000E+00 0. -1.
          2    1    1    2  501    0  0.68360408786E+02  0.54536594615E+02 -0.21512263971E+03  0.23221786270E+03  0.00000000000E+00 0. -1.
<scales pt_clust_5="13000.00000" pt_clust_6="13000.00000" pt_clust_7="13000.00000" pt_clust_8="13000.00000" pt_clust_9="87.44938"></scales>
<clustering>
<clus scale="   87.449">  1  9  2 -1</clus>
<clus scale="   92.591">  7  8 -1 -1</clus>
<clus scale="   93.587">  5  6 -1 -1</clus>
<clus scale="  410.477">  2  7  1 -1</clus>
<clus scale="   87.449">  1  5  2 -1</clus>
</clustering>
</event>
<event>
 9    1  0.1504846E-005  0.1060214E+03  0.7546771E-02  0.1269036E+00
         21   -1    0    0  501  502  0.00000000000E+00  0.00000000000E+00  0.60850446437E+03  0.60850446437E+03  0.00000000000E+00 0.  1.
         -3   -1    0    0    0  501 -0.00000000000E+00 -0.00000000000E+00 -0.62108002409E+02  0.62108002409E+02  0.00000000000E+00 0.  1.
         23    2    1    2    0    0  0.68307560232E+02  0.39428802545E+02  0.38783506406E+02  0.12651909763E+03  0.91007518597E+02 0.  0.
         23    2    1    2    0    0  0.15716244532E+02  0.21449694453E+01  0.17942805713E+03  0.20278162626E+03  0.93136239048E+02 0.  0.
        -11    1    3    3    0    0  0.52720027911E+02  0.67759394714E+02  0.16971154095E+02  0.87514324463E+02  0.00000000000E+00 0.  1.
         11    1    3    3    0    0  0.15587532321E+02 -0.28330592169E+02  0.21812352311E+02  0.39004773168E+02  0.00000000000E+00 0. -1.
        -11    1    4    4    0    0  0.16090704304E+02  0.45865111390E+02  0.11572374567E+03  0.12551694913E+03  0.00000000000E+00 0.  1.
         11    1    4    4    0    0 -0.37445977176E+00 -0.43720141944E+02  0.63704311462E+02  0.77264677121E+02  0.00000000000E+00 0. -1.
         -3    1    1    2    0  502 -0.84023804765E+02 -0.41573771990E+02  0.32818489842E+03  0.34131174290E+03  0.00000000000E+00 0.  1.
<scales pt_clust_5="13000.00000" pt_clust_6="13000.00000" pt_clust_7="13000.00000" pt_clust_8="13000.00000" pt_clust_9="93.74635"></scales>
<clustering>
<clus scale="   91.008">  5  6 -1 -1</clus>
<clus scale="   93.136">  7  8 -1 -1</clus>
<clus scale="   93.746">  1  9  2 -1</clus>
<clus scale="  104.156">  2  5  1 -1</clus>
<clus scale="   93.746">  1  5  2 -1</clus>
</clustering>
</event>
<event>
 9    1  0.1504846E-005  0.1079461E+03  0.7546771E-02  0.1267642E+00
          1   -1    0    0  502    0 -0.00000000000E+00  0.00000000000E+00  0.13388366843E+03  0.13388366843E+03  0.00000000000E+00 0. -1.
         21   -1    0    0  501  502  0.00000000000E+00 -0.00000000000E+00 -0.17390447391E+03  0.17390447391E+03  0.00000000000E+00 0. -1.
         23    2    1    2    0    0 -0.25199515984E+02  0.49221566948E+02  0.26588930235E+02  0.10422494947E+03  0.84250166894E+02 0.  0.
         23    2    1    2    0    0  0.43475756936E+02 -0.40630616791E+02  0.22761623094E+02  0.11193860455E+03  0.92038965888E+02 0.  0.
        -13    1    4    4    0    0 -0.16651175032E+02  0.14239577658E+02  0.21253622313E+02  0.30524476461E+02  0.00000000000E+00 0.  1.
         13    1    4    4    0    0  0.60126931968E+02 -0.54870194449E+02  0.15080007814E+01  0.81414128093E+02  0.00000000000E+00 0. -1.
        -13    1    3    3    0    0  0.43810855573E+01 -0.20347719541E+02  0.19114682824E+02  0.28259417911E+02  0.00000000000E+00 0.  1.
         13    1    3    3    0    0 -0.29580601541E+02  0.69569286490E+02  0.74742474107E+01  0.75965531556E+02  0.00000000000E+00 0. -1.
          1    1    1    2  501    0 -0.18276240952E+02 -0.85909501575E+01 -0.89371358813E+02  0.91624588316E+02  0.00000000000E+00 0. -1.
<scales pt_clust_5="13000.00000" pt_clust_6="13000.00000" pt_clust_7="13000.00000" pt_clust_8="13000.00000" pt_clust_9="20.19469"></scales>
<clustering>
<clus scale="   20.195">  2  9  1 -1</clus>
<clus scale="   84.250">  7  8 -1 -1</clus>
<clus scale="   92.039">  5  6 -1 -1</clus>
<clus scale="  101.387">  1  7  2 -1</clus>
<clus scale="   20.195">  2  5  1 -1</clus>
</clustering>
</event>
<event>
 9    1  0.1504846E-005  0.1127428E+03  0.7546771E-02  0.1255840E+00
         21   -1    0    0  501  502  0.00000000000E+00  0.00000000000E+00  0.24634739668E+03  0.24634739668E+03  0.00000000000E+00 0. -1.
          2   -1    0    0  502    0 -0.00000000000E+00 -0.00000000000E+00 -0.95726180574E+02  0.95726180574E+02  0.00000000000E+00 0. -1.
         23    2    1    2    0    0 -0.45783606979E+02  0.46535423052E+02 -0.15015861045E+02  0.11361974242E+03  0.91773010841E+02 0.  0.
         23    2    1    2    0    0  0.68161199416E+02 -0.16151574690E+02  0.10209016486E+03  0.15454750935E+03  0.92497072460E+02 0.  0.
        -11    1    3    3    0    0  0.39805047333E+01  0.28370910941E+02 -0.44550794377E+02  0.52967218967E+02  0.00000000000E+00 0. -1.
         11    1    3    3    0    0 -0.49764111712E+02  0.18164512112E+02  0.29534933331E+02  0.60652523456E+02  0.00000000000E+00 0.  1.
        -13    1    4    4    0    0 -0.21640669254E+02 -0.86676629336E+01  0.90079680077E+01  0.24991807340E+02  0.00000000000E+00 0.  1.
         13    1    4    4    0    0  0.89801868670E+02 -0.74839117564E+01  0.93082196855E+02  0.12955570201E+03  0.00000000000E+00 0. -1.
          2    1    1    2  501    0 -0.22377592437E+02 -0.30383848362E+02  0.63546912287E+02  0.73906325479E+02  0.00000000000E+00 0. -1.
<scales pt_clust_5="13000.00000" pt_clust_6="13000.00000" pt_clust_7="13000.00000" pt_clust_8="13000.00000" pt_clust_9="37.73506"></scales>
<clustering>
<clus scale="   37.735">  1  9  2 -1</clus>
<clus scale="   91.773">  5  6 -1 -1</clus>
<clus scale="   92.497">  7  8 -1 -1</clus>
<clus scale="  112.149">  2  5  1 -1</clus>
<clus scale="   37.735">  1  5  2 -1</clus>
</clustering>
</event>
<event>
 9    1  0.1504846E-005  0.1087795E+03  0.7546771E-02  0.1263765E+00
         21   -1    0    0  501  502  0.00000000000E+00  0.00000000000E+00  0.27647800037E+03  0.27647800037E+03  0.00000000000E+00 0. -1.
         -1   -1    0    0    0  501 -0.00000000000E+00 -0.00000000000E+00 -0.78050698914E+02  0.78050698914E+02  0.00000000000E+00 0.  1.
         23    2    1    2    0    0 -0.30636089634E+02 -0.56907378375E+02  0.86051992398E+01  0.11001246801E+03  0.88609671945E+02 0.  0.
         23    2    1    2    0    0  0.28624032926E+02  0.32619884759E+02  0.19509873545E+03  0.21958084323E+03  0.90933151257E+02 0.  0.
        -13    1    3    3    0    0  0.17012509481E+01  0.23205536715E+02  0.25553863903E+01  0.23407716433E+02  0.00000000000E+00 0.  1.
         13    1    3    3    0    0 -0.32337340582E+02 -0.80112915090E+02  0.60498128495E+01  0.86604751576E+02  0.00000000000E+00 0. -1.
        -13    1    4    4    0    0  0.34006897035E+02  0.59491707273E+02  0.10480005658E+03  0.12521495174E+03  0.00000000000E+00 0.  1.
         13    1    4    4    0    0 -0.53828641091E+01 -0.26871822514E+02  0.90298678870E+02  0.94365891491E+02  0.00000000000E+00 0. -1.
         -1    1    1    2    0  502  0.20120567076E+01  0.24287493616E+02 -0.52766332372E+01  0.24935388039E+02  0.00000000000E+00 0.  1.
<scales pt_clust_5="13000.00000" pt_clust_6="13000.00000" pt_clust_7="13000.00000" pt_clust_8="13000.00000" pt_clust_9="24.37071"></scales>
<clustering>
<clus scale="   24.371">  1  9  2 -1</clus>
<clus scale="   88.610">  5  6 -1 -1</clus>
<clus scale="   90.933">  7  8 -1 -1</clus>
<clus scale="  106.845">  2  5  1 -1</clus>
<clus scale="   24.371">  1  5  2 -1</clus>
</clustering>
</event>
<event>
 9    1  0.1504846E-005  0.9763663E+02  0.7546771E-02  0.1287414E+00
         -1   -1    0    0    0  501 -0.00000000000E+00  0.00000000000E+00  0.33039464551E+03  0.33039464551E+03  0.00000000000E+00 0.  1.
         21   -1    0    0  501  502  0.00000000000E+00 -0.00000000000E+00 -0.44463101230E+02  0.44463101230E+02  0.00000000000E+00 0.  1.
         23    2    1    2    0    0  0.21344720771E+02 -0.43079022968E+02  0.16942914626E+03  0.19827303987E+03  0.91074493767E+02 0.  0.
         23    2    1    2    0    0  0.20397595104E+01  0.23573345036E+02  0.11490352526E+03  0.14609107173E+03  0.87062723987E+02 0.  0.
        -13    1    4    4    0    0 -0.32618252776E+01  0.53958574096E+02  0.47482936910E+02  0.71949958445E+02  0.00000000000E+00 0.  1.
         13    1    4    4    0    0  0.53015847880E+01 -0.30385229060E+02  0.67420588347E+02  0.74141113287E+02  0.00000000000E+00 0. -1.
        -13    1    3    3    0    0  0.47932608639E+02 -0.39732791730E+02  0.63198700949E+02  0.88714742355E+02  0.00000000000E+00 0.  1.
         13    1    3    3    0    0 -0.26587887868E+02 -0.33462312372E+01  0.10623044531E+03  0.10955829752E+03  0.00000000000E+00 0. -1.
         -1    1    1    2    0  502 -0.23384480281E+02  0.19505677932E+02  0.15988727653E+01  0.30493635135E+02  0.00000000000E+00 0.  1.
<scales pt_clust_5="13000.00000" pt_clust_6="13000.00000" pt_clust_7="13000.00000" pt_clust_8="13000.00000" pt_clust_9="30.45169"></scales>
<clustering>
<clus scale="   30.452">  2  9  1 -1</clus>
<clus scale="   87.063">  5  6 -1 -1</clus>
<clus scale="   91.074">  7  8 -1 -1</clus>
<clus scale="   93.906">  2  5  1 -1</clus>
<clus scale="   30.452">  2  5  1 -1</clus>
</clustering>
</event>
<event>
 9    1  0.1504846E-005  0.1321816E+03  0.7546771E-02  0.1224967E+00
          1   -1    0    0  502    0 -0.00000000000E+00  0.00000000000E+00  0.21483094633E+03  0.21483094633E+03  0.00000000000E+00 0. -1.
         21   -1    0    0  501  502  0.00000000000E+00 -0.00000000000E+00 -0.16743295079E+03  0.16743295079E+03  0.00000000000E+00 0. -1.
         23    2    1    2    0    0 -0.44644194632E+02 -0.78075228607E+02  0.11167564485E+03  0.17045024675E+03  0.92157427958E+02 0.  0.
         23    2    1    2    0    0  0.65916543815E+02  0.83674293145E+02  0.50118300696E+01  0.13911637178E+03  0.89341302734E+02 0.  0.
        -11    1    3    3    0    0 -0.73237882645E+02 -0.61918397734E+02  0.84590835911E+02  0.12787996306E+03  0.00000000000E+00 0.  1.
         11    1    3    3    0    0  0.28593688013E+02 -0.16156830873E+02  0.27084808938E+02  0.42570283688E+02  0.00000000000E+00 0. -1.
        -13    1    4    4    0    0  0.47906195374E+02  0.18658855515E+02  0.38085287872E+02  0.63981603580E+02  0.00000000000E+00 0.  1.
         13    1    4    4    0    0  0.18010348441E+02  0.65015437630E+02 -0.33073457802E+02  0.75134768198E+02  0.00000000000E+00 0. -1.
          1    1    1    2  501    0 -0.21272349183E+02 -0.55990645375E+01 -0.69289479380E+02  0.72697278602E+02  0.00000000000E+00 0. -1.
<scales pt_clust_5="13000.00000" pt_clust_6="13000.00000" pt_clust_7="13000.00000" pt_clust_8="13000.00000" pt_clust_9="21.99687"></scales>
<clustering>
<clus scale="   21.997">  2  9  1 -1</clus>
<clus scale="   89.341">  7  8 -1 -1</clus>
<clus scale="   92.157">  5  6 -1 -1</clus>
<clus scale="  130.234">  2  7  1 -1</clus>
<clus scale="   21.997">  2  5  1 -1</clus>
</clustering>
</event>
<event>
 9    1  0.1504846E-005  0.1020736E+03  0.7546771E-02  0.1276693E+00
         21   -1    0    0  501  502  0.00000000000E+00  0.00000000000E+00  0.17250010093E+03  0.17250010093E+03  0.00000000000E+00 0. -1.
         -3   -1    0    0    0  501 -0.00000000000E+00 -0.00000000000E+00 -0.15604232141E+03  0.15604232141E+03  0.00000000000E+00 0.  1.
         23    2    1    2    0    0 -0.38405645243E+01 -0.48761492982E+02 -0.10944467487E+03  0.15120189139E+03  0.92149020446E+02 0.  0.
         23    2    1    2    0    0 -0.53971367736E+01  0.19393852901E+02  0.83054594204E+02  0.12457944177E+03  0.90646131064E+02 0.  0.
        -11    1    3    3    0    0 -0.39225209011E+02 -0.36084286665E+02 -0.25205854311E+02  0.58957848143E+02  0.00000000000E+00 0. -1.
         11    1    3    3    0    0  0.35384644487E+02 -0.12677206317E+02 -0.84238820564E+02  0.92244043252E+02  0.00000000000E+00 0.  1.
        -11    1    4    4    0    0 -0.12327669351E+01 -0.32727227433E+02  0.90698515214E+01  0.33983133116E+02  0.00000000000E+00 0.  1.
         11    1    4    4    0    0 -0.41643698385E+01  0.52121080334E+02  0.73984742682E+02  0.90596308650E+02  0.00000000000E+00 0. -1.
         -3    1    1    2    0  502  0.92377012979E+01  0.29367640081E+02  0.42847860191E+02  0.52761089186E+02  0.00000000000E+00 0.  1.
<scales pt_clust_5="13000.00000" pt_clust_6="13000.00000" pt_clust_7="13000.00000" pt_clust_8="13000.00000" pt_clust_9="30.78625"></scales>
<clustering>
<clus scale="   30.786">  1  9  2 -1</clus>
<clus scale="   90.646">  7  8 -1 -1</clus>
<clus scale="   92.149">  5  6 -1 -1</clus>
<clus scale="  100.719">  1  7  2 -1</clus>
<clus scale="   30.786">  1  5  2 -1</clus>
</clustering>
</event>
<event>
 9    1  0.1504846E-005  0.1259990E+03  0.7546771E-02  0.1233757E+00
          1   -1    0    0  502    0 -0.00000000000E+00  0.00000000000E+00  0.50559530239E+03  0.50559530239E+03  0.00000000000E+00 0. -1.
         21   -1    0    0  501  502  0.00000000000E+00 -0.00000000000E+00 -0.21033650041E+03  0.21033650041E+03  0.00000000000E+00 0. -1.
         23    2    1    2    0    0  0.28830978975E+02  0.71576918875E+02  0.33874290185E+03  0.35928486716E+03  0.91566268650E+02 0.  0.
         23    2    1    2    0    0 -0.75527099092E+02 -0.10051318243E+03  0.11231735615E+03  0.19144424595E+03  0.90710904929E+02 0.  0.
        -11    1    4    4    0    0 -0.82949771752E+02 -0.56433177156E+02  0.10658881123E+03  0.14637808168E+03  0.00000000000E+00 0.  1.
         11    1    4    4    0    0  0.74226726600E+01 -0.44080005274E+02  0.57285449213E+01  0.45066164262E+02  0.00000000000E+00 0. -1.
        -13    1    3    3    0    0 -0.30266941580E+02  0.49357976879E+01  0.85017776378E+02  0.90379600308E+02  0.00000000000E+00 0.  1.
         13    1    3    3    0    0  0.59097920556E+02  0.66641121187E+02  0.25372512547E+03  0.26890526685E+03  0.00000000000E+00 0. -1.
          1    1    1    2  501    0  0.46696120117E+02  0.28936263555E+02 -0.15580145602E+03  0.16520268969E+03  0.00000000000E+00 0. -1.
<scales pt_clust_5="13000.00000" pt_clust_6="13000.00000" pt_clust_7="13000.00000" pt_clust_8="13000.00000" pt_clust_9="54.93482"></scales>
<clustering>
<clus scale="   54.935">  2  9  1 -1</clus>
<clus scale="   90.711">  5  6 -1 -1</clus>
<clus scale="   91.566">  7  8 -1 -1</clus>
<clus scale="  125.379">  2  5  1 -1</clus>
<clus scale="   54.935">  2  5  1 -1</clus>
</clustering>
</event>
<event>
 9    1  0.1504846E-005  0.9442669E+02  0.7546771E-02  0.1294486E+00
         21   -1    0    0  501  502  0.00000000000E+00  0.00000000000E+00  0.33459784756E+03  0.33459784756E+03  0.00000000000E+00 0.  1.
         -1   -1    0    0    0  501 -0.00000000000E+00 -0.00000000000E+00 -0.45927319971E+02  0.45927319971E+02  0.00000000000E+00 0.  1.
         23    2    1    2    0    0 -0.97487094900E+01  0.28812521361E+02  0.57711033544E+02  0.11349680498E+03  0.92874983842E+02 0.  0.
         23    2    1    2    0    0  0.43375178180E+01  0.51163318088E+01  0.11322439492E+03  0.14438252431E+03  0.89339570230E+02 0.  0.
        -11    1    4    4    0    0  0.22824335585E+02 -0.36547974378E+02  0.44738639633E+02  0.62114817896E+02  0.00000000000E+00 0. -1.
         11    1    4    4    0    0 -0.18486817767E+02  0.41664306187E+02  0.68485755286E+02  0.82267706412E+02  0.00000000000E+00 0.  1.
        -13    1    3    3    0    0 -0.57866895887E+01  0.53194609698E+02  0.31459959800E+01  0.53600835517E+02  0.00000000000E+00 0.  1.
         13    1    3    3    0    0 -0.39620199014E+01 -0.24382088337E+02  0.54565037564E+02  0.59895969461E+02  0.00000000000E+00 0. -1.
         -1    1    1    2    0  502  0.54111916720E+01 -0.33928853170E+02  0.11773509913E+03  0.12264583825E+03  0.00000000000E+00 0.  1.
<scales pt_clust_5="13000.00000" pt_clust_6="13000.00000" pt_clust_7="13000.00000" pt_clust_8="13000.00000" pt_clust_9="34.35765"></scales>
<clustering>
<clus scale="   34.358">  1  9  2 -1</clus>
<clus scale="   89.340">  5  6 -1 -1</clus>
<clus scale="   90.952">  1  5  2 -1</clus>
<clus scale="   92.875">  7  8 -1 -1</clus>
<clus scale="   34.358">  1  5  2 -1</clus>
</clustering>
</event>
<event>
 9    1  0.1504846E-005  0.1305638E+03  0.7546771E-02  0.1228065E+00
         21   -1    0    0  501  502  0.00000000000E+00  0.00000000000E+00  0.39520946417E+02  0.39520946417E+02  0.00000000000E+00 0.  1.
          1   -1    0    0  502    0 -0.00000000000E+00 -0.00000000000E+00 -0.77291662358E+03  0.77291662358E+03  0.00000000000E+00 0. -1.
         23    2    1    2    0    0 -0.88144220728E+01  0.80808743589E+02 -0.28511322343E+03  0.31178079712E+03  0.96488176500E+02 0.  0.
         23    2    1    2    0    0 -0.35348292346E+02 -0.10008641476E+03 -0.17960940137E+03  0.22769673364E+03  0.91211146568E+02 0.  0.
        -11    1    3    3    0    0  0.30319606118E+02 -0.36035169909E+01 -0.46079472918E+02  0.55277316091E+02  0.00000000000E+00 0. -1.
         11    1    3    3    0    0 -0.39134028191E+02  0.84412260580E+02 -0.23903375051E+03  0.25650348103E+03  0.00000000000E+00 0.  1.
        -13    1    4    4    0    0 -0.38566015993E+02 -0.66447531347E+02 -0.45273345175E+02  0.89175600895E+02  0.00000000000E+00 0.  1.
         13    1    4    4    0    0  0.32177236464E+01 -0.33638883417E+02 -0.13433605620E+03  0.13852113275E+03  0.00000000000E+00 0. -1.
          1    1    1    2  501    0  0.44162714419E+02  0.19277671175E+02 -0.26867305236E+03  0.27296003923E+03  0.00000000000E+00 0. -1.
<scales pt_clust_5="13000.00000" pt_clust_6="13000.00000" pt_clust_7="13000.00000" pt_clust_8="13000.00000" pt_clust_9="48.18689"></scales>
<clustering>
<clus scale="   48.187">  1  9  2 -1</clus>
<clus scale="   91.211">  7  8 -1 -1</clus>
<clus scale="   96.488">  5  6 -1 -1</clus>
<clus scale="  126.714">  1  7  2 -1</clus>
<clus scale="   48.187">  1  5  2 -1</clus>
</clustering>
</event>
<event>
 9    1  0.1504846E-005  0.9908832E+02  0.7546771E-02  0.1283888E+00
         21   -1    0    0  501  502  0.00000000000E+00  0.00000000000E+00  0.45933722751E+02  0.45933722751E+02  0.00000000000E+00 0. -1.
          1   -1    0    0  502    0 -0.00000000000E+00 -0.00000000000E+00 -0.45914913033E+03  0.45914913033E+03  0.00000000000E+00 0. -1.
         23    2    1    2    0    0  0.11480513938E+02 -0.25942585564E+02 -0.19801743175E+03  0.21911253682E+03  0.89412418418E+02 0.  0.
         23    2    1    2    0    0 -0.59730653701E+02 -0.18819172666E+01 -0.19973620610E+03  0.22816594559E+03  0.92703042539E+02 0.  0.
        -13    1    3    3    0    0  0.50030397056E+02 -0.59609299450E+01 -0.10654061217E+03  0.11785361834E+03  0.00000000000E+00 0.  1.
         13    1    3    3    0    0 -0.38549883118E+02 -0.19981655619E+02 -0.91476819585E+02  0.10125891848E+03  0.00000000000E+00 0. -1.
        -13    1    4    4    0    0 -0.25998018387E+02  0.38487526619E+02 -0.14495831657E+03  0.15221727960E+03  0.00000000000E+00 0.  1.
         13    1    4    4    0    0 -0.33732635314E+02 -0.40369443886E+02 -0.54777889533E+02  0.75948665996E+02  0.00000000000E+00 0. -1.
          1    1    1    2  501    0  0.48250139763E+02  0.27824502831E+02 -0.15461769718E+02  0.57804370663E+02  0.00000000000E+00 0. -1.
<scales pt_clust_5="13000.00000" pt_clust_6="13000.00000" pt_clust_7="13000.00000" pt_clust_8="13000.00000" pt_clust_9="55.69811"></scales>
<clustering>
<clus scale="   55.698">  1  9  2 -1</clus>
<clus scale="   89.412">  5  6 -1 -1</clus>
<clus scale="   92.703">  7  8 -1 -1</clus>
<clus scale="   96.017">  2  5  1 -1</clus>
<clus scale="   55.698">  1  5  2 -1</clus>
</clustering>
</event>
<event>
 9    1  0.1504846E-005  0.1027488E+03  0.7546771E-02  0.1274674E+00
          1   -1    0    0  502    0 -0.00000000000E+00  0.00000000000E+00  0.56657549024E+03  0.56657549024E+03  0.00000000000E+00 0. -1.
         21   -1    0    0  501  502  0.00000000000E+00 -0.00000000000E+00 -0.83508121770E+02  0.83508121770E+02  0.00000000000E+00 0. -1.
         23    2    1    2    0    0 -0.70568356621E+01  0.47593072575E+02  0.32510761394E+03  0.34069574374E+03  0.89798272128E+02 0.  0.
         23    2    1    2    0    0  0.74781483945E+02 -0.26867045893E+02  0.19545022090E+03  0.22925216315E+03  0.89675286228E+02 0.  0.
        -13    1    3    3    0    0 -0.25748126301E+02 -0.18445940919E+02  0.13223913525E+03  0.13597943829E+03  0.00000000000E+00 0.  1.
         13    1    3    3    0    0  0.18691290639E+02  0.66039013494E+02  0.19286847868E+03  0.20471630545E+03  0.00000000000E+00 0. -1.
        -13    1    4    4    0    0 -0.48774110135E+01 -0.28792595111E+02  0.10368912207E+03  0.10772296277E+03  0.00000000000E+00 0.  1.
         13    1    4    4    0    0  0.79658894959E+02  0.19255492181E+01  0.91761098829E+02  0.12152920038E+03  0.00000000000E+00 0. -1.
          1    1    1    2  501    0 -0.67724648283E+02 -0.20726026681E+02 -0.37490466369E+02  0.80135705123E+02  0.00000000000E+00 0. -1.
<scales pt_clust_5="13000.00000" pt_clust_6="13000.00000" pt_clust_7="13000.00000" pt_clust_8="13000.00000" pt_clust_9="70.82511"></scales>
<clustering>
<clus scale="   70.825">  2  9  1 -1</clus>
<clus scale="   89.675">  7  8 -1 -1</clus>
<clus scale="   89.798">  5  6 -1 -1</clus>
<clus scale="  102.641">  2  7  1 -1</clus>
<clus scale="   70.825">  2  5  1 -1</clus>
</clustering>
</event>
<event>
 9    1  0.1504846E-005  0.1187611E+03  0.7546771E-02  0.1247460E+00
          1   -1    0    0  502    0 -0.00000000000E+00  0.00000000000E+00  0.39387204928E+03  0.39387204928E+03  0.00000000000E+00 0. -1.
         21   -1    0    0  501  502  0.00000000000E+00 -0.00000000000E+00 -0.64158693338E+02  0.64158693338E+02  0.00000000000E+00 0.  1.
         23    2    1    2    0    0  0.46233892767E+02  0.61448627606E+02  0.22682764201E+03  0.25603920555E+03  0.90508501945E+02 0.  0.
         23    2    1    2    0    0 -0.45693991488E+02 -0.34094820631E+02  0.12392805818E+03  0.16747628679E+03  0.97158352095E+02 0.  0.
        -13    1    4    4    0    0 -0.19975251932E+02 -0.41257337357E+02  0.13188044212E+03  0.13961958885E+03  0.00000000000E+00 0. -1.
         13    1    4    4    0    0 -0.25718739556E+02  0.71625167256E+01 -0.79523839408E+01  0.27856697948E+02  0.00000000000E+00 0.  1.
        -13    1    3    3    0    0 -0.19762850063E+02  0.44957273965E+02  0.11646732446E+03  0.12639764393E+03  0.00000000000E+00 0.  1.
         13    1    3    3    0    0  0.65996742829E+02  0.16491353641E+02  0.11036031755E+03  0.12964156162E+03  0.00000000000E+00 0. -1.
          1    1    1    2  501    0 -0.53990127863E+00 -0.27353806975E+02 -0.21042344254E+02  0.34515250268E+02  0.00000000000E+00 0. -1.
<scales pt_clust_5="13000.00000" pt_clust_6="13000.00000" pt_clust_7="13000.00000" pt_clust_8="13000.00000" pt_clust_9="27.35913"></scales>
<clustering>
<clus scale="   27.359">  2  9  1 -1</clus>
<clus scale="   90.509">  7  8 -1 -1</clus>
<clus scale="   97.158">  5  6 -1 -1</clus>
<clus scale="  113.385">  1  7  2 -1</clus>
<clus scale="   27.359">  2  5  1 -1</clus>
</clustering>
</event>
<event>
 9    1  0.1504846E-005  0.1172666E+03  0.7546771E-02  0.1247738E+00
         21   -1    0    0  501  502  0.00000000000E+00  0.00000000000E+00  0.11079332732E+03  0.11079332732E+03  0.00000000000E+00 0. -1.
          2   -1    0    0  502    0 -0.00000000000E+00 -0.00000000000E+00 -0.33542651939E+03  0.33542651939E+03  0.00000000000E+00 0. -1.
         23    2    1    2    0    0 -0.59317617628E+02  0.56274739563E+02 -0.25948533225E+03  0.28651472839E+03  0.89847792703E+02 0.  0.
         23    2    1    2    0    0  0.24801764110E+02 -0.48707754902E+02 -0.66317516902E+01  0.10521184639E+03  0.89654780133E+02 0.  0.
        -13    1    4    4    0    0  0.36558454286E+02  0.85642613127E+01 -0.23580443033E+02  0.44338521009E+02  0.00000000000E+00 0.  1.
         13    1    4    4    0    0 -0.11756690177E+02 -0.57272016215E+02  0.16948691343E+02  0.60873325386E+02  0.00000000000E+00 0. -1.
        -13    1    3    3    0    0 -0.73058826353E+01  0.53365983580E+02 -0.61324319263E+02  0.81620930267E+02  0.00000000000E+00 0.  1.
         13    1    3    3    0    0 -0.52011734992E+02  0.29087559821E+01 -0.19816101299E+03  0.20489379812E+03  0.00000000000E+00 0. -1.
          2    1    1    2  501    0  0.34515853518E+02 -0.75669846601E+01  0.41483891877E+02  0.54493271935E+02  0.00000000000E+00 0. -1.
<scales pt_clust_5="13000.00000" pt_clust_6="13000.00000" pt_clust_7="13000.00000" pt_clust_8="13000.00000" pt_clust_9="35.33558"></scales>
<clustering>
<clus scale="   35.336">  1  9  2 -1</clus>
<clus scale="   89.655">  5  6 -1 -1</clus>
<clus scale="   89.848">  7  8 -1 -1</clus>
<clus scale="  117.119">  1  5  2 -1</clus>
<clus scale="   35.336">  1  5  2 -1</clus>
</clustering>
</event>
<event>
 9    1  0.1504846E-005  0.9418172E+02  0.7546771E-02  0.1306191E+00
         21   -1    0    0  501  502  0.00000000000E+00  0.00000000000E+00  0.33797150037E+03  0.33797150037E+03  0.00000000000E+00 0. -1.
          2   -1    0    0  502    0 -0.00000000000E+00 -0.00000000000E+00 -0.47175206615E+02  0.47175206615E+02  0.00000000000E+00 0. -1.
         23    2    1    2    0    0  0.23052215086E+02 -0.50896027840E+01  0.34228952836E+02  0.10179145132E+03  0.92911622910E+02 0.  0.
         23    2    1    2    0    0  0.45876410657E+01 -0.26781439221E+02  0.14894798553E+03  0.16776264941E+03  0.72253112095E+02 0.  0.
        -11    1    3    3    0    0  0.28798497111E+02  0.39629776612E+02  0.80212547299E+01  0.49640841629E+02  0.00000000000E+00 0. -1.
         11    1    3    3    0    0 -0.57462820252E+01 -0.44719379396E+02  0.26207698106E+02  0.52150609687E+02  0.00000000000E+00 0.  1.
        -13    1    4    4    0    0 -0.15349757230E+00  0.24133026240E+02  0.66513572410E+02  0.70756496746E+02  0.00000000000E+00 0.  1.
         13    1    4    4    0    0  0.47411386380E+01 -0.50914465462E+02  0.82434413119E+02  0.97006152667E+02  0.00000000000E+00 0. -1.
          2    1    1    2  501    0 -0.27639856152E+02  0.31871042005E+02  0.10761935539E+03  0.11559260626E+03  0.00000000000E+00 0. -1.
<scales pt_clust_5="13000.00000" pt_clust_6="13000.00000" pt_clust_7="13000.00000" pt_clust_8="13000.00000" pt_clust_9="42.18679"></scales>
<clustering>
<clus scale="   42.187">  1  9  2 -1</clus>
<clus scale="   72.253">  7  8 -1 -1</clus>
<clus scale="   73.879">  1  7  2 -1</clus>
<clus scale="   92.912">  5  6 -1 -1</clus>
<clus scale="   42.187">  1  5  2 -1</clus>
</clustering>
</event>
<event>
 9    1  0.1504846E-005  0.1481320E+03  0.7546771E-02  0.1203909E+00
         21   -1    0    0  501  502  0.00000000000E+00  0.00000000000E+00  0.20858005320E+03  0.20858005320E+03  0.00000000000E+00 0. -1.
          2   -1    0    0  502    0 -0.00000000000E+00 -0.00000000000E+00 -0.16809947931E+03  0.16809947931E+03  0.00000000000E+00 0. -1.
         23    2    1    2    0    0 -0.29557560564E+02  0.86570469049E+02 -0.12996699034E+02  0.13435548778E+03  0.97541721395E+02 0.  0.
         23    2    1    2    0    0  0.38333386900E+02 -0.13223715875E+03 -0.73085435996E+01  0.16579054117E+03  0.92070484005E+02 0.  0.
        -11    1    4    4    0    0  0.52567950444E+02 -0.80703007693E+02 -0.38693047206E+02  0.10379555273E+03  0.00000000000E+00 0. -1.
         11    1    4    4    0    0 -0.14234563544E+02 -0.51534151060E+02  0.31384503606E+02  0.61994988438E+02  0.00000000000E+00 0.  1.
        -13    1    3    3    0    0 -0.72148587522E+01  0.53984185733E+02 -0.54502508520E+02  0.77051086501E+02  0.00000000000E+00 0. -1.
         13    1    3    3    0    0 -0.22342701812E+02  0.32586283316E+02  0.41505809487E+02  0.57304401277E+02  0.00000000000E+00 0.  1.
          2    1    1    2  501    0 -0.87758263361E+01  0.45666689704E+02  0.60785816523E+02  0.76533503557E+02  0.00000000000E+00 0. -1.
<scales pt_clust_5="13000.00000" pt_clust_6="13000.00000" pt_clust_7="13000.00000" pt_clust_8="13000.00000" pt_clust_9="46.50228"></scales>
<clustering>
<clus scale="   46.502">  1  9  2 -1</clus>
<clus scale="   92.070">  5  6 -1 -1</clus>
<clus scale="   97.542">  7  8 -1 -1</clus>
<clus scale="  144.588">  1  5  2 -1</clus>
<clus scale="   46.502">  1  5  2 -1</clus>
</clustering>
</event>
<event>
 9    1  0.1504846E-005  0.9468139E+02  0.7546771E-02  0.1291944E+00
         -3   -1    0    0    0  501 -0.00000000000E+00  0.00000000000E+00  0.40890340907E+03  0.40890340907E+03  0.00000000000E+00 0.  1.
         21   -1    0    0  501  502  0.00000000000E+00 -0.00000000000E+00 -0.82853892799E+02  0.82853892799E+02  0.00000000000E+00 0.  1.
         23    2    1    2    0    0 -0.15676343250E+02  0.31476109025E+02  0.27347051415E+03  0.29032056479E+03  0.90903328073E+02 0.  0.
         23    2    1    2    0    0  0.24636542166E+02  0.49818016220E+02  0.48310036897E+01  0.10673250635E+03  0.90992831390E+02 0.  0.
        -11    1    3    3    0    0 -0.27655649681E+02 -0.99589469101E+01  0.26386527003E+02  0.39500182152E+02  0.00000000000E+00 0. -1.
         11    1    3    3    0    0  0.11979306431E+02  0.41435055935E+02  0.24708398715E+03  0.25082038264E+03  0.00000000000E+00 0.  1.
        -11    1    4    4    0    0  0.57814839804E+02  0.35691023433E+02  0.14336238012E+02  0.69440136632E+02  0.00000000000E+00 0.  1.
         11    1    4    4    0    0 -0.33178297638E+02  0.14126992787E+02 -0.95052343219E+01  0.37292369714E+02  0.00000000000E+00 0. -1.
         -3    1    1    2    0  502 -0.89601989161E+01 -0.81294125245E+02  0.47747998431E+02  0.94704230730E+02  0.00000000000E+00 0.  1.
<scales pt_clust_5="13000.00000" pt_clust_6="13000.00000" pt_clust_7="13000.00000" pt_clust_8="13000.00000" pt_clust_9="81.78643"></scales>
<clustering>
<clus scale="   81.786">  2  9  1 -1</clus>
<clus scale="   90.903">  5  6 -1 -1</clus>
<clus scale="   90.993">  7  8 -1 -1</clus>
<clus scale="   94.595">  1  5  2 -1</clus>
<clus scale="   81.786">  2  5  1 -1</clus>
</clustering>
</event>
<event>
 9    1  0.1504846E-005  0.1363676E+03  0.7546771E-02  0.1218447E+00
          1   -1    0    0  502    0 -0.00000000000E+00  0.00000000000E+00  0.11859282571E+03  0.11859282571E+03  0.00000000000E+00 0. -1.
         21   -1    0    0  501  502  0.00000000000E+00 -0.00000000000E+00 -0.28231573365E+03  0.28231573365E+03  0.00000000000E+00 0. -1.
         23    2    1    2    0    0 -0.32897116895E+01 -0.93547030045E+02 -0.31221359529E+02  0.13512021154E+03  0.92308337885E+02 0.  0.
         23    2    1    2    0    0  0.78346368966E+02  0.94800300872E+02 -0.76157407683E+02  0.17192816093E+03  0.92919810589E+02 0.  0.
        -11    1    3    3    0    0  0.22178271686E+02 -0.68134564055E+02  0.18258368415E+02  0.73942968368E+02  0.00000000000E+00 0. -1.
         11    1    3    3    0    0 -0.25467983376E+02 -0.25412465991E+02 -0.49479727944E+02  0.61177243174E+02  0.00000000000E+00 0.  1.
        -11    1    4    4    0    0 -0.84397828260E+01  0.51618456343E+02 -0.47987545179E+02  0.70982388391E+02  0.00000000000E+00 0.  1.
         11    1    4    4    0    0  0.86786151792E+02  0.43181844529E+02 -0.28169862504E+02  0.10094577254E+03  0.00000000000E+00 0. -1.
          1    1    1    2  501    0 -0.75056657277E+02 -0.12532708263E+01 -0.56344140728E+02  0.93860186894E+02  0.00000000000E+00 0. -1.
<scales pt_clust_5="13000.00000" pt_clust_6="13000.00000" pt_clust_7="13000.00000" pt_clust_8="13000.00000" pt_clust_9="75.06712"></scales>
<clustering>
<clus scale="   75.067">  2  9  1 -1</clus>
<clus scale="   92.308">  5  6 -1 -1</clus>
<clus scale="   92.920">  7  8 -1 -1</clus>
<clus scale="  135.952">  1  5  2 -1</clus>
<clus scale="   75.067">  2  5  1 -1</clus>
</clustering>
</event>
<event>
 9    1  0.1504846E-005  0.1101024E+03  0.7546771E-02  0.1260770E+00
          1   -1    0    0  502    0 -0.00000000000E+00  0.00000000000E+00  0.63472970212E+03  0.63472970212E+03  0.00000000000E+00 0. -1.
         21   -1    0    0  501  502  0.00000000000E+00 -0.00000000000E+00 -0.61342563467E+02  0.61342563467E+02  0.00000000000E+00 0.  1.
         23    2    1    2    0    0  0.31332376088E+02 -0.59717252145E+02  0.29391587737E+03  0.31477367211E+03  0.90266570156E+02 0.  0.
         23    2    1    2    0    0  0.70771368479E+02  0.71897080691E+02  0.79408746631E+02  0.15635741751E+03  0.89241896887E+02 0.  0.
        -13    1    3    3    0    0  0.35274516082E+02  0.64483049452E+01  0.47008758329E+02  0.59124406814E+02  0.00000000000E+00 0.  1.
         13    1    3    3    0    0 -0.39421399939E+01 -0.66165557090E+02  0.24690711904E+03  0.25564926529E+03  0.00000000000E+00 0. -1.
        -13    1    4    4    0    0  0.89553881963E+02  0.55648211200E+02  0.78599572431E+02  0.13150860797E+03  0.00000000000E+00 0.  1.
         13    1    4    4    0    0 -0.18782513483E+02  0.16248869490E+02  0.80917420004E+00  0.24848809536E+02  0.00000000000E+00 0. -1.
          1    1    1    2  501    0 -0.10210374457E+03 -0.12179828546E+02  0.20006251465E+03  0.22494117597E+03  0.00000000000E+00 0. -1.
<scales pt_clust_5="13000.00000" pt_clust_6="13000.00000" pt_clust_7="13000.00000" pt_clust_8="13000.00000" pt_clust_9="102.82769"></scales>
<clustering>
<clus scale="   89.242">  7  8 -1 -1</clus>
<clus scale="   90.267">  5  6 -1 -1</clus>
<clus scale="  102.828">  2  9  1 -1</clus>
<clus scale="  109.264">  2  7  1 -1</clus>
<clus scale="  102.828">  2  5  1 -1</clus>
</clustering>
</event>
<event>
 9    1  0.1504846E-005  0.1337384E+03  0.7546771E-02  0.1225010E+00
         -2   -1    0    0    0  501 -0.00000000000E+00  0.00000000000E+00  0.54116678671E+03  0.54116678671E+03  0.00000000000E+00 0.  1.
         21   -1    0    0  501  502  0.00000000000E+00 -0.00000000000E+00 -0.67324233858E+02  0.67324233858E+02  0.00000000000E+00 0.  1.
         23    2    1    2    0    0  0.25306096976E+02 -0.89839805654E+02  0.43204765987E+03  0.45329769080E+03  0.10050883973E+03 0.  0.
         23    2    1    2    0    0 -0.37113851000E+01  0.65700058271E+02  0.12878715112E+02  0.11177439003E+03  0.89428076846E+02 0.  0.
        -11    1    3    3    0    0  0.46059780350E+02 -0.10280579602E+03  0.35070323112E+03  0.36835212959E+03  0.00000000000E+00 0.  1.
         11    1    3    3    0    0 -0.20753683374E+02  0.12965990367E+02  0.81344428755E+02  0.84945561210E+02  0.00000000000E+00 0. -1.
        -13    1    4    4    0    0  0.14405947699E+02  0.81836246310E+02  0.21830293460E+02  0.85914284329E+02  0.00000000000E+00 0.  1.
         13    1    4    4    0    0 -0.18117332799E+02 -0.16136188038E+02 -0.89515783479E+01  0.25860105705E+02  0.00000000000E+00 0. -1.
         -2    1    1    2    0  502 -0.21594711876E+02  0.24139747383E+02  0.28916177867E+02  0.43418939728E+02  0.00000000000E+00 0.  1.
<scales pt_clust_5="13000.00000" pt_clust_6="13000.00000" pt_clust_7="13000.00000" pt_clust_8="13000.00000" pt_clust_9="32.38918"></scales>
<clustering>
<clus scale="   32.389">  2  9  1 -1</clus>
<clus scale="   89.428">  7  8 -1 -1</clus>
<clus scale="  100.509">  5  6 -1 -1</clus>
<clus scale="  125.624">  2  7  1 -1</clus>
<clus scale="   32.389">  2  5  1 -1</clus>
</clustering>
</event>
<event>
 9    1  0.1504846E-005  0.1741319E+03  0.7546771E-02  0.1173727E+00
         21   -1    0    0  501  502  0.00000000000E+00  0.00000000000E+00  0.22487652675E+03  0.22487652675E+03  0.00000000000E+00 0.  1.
         -2   -1    0    0    0  501 -0.00000000000E+00 -0.00000000000E+00 -0.17293087219E+03  0.17293087219E+03  0.00000000000E+00 0.  1.
         23    2    1    2    0    0  0.91950853273E+02 -0.12215809592E+03 -0.33822955632E+02  0.18126362990E+03  0.91295954896E+02 0.  0.
         23    2    1    2    0    0 -0.10423000950E+03  0.94354197947E+02  0.68186216415E+02  0.18143002543E+03  0.92200241147E+02 0.  0.
        -11    1    3    3    0    0  0.64546709650E+02 -0.11046379552E+03 -0.60269250921E+02  0.14142457514E+03  0.00000000000E+00 0.  1.
         11    1    3    3    0    0  0.27404143624E+02 -0.11694300400E+02  0.26446295289E+02  0.39839054759E+02  0.00000000000E+00 0. -1.
        -13    1    4    4    0    0 -0.26141386836E+02  0.34072412795E+02  0.70731034885E+02  0.82747693112E+02  0.00000000000E+00 0. -1.
         13    1    4    4    0    0 -0.78088622661E+02  0.60281785152E+02 -0.25448184705E+01  0.98682332315E+02  0.00000000000E+00 0.  1.
         -2    1    1    2    0  502  0.12279156224E+02  0.27803897969E+02  0.17582393779E+02  0.35113743617E+02  0.00000000000E+00 0.  1.
<scales pt_clust_5="13000.00000" pt_clust_6="13000.00000" pt_clust_7="13000.00000" pt_clust_8="13000.00000" pt_clust_9="30.39464"></scales>
<clustering>
<clus scale="   30.395">  1  9  2 -1</clus>
<clus scale="   91.296">  5  6 -1 -1</clus>
<clus scale="   92.200">  7  8 -1 -1</clus>
<clus scale="  173.655">  2  5  1 -1</clus>
<clus scale="   30.395">  1  5  2 -1</clus>
</clustering>
</event>
<event>
 9    1  0.1504846E-005  0.1170735E+03  0.7546771E-02  0.1250215E+00
         21   -1    0    0  501  502  0.00000000000E+00  0.00000000000E+00  0.86375909201E+02  0.86375909201E+02  0.00000000000E+00 0. -1.
          1   -1    0    0  502    0 -0.00000000000E+00 -0.00000000000E+00 -0.24786908854E+03  0.24786908854E+03  0.00000000000E+00 0. -1.
         23    2    1    2    0    0 -0.18879027855E+02 -0.31792265590E+02 -0.48175400215E+02  0.11175604305E+03  0.93815660351E+02 0.  0.
         23    2    1    2    0    0  0.58333160062E+02  0.70987009114E+02 -0.75746659420E+02  0.15537378872E+03  0.99807538702E+02 0.  0.
        -11    1    3    3    0    0  0.24263476180E+02 -0.48189766753E+02 -0.32638723561E+02  0.63057562367E+02  0.00000000000E+00 0. -1.
         11    1    3    3    0    0 -0.43142504036E+02  0.16397501163E+02 -0.15536676655E+02  0.48698480678E+02  0.00000000000E+00 0.  1.
        -11    1    4    4    0    0  0.95322724155E+01  0.20429365150E+02  0.24280199027E+02  0.33132329267E+02  0.00000000000E+00 0. -1.
         11    1    4    4    0    0  0.48800887646E+02  0.50557643964E+02 -0.10002685845E+03  0.12224145945E+03  0.00000000000E+00 0.  1.
          1    1    1    2  501    0 -0.39454132207E+02 -0.39194743525E+02 -0.37571119702E+02  0.67115165975E+02  0.00000000000E+00 0. -1.
<scales pt_clust_5="13000.00000" pt_clust_6="13000.00000" pt_clust_7="13000.00000" pt_clust_8="13000.00000" pt_clust_9="55.61348"></scales>
<clustering>
<clus scale="   55.613">  1  9  2 -1</clus>
<clus scale="   93.816">  5  6 -1 -1</clus>
<clus scale="   99.808">  7  8 -1 -1</clus>
<clus scale="  112.009">  2  5  1 -1</clus>
<clus scale="   55.613">  1  5  2 -1</clus>
</clustering>
</event>
<event>
 9    1  0.1504846E-005  0.9378561E+02  0.7546771E-02  0.1300391E+00
         -3   -1    0    0    0  501 -0.00000000000E+00  0.00000000000E+00  0.36746499870E+02  0.36746499870E+02  0.00000000000E+00 0.  1.
         21   -1    0    0  501  502  0.00000000000E+00 -0.00000000000E+00 -0.64858063711E+03  0.64858063711E+03  0.00000000000E+00 0. -1.
         23    2    1    2    0    0  0.79350894745E+01  0.85910428183E+01 -0.50766157832E+02  0.95755541929E+02  0.80343944186E+02 0.  0.
         23    2    1    2    0    0 -0.69863819881E+02 -0.13287310133E+02 -0.30843939322E+03  0.32942082120E+03  0.91245340765E+02 0.  0.
        -11    1    3    3    0    0  0.15106445609E+02  0.40257547360E+02 -0.45952003990E+02  0.62932197555E+02  0.00000000000E+00 0. -1.
         11    1    3    3    0    0 -0.71713561344E+01 -0.31666504541E+02 -0.48141538419E+01  0.32823344374E+02  0.00000000000E+00 0.  1.
        -11    1    4    4    0    0  0.20256466871E+02 -0.44580179858E+01 -0.28840170158E+02  0.35523988926E+02  0.00000000000E+00 0.  1.
         11    1    4    4    0    0 -0.90120286752E+02 -0.88292921468E+01 -0.27959922306E+03  0.29389683227E+03  0.00000000000E+00 0. -1.
         -3    1    1    2    0  502  0.61928730407E+02  0.46962673143E+01 -0.25262858618E+03  0.26015077385E+03  0.00000000000E+00 0.  1.
<scales pt_clust_5="13000.00000" pt_clust_6="13000.00000" pt_clust_7="13000.00000" pt_clust_8="13000.00000" pt_clust_9="62.10654"></scales>
<clustering>
<clus scale="   62.107">  2  9  1 -1</clus>
<clus scale="   80.344">  5  6 -1 -1</clus>
<clus scale="   83.218">  1  5  2 -1</clus>
<clus scale="   91.245">  7  8 -1 -1</clus>
<clus scale="   62.107">  2  5  1 -1</clus>
</clustering>
</event>
<event>
 9    1  0.1504846E-005  0.1079585E+03  0.7546771E-02  0.1265317E+00
          1   -1    0    0  502    0 -0.00000000000E+00  0.00000000000E+00  0.97797110614E+03  0.97797110614E+03  0.00000000000E+00 0. -1.
         21   -1    0    0  501  502  0.00000000000E+00 -0.00000000000E+00 -0.27105030283E+02  0.27105030283E+02  0.00000000000E+00 0. -1.
         23    2    1    2    0    0  0.41269500167E+02 -0.91879142225E+01  0.49193293864E+03  0.50262796570E+03  0.94070539350E+02 0.  0.
         23    2    1    2    0    0 -0.66136632003E+02  0.91903005066E+01  0.46346099417E+03  0.47717217935E+03  0.91862287766E+02 0.  0.
        -11    1    4    4    0    0 -0.28493407907E+02  0.46490539216E+02  0.15789944095E+03  0.16704932800E+03  0.00000000000E+00 0.  1.
         11    1    4    4    0    0 -0.37643224095E+02 -0.37300238709E+02  0.30556155322E+03  0.31012285136E+03  0.00000000000E+00 0. -1.
        -13    1    3    3    0    0 -0.29197733052E+02 -0.77473998690E+01  0.10211540267E+03  0.10648983653E+03  0.00000000000E+00 0. -1.
         13    1    3    3    0    0  0.70467233219E+02 -0.14405143535E+01  0.38981753596E+03  0.39613812917E+03  0.00000000000E+00 0.  1.
          1    1    1    2  501    0  0.24867131835E+02 -0.23862840384E-02 -0.45278569491E+01  0.25275991374E+02  0.00000000000E+00 0. -1.
<scales pt_clust_5="13000.00000" pt_clust_6="13000.00000" pt_clust_7="13000.00000" pt_clust_8="13000.00000" pt_clust_9="24.86713"></scales>
<clustering>
<clus scale="   24.867">  2  9  1 -1</clus>
<clus scale="   91.862">  5  6 -1 -1</clus>
<clus scale="   94.071">  7  8 -1 -1</clus>
<clus scale="  106.040">  2  5  1 -1</clus>
<clus scale="   24.867">  2  5  1 -1</clus>
</clustering>
</event>
<event>
 9    1  0.1504846E-005  0.1029765E+03  0.7546771E-02  0.1277122E+00
         21   -1    0    0  501  502  0.00000000000E+00  0.00000000000E+00  0.69960446328E+02  0.69960446328E+02  0.00000000000E+00 0. -1.
         -3   -1    0    0    0  501 -0.00000000000E+00 -0.00000000000E+00 -0.33097611718E+03  0.33097611718E+03  0.00000000000E+00 0.  1.
         23    2    1    2    0    0 -0.20760889163E+02  0.14847191413E+02 -0.15963340303E+03  0.18826823077E+03  0.96491708149E+02 0.  0.
         23    2    1    2    0    0  0.76668386503E+02  0.17265732180E+02 -0.48302753638E+02  0.12915592081E+03  0.90398832264E+02 0.  0.
        -13    1    4    4    0    0  0.43673173889E+02 -0.22439329978E+02 -0.58664555401E+02  0.76500978476E+02  0.00000000000E+00 0.  1.
         13    1    4    4    0    0  0.32995212615E+02  0.39705062158E+02  0.10361801763E+02  0.52654942334E+02  0.00000000000E+00 0. -1.
        -13    1    3    3    0    0 -0.34212579715E+02  0.49942037508E+02 -0.11464272441E+03  0.12964436733E+03  0.00000000000E+00 0.  1.
         13    1    3    3    0    0  0.13451690552E+02 -0.35094846096E+02 -0.44990678623E+02  0.58623863436E+02  0.00000000000E+00 0. -1.
         -3    1    1    2    0  502 -0.55907497341E+02 -0.32112923592E+02 -0.53079514189E+02  0.83512411934E+02  0.00000000000E+00 0.  1.
<scales pt_clust_5="13000.00000" pt_clust_6="13000.00000" pt_clust_7="13000.00000" pt_clust_8="13000.00000" pt_clust_9="64.47393"></scales>
<clustering>
<clus scale="   64.474">  1  9  2 -1</clus>
<clus scale="   90.399">  5  6 -1 -1</clus>
<clus scale="   96.492">  7  8 -1 -1</clus>
<clus scale="   97.291">  1  5  2 -1</clus>
<clus scale="   64.474">  1  5  2 -1</clus>
</clustering>
</event>
<event>
 9    1  0.1504846E-005  0.9631345E+02  0.7546771E-02  0.1290044E+00
          3   -1    0    0  502    0 -0.00000000000E+00  0.00000000000E+00  0.31468091867E+03  0.31468091867E+03  0.00000000000E+00 0. -1.
         21   -1    0    0  501  502  0.00000000000E+00 -0.00000000000E+00 -0.97802858073E+02  0.97802858073E+02  0.00000000000E+00 0. -1.
         23    2    1    2    0    0  0.77249493192E+01 -0.43946880738E+02  0.19043369449E+03  0.21553382950E+03  0.90547426747E+02 0.  0.
         23    2    1    2    0    0 -0.11140127528E+02  0.13478013951E+02  0.89936354897E+02  0.12644287011E+03  0.87140645899E+02 0.  0.
        -13    1    3    3    0    0 -0.35914461963E+02 -0.40509013780E+02  0.13077761530E+03  0.14154014780E+03  0.00000000000E+00 0.  1.
         13    1    3    3    0    0  0.43639411283E+02 -0.34378669572E+01  0.59656079190E+02  0.73993681694E+02  0.00000000000E+00 0. -1.
        -13    1    4    4    0    0 -0.26240386150E+02  0.42509083324E+02  0.30322704022E+02  0.58438398417E+02  0.00000000000E+00 0.  1.
         13    1    4    4    0    0  0.15100258622E+02 -0.29031069373E+02  0.59613650876E+02  0.68004471692E+02  0.00000000000E+00 0. -1.
          3    1    1    2  501    0  0.34151782092E+01  0.30468866786E+02 -0.63491988794E+02  0.70507077137E+02  0.00000000000E+00 0. -1.
<scales pt_clust_5="13000.00000" pt_clust_6="13000.00000" pt_clust_7="13000.00000" pt_clust_8="13000.00000" pt_clust_9="30.65967"></scales>
<clustering>
<clus scale="   30.660">  2  9  1 -1</clus>
<clus scale="   87.141">  7  8 -1 -1</clus>
<clus scale="   90.547">  5  6 -1 -1</clus>
<clus scale="   93.118">  2  7  1 -1</clus>
<clus scale="   30.660">  2  5  1 -1</clus>
</clustering>
</event>
<event>
 9    1  0.1504846E-005  0.1102785E+03  0.7546771E-02  0.1261159E+00
          1   -1    0    0  502    0 -0.00000000000E+00  0.00000000000E+00  0.43593173127E+03  0.43593173127E+03  0.00000000000E+00 0. -1.
         21   -1    0    0  501  502  0.00000000000E+00 -0.00000000000E+00 -0.10989425210E+03  0.10989425210E+03  0.00000000000E+00 0.  1.
         23    2    1    2    0    0 -0.13495803834E+02  0.46090116542E+02  0.22362675219E+03  0.24604742910E+03  0.90686148378E+02 0.  0.
         23    2    1    2    0    0  0.46550311540E+02 -0.78501483843E+02  0.17358683853E+03  0.21487192282E+03  0.87796003524E+02 0.  0.
        -11    1    3    3    0    0 -0.46989253215E+02  0.36998534046E+02  0.18346940707E+03  0.19297125374E+03  0.00000000000E+00 0. -1.
         11    1    3    3    0    0  0.33493449381E+02  0.90915824960E+01  0.40157345117E+02  0.53076175358E+02  0.00000000000E+00 0.  1.
        -11    1    4    4    0    0 -0.20074598965E+02 -0.71355534651E+01  0.82215375667E+01  0.22836359754E+02  0.00000000000E+00 0. -1.
         11    1    4    4    0    0  0.66624910505E+02 -0.71365930378E+02  0.16536530096E+03  0.19203556306E+03  0.00000000000E+00 0.  1.
          1    1    1    2  501    0 -0.33054507706E+02  0.32411367301E+02 -0.71176111547E+02  0.84906631454E+02  0.00000000000E+00 0. -1.
<scales pt_clust_5="13000.00000" pt_clust_6="13000.00000" pt_clust_7="13000.00000" pt_clust_8="13000.00000" pt_clust_9="46.29360"></scales>
<clustering>
<clus scale="   46.294">  2  9  1 -1</clus>
<clus scale="   87.796">  7  8 -1 -1</clus>
<clus scale="   90.686">  5  6 -1 -1</clus>
<clus scale="  107.914">  2  7  1 -1</clus>
<clus scale="   46.294">  2  5  1 -1</clus>
</clustering>
</event>
<event>
 9    1  0.1504846E-005  0.3195817E+03  0.7546771E-02  0.1076031E+00
          2   -1    0    0  502    0 -0.00000000000E+00  0.00000000000E+00  0.20305542152E+04  0.20305542152E+04  0.00000000000E+00 0. -1.
         21   -1    0    0  501  502  0.00000000000E+00 -0.00000000000E+00 -0.58868377731E+02  0.58868377731E+02  0.00000000000E+00 0. -1.
         23    2    1    2    0    0  0.19405036122E+03 -0.25561967475E+03  0.11305982142E+04  0.11785909299E+04  0.88472014684E+02 0.  0.
         23    2    1    2    0    0 -0.18285578582E+03  0.22212373972E+03  0.80629794055E+03  0.86125729255E+03  0.94194272008E+02 0.  0.
        -11    1    4    4    0    0 -0.69478723159E+02  0.22474253800E+02  0.18457528342E+03  0.19849539115E+03  0.00000000000E+00 0.  1.
         11    1    4    4    0    0 -0.11337706266E+03  0.19964948592E+03  0.62172265713E+03  0.66276190140E+03  0.00000000000E+00 0. -1.
        -13    1    3    3    0    0  0.11383822773E+02 -0.75545949992E+02  0.25808867091E+03  0.26915895682E+03  0.00000000000E+00 0.  1.
         13    1    3    3    0    0  0.18266653845E+03 -0.18007372476E+03  0.87250954328E+03  0.90943197312E+03  0.00000000000E+00 0. -1.
          2    1    1    2  501    0 -0.11194575407E+02  0.33495935027E+02  0.34789682764E+02  0.49574370482E+02  0.00000000000E+00 0. -1.
<scales pt_clust_5="13000.00000" pt_clust_6="13000.00000" pt_clust_7="13000.00000" pt_clust_8="13000.00000" pt_clust_9="35.31708"></scales>
<clustering>
<clus scale="   35.317">  2  9  1 -1</clus>
<clus scale="   88.472">  7  8 -1 -1</clus>
<clus scale="   94.194">  5  6 -1 -1</clus>
<clus scale="  317.942">  1  7  2 -1</clus>
<clus scale="   35.317">  2  5  1 -1</clus>
</clustering>
</event>
<event>
 9    1  0.1504846E-005  0.9898010E+02  0.7546771E-02  0.1285598E+00
          1   -1    0    0  502    0 -0.00000000000E+00  0.00000000000E+00  0.28689574092E+03  0.28689574092E+03  0.00000000000E+00 0. -1.
         21   -1    0    0  501  502  0.00000000000E+00 -0.00000000000E+00 -0.77508402599E+02  0.77508402599E+02  0.00000000000E+00 0.  1.
         23    2    1    2    0    0  0.19714505830E+02  0.13309793313E+02  0.22287679475E+03  0.24187664887E+03  0.90908939552E+02 0.  0.
         23    2    1    2    0    0 -0.10691829313E+02  0.72403439073E+01 -0.27696286900E+01  0.97655190005E+02  0.96758087506E+02 0.  0.
        -11    1    4    4    0    0  0.89734133998E+01  0.39783757331E+02 -0.30219057169E+02  0.50758850574E+02  0.00000000000E+00 0.  1.
         11    1    4    4    0    0 -0.19665242713E+02 -0.32543413424E+02  0.27449428479E+02  0.46896339431E+02  0.00000000000E+00 0. -1.
        -13    1    3    3    0    0  0.49857674550E+02 -0.89954952236E+01  0.16753130589E+03  0.17502412719E+03  0.00000000000E+00 0. -1.
         13    1    3    3    0    0 -0.30143168720E+02  0.22305288537E+02  0.55345488867E+02  0.66852521681E+02  0.00000000000E+00 0.  1.
          1    1    1    2  501    0 -0.90226765174E+01 -0.20550137221E+02 -0.10719827745E+02  0.24872304642E+02  0.00000000000E+00 0. -1.
<scales pt_clust_5="13000.00000" pt_clust_6="13000.00000" pt_clust_7="13000.00000" pt_clust_8="13000.00000" pt_clust_9="22.44364"></scales>
<clustering>
<clus scale="   22.444">  2  9  1 -1</clus>
<clus scale="   90.909">  7  8 -1 -1</clus>
<clus scale="   93.270">  1  7  2 -1</clus>
<clus scale="   96.758">  5  6 -1 -1</clus>
<clus scale="   22.444">  2  5  1 -1</clus>
</clustering>
</event>
<event>
 9    1  0.1504846E-005  0.1128086E+03  0.7546771E-02  0.1255915E+00
         21   -1    0    0  501  502  0.00000000000E+00  0.00000000000E+00  0.23041113228E+03  0.23041113228E+03  0.00000000000E+00 0. -1.
          2   -1    0    0  502    0 -0.00000000000E+00 -0.00000000000E+00 -0.36083295626E+03  0.36083295626E+03  0.00000000000E+00 0. -1.
         23    2    1    2    0    0  0.38922435146E+02  0.70915123038E+01 -0.14868823966E+03  0.17969370683E+03  0.92824512683E+02 0.  0.
         23    2    1    2    0    0 -0.91096150562E+02 -0.67527394639E+02 -0.15986852500E+03  0.21634113617E+03  0.91581025535E+02 0.  0.
        -11    1    4    4    0    0 -0.69138905784E+02 -0.87024000080E+02 -0.14698087962E+03  0.18427355713E+03  0.00000000000E+00 0. -1.
         11    1    4    4    0    0 -0.21957244778E+02  0.19496605441E+02 -0.12887645384E+02  0.32067579040E+02  0.00000000000E+00 0.  1.
        -11    1    3    3    0    0  0.37180429416E+02  0.41290883201E+02 -0.48287685286E+02  0.73614006258E+02  0.00000000000E+00 0.  1.
         11    1    3    3    0    0  0.17420057296E+01 -0.34199370897E+02 -0.10040055438E+03  0.10607970057E+03  0.00000000000E+00 0. -1.
          2    1    1    2  501    0  0.52173715416E+02  0.60435882336E+02  0.17813494068E+03  0.19520924554E+03  0.00000000000E+00 0. -1.
<scales pt_clust_5="13000.00000" pt_clust_6="13000.00000" pt_clust_7="13000.00000" pt_clust_8="13000.00000" pt_clust_9="79.84104"></scales>
<clustering>
<clus scale="   79.841">  1  9  2 -1</clus>
<clus scale="   91.581">  5  6 -1 -1</clus>
<clus scale="   92.825">  7  8 -1 -1</clus>
<clus scale="  111.788">  1  5  2 -1</clus>
<clus scale="   79.841">  1  5  2 -1</clus>
</clustering>
</event>
<event>
 9    1  0.1504846E-005  0.1829392E+03  0.7546771E-02  0.1165352E+00
         21   -1    0    0  501  502  0.00000000000E+00  0.00000000000E+00  0.11887084973E+03  0.11887084973E+03  0.00000000000E+00 0.  1.
         -3   -1    0    0    0  501 -0.00000000000E+00 -0.00000000000E+00 -0.43215068262E+03  0.43215068262E+03  0.00000000000E+00 0.  1.
         23    2    1    2    0    0 -0.15624583846E+03 -0.45418665994E+02 -0.14676567292E+03  0.23748552380E+03  0.91561968151E+02 0.  0.
         23    2    1    2    0    0  0.16028471204E+03 -0.32990808849E+02 -0.12998237668E+03  0.22693964929E+03  0.88468094769E+02 0.  0.
        -11    1    4    4    0    0  0.14313813366E+03 -0.47767718594E+02 -0.13640317966E+03  0.20341117882E+03  0.00000000000E+00 0.  1.
         11    1    4    4    0    0  0.17146578374E+02  0.14776909745E+02  0.64208029854E+01  0.23528470467E+02  0.00000000000E+00 0. -1.
        -13    1    3    3    0    0 -0.13315766825E+03 -0.43102966161E+02 -0.15852768545E+03  0.21147070095E+03  0.00000000000E+00 0.  1.
         13    1    3    3    0    0 -0.23088170213E+02 -0.23156998330E+01  0.11762012530E+02  0.26014822857E+02  0.00000000000E+00 0. -1.
         -3    1    1    2    0  502 -0.40388735749E+01  0.78409474843E+02 -0.36531783306E+02  0.86596359256E+02  0.00000000000E+00 0.  1.
<scales pt_clust_5="13000.00000" pt_clust_6="13000.00000" pt_clust_7="13000.00000" pt_clust_8="13000.00000" pt_clust_9="78.51343"></scales>
<clustering>
<clus scale="   78.513">  1  9  2 -1</clus>
<clus scale="   88.468">  5  6 -1 -1</clus>
<clus scale="   91.562">  7  8 -1 -1</clus>
<clus scale="  181.410">  1  5  2 -1</clus>
<clus scale="   78.513">  1  5  2 -1</clus>
</clustering>
</event>
<event>
 9    1  0.1504846E-005  0.1070914E+03  0.7546771E-02  0.1266768E+00
         -2   -1    0    0    0  501 -0.00000000000E+00  0.00000000000E+00  0.17638216192E+03  0.17638216192E+03  0.00000000000E+00 0.  1.
         21   -1    0    0  501  502  0.00000000000E+00 -0.00000000000E+00 -0.90713563086E+02  0.90713563086E+02  0.00000000000E+00 0. -1.
         23    2    1    2    0    0  0.38583661545E+02 -0.43891961054E+02  0.73361210638E+02  0.13063685820E+03  0.90933592860E+02 0.  0.
         23    2    1    2    0    0 -0.54714550500E+02  0.19407794166E+02  0.68683587546E+01  0.10663835293E+03  0.89186430876E+02 0.  0.
        -11    1    3    3    0    0 -0.50780650227E+01 -0.46926696605E+02  0.72925180918E+02  0.86867621187E+02  0.00000000000E+00 0.  1.
         11    1    3    3    0    0  0.43661726567E+02  0.30347355511E+01  0.43602971965E+00  0.43769237012E+02  0.00000000000E+00 0. -1.
        -13    1    4    4    0    0 -0.32309881796E+02  0.35596160644E+02 -0.32867027379E+02  0.58234496675E+02  0.00000000000E+00 0. -1.
         13    1    4    4    0    0 -0.22404668704E+02 -0.16188366478E+02  0.39735386134E+02  0.48403856253E+02  0.00000000000E+00 0.  1.
         -2    1    1    2    0  502  0.16130888955E+02  0.24484166888E+02  0.54390294396E+01  0.29820513878E+02  0.00000000000E+00 0.  1.
<scales pt_clust_5="13000.00000" pt_clust_6="13000.00000" pt_clust_7="13000.00000" pt_clust_8="13000.00000" pt_clust_9="29.32030"></scales>
<clustering>
<clus scale="   29.320">  2  9  1 -1</clus>
<clus scale="   89.186">  7  8 -1 -1</clus>
<clus scale="   90.934">  5  6 -1 -1</clus>
<clus scale="  105.612">  2  7  1 -1</clus>
<clus scale="   29.320">  2  5  1 -1</clus>
</clustering>
</event>
<event>
 9    1  0.1504846E-005  0.9509298E+02  0.7546771E-02  0.1292410E+00
         -3   -1    0    0    0  501 -0.00000000000E+00  0.00000000000E+00  0.10316869302E+03  0.10316869302E+03  0.00000000000E+00 0.  1.
         21   -1    0    0  501  502  0.00000000000E+00 -0.00000000000E+00 -0.15080086956E+03  0.15080086956E+03  0.00000000000E+00 0. -1.
         23    2    1    2    0    0  0.18292143905E+02  0.22248118009E+02  0.39601078105E+02  0.10198364988E+03  0.89458583555E+02 0.  0.
         23    2    1    2    0    0 -0.24288823417E+01 -0.58997320003E+01 -0.90155294142E+02  0.12901960896E+03  0.92072667648E+02 0.  0.
        -11    1    3    3    0    0  0.21162542346E+02  0.55345386695E+02  0.33933658883E+02  0.68282195572E+02  0.00000000000E+00 0.  1.
         11    1    3    3    0    0 -0.28703984419E+01 -0.33097268686E+02  0.56674192220E+01  0.33701454306E+02  0.00000000000E+00 0. -1.
        -11    1    4    4    0    0  0.33835624018E+02  0.19360330534E+02 -0.70693360255E+02  0.80729319552E+02  0.00000000000E+00 0. -1.
         11    1    4    4    0    0 -0.36264506359E+02 -0.25260062535E+02 -0.19461933886E+02  0.48290289410E+02  0.00000000000E+00 0.  1.
         -3    1    1    2    0  502 -0.15863261563E+02 -0.16348386009E+02  0.29220395017E+01  0.22966303737E+02  0.00000000000E+00 0.  1.
<scales pt_clust_5="13000.00000" pt_clust_6="13000.00000" pt_clust_7="13000.00000" pt_clust_8="13000.00000" pt_clust_9="22.77967"></scales>
<clustering>
<clus scale="   22.780">  2  9  1 -1</clus>
<clus scale="   89.459">  5  6 -1 -1</clus>
<clus scale="   92.073">  7  8 -1 -1</clus>
<clus scale="   92.564">  1  5  2 -1</clus>
<clus scale="   22.780">  2  5  1 -1</clus>
</clustering>
</event>
<event>
 9    1  0.1504846E-005  0.2058393E+03  0.7546771E-02  0.1145286E+00
         21   -1    0    0  501  502  0.00000000000E+00  0.00000000000E+00  0.67053314611E+02  0.67053314611E+02  0.00000000000E+00 0. -1.
          1   -1    0    0  502    0 -0.00000000000E+00 -0.00000000000E+00 -0.10978541627E+04  0.10978541627E+04  0.00000000000E+00 0. -1.
         23    2    1    2    0    0 -0.18157129029E+03 -0.19511867623E+02 -0.78336029694E+03  0.80968469227E+03  0.92666604758E+02 0.  0.
         23    2    1    2    0    0  0.19002010471E+03 -0.22889327401E+02 -0.21538727135E+03  0.30140218909E+03  0.88430998099E+02 0.  0.
        -11    1    4    4    0    0  0.63284786886E+02  0.18019544165E+02 -0.27994399556E+02  0.71507724265E+02  0.00000000000E+00 0.  1.
         11    1    4    4    0    0  0.12673531782E+03 -0.40908871566E+02 -0.18739287180E+03  0.22989446482E+03  0.00000000000E+00 0. -1.
        -13    1    3    3    0    0 -0.14323578968E+03  0.19049814309E+02 -0.64579020981E+03  0.66175855262E+03  0.00000000000E+00 0.  1.
         13    1    3    3    0    0 -0.38335500608E+02 -0.38561681933E+02 -0.13757008713E+03  0.14792613965E+03  0.00000000000E+00 0. -1.
          1    1    1    2  501    0 -0.84488144145E+01  0.42401195024E+02 -0.32053279829E+02  0.53820595986E+02  0.00000000000E+00 0. -1.
<scales pt_clust_5="13000.00000" pt_clust_6="13000.00000" pt_clust_7="13000.00000" pt_clust_8="13000.00000" pt_clust_9="43.23475"></scales>
<clustering>
<clus scale="   43.235">  1  9  2 -1</clus>
<clus scale="   88.431">  5  6 -1 -1</clus>
<clus scale="   92.667">  7  8 -1 -1</clus>
<clus scale="  203.968">  1  5  2 -1</clus>
<clus scale="   43.235">  1  5  2 -1</clus>
</clustering>
</event>
<event>
 9    1  0.1504846E-005  0.9544173E+02  0.7546771E-02  0.1291021E+00
         21   -1    0    0  501  502  0.00000000000E+00  0.00000000000E+00  0.54299393571E+02  0.54299393571E+02  0.00000000000E+00 0. -1.
          2   -1    0    0  502    0 -0.00000000000E+00 -0.00000000000E+00 -0.34204976952E+03  0.34204976952E+03  0.00000000000E+00 0. -1.
         23    2    1    2    0    0 -0.27512496528E+02 -0.81902760537E+01 -0.22892954531E+03  0.24833307471E+03  0.91850754996E+02 0.  0.
         23    2    1    2    0    0 -0.12828424398E+02  0.11771904655E+02 -0.46044867099E+02  0.10554912229E+03  0.93366702938E+02 0.  0.
        -11    1    3    3    0    0 -0.57576572267E+02  0.57700079599E+01 -0.18125552573E+03  0.19026802221E+03  0.00000000000E+00 0. -1.
         11    1    3    3    0    0  0.30064075740E+02 -0.13960284014E+02 -0.47674019577E+02  0.58065052506E+02  0.00000000000E+00 0.  1.
        -13    1    4    4    0    0  0.39861299301E+02  0.71792717351E+01 -0.10553394199E+02  0.41854978840E+02  0.00000000000E+00 0.  1.
         13    1    4    4    0    0 -0.52689723699E+02  0.45926329199E+01 -0.35491472900E+02  0.63694143446E+02  0.00000000000E+00 0. -1.
          2    1    1    2  501    0  0.40340920926E+02 -0.35816286013E+01 -0.12775963537E+02  0.42466966090E+02  0.00000000000E+00 0. -1.
<scales pt_clust_5="13000.00000" pt_clust_6="13000.00000" pt_clust_7="13000.00000" pt_clust_8="13000.00000" pt_clust_9="40.49960"></scales>
<clustering>
<clus scale="   40.500">  1  9  2 -1</clus>
<clus scale="   91.851">  5  6 -1 -1</clus>
<clus scale="   93.367">  7  8 -1 -1</clus>
<clus scale="   93.959">  2  5  1 -1</clus>
<clus scale="   40.500">  1  5  2 -1</clus>
</clustering>
</event>
<event>
 9    1  0.1504846E-005  0.9397547E+02  0.7546771E-02  0.1294746E+00
         21   -1    0    0  501  502  0.00000000000E+00  0.00000000000E+00  0.36959410776E+02  0.36959410776E+02  0.00000000000E+00 0.  1.
          1   -1    0    0  502    0 -0.00000000000E+00 -0.00000000000E+00 -0.38497414719E+03  0.38497414719E+03  0.00000000000E+00 0. -1.
         23    2    1    2    0    0 -0.24293669931E+02  0.13190962089E+02 -0.19048907248E+03  0.21324276658E+03  0.91772582426E+02 0.  0.
         23    2    1    2    0    0 -0.79300013843E+01 -0.18771887349E+02 -0.70708340358E+02  0.11591816939E+03  0.89566086892E+02 0.  0.
        -11    1    3    3    0    0  0.26538376280E+02 -0.19098369551E+02 -0.93784785370E+02  0.99320788872E+02  0.00000000000E+00 0.  1.
         11    1    3    3    0    0 -0.50832046211E+02  0.32289331640E+02 -0.96704287114E+02  0.11392197771E+03  0.00000000000E+00 0. -1.
        -13    1    4    4    0    0 -0.36321825280E+02 -0.24804111174E+02 -0.52276741963E+01  0.44292747717E+02  0.00000000000E+00 0.  1.
         13    1    4    4    0    0  0.28391823896E+02  0.60322238246E+01 -0.65480666161E+02  0.71625421669E+02  0.00000000000E+00 0. -1.
          1    1    1    2  501    0  0.32223671315E+02  0.55809252601E+01 -0.86817323575E+02  0.92772621999E+02  0.00000000000E+00 0. -1.
<scales pt_clust_5="13000.00000" pt_clust_6="13000.00000" pt_clust_7="13000.00000" pt_clust_8="13000.00000" pt_clust_9="32.70341"></scales>
<clustering>
<clus scale="   32.703">  1  9  2 -1</clus>
<clus scale="   89.566">  7  8 -1 -1</clus>
<clus scale="   91.773">  5  6 -1 -1</clus>
<clus scale="   91.822">  1  7  2 -1</clus>
<clus scale="   32.703">  1  5  2 -1</clus>
</clustering>
</event>
<event>
 9    1  0.1504846E-005  0.1304338E+03  0.7546771E-02  0.1227194E+00
          2   -1    0    0  502    0 -0.00000000000E+00  0.00000000000E+00  0.27751056426E+03  0.27751056426E+03  0.00000000000E+00 0. -1.
         21   -1    0    0  501  502  0.00000000000E+00 -0.00000000000E+00 -0.11886343764E+03  0.11886343764E+03  0.00000000000E+00 0. -1.
         23    2    1    2    0    0 -0.82800958938E+02  0.76705264045E+02  0.15787209446E+03  0.21542640097E+03  0.93515986301E+02 0.  0.
         23    2    1    2    0    0  0.17711040878E+02 -0.41107159090E+02 -0.12106350335E+02  0.10564917781E+03  0.94930003455E+02 0.  0.
        -11    1    4    4    0    0  0.41249898654E+02 -0.56753342271E+02  0.84958545727E+01  0.70673018492E+02  0.00000000000E+00 0.  1.
         11    1    4    4    0    0 -0.23538857776E+02  0.15646183181E+02 -0.20602204908E+02  0.34976159317E+02  0.00000000000E+00 0. -1.
        -13    1    3    3    0    0 -0.24802831043E+02 -0.11917655055E+02  0.28322579964E+01  0.27662838161E+02  0.00000000000E+00 0.  1.
         13    1    3    3    0    0 -0.57998127896E+02  0.88622919101E+02  0.15503983647E+03  0.18776356281E+03  0.00000000000E+00 0. -1.
          2    1    1    2  501    0  0.65089918060E+02 -0.35598104956E+02  0.12881382497E+02  0.75298423121E+02  0.00000000000E+00 0. -1.
<scales pt_clust_5="13000.00000" pt_clust_6="13000.00000" pt_clust_7="13000.00000" pt_clust_8="13000.00000" pt_clust_9="74.18843"></scales>
<clustering>
<clus scale="   74.188">  2  9  1 -1</clus>
<clus scale="   93.516">  7  8 -1 -1</clus>
<clus scale="   94.930">  5  6 -1 -1</clus>
<clus scale="  129.408">  1  7  2 -1</clus>
<clus scale="   74.188">  2  5  1 -1</clus>
</clustering>
</event>
<event>
 9    1  0.1708188E-005  0.1234485E+03  0.7546771E-02  0.1237919E+00
         -4   -1    0    0    0  501 -0.00000000000E+00  0.00000000000E+00  0.91831728807E+02  0.91831728807E+02  0.00000000000E+00 0.  1.
         21   -1    0    0  501  502  0.00000000000E+00 -0.00000000000E+00 -0.50440049895E+03  0.50440049895E+03  0.00000000000E+00 0. -1.
         23    2    1    2    0    0 -0.70614579025E+02  0.61018737356E+02  0.13520439457E+02  0.13130686209E+03  0.91372778607E+02 0.  0.
         23    2    1    2    0    0  0.27364707011E+01 -0.63527596165E+02 -0.19411702580E+03  0.22321308625E+03  0.89996768951E+02 0.  0.
        -11    1    3    3    0    0 -0.47862965271E+02  0.80167631084E+02  0.29017249334E+02  0.97773786246E+02  0.00000000000E+00 0.  1.
         11    1    3    3    0    0 -0.22751613754E+02 -0.19148893727E+02 -0.15496809877E+02  0.33533075847E+02  0.00000000000E+00 0. -1.
        -13    1    4    4    0    0  0.32220730329E+02  0.65312402209E+01 -0.43743083169E+02  0.54720104960E+02  0.00000000000E+00 0.  1.
         13    1    4    4    0    0 -0.29484259628E+02 -0.70058836386E+02 -0.15037394263E+03  0.16849298129E+03  0.00000000000E+00 0. -1.
         -4    1    1    2    0  502  0.67878108323E+02  0.25088588091E+01 -0.23197218380E+03  0.24171227941E+03  0.00000000000E+00 0.  1.
<scales pt_clust_5="13000.00000" pt_clust_6="13000.00000" pt_clust_7="13000.00000" pt_clust_8="13000.00000" pt_clust_9="67.92446"></scales>
<clustering>
<clus scale="   67.924">  2  9  1 -1</clus>
<clus scale="   89.997">  7  8 -1 -1</clus>
<clus scale="   91.373">  5  6 -1 -1</clus>
<clus scale="  122.434">  2  7  1 -1</clus>
<clus scale="   67.924">  2  5  1 -1</clus>
</clustering>
</event>
<event>
 9    1  0.1504846E-005  0.1582662E+03  0.7546771E-02  0.1191105E+00
          3   -1    0    0  502    0 -0.00000000000E+00  0.00000000000E+00  0.51412565071E+02  0.51412565071E+02  0.00000000000E+00 0. -1.
         21   -1    0    0  501  502  0.00000000000E+00 -0.00000000000E+00 -0.67409795921E+03  0.67409795921E+03  0.00000000000E+00 0.  1.
         23    2    1    2    0    0 -0.12443695548E+03 -0.30903039947E+02 -0.21003371489E+03  0.26247442641E+03  0.91318724061E+02 0.  0.
         23    2    1    2    0    0  0.13297816782E+03 -0.34308861734E+01 -0.25119890527E+03  0.29775219358E+03  0.88659543620E+02 0.  0.
        -11    1    3    3    0    0 -0.64313913354E+02 -0.50680800289E+02 -0.66078540656E+02  0.10521975339E+03  0.00000000000E+00 0. -1.
         11    1    3    3    0    0 -0.60123042127E+02  0.19777760342E+02 -0.14395517423E+03  0.15725467302E+03  0.00000000000E+00 0.  1.
        -13    1    4    4    0    0  0.10196554774E+03 -0.11192655857E+02 -0.10016210273E+03  0.14336908765E+03  0.00000000000E+00 0. -1.
         13    1    4    4    0    0  0.31012620077E+02  0.77617696839E+01 -0.15103680255E+03  0.15438310593E+03  0.00000000000E+00 0.  1.
          3    1    1    2  501    0 -0.85412123392E+01  0.34333926121E+02 -0.16145277398E+03  0.16528390429E+03  0.00000000000E+00 0. -1.
<scales pt_clust_5="13000.00000" pt_clust_6="13000.00000" pt_clust_7="13000.00000" pt_clust_8="13000.00000" pt_clust_9="35.38037"></scales>
<clustering>
<clus scale="   35.380">  2  9  1 -1</clus>
<clus scale="   88.660">  7  8 -1 -1</clus>
<clus scale="   91.319">  5  6 -1 -1</clus>
<clus scale="  156.747">  2  7  1 -1</clus>
<clus scale="   35.380">  2  5  1 -1</clus>
</clustering>
</event>
<event>
 9    1  0.1504846E-005  0.1226848E+03  0.7546771E-02  0.1239463E+00
         21   -1    0    0  501  502  0.00000000000E+00  0.00000000000E+00  0.34559365706E+02  0.34559365706E+02  0.00000000000E+00 0. -1.
          1   -1    0    0  502    0 -0.00000000000E+00 -0.00000000000E+00 -0.71179950088E+03  0.71179950088E+03  0.00000000000E+00 0. -1.
         23    2    1    2    0    0  0.54406526094E+02 -0.12998471097E+02 -0.19288223708E+03  0.22109671701E+03  0.92472539493E+02 0.  0.
         23    2    1    2    0    0 -0.97774629961E+02  0.50603223975E+02 -0.29688503688E+03  0.32919842636E+03  0.90057283149E+02 0.  0.
        -11    1    3    3    0    0  0.35752623817E+02 -0.46846445583E+02 -0.15946260494E+03  0.17000341746E+03  0.00000000000E+00 0.  1.
         11    1    3    3    0    0  0.18653902277E+02  0.33847974486E+02 -0.33419632141E+02  0.51093299554E+02  0.00000000000E+00 0. -1.
        -13    1    4    4    0    0 -0.24320907421E+02 -0.15724762859E+02 -0.14535148737E+03  0.14820873654E+03  0.00000000000E+00 0.  1.
         13    1    4    4    0    0 -0.73453722540E+02  0.66327986834E+02 -0.15153354951E+03  0.18098968982E+03  0.00000000000E+00 0. -1.
          1    1    1    2  501    0  0.43368103867E+02 -0.37604752878E+02 -0.18747286121E+03  0.19606372322E+03  0.00000000000E+00 0. -1.
<scales pt_clust_5="13000.00000" pt_clust_6="13000.00000" pt_clust_7="13000.00000" pt_clust_8="13000.00000" pt_clust_9="57.40133"></scales>
<clustering>
<clus scale="   57.401">  1  9  2 -1</clus>
<clus scale="   90.057">  7  8 -1 -1</clus>
<clus scale="   92.473">  5  6 -1 -1</clus>
<clus scale="  120.875">  1  7  2 -1</clus>
<clus scale="   57.401">  1  5  2 -1</clus>
</clustering>
</event>
<event>
 9    1  0.1504846E-005  0.1003315E+03  0.7546771E-02  0.1280211E+00
         21   -1    0    0  501  502  0.00000000000E+00  0.00000000000E+00  0.12020363380E+03  0.12020363380E+03  0.00000000000E+00 0. -1.
          2   -1    0    0  502    0 -0.00000000000E+00 -0.00000000000E+00 -0.22733631771E+03  0.22733631771E+03  0.00000000000E+00 0. -1.
         23    2    1    2    0    0  0.32649622112E+02 -0.10765375896E+02 -0.82267586636E+02  0.12768199960E+03  0.91393906085E+02 0.  0.
         23    2    1    2    0    0 -0.57487875015E+02 -0.73949026648E+02 -0.10345456497E+02  0.13039126104E+03  0.90119577067E+02 0.  0.
        -11    1    3    3    0    0 -0.23941416793E+02 -0.22664208709E+02 -0.54111453133E+02  0.63363295011E+02  0.00000000000E+00 0.  1.
         11    1    3    3    0    0  0.56591038904E+02  0.11898832813E+02 -0.28156133503E+02  0.64318704592E+02  0.00000000000E+00 0. -1.
        -11    1    4    4    0    0 -0.26170053721E+02 -0.10198442111E+02  0.35940150709E+02  0.45613313476E+02  0.00000000000E+00 0.  1.
         11    1    4    4    0    0 -0.31317821294E+02 -0.63750584538E+02 -0.46285607206E+02  0.84777947569E+02  0.00000000000E+00 0. -1.
          2    1    1    2  501    0  0.24838252903E+02  0.84714402544E+02 -0.14519640777E+02  0.89466690863E+02  0.00000000000E+00 0. -1.
<scales pt_clust_5="13000.00000" pt_clust_6="13000.00000" pt_clust_7="13000.00000" pt_clust_8="13000.00000" pt_clust_9="88.28063"></scales>
<clustering>
<clus scale="   88.281">  1  9  2 -1</clus>
<clus scale="   90.120">  7  8 -1 -1</clus>
<clus scale="   91.394">  5  6 -1 -1</clus>
<clus scale="   99.172">  1  7  2 -1</clus>
<clus scale="   88.281">  1  5  2 -1</clus>
</clustering>
</event>
<event>
 9    1  0.1504846E-005  0.1749675E+03  0.7546771E-02  0.1173098E+00
         21   -1    0    0  501  502  0.00000000000E+00  0.00000000000E+00  0.11925996469E+03  0.11925996469E+03  0.00000000000E+00 0. -1.
          2   -1    0    0  502    0 -0.00000000000E+00 -0.00000000000E+00 -0.71912996708E+03  0.71912996708E+03  0.00000000000E+00 0. -1.
         23    2    1    2    0    0 -0.25718959560E+02 -0.12998724662E+03 -0.38361705897E+03  0.41605659588E+03  0.91558144765E+02 0.  0.
         23    2    1    2    0    0 -0.20865312122E+02  0.18564341729E+03 -0.26298455212E+03  0.33601099258E+03  0.94040804180E+02 0.  0.
        -11    1    4    4    0    0  0.71439173475E+01  0.15672191657E+03 -0.15404466234E+03  0.21986939915E+03  0.00000000000E+00 0.  1.
         11    1    4    4    0    0 -0.28009229469E+02  0.28921500719E+02 -0.10893988978E+03  0.11614159343E+03  0.00000000000E+00 0. -1.
        -13    1    3    3    0    0 -0.37287760890E+02 -0.75875053810E+02 -0.32343559956E+03  0.33430224045E+03  0.00000000000E+00 0.  1.
         13    1    3    3    0    0  0.11568801330E+02 -0.54112192813E+02 -0.60181459409E+02  0.81754355431E+02  0.00000000000E+00 0. -1.
          2    1    1    2  501    0  0.46584271681E+02 -0.55656170662E+02  0.46731608711E+02  0.86322343305E+02  0.00000000000E+00 0. -1.
<scales pt_clust_5="13000.00000" pt_clust_6="13000.00000" pt_clust_7="13000.00000" pt_clust_8="13000.00000" pt_clust_9="72.57895"></scales>
<clustering>
<clus scale="   72.579">  1  9  2 -1</clus>
<clus scale="   91.558">  7  8 -1 -1</clus>
<clus scale="   94.041">  5  6 -1 -1</clus>
<clus scale="  173.646">  2  7  1 -1</clus>
<clus scale="   72.579">  1  5  2 -1</clus>
</clustering>
</event>
<event>
 9    1  0.1504846E-005  0.1006370E+03  0.7546771E-02  0.1279875E+00
         21   -1    0    0  501  502  0.00000000000E+00  0.00000000000E+00  0.40528505318E+02  0.40528505318E+02  0.00000000000E+00 0.  1.
          1   -1    0    0  502    0 -0.00000000000E+00 -0.00000000000E+00 -0.50909404456E+03  0.50909404456E+03  0.00000000000E+00 0. -1.
         23    2    1    2    0    0  0.12974893422E+02 -0.34412816151E+02 -0.36486129151E+03  0.37793051207E+03  0.91406346285E+02 0.  0.
         23    2    1    2    0    0  0.14983580537E+02  0.47327540979E+02 -0.85415743695E+02  0.13587394512E+03  0.93281701691E+02 0.  0.
        -11    1    4    4    0    0  0.46711397566E+02  0.42051212493E+02 -0.25412968553E+02  0.67794381075E+02  0.00000000000E+00 0.  1.
         11    1    4    4    0    0 -0.31727817029E+02  0.52763284864E+01 -0.60002775142E+02  0.68079564044E+02  0.00000000000E+00 0. -1.
        -13    1    3    3    0    0  0.33093221474E+02  0.21173666621E+02 -0.15509723125E+03  0.15999573934E+03  0.00000000000E+00 0.  1.
         13    1    3    3    0    0 -0.20118328052E+02 -0.55586482772E+02 -0.20976406026E+03  0.21793477273E+03  0.00000000000E+00 0. -1.
          1    1    1    2  501    0 -0.27958473959E+02 -0.12914724828E+02 -0.18288504038E+02  0.35818092683E+02  0.00000000000E+00 0. -1.
<scales pt_clust_5="13000.00000" pt_clust_6="13000.00000" pt_clust_7="13000.00000" pt_clust_8="13000.00000" pt_clust_9="30.79718"></scales>
<clustering>
<clus scale="   30.797">  1  9  2 -1</clus>
<clus scale="   91.406">  7  8 -1 -1</clus>
<clus scale="   93.282">  5  6 -1 -1</clus>
<clus scale="   98.901">  2  7  1 -1</clus>
<clus scale="   30.797">  1  5  2 -1</clus>
</clustering>
</event>
<event>
 9    1  0.2820119E-005  0.1209216E+03  0.7546771E-02  0.1242929E+00
          2   -1    0    0  502    0 -0.00000000000E+00  0.00000000000E+00  0.63094250240E+03  0.63094250240E+03  0.00000000000E+00 0. -1.
         21   -1    0    0  501  502  0.00000000000E+00 -0.00000000000E+00 -0.25941597092E+03  0.25941597092E+03  0.00000000000E+00 0. -1.
         23    2    1    2    0    0  0.89218247547E+02  0.10951739717E+02  0.44890892279E+03  0.46702250135E+03  0.92254861702E+02 0.  0.
         23    2    1    2    0    0 -0.57807782091E+02  0.22013965761E+01  0.15560520208E+03  0.18787293665E+03  0.87958374219E+02 0.  0.
        -11    1    3    3    0    0  0.47427787143E+01 -0.26318610706E+02  0.42165260046E+02  0.49930675683E+02  0.00000000000E+00 0.  1.
         11    1    3    3    0    0  0.84475468833E+02  0.37270350422E+02  0.40674366274E+03  0.41709182567E+03  0.00000000000E+00 0. -1.
        -11    1    4    4    0    0 -0.77296230104E+02  0.17372042145E+02  0.10472719135E+03  0.13131747654E+03  0.00000000000E+00 0.  1.
         11    1    4    4    0    0  0.19488448013E+02 -0.15170645569E+02  0.50878010723E+02  0.56555460109E+02  0.00000000000E+00 0. -1.
          2    1    1    2  501    0 -0.31410465456E+02 -0.13153136293E+02 -0.23298759338E+03  0.23546303532E+03  0.00000000000E+00 0. -1.
<scales pt_clust_5="13000.00000" pt_clust_6="13000.00000" pt_clust_7="13000.00000" pt_clust_8="13000.00000" pt_clust_9="34.05323"></scales>
<clustering>
<clus scale="   34.053">  2  9  1 -1</clus>
<clus scale="   87.958">  7  8 -1 -1</clus>
<clus scale="   92.255">  5  6 -1 -1</clus>
<clus scale="  117.676">  2  7  1 -1</clus>
<clus scale="   34.053">  2  5  1 -1</clus>
</clustering>
</event>
<event>
 9    1  0.1504846E-005  0.1285035E+03  0.7546771E-02  0.1229719E+00
         -3   -1    0    0    0  501 -0.00000000000E+00  0.00000000000E+00  0.51712704002E+03  0.51712704002E+03  0.00000000000E+00 0.  1.
         21   -1    0    0  501  502  0.00000000000E+00 -0.00000000000E+00 -0.11090324561E+03  0.11090324561E+03  0.00000000000E+00 0.  1.
         23    2    1    2    0    0 -0.10676491679E+03 -0.66394191149E+01  0.39735031292E+03  0.42139382926E+03  0.90789089723E+02 0.  0.
         23    2    1    2    0    0  0.40456706432E+02  0.42224916702E+02  0.51965048770E+02  0.11991858295E+03  0.90886806294E+02 0.  0.
        -11    1    3    3    0    0 -0.63696881118E+02 -0.24538261361E+02  0.34322163488E+03  0.34994358057E+03  0.00000000000E+00 0.  1.
         11    1    3    3    0    0 -0.43068035673E+02  0.17898842246E+02  0.54128678046E+02  0.71450248688E+02  0.00000000000E+00 0. -1.
        -11    1    4    4    0    0  0.11001706445E+02  0.61392218911E+02  0.68700552982E+01  0.62747428213E+02  0.00000000000E+00 0.  1.
         11    1    4    4    0    0  0.29454999987E+02 -0.19167302209E+02  0.45094993471E+02  0.57171154741E+02  0.00000000000E+00 0. -1.
         -3    1    1    2    0  502  0.66308210359E+02 -0.35585497587E+02 -0.43091567278E+02  0.86717873417E+02  0.00000000000E+00 0.  1.
<scales pt_clust_5="13000.00000" pt_clust_6="13000.00000" pt_clust_7="13000.00000" pt_clust_8="13000.00000" pt_clust_9="75.25361"></scales>
<clustering>
<clus scale="   75.254">  2  9  1 -1</clus>
<clus scale="   90.789">  5  6 -1 -1</clus>
<clus scale="   90.887">  7  8 -1 -1</clus>
<clus scale="  128.434">  1  5  2 -1</clus>
<clus scale="   75.254">  2  5  1 -1</clus>
</clustering>
</event>
<event>
 9    1  0.1504846E-005  0.9890903E+02  0.7546771E-02  0.1286918E+00
          2   -1    0    0  502    0 -0.00000000000E+00  0.00000000000E+00  0.50449472459E+03  0.50449472459E+03  0.00000000000E+00 0. -1.
         21   -1    0    0  501  502  0.00000000000E+00 -0.00000000000E+00 -0.33227856447E+02  0.33227856447E+02  0.00000000000E+00 0. -1.
         23    2    1    2    0    0 -0.81241006561E+01 -0.40057023454E+01  0.34028742977E+03  0.35435868383E+03  0.98450471236E+02 0.  0.
         23    2    1    2    0    0  0.11250467512E+02 -0.26383342224E+02  0.81674777101E+02  0.12536201945E+03  0.90676418877E+02 0.  0.
        -13    1    4    4    0    0 -0.24286099551E+02  0.15975490367E+02  0.30311542034E+01  0.29227022080E+02  0.00000000000E+00 0.  1.
         13    1    4    4    0    0  0.35536567063E+02 -0.42358832591E+02  0.78643622897E+02  0.96134997371E+02  0.00000000000E+00 0. -1.
        -13    1    3    3    0    0 -0.42886156107E+02  0.28137782667E+02  0.16490881776E+03  0.17270169476E+03  0.00000000000E+00 0. -1.
         13    1    3    3    0    0  0.34762055451E+02 -0.32143485012E+02  0.17537861201E+03  0.18165698907E+03  0.00000000000E+00 0.  1.
          2    1    1    2  501    0 -0.31263668561E+01  0.30389044569E+02  0.49304661271E+02  0.58001877750E+02  0.00000000000E+00 0. -1.
<scales pt_clust_5="13000.00000" pt_clust_6="13000.00000" pt_clust_7="13000.00000" pt_clust_8="13000.00000" pt_clust_9="30.54944"></scales>
<clustering>
<clus scale="   30.549">  2  9  1 -1</clus>
<clus scale="   90.676">  5  6 -1 -1</clus>
<clus scale="   91.174">  2  5  1 -1</clus>
<clus scale="   98.450">  7  8 -1 -1</clus>
<clus scale="   30.549">  2  5  1 -1</clus>
</clustering>
</event>
<event>
 9    1  0.1504846E-005  0.1036605E+03  0.7546771E-02  0.1273911E+00
         21   -1    0    0  501  502  0.00000000000E+00  0.00000000000E+00  0.48425645125E+02  0.48425645125E+02  0.00000000000E+00 0.  1.
          2   -1    0    0  502    0 -0.00000000000E+00 -0.00000000000E+00 -0.48814567494E+03  0.48814567494E+03  0.00000000000E+00 0. -1.
         23    2    1    2    0    0 -0.25597582929E+02 -0.41460402496E+02 -0.31291181173E+03  0.32964166272E+03  0.91518427937E+02 0.  0.
         23    2    1    2    0    0  0.26893410302E+01  0.52822201140E+02 -0.14309404231E+03  0.17661289488E+03  0.88987595801E+02 0.  0.
        -11    1    3    3    0    0  0.39175445545E+01 -0.62234840358E+02 -0.24409195783E+03  0.25193135253E+03  0.00000000000E+00 0. -1.
         11    1    3    3    0    0 -0.29515127483E+02  0.20774437862E+02 -0.68819853906E+02  0.77710310195E+02  0.00000000000E+00 0.  1.
        -13    1    4    4    0    0 -0.18049461636E+02 -0.12815785045E+02 -0.55753599014E+01  0.22827878782E+02  0.00000000000E+00 0.  1.
         13    1    4    4    0    0  0.20738802666E+02  0.65637986185E+02 -0.13751868241E+03  0.15378501610E+03  0.00000000000E+00 0. -1.
          2    1    1    2  501    0  0.22908241899E+02 -0.11361798644E+02  0.16285824227E+02  0.30316762461E+02  0.00000000000E+00 0. -1.
<scales pt_clust_5="13000.00000" pt_clust_6="13000.00000" pt_clust_7="13000.00000" pt_clust_8="13000.00000" pt_clust_9="25.57104"></scales>
<clustering>
<clus scale="   25.571">  1  9  2 -1</clus>
<clus scale="   88.988">  7  8 -1 -1</clus>
<clus scale="   91.518">  5  6 -1 -1</clus>
<clus scale="  101.433">  1  7  2 -1</clus>
<clus scale="   25.571">  1  5  2 -1</clus>
</clustering>
</event>
<event>
 9    1  0.1504846E-005  0.1094432E+03  0.7546771E-02  0.1270644E+00
         21   -1    0    0  501  502  0.00000000000E+00  0.00000000000E+00  0.80966352332E+02  0.80966352332E+02  0.00000000000E+00 0.  1.
          3   -1    0    0  502    0 -0.00000000000E+00 -0.00000000000E+00 -0.23116706028E+03  0.23116706028E+03  0.00000000000E+00 0. -1.
         23    2    1    2    0    0  0.86934993169E+01 -0.39188313834E+01 -0.11374176460E+03  0.14611103506E+03  0.91215740860E+02 0.  0.
         23    2    1    2    0    0 -0.98983106191E+01 -0.21933115079E+02 -0.63664992167E+02  0.12847315921E+03  0.10896367890E+03 0.  0.
        -11    1    4    4    0    0  0.26563081836E+02  0.82967699114E+01  0.18653130175E+02  0.33501835367E+02  0.00000000000E+00 0.  1.
         11    1    4    4    0    0 -0.36461392455E+02 -0.30229884991E+02 -0.82318122342E+02  0.94971323842E+02  0.00000000000E+00 0. -1.
        -11    1    3    3    0    0 -0.27672087981E+02  0.16251590827E+02 -0.88690535530E+01  0.33294425488E+02  0.00000000000E+00 0. -1.
         11    1    3    3    0    0  0.36365587298E+02 -0.20170422210E+02 -0.10487271105E+03  0.11281660957E+03  0.00000000000E+00 0.  1.
          3    1    1    2  501    0  0.12048113022E+01  0.25851946463E+02  0.27206048820E+02  0.37549218348E+02  0.00000000000E+00 0. -1.
<scales pt_clust_5="13000.00000" pt_clust_6="13000.00000" pt_clust_7="13000.00000" pt_clust_8="13000.00000" pt_clust_9="25.88001"></scales>
<clustering>
<clus scale="   25.880">  1  9  2 -1</clus>
<clus scale="   91.216">  7  8 -1 -1</clus>
<clus scale="   91.788">  2  7  1 -1</clus>
<clus scale="  108.964">  5  6 -1 -1</clus>
<clus scale="   25.880">  1  5  2 -1</clus>
</clustering>
</event>
<event>
 9    1  0.1504846E-005  0.1121441E+03  0.7546771E-02  0.1256804E+00
          1   -1    0    0  502    0 -0.00000000000E+00  0.00000000000E+00  0.86903491027E+02  0.86903491027E+02  0.00000000000E+00 0. -1.
         21   -1    0    0  501  502  0.00000000000E+00 -0.00000000000E+00 -0.23397247108E+03  0.23397247108E+03  0.00000000000E+00 0. -1.
         23    2    1    2    0    0  0.57314181538E+02  0.19064673071E+02 -0.18320523275E+02  0.11060486634E+03  0.90826305228E+02 0.  0.
         23    2    1    2    0    0 -0.56320165628E+02 -0.50280338300E+02 -0.55797663789E+02  0.13091604538E+03  0.91244496699E+02 0.  0.
        -13    1    3    3    0    0  0.80338930596E+02  0.23124867717E+02 -0.51241803991E+01  0.83757748901E+02  0.00000000000E+00 0. -1.
         13    1    3    3    0    0 -0.23024749058E+02 -0.40601946460E+01 -0.13196342876E+02  0.26847117444E+02  0.00000000000E+00 0.  1.
        -13    1    4    4    0    0 -0.26456512011E+02 -0.74900073603E+02 -0.41776289285E+02  0.89750913087E+02  0.00000000000E+00 0. -1.
         13    1    4    4    0    0 -0.29863653617E+02  0.24619735303E+02 -0.14021374504E+02  0.41165132294E+02  0.00000000000E+00 0.  1.
          1    1    1    2  501    0 -0.99401591011E+00  0.31215665229E+02 -0.72950792994E+02  0.79355050386E+02  0.00000000000E+00 0. -1.
<scales pt_clust_5="13000.00000" pt_clust_6="13000.00000" pt_clust_7="13000.00000" pt_clust_8="13000.00000" pt_clust_9="31.23149"></scales>
<clustering>
<clus scale="   31.231">  2  9  1 -1</clus>
<clus scale="   90.826">  5  6 -1 -1</clus>
<clus scale="   91.244">  7  8 -1 -1</clus>
<clus scale="  111.804">  1  5  2 -1</clus>
<clus scale="   31.231">  2  5  1 -1</clus>
</clustering>
</event>
<event>
 9    1  0.1504846E-005  0.1487326E+03  0.7546771E-02  0.1203210E+00
          3   -1    0    0  502    0 -0.00000000000E+00  0.00000000000E+00  0.75416025348E+02  0.75416025348E+02  0.00000000000E+00 0. -1.
         21   -1    0    0  501  502  0.00000000000E+00 -0.00000000000E+00 -0.41750948200E+03  0.41750948200E+03  0.00000000000E+00 0.  1.
         23    2    1    2    0    0  0.37047099558E+02  0.10214842934E+03 -0.91702400074E+02  0.16897718254E+03  0.91308098419E+02 0.  0.
         23    2    1    2    0    0 -0.16818457574E+02 -0.11795194944E+03 -0.13138210794E+03  0.20220236365E+03  0.97103113676E+02 0.  0.
        -11    1    3    3    0    0 -0.22988830129E+02  0.39886360764E+01 -0.31250655866E+02  0.38999987442E+02  0.00000000000E+00 0.  1.
         11    1    3    3    0    0  0.60035929687E+02  0.98159793268E+02 -0.60451744209E+02  0.12997719510E+03  0.00000000000E+00 0. -1.
        -11    1    4    4    0    0 -0.12217060487E+02 -0.43728715520E+02 -0.11827512013E+03  0.12669041467E+03  0.00000000000E+00 0. -1.
         11    1    4    4    0    0 -0.46013970878E+01 -0.74223233918E+02 -0.13106987813E+02  0.75511948974E+02  0.00000000000E+00 0.  1.
          3    1    1    2  501    0 -0.20228641984E+02  0.15803520093E+02 -0.11900894864E+03  0.12174596116E+03  0.00000000000E+00 0. -1.
<scales pt_clust_5="13000.00000" pt_clust_6="13000.00000" pt_clust_7="13000.00000" pt_clust_8="13000.00000" pt_clust_9="25.67001"></scales>
<clustering>
<clus scale="   25.670">  2  9  1 -1</clus>
<clus scale="   91.308">  5  6 -1 -1</clus>
<clus scale="   97.103">  7  8 -1 -1</clus>
<clus scale="  145.016">  1  5  2 -1</clus>
<clus scale="   25.670">  2  5  1 -1</clus>
</clustering>
</event>
<event>
 9    1  0.1504846E-005  0.1072647E+03  0.7546771E-02  0.1266284E+00
         21   -1    0    0  501  502  0.00000000000E+00  0.00000000000E+00  0.42389574212E+02  0.42389574212E+02  0.00000000000E+00 0.  1.
          1   -1    0    0  502    0 -0.00000000000E+00 -0.00000000000E+00 -0.35153233469E+03  0.35153233469E+03  0.00000000000E+00 0. -1.
         23    2    1    2    0    0  0.63594758849E+02 -0.24501973181E+01 -0.17861355066E+03  0.21071075267E+03  0.91901708322E+02 0.  0.
         23    2    1    2    0    0 -0.43398737312E+02 -0.13890388172E+02 -0.92921945054E+02  0.13750338465E+03  0.90533417214E+02 0.  0.
        -11    1    4    4    0    0 -0.66366084705E+02 -0.27371640761E+02 -0.51860393654E+02  0.88561641511E+02  0.00000000000E+00 0.  1.
         11    1    4    4    0    0  0.22967347394E+02  0.13481252589E+02 -0.41061551400E+02  0.48941743134E+02  0.00000000000E+00 0. -1.
        -13    1    3    3    0    0 -0.16271866628E+02 -0.17110359363E+02 -0.14775248683E+02  0.27854012543E+02  0.00000000000E+00 0.  1.
         13    1    3    3    0    0  0.79866625477E+02  0.14660162045E+02 -0.16383830197E+03  0.18285674013E+03  0.00000000000E+00 0. -1.
          1    1    1    2  501    0 -0.20196021537E+02  0.16340585491E+02 -0.37607264765E+02  0.45707771585E+02  0.00000000000E+00 0. -1.
<scales pt_clust_5="13000.00000" pt_clust_6="13000.00000" pt_clust_7="13000.00000" pt_clust_8="13000.00000" pt_clust_9="25.97874"></scales>
<clustering>
<clus scale="   25.979">  1  9  2 -1</clus>
<clus scale="   90.533">  5  6 -1 -1</clus>
<clus scale="   91.902">  7  8 -1 -1</clus>
<clus scale="  106.095">  1  5  2 -1</clus>
<clus scale="   25.979">  1  5  2 -1</clus>
</clustering>
</event>
<event>
 9    1  0.1504846E-005  0.1538486E+03  0.7546771E-02  0.1200151E+00
         21   -1    0    0  501  502  0.00000000000E+00  0.00000000000E+00  0.30149685291E+03  0.30149685291E+03  0.00000000000E+00 0. -1.
         -3   -1    0    0    0  501 -0.00000000000E+00 -0.00000000000E+00 -0.14179650352E+03  0.14179650352E+03  0.00000000000E+00 0.  1.
         23    2    1    2    0    0 -0.11165389839E+03 -0.38040281660E+02 -0.25289438887E+02  0.15102373814E+03  0.90856797814E+02 0.  0.
         23    2    1    2    0    0  0.11343500094E+03  0.98787334401E+02  0.15045817412E+03  0.22237105522E+03  0.64689930917E+02 0.  0.
        -11    1    4    4    0    0  0.25490188534E+02  0.64275787956E+02  0.59367586913E+02  0.91135267623E+02  0.00000000000E+00 0.  1.
         11    1    4    4    0    0  0.87944812411E+02  0.34511546445E+02  0.91090587211E+02  0.13123578760E+03  0.00000000000E+00 0. -1.
        -13    1    3    3    0    0 -0.73832697687E+02 -0.34392979981E+01 -0.54675268357E+02  0.91937375362E+02  0.00000000000E+00 0.  1.
         13    1    3    3    0    0 -0.37821200699E+02 -0.34600983662E+02  0.29385829470E+02  0.59086362778E+02  0.00000000000E+00 0. -1.
         -3    1    1    2    0  502 -0.17811025590E+01 -0.60747052740E+02  0.34531614150E+02  0.69898563067E+02  0.00000000000E+00 0.  1.
<scales pt_clust_5="13000.00000" pt_clust_6="13000.00000" pt_clust_7="13000.00000" pt_clust_8="13000.00000" pt_clust_9="60.77316"></scales>
<clustering>
<clus scale="   60.773">  1  9  2 -1</clus>
<clus scale="   64.690">  5  6 -1 -1</clus>
<clus scale="   90.857">  7  8 -1 -1</clus>
<clus scale="  139.997">  1  5  2 -1</clus>
<clus scale="   60.773">  1  5  2 -1</clus>
</clustering>
</event>
<event>
 9    1  0.1504846E-005  0.1063788E+03  0.7546771E-02  0.1269443E+00
          1   -1    0    0  502    0 -0.00000000000E+00  0.00000000000E+00  0.46258025723E+02  0.46258025723E+02  0.00000000000E+00 0. -1.
         21   -1    0    0  501  502  0.00000000000E+00 -0.00000000000E+00 -0.46216050596E+03  0.46216050596E+03  0.00000000000E+00 0.  1.
         23    2    1    2    0    0 -0.33318799445E+02  0.24836505642E+02 -0.62027675030E+02  0.11846061464E+03  0.91970051331E+02 0.  0.
         23    2    1    2    0    0  0.23692728124E+02 -0.49849228086E+02 -0.16350642301E+03  0.19771219285E+03  0.96485594404E+02 0.  0.
        -11    1    4    4    0    0  0.53016089678E+02 -0.60045073666E+02 -0.11661331272E+03  0.14147360652E+03  0.00000000000E+00 0.  1.
         11    1    4    4    0    0 -0.29323361554E+02  0.10195845581E+02 -0.46893110291E+02  0.56238586333E+02  0.00000000000E+00 0. -1.
        -13    1    3    3    0    0 -0.30288252291E+02 -0.31464798060E+02 -0.19459009179E+02  0.47812809811E+02  0.00000000000E+00 0.  1.
         13    1    3    3    0    0 -0.30305471548E+01  0.56301303702E+02 -0.42568665851E+02  0.70647804827E+02  0.00000000000E+00 0. -1.
          1    1    1    2  501    0  0.96260713216E+01  0.25012722444E+02 -0.19036838219E+03  0.19224572419E+03  0.00000000000E+00 0. -1.
<scales pt_clust_5="13000.00000" pt_clust_6="13000.00000" pt_clust_7="13000.00000" pt_clust_8="13000.00000" pt_clust_9="26.80107"></scales>
<clustering>
<clus scale="   26.801">  2  9  1 -1</clus>
<clus scale="   91.970">  7  8 -1 -1</clus>
<clus scale="   96.486">  5  6 -1 -1</clus>
<clus scale="  102.301">  1  7  2 -1</clus>
<clus scale="   26.801">  2  5  1 -1</clus>
</clustering>
</event>
<event>
 9    1  0.1504846E-005  0.2326093E+03  0.7546771E-02  0.1160370E+00
          1   -1    0    0  502    0 -0.00000000000E+00  0.00000000000E+00  0.16027111905E+03  0.16027111905E+03  0.00000000000E+00 0. -1.
         21   -1    0    0  501  502  0.00000000000E+00 -0.00000000000E+00 -0.51938598666E+03  0.51938598666E+03  0.00000000000E+00 0. -1.
         23    2    1    2    0    0  0.27241602599E+02  0.27296542608E+02  0.98447835024E+01  0.99529045600E+02  0.91224475911E+02 0.  0.
         23    2    1    2    0    0  0.18430549122E+03 -0.91872869950E+02 -0.17096897522E+03  0.28327357944E+03  0.92759861978E+02 0.  0.
        -13    1    3    3    0    0  0.42174621142E+02  0.46692095492E+02 -0.14966911680E+02  0.64675025282E+02  0.00000000000E+00 0.  1.
         13    1    3    3    0    0 -0.14933018544E+02 -0.19395552884E+02  0.24811695182E+02  0.34854020318E+02  0.00000000000E+00 0. -1.
        -13    1    4    4    0    0  0.31055975411E+02 -0.64396209496E+01  0.79332704752E+01  0.32693716630E+02  0.00000000000E+00 0.  1.
         13    1    4    4    0    0  0.15324951581E+03 -0.85433249000E+02 -0.17890224570E+03  0.25057986281E+03  0.00000000000E+00 0. -1.
          1    1    1    2  501    0 -0.21154709382E+03  0.64576327342E+02 -0.19799067589E+03  0.29685448067E+03  0.00000000000E+00 0. -1.
<scales pt_clust_5="13000.00000" pt_clust_6="13000.00000" pt_clust_7="13000.00000" pt_clust_8="13000.00000" pt_clust_9="213.31360"></scales>
<clustering>
<clus scale="   91.224">  5  6 -1 -1</clus>
<clus scale="   92.760">  7  8 -1 -1</clus>
<clus scale="   99.041">  1  5  2 -1</clus>
<clus scale="  213.314">  2  9  1 -1</clus>
<clus scale="  213.314">  2  5  1 -1</clus>
</clustering>
</event>
<event>
 9    1  0.1504846E-005  0.9364785E+02  0.7546771E-02  0.1297623E+00
         21   -1    0    0  501  502  0.00000000000E+00  0.00000000000E+00  0.91562137538E+02  0.91562137538E+02  0.00000000000E+00 0. -1.
         -2   -1    0    0    0  501 -0.00000000000E+00 -0.00000000000E+00 -0.23489279200E+03  0.23489279200E+03  0.00000000000E+00 0.  1.
         23    2    1    2    0    0  0.85050589848E+01  0.13988575455E+02 -0.10095387078E+03  0.13863929436E+03  0.93601034414E+02 0.  0.
         23    2    1    2    0    0  0.15584789916E+02  0.48447896280E+02  0.11046084149E+02  0.10218481929E+03  0.87918354095E+02 0.  0.
        -11    1    4    4    0    0 -0.24321868477E+02 -0.13147643656E+02  0.77678073789E+01  0.28718507124E+02  0.00000000000E+00 0.  1.
         11    1    4    4    0    0  0.39906658393E+02  0.61595539937E+02  0.32782767698E+01  0.73466312163E+02  0.00000000000E+00 0. -1.
        -11    1    3    3    0    0  0.25414326668E+02 -0.31792691506E+02 -0.69611591587E+02  0.80637689181E+02  0.00000000000E+00 0.  1.
         11    1    3    3    0    0 -0.16909267684E+02  0.45781266962E+02 -0.31342279193E+02  0.58001605178E+02  0.00000000000E+00 0. -1.
         -2    1    1    2    0  502 -0.24089848901E+02 -0.62436471736E+02 -0.53422867827E+02  0.85630815888E+02  0.00000000000E+00 0.  1.
<scales pt_clust_5="13000.00000" pt_clust_6="13000.00000" pt_clust_7="13000.00000" pt_clust_8="13000.00000" pt_clust_9="66.92263"></scales>
<clustering>
<clus scale="   66.923">  1  9  2 -1</clus>
<clus scale="   87.918">  5  6 -1 -1</clus>
<clus scale="   87.968">  1  5  2 -1</clus>
<clus scale="   93.601">  7  8 -1 -1</clus>
<clus scale="   66.923">  1  5  2 -1</clus>
</clustering>
</event>
<event>
 9    1  0.1504846E-005  0.9529908E+02  0.7546771E-02  0.1290724E+00
         -1   -1    0    0    0  501 -0.00000000000E+00  0.00000000000E+00  0.29771009393E+03  0.29771009393E+03  0.00000000000E+00 0.  1.
         21   -1    0    0  501  502  0.00000000000E+00 -0.00000000000E+00 -0.15953207553E+03  0.15953207553E+03  0.00000000000E+00 0. -1.
         23    2    1    2    0    0 -0.28462288933E+02  0.12948753275E+02  0.25942904613E+03  0.27662666802E+03  0.90780567183E+02 0.  0.
         23    2    1    2    0    0  0.12008106295E+02  0.45937677439E+01 -0.47209998795E+02  0.10276594053E+03  0.90370112465E+02 0.  0.
        -13    1    4    4    0    0 -0.19100707690E+02 -0.27883706028E+02 -0.46878332790E+02  0.57792007936E+02  0.00000000000E+00 0. -1.
         13    1    4    4    0    0  0.31108813985E+02  0.32477473772E+02 -0.33166600489E+00  0.44973932589E+02  0.00000000000E+00 0.  1.
        -13    1    3    3    0    0  0.31715099503E+02  0.14777071834E+02  0.78521935997E+02  0.85964549794E+02  0.00000000000E+00 0. -1.
         13    1    3    3    0    0 -0.60177388436E+02 -0.18283185597E+01  0.18090711013E+03  0.19066211822E+03  0.00000000000E+00 0.  1.
         -1    1    1    2    0  502  0.16454182638E+02 -0.17542521019E+02 -0.74041028936E+02  0.77849560923E+02  0.00000000000E+00 0.  1.
<scales pt_clust_5="13000.00000" pt_clust_6="13000.00000" pt_clust_7="13000.00000" pt_clust_8="13000.00000" pt_clust_9="24.05161"></scales>
<clustering>
<clus scale="   24.052">  2  9  1 -1</clus>
<clus scale="   90.370">  5  6 -1 -1</clus>
<clus scale="   90.781">  7  8 -1 -1</clus>
<clus scale="   94.908">  2  5  1 -1</clus>
<clus scale="   24.052">  2  5  1 -1</clus>
</clustering>
</event>
<event>
 9    1  0.1504846E-005  0.1100087E+03  0.7546771E-02  0.1260989E+00
         21   -1    0    0  501  502  0.00000000000E+00  0.00000000000E+00  0.66468395105E+03  0.66468395105E+03  0.00000000000E+00 0.  1.
          1   -1    0    0  502    0 -0.00000000000E+00 -0.00000000000E+00 -0.38301786124E+02  0.38301786124E+02  0.00000000000E+00 0. -1.
         23    2    1    2    0    0  0.94252328749E+01  0.64294078096E+02  0.10135200414E+03  0.15098193277E+03  0.91108461661E+02 0.  0.
         23    2    1    2    0    0  0.45734496960E+02 -0.53264339490E+02  0.35893449476E+03  0.37664126222E+03  0.89977412743E+02 0.  0.
        -11    1    3    3    0    0  0.47312093122E+02  0.53777387948E+02  0.55728207523E+02  0.90752822126E+02  0.00000000000E+00 0.  1.
         11    1    3    3    0    0 -0.37886860247E+02  0.10516690148E+02  0.45623796613E+02  0.60229110640E+02  0.00000000000E+00 0. -1.
        -13    1    4    4    0    0  0.57061433805E+02 -0.28158047575E+02  0.33226207623E+03  0.33830011850E+03  0.00000000000E+00 0.  1.
         13    1    4    4    0    0 -0.11326936845E+02 -0.25106291915E+02  0.26672418527E+02  0.38341143724E+02  0.00000000000E+00 0. -1.
          1    1    1    2  501    0 -0.55159729835E+02 -0.11029738607E+02  0.16609566602E+03  0.17536254218E+03  0.00000000000E+00 0. -1.
<scales pt_clust_5="13000.00000" pt_clust_6="13000.00000" pt_clust_7="13000.00000" pt_clust_8="13000.00000" pt_clust_9="56.25167"></scales>
<clustering>
<clus scale="   56.252">  1  9  2 -1</clus>
<clus scale="   89.977">  7  8 -1 -1</clus>
<clus scale="   91.108">  5  6 -1 -1</clus>
<clus scale="  109.074">  1  7  2 -1</clus>
<clus scale="   56.252">  1  5  2 -1</clus>
</clustering>
</event>
<event>
 9    1  0.1504846E-005  0.1157764E+03  0.7546771E-02  0.1254151E+00
         21   -1    0    0  501  502  0.00000000000E+00  0.00000000000E+00  0.80726983193E+02  0.80726983193E+02  0.00000000000E+00 0. -1.
          3   -1    0    0  502    0 -0.00000000000E+00 -0.00000000000E+00 -0.72017196190E+03  0.72017196190E+03  0.00000000000E+00 0. -1.
         23    2    1    2    0    0 -0.25312891802E+02 -0.81405728751E+02 -0.49445019438E+03  0.51034241017E+03  0.93277788014E+02 0.  0.
         23    2    1    2    0    0 -0.22512857623E+02  0.48815734132E+02 -0.19220901624E+03  0.21586655065E+03  0.82245103857E+02 0.  0.
        -11    1    4    4    0    0 -0.50125001794E+02  0.35714589799E+02 -0.16017064539E+03  0.17158870409E+03  0.00000000000E+00 0. -1.
         11    1    4    4    0    0  0.27612144171E+02  0.13101144333E+02 -0.32038370849E+02  0.44277846551E+02  0.00000000000E+00 0.  1.
        -13    1    3    3    0    0 -0.43692133306E+02 -0.51808168834E+01 -0.24298387946E+03  0.24693523251E+03  0.00000000000E+00 0.  1.
         13    1    3    3    0    0  0.18379241504E+02 -0.76224911867E+02 -0.25146631492E+03  0.26340717766E+03  0.00000000000E+00 0. -1.
          3    1    1    2  501    0  0.47825749425E+02  0.32589994619E+02  0.47214231902E+02  0.74689984277E+02  0.00000000000E+00 0. -1.
<scales pt_clust_5="13000.00000" pt_clust_6="13000.00000" pt_clust_7="13000.00000" pt_clust_8="13000.00000" pt_clust_9="57.87409"></scales>
<clustering>
<clus scale="   57.874">  1  9  2 -1</clus>
<clus scale="   82.245">  5  6 -1 -1</clus>
<clus scale="   93.278">  7  8 -1 -1</clus>
<clus scale="  107.087">  1  5  2 -1</clus>
<clus scale="   57.874">  1  5  2 -1</clus>
</clustering>
</event>
<event>
 9    1  0.1504846E-005  0.1254191E+03  0.7546771E-02  0.1234575E+00
         21   -1    0    0  501  502  0.00000000000E+00  0.00000000000E+00  0.83294711846E+02  0.83294711846E+02  0.00000000000E+00 0.  1.
          4   -1    0    0  502    0 -0.00000000000E+00 -0.00000000000E+00 -0.43963645328E+03  0.43963645328E+03  0.00000000000E+00 0. -1.
         23    2    1    2    0    0  0.77824552709E+02 -0.41573547323E+02 -0.20914597110E+03  0.24494529532E+03  0.92038794180E+02 0.  0.
         23    2    1    2    0    0 -0.23844005903E+02  0.95524378945E+02 -0.14962331486E+03  0.20162825958E+03  0.92592521962E+02 0.  0.
        -11    1    3    3    0    0  0.81630785260E+02 -0.83141057838E+00 -0.10466248569E+03  0.13273474397E+03  0.00000000000E+00 0.  1.
         11    1    3    3    0    0 -0.38062325507E+01 -0.40742136744E+02 -0.10448348541E+03  0.11221055135E+03  0.00000000000E+00 0. -1.
        -13    1    4    4    0    0  0.30845237887E+02  0.38844866884E+02 -0.28671006339E+02  0.57292049955E+02  0.00000000000E+00 0.  1.
         13    1    4    4    0    0 -0.54689243790E+02  0.56679512060E+02 -0.12095230852E+03  0.14433620963E+03  0.00000000000E+00 0. -1.
          4    1    1    2  501    0 -0.53980546807E+02 -0.53950831622E+02  0.24275445191E+01  0.76357610221E+02  0.00000000000E+00 0. -1.
<scales pt_clust_5="13000.00000" pt_clust_6="13000.00000" pt_clust_7="13000.00000" pt_clust_8="13000.00000" pt_clust_9="76.31901"></scales>
<clustering>
<clus scale="   76.319">  1  9  2 -1</clus>
<clus scale="   92.039">  5  6 -1 -1</clus>
<clus scale="   92.593">  7  8 -1 -1</clus>
<clus scale="  125.011">  2  5  1 -1</clus>
<clus scale="   76.319">  1  5  2 -1</clus>
</clustering>
</event>
<event>
 9    1  0.1504846E-005  0.9522201E+02  0.7546771E-02  0.1292440E+00
         21   -1    0    0  501  502  0.00000000000E+00  0.00000000000E+00  0.27752525247E+03  0.27752525247E+03  0.00000000000E+00 0.  1.
          1   -1    0    0  502    0 -0.00000000000E+00 -0.00000000000E+00 -0.68619403551E+02  0.68619403551E+02  0.00000000000E+00 0. -1.
         23    2    1    2    0    0  0.75675995370E+01  0.19901809238E+02 -0.13652601321E+02  0.93594680884E+02  0.90112264389E+02 0.  0.
         23    2    1    2    0    0 -0.20575753824E+02 -0.76681730813E-01  0.18318857051E+03  0.20659091522E+03  0.93265140110E+02 0.  0.
        -11    1    4    4    0    0 -0.39523571988E+02  0.17991567600E+02  0.34082061831E+02  0.55203226229E+02  0.00000000000E+00 0. -1.
         11    1    4    4    0    0  0.18947818164E+02 -0.18068249331E+02  0.14910650868E+03  0.15138768899E+03  0.00000000000E+00 0.  1.
        -11    1    3    3    0    0  0.33067454290E+02 -0.24376290275E+02 -0.16835140520E+01  0.41115620880E+02  0.00000000000E+00 0. -1.
         11    1    3    3    0    0 -0.25499854753E+02  0.44278099513E+02 -0.11969087269E+02  0.52479060004E+02  0.00000000000E+00 0.  1.
          1    1    1    2  501    0  0.13008154287E+02 -0.19825127507E+02  0.39369879729E+02  0.45959059917E+02  0.00000000000E+00 0. -1.
<scales pt_clust_5="13000.00000" pt_clust_6="13000.00000" pt_clust_7="13000.00000" pt_clust_8="13000.00000" pt_clust_9="23.71176"></scales>
<clustering>
<clus scale="   23.712">  1  9  2 -1</clus>
<clus scale="   90.112">  7  8 -1 -1</clus>
<clus scale="   92.136">  2  7  1 -1</clus>
<clus scale="   93.265">  5  6 -1 -1</clus>
<clus scale="   23.712">  1  5  2 -1</clus>
</clustering>
</event>
<event>
 9    1  0.1504846E-005  0.1500475E+03  0.7546771E-02  0.1200718E+00
         21   -1    0    0  501  502  0.00000000000E+00  0.00000000000E+00  0.10101312531E+03  0.10101312531E+03  0.00000000000E+00 0.  1.
          1   -1    0    0  502    0 -0.00000000000E+00 -0.00000000000E+00 -0.60077226844E+03  0.60077226844E+03  0.00000000000E+00 0. -1.
         23    2    1    2    0    0  0.10285326628E+03  0.71956901180E+02 -0.39021972143E+03  0.42001179814E+03  0.91552660121E+02 0.  0.
         23    2    1    2    0    0 -0.81015100629E+02 -0.65884145592E+02 -0.16825311989E+03  0.21883646671E+03  0.93145690399E+02 0.  0.
        -11    1    4    4    0    0 -0.10068916200E+03 -0.55206808768E+02 -0.15472700944E+03  0.19268250188E+03  0.00000000000E+00 0. -1.
         11    1    4    4    0    0  0.19674061374E+02 -0.10677336824E+02 -0.13526110445E+02  0.26153964831E+02  0.00000000000E+00 0.  1.
        -11    1    3    3    0    0 -0.13369258163E+02  0.21898297642E+02 -0.38926457299E+02  0.46621256753E+02  0.00000000000E+00 0. -1.
         11    1    3    3    0    0  0.11622252444E+03  0.50058603538E+02 -0.35129326413E+03  0.37339054139E+03  0.00000000000E+00 0.  1.
          1    1    1    2  501    0 -0.21838165649E+02 -0.60727555881E+01  0.58713698184E+02  0.62937128897E+02  0.00000000000E+00 0. -1.
<scales pt_clust_5="13000.00000" pt_clust_6="13000.00000" pt_clust_7="13000.00000" pt_clust_8="13000.00000" pt_clust_9="22.66680"></scales>
<clustering>
<clus scale="   22.667">  1  9  2 -1</clus>
<clus scale="   91.553">  7  8 -1 -1</clus>
<clus scale="   93.146">  5  6 -1 -1</clus>
<clus scale="  149.064">  2  7  1 -1</clus>
<clus scale="   22.667">  1  5  2 -1</clus>
</clustering>
</event>
<event>
 9    1  0.1504846E-005  0.1224570E+03  0.7546771E-02  0.1240541E+00
         21   -1    0    0  501  502  0.00000000000E+00  0.00000000000E+00  0.28644452963E+03  0.28644452963E+03  0.00000000000E+00 0.  1.
          1   -1    0    0  502    0 -0.00000000000E+00 -0.00000000000E+00 -0.85105653742E+02  0.85105653742E+02  0.00000000000E+00 0. -1.
         23    2    1    2    0    0 -0.85378884519E+02  0.11494491430E+02 -0.57480714406E-01  0.12350966208E+03  0.88503988999E+02 0.  0.
         23    2    1    2    0    0  0.55908395659E+02 -0.22654508716E+02  0.17334782727E+03  0.20585313340E+03  0.93204441096E+02 0.  0.
        -13    1    3    3    0    0 -0.48461991311E+02  0.48902783904E+02  0.11220244071E+02  0.69756295432E+02  0.00000000000E+00 0. -1.
         13    1    3    3    0    0 -0.36916893208E+02 -0.37408292474E+02 -0.11277724785E+02  0.53753366650E+02  0.00000000000E+00 0.  1.
        -13    1    4    4    0    0 -0.13037645549E+01  0.31814173583E+02  0.55340905116E+02  0.63847139496E+02  0.00000000000E+00 0. -1.
         13    1    4    4    0    0  0.57212160213E+02 -0.54468682299E+02  0.11800692216E+03  0.14200599390E+03  0.00000000000E+00 0.  1.
          1    1    1    2  501    0  0.29470488861E+02  0.11160017286E+02  0.28048529332E+02  0.42187387893E+02  0.00000000000E+00 0. -1.
<scales pt_clust_5="13000.00000" pt_clust_6="13000.00000" pt_clust_7="13000.00000" pt_clust_8="13000.00000" pt_clust_9="31.51279"></scales>
<clustering>
<clus scale="   31.513">  1  9  2 -1</clus>
<clus scale="   88.504">  5  6 -1 -1</clus>
<clus scale="   93.204">  7  8 -1 -1</clus>
<clus scale="  118.918">  2  5  1 -1</clus>
<clus scale="   31.513">  1  5  2 -1</clus>
</clustering>
</event>
<event>
 9    1  0.1504846E-005  0.1073123E+03  0.7546771E-02  0.1265642E+00
         21   -1    0    0  501  502  0.00000000000E+00  0.00000000000E+00  0.20762810854E+03  0.20762810854E+03  0.00000000000E+00 0. -1.
          1   -1    0    0  502    0 -0.00000000000E+00 -0.00000000000E+00 -0.20795799940E+03  0.20795799940E+03  0.00000000000E+00 0. -1.
         23    2    1    2    0    0  0.13345384097E+02 -0.48350624689E+02 -0.99411234359E+02  0.14355678430E+03  0.90609462075E+02 0.  0.
         23    2    1    2    0    0 -0.14412731022E+02  0.68823342322E+02 -0.47430209744E+02  0.12409046251E+03  0.90578357382E+02 0.  0.
        -11    1    3    3    0    0  0.20981866463E+02 -0.53818023983E+01  0.11388090109E+02  0.24472251912E+02  0.00000000000E+00 0.  1.
         11    1    3    3    0    0 -0.76364823653E+01 -0.42968822291E+02 -0.11079932447E+03  0.11908453239E+03  0.00000000000E+00 0. -1.
        -13    1    4    4    0    0  0.36497726869E+02  0.35280393851E+02 -0.77568156340E+01  0.51351323699E+02  0.00000000000E+00 0.  1.
         13    1    4    4    0    0 -0.50910457892E+02  0.33542948471E+02 -0.39673394110E+02  0.72739138812E+02  0.00000000000E+00 0. -1.
          1    1    1    2  501    0  0.10673469250E+01 -0.20472717633E+02  0.14651155325E+03  0.14793886113E+03  0.00000000000E+00 0. -1.
<scales pt_clust_5="13000.00000" pt_clust_6="13000.00000" pt_clust_7="13000.00000" pt_clust_8="13000.00000" pt_clust_9="20.50052"></scales>
<clustering>
<clus scale="   20.501">  1  9  2 -1</clus>
<clus scale="   90.578">  7  8 -1 -1</clus>
<clus scale="   90.609">  5  6 -1 -1</clus>
<clus scale="  107.286">  1  7  2 -1</clus>
<clus scale="   20.501">  1  5  2 -1</clus>
</clustering>
</event>
<event>
 9    1  0.1504846E-005  0.9775391E+02  0.7546771E-02  0.1285158E+00
         -3   -1    0    0    0  501 -0.00000000000E+00  0.00000000000E+00  0.59919512835E+02  0.59919512835E+02  0.00000000000E+00 0.  1.
         21   -1    0    0  501  502  0.00000000000E+00 -0.00000000000E+00 -0.24525317808E+03  0.24525317808E+03  0.00000000000E+00 0.  1.
         23    2    1    2    0    0 -0.30724281760E+02  0.87762631816E+01 -0.51056188421E+02  0.11056149621E+03  0.92715186369E+02 0.  0.
         23    2    1    2    0    0  0.29221343410E+02  0.28782094540E+02 -0.82429896619E+02  0.13057167072E+03  0.92584974279E+02 0.  0.
        -11    1    4    4    0    0  0.15345585342E+02 -0.17440759274E+02  0.10779144004E+02  0.25609705562E+02  0.00000000000E+00 0. -1.
         11    1    4    4    0    0  0.13875758068E+02  0.46222853814E+02 -0.93209040623E+02  0.10496196516E+03  0.00000000000E+00 0.  1.
        -13    1    3    3    0    0 -0.14371263070E+02  0.39664475258E+02  0.70318431446E+01  0.42769739510E+02  0.00000000000E+00 0.  1.
         13    1    3    3    0    0 -0.16353018690E+02 -0.30888212077E+02 -0.58088031566E+02  0.67791756702E+02  0.00000000000E+00 0. -1.
         -3    1    1    2    0  502  0.15029383505E+01 -0.37558357722E+02 -0.51847580209E+02  0.64039523983E+02  0.00000000000E+00 0.  1.
<scales pt_clust_5="13000.00000" pt_clust_6="13000.00000" pt_clust_7="13000.00000" pt_clust_8="13000.00000" pt_clust_9="37.58842"></scales>
<clustering>
<clus scale="   37.588">  2  9  1 -1</clus>
<clus scale="   92.585">  5  6 -1 -1</clus>
<clus scale="   92.715">  7  8 -1 -1</clus>
<clus scale="   97.630">  2  5  1 -1</clus>
<clus scale="   37.588">  2  5  1 -1</clus>
</clustering>
</event>
<event>
 9    1  0.1504846E-005  0.1047753E+03  0.7546771E-02  0.1271174E+00
         21   -1    0    0  501  502  0.00000000000E+00  0.00000000000E+00  0.76689224907E+02  0.76689224907E+02  0.00000000000E+00 0.  1.
          1   -1    0    0  502    0 -0.00000000000E+00 -0.00000000000E+00 -0.48681253569E+03  0.48681253569E+03  0.00000000000E+00 0. -1.
         23    2    1    2    0    0  0.97483335655E+01 -0.52105208481E+02 -0.31082703676E+03  0.32863608987E+03  0.92618842719E+02 0.  0.
         23    2    1    2    0    0 -0.14962209167E+02  0.16807131484E+02  0.31647987459E+02  0.99147070845E+02  0.91226088237E+02 0.  0.
        -11    1    3    3    0    0  0.35624969976E+02 -0.67224307908E+02 -0.20562541851E+03  0.21924885130E+03  0.00000000000E+00 0.  1.
         11    1    3    3    0    0 -0.25876636411E+02  0.15119099428E+02 -0.10520161826E+03  0.10938723858E+03  0.00000000000E+00 0. -1.
        -13    1    4    4    0    0  0.13110642668E+02  0.34264037436E+02  0.49471693782E+02  0.61590272757E+02  0.00000000000E+00 0.  1.
         13    1    4    4    0    0 -0.28072851835E+02 -0.17456905952E+02 -0.17823706323E+02  0.37556798088E+02  0.00000000000E+00 0. -1.
          1    1    1    2  501    0  0.52138756020E+01  0.35298076996E+02 -0.13094426148E+03  0.13571859988E+03  0.00000000000E+00 0. -1.
<scales pt_clust_5="13000.00000" pt_clust_6="13000.00000" pt_clust_7="13000.00000" pt_clust_8="13000.00000" pt_clust_9="35.68109"></scales>
<clustering>
<clus scale="   35.681">  1  9  2 -1</clus>
<clus scale="   91.226">  7  8 -1 -1</clus>
<clus scale="   92.619">  5  6 -1 -1</clus>
<clus scale="  103.546">  1  7  2 -1</clus>
<clus scale="   35.681">  1  5  2 -1</clus>
</clustering>
</event>
<event>
 9    1  0.1504846E-005  0.1219293E+03  0.7546771E-02  0.1243576E+00
          2   -1    0    0  502    0 -0.00000000000E+00  0.00000000000E+00  0.16420843228E+03  0.16420843228E+03  0.00000000000E+00 0. -1.
         21   -1    0    0  501  502  0.00000000000E+00 -0.00000000000E+00 -0.47338470008E+03  0.47338470008E+03  0.00000000000E+00 0. -1.
         23    2    1    2    0    0 -0.39587452457E+02  0.50503604675E+02  0.31860600766E+02  0.11364489157E+03  0.88217249000E+02 0.  0.
         23    2    1    2    0    0  0.11205968712E+03 -0.89522912904E+02 -0.39069642236E+03  0.42781914792E+03  0.99064642884E+02 0.  0.
        -11    1    3    3    0    0 -0.36212358259E+01 -0.22111817031E+02  0.23029012027E+02  0.32130689321E+02  0.00000000000E+00 0.  1.
         11    1    3    3    0    0 -0.35966216631E+02  0.72615421706E+02  0.88315887388E+01  0.81514202247E+02  0.00000000000E+00 0. -1.
        -13    1    4    4    0    0  0.16364117734E+02 -0.51250510326E+02 -0.56180825616E+02  0.77786144813E+02  0.00000000000E+00 0.  1.
         13    1    4    4    0    0  0.95695569386E+02 -0.38272402577E+02 -0.33451559675E+03  0.35003300311E+03  0.00000000000E+00 0. -1.
          2    1    1    2  501    0 -0.72472234663E+02  0.39019308228E+02  0.49659553794E+02  0.96129092863E+02  0.00000000000E+00 0. -1.
<scales pt_clust_5="13000.00000" pt_clust_6="13000.00000" pt_clust_7="13000.00000" pt_clust_8="13000.00000" pt_clust_9="82.30880"></scales>
<clustering>
<clus scale="   82.309">  2  9  1 -1</clus>
<clus scale="   88.217">  5  6 -1 -1</clus>
<clus scale="   99.065">  7  8 -1 -1</clus>
<clus scale="  113.293">  1  5  2 -1</clus>
<clus scale="   82.309">  2  5  1 -1</clus>
</clustering>
</event>
<event>
 9    1  0.1504846E-005  0.1120713E+03  0.7546771E-02  0.1258391E+00
          1   -1    0    0  502    0 -0.00000000000E+00  0.00000000000E+00  0.15123205972E+03  0.15123205972E+03  0.00000000000E+00 0. -1.
         21   -1    0    0  501  502  0.00000000000E+00 -0.00000000000E+00 -0.43661650348E+03  0.43661650348E+03  0.00000000000E+00 0. -1.
         23    2    1    2    0    0 -0.13515591033E+02 -0.31832782007E+02  0.37624636426E+02  0.10835784751E+03  0.95550053061E+02 0.  0.
         23    2    1    2    0    0  0.44775338559E+02  0.89616813062E+02  0.13813052157E+02  0.13632120234E+03  0.91414800067E+02 0.  0.
        -11    1    4    4    0    0  0.49645328118E+02  0.14513663462E+02  0.29354211990E+02  0.59472470880E+02  0.00000000000E+00 0.  1.
         11    1    4    4    0    0 -0.48699895595E+01  0.75103149600E+02 -0.15541159833E+02  0.76848731461E+02  0.00000000000E+00 0. -1.
        -13    1    3    3    0    0  0.36149026373E+02  0.65437115742E+01  0.34636386565E+01  0.36899445275E+02  0.00000000000E+00 0. -1.
         13    1    3    3    0    0 -0.49664617406E+02 -0.38376493581E+02  0.34160997770E+02  0.71458402237E+02  0.00000000000E+00 0.  1.
          1    1    1    2  501    0 -0.31259747525E+02 -0.57784031055E+02 -0.33682213234E+03  0.34316951335E+03  0.00000000000E+00 0. -1.
<scales pt_clust_5="13000.00000" pt_clust_6="13000.00000" pt_clust_7="13000.00000" pt_clust_8="13000.00000" pt_clust_9="65.69753"></scales>
<clustering>
<clus scale="   65.698">  2  9  1 -1</clus>
<clus scale="   91.415">  5  6 -1 -1</clus>
<clus scale="   95.550">  7  8 -1 -1</clus>
<clus scale="  108.567">  2  5  1 -1</clus>
<clus scale="   65.698">  2  5  1 -1</clus>
</clustering>
</event>
<event>
 9    1  0.1504846E-005  0.9401827E+02  0.7546771E-02  0.1293777E+00
         21   -1    0    0  501  502  0.00000000000E+00  0.00000000000E+00  0.22245809635E+03  0.22245809635E+03  0.00000000000E+00 0. -1.
          1   -1    0    0  502    0 -0.00000000000E+00 -0.00000000000E+00 -0.14750846714E+03  0.14750846714E+03  0.00000000000E+00 0. -1.
         23    2    1    2    0    0  0.77647036175E+01  0.26969520763E+02 -0.10169675907E+03  0.13937320802E+03  0.91076970949E+02 0.  0.
         23    2    1    2    0    0  0.11303299460E+02 -0.53526220357E+01  0.57174525986E+02  0.10769337609E+03  0.90402000481E+02 0.  0.
        -13    1    3    3    0    0 -0.32594645576E+02  0.41174748469E+02 -0.56513158338E+02  0.77146016728E+02  0.00000000000E+00 0. -1.
         13    1    3    3    0    0  0.40359349194E+02 -0.14205227705E+02 -0.45183600731E+02  0.62227191296E+02  0.00000000000E+00 0.  1.
        -13    1    4    4    0    0  0.37143995107E+02  0.29367171975E+02  0.23535838103E+02  0.52877621330E+02  0.00000000000E+00 0. -1.
         13    1    4    4    0    0 -0.25840695647E+02 -0.34719794010E+02  0.33638687883E+02  0.54815754762E+02  0.00000000000E+00 0.  1.
          1    1    1    2  501    0 -0.19068003077E+02 -0.21616898728E+02  0.11947186229E+03  0.12289997938E+03  0.00000000000E+00 0. -1.
<scales pt_clust_5="13000.00000" pt_clust_6="13000.00000" pt_clust_7="13000.00000" pt_clust_8="13000.00000" pt_clust_9="28.82497"></scales>
<clustering>
<clus scale="   28.825">  1  9  2 -1</clus>
<clus scale="   90.402">  7  8 -1 -1</clus>
<clus scale="   91.077">  5  6 -1 -1</clus>
<clus scale="   93.365">  1  7  2 -1</clus>
<clus scale="   28.825">  1  5  2 -1</clus>
</clustering>
</event>
<event>
 9    1  0.1504846E-005  0.1131151E+03  0.7546771E-02  0.1257081E+00
          4   -1    0    0  502    0 -0.00000000000E+00  0.00000000000E+00  0.21758054346E+03  0.21758054346E+03  0.00000000000E+00 0. -1.
         21   -1    0    0  501  502  0.00000000000E+00 -0.00000000000E+00 -0.13629650158E+03  0.13629650158E+03  0.00000000000E+00 0. -1.
         23    2    1    2    0    0  0.46176588049E+02 -0.30607791987E+02  0.68391627795E+02  0.12774274158E+03  0.92583362759E+02 0.  0.
         23    2    1    2    0    0 -0.34943665189E+02  0.71334598965E+02  0.83244540963E+02  0.14407168640E+03  0.86702436387E+02 0.  0.
        -13    1    4    4    0    0 -0.62744700833E+02  0.40257048643E+02  0.42699383057E+02  0.85911377370E+02  0.00000000000E+00 0. -1.
         13    1    4    4    0    0  0.27801035643E+02  0.31077550321E+02  0.40545157905E+02  0.58160309029E+02  0.00000000000E+00 0.  1.
        -13    1    3    3    0    0  0.83389191718E+01 -0.51595320145E+02  0.66300437186E+02  0.84423708784E+02  0.00000000000E+00 0.  1.
         13    1    3    3    0    0  0.37837668877E+02  0.20987528158E+02  0.20911906092E+01  0.43319032796E+02  0.00000000000E+00 0. -1.
          4    1    1    2  501    0 -0.11232922859E+02 -0.40726806978E+02 -0.70352126880E+02  0.82062617062E+02  0.00000000000E+00 0. -1.
<scales pt_clust_5="13000.00000" pt_clust_6="13000.00000" pt_clust_7="13000.00000" pt_clust_8="13000.00000" pt_clust_9="42.24750"></scales>
<clustering>
<clus scale="   42.248">  2  9  1 -1</clus>
<clus scale="   86.702">  5  6 -1 -1</clus>
<clus scale="   92.583">  7  8 -1 -1</clus>
<clus scale="  108.354">  2  5  1 -1</clus>
<clus scale="   42.248">  2  5  1 -1</clus>
</clustering>
</event>
<event>
 9    1  0.1504846E-005  0.2288021E+03  0.7546771E-02  0.1128075E+00
         21   -1    0    0  501  502  0.00000000000E+00  0.00000000000E+00  0.33242516282E+03  0.33242516282E+03  0.00000000000E+00 0. -1.
          1   -1    0    0  502    0 -0.00000000000E+00 -0.00000000000E+00 -0.25581369443E+03  0.25581369443E+03  0.00000000000E+00 0. -1.
         23    2    1    2    0    0 -0.17896601766E+03 -0.59229794420E+02 -0.51719533857E+02  0.21413306983E+03  0.87413141946E+02 0.  0.
         23    2    1    2    0    0  0.24096810911E+03  0.48154840585E+02  0.41631743588E+02  0.26694387535E+03  0.95610209873E+02 0.  0.
        -11    1    4    4    0    0  0.31246816077E+02 -0.17470805714E+02  0.30303103226E+02  0.46902778514E+02  0.00000000000E+00 0.  1.
         11    1    4    4    0    0  0.20972129303E+03  0.65625646299E+02  0.11328640362E+02  0.22004109683E+03  0.00000000000E+00 0. -1.
        -13    1    3    3    0    0 -0.67819500296E+02 -0.50363971317E+02 -0.57979417060E+02  0.10245792810E+03  0.00000000000E+00 0. -1.
         13    1    3    3    0    0 -0.11114651737E+03 -0.88658231026E+01  0.62598832032E+01  0.11167514173E+03  0.00000000000E+00 0.  1.
          1    1    1    2  501    0 -0.62002091444E+02  0.11074953834E+02  0.86699258661E+02  0.10716191207E+03  0.00000000000E+00 0. -1.
<scales pt_clust_5="13000.00000" pt_clust_6="13000.00000" pt_clust_7="13000.00000" pt_clust_8="13000.00000" pt_clust_9="62.98344"></scales>
<clustering>
<clus scale="   62.983">  1  9  2 -1</clus>
<clus scale="   87.413">  7  8 -1 -1</clus>
<clus scale="   95.610">  5  6 -1 -1</clus>
<clus scale="  225.500">  2  7  1 -1</clus>
<clus scale="   62.983">  1  5  2 -1</clus>
</clustering>
</event>
<event>
 9    1  0.1504846E-005  0.2126588E+03  0.7546771E-02  0.1140347E+00
         21   -1    0    0  501  502  0.00000000000E+00  0.00000000000E+00  0.99842653248E+02  0.99842653248E+02  0.00000000000E+00 0. -1.
          1   -1    0    0  502    0 -0.00000000000E+00 -0.00000000000E+00 -0.89410461104E+03  0.89410461104E+03  0.00000000000E+00 0. -1.
         23    2    1    2    0    0 -0.17510925218E+03  0.69252247642E+02 -0.49750961757E+03  0.54016559095E+03  0.93829217559E+02 0.  0.
         23    2    1    2    0    0  0.17148843158E+03 -0.93411957981E+02 -0.34189150977E+03  0.40245578734E+03  0.83347346995E+02 0.  0.
        -13    1    3    3    0    0 -0.16347050531E+03  0.38069385487E+02 -0.46176692307E+03  0.49132532548E+03  0.00000000000E+00 0. -1.
         13    1    3    3    0    0 -0.11638746869E+02  0.31182862155E+02 -0.35742694503E+02  0.48840265470E+02  0.00000000000E+00 0.  1.
        -13    1    4    4    0    0  0.11173577358E+03 -0.38903236121E+02 -0.13065290117E+03  0.17626266044E+03  0.00000000000E+00 0.  1.
         13    1    4    4    0    0  0.59752657991E+02 -0.54508721860E+02 -0.21123860860E+03  0.22619312690E+03  0.00000000000E+00 0. -1.
          1    1    1    2  501    0  0.36208206012E+01  0.24159710339E+02  0.45139169554E+02  0.51325885998E+02  0.00000000000E+00 0. -1.
<scales pt_clust_5="13000.00000" pt_clust_6="13000.00000" pt_clust_7="13000.00000" pt_clust_8="13000.00000" pt_clust_9="24.42953"></scales>
<clustering>
<clus scale="   24.430">  1  9  2 -1</clus>
<clus scale="   83.347">  7  8 -1 -1</clus>
<clus scale="   93.829">  5  6 -1 -1</clus>
<clus scale="  208.247">  1  7  2 -1</clus>
<clus scale="   24.430">  1  5  2 -1</clus>
</clustering>
</event>
<event>
 9    1  0.1504846E-005  0.1129465E+03  0.7546771E-02  0.1259823E+00
         21   -1    0    0  501  502  0.00000000000E+00  0.00000000000E+00  0.41228640557E+02  0.41228640557E+02  0.00000000000E+00 0. -1.
         -1   -1    0    0    0  501 -0.00000000000E+00 -0.00000000000E+00 -0.41242011724E+03  0.41242011724E+03  0.00000000000E+00 0.  1.
         23    2    1    2    0    0 -0.30757491697E+02  0.10320040681E+02 -0.19273107166E+03  0.22166226079E+03  0.10457707846E+03 0.  0.
         23    2    1    2    0    0  0.53602884121E+02 -0.54662637476E+01 -0.17835696921E+03  0.20863094511E+03  0.93874989047E+02 0.  0.
        -13    1    3    3    0    0 -0.44021889407E+02  0.45680818459E+02 -0.76133885668E+02  0.99101122440E+02  0.00000000000E+00 0.  1.
         13    1    3    3    0    0  0.13264397709E+02 -0.35360777778E+02 -0.11659718599E+03  0.12256113835E+03  0.00000000000E+00 0. -1.
        -13    1    4    4    0    0  0.36673164033E+02 -0.25162624151E+02 -0.17713140209E+03  0.18262971341E+03  0.00000000000E+00 0. -1.
         13    1    4    4    0    0  0.16929720089E+02  0.19696360403E+02 -0.12255671199E+01  0.26001231705E+02  0.00000000000E+00 0.  1.
         -1    1    1    2    0  502 -0.22845392424E+02 -0.48537769336E+01 -0.10343581908E+00  0.23355551899E+02  0.00000000000E+00 0.  1.
<scales pt_clust_5="13000.00000" pt_clust_6="13000.00000" pt_clust_7="13000.00000" pt_clust_8="13000.00000" pt_clust_9="23.35532"></scales>
<clustering>
<clus scale="   23.355">  1  9  2 -1</clus>
<clus scale="   93.875">  7  8 -1 -1</clus>
<clus scale="  103.117">  1  7  2 -1</clus>
<clus scale="  104.577">  5  6 -1 -1</clus>
<clus scale="   23.355">  1  5  2 -1</clus>
</clustering>
</event>
<event>
 9    1  0.1504846E-005  0.1030862E+03  0.7546771E-02  0.1282202E+00
         -1   -1    0    0    0  501 -0.00000000000E+00  0.00000000000E+00  0.12198337086E+03  0.12198337086E+03  0.00000000000E+00 0.  1.
         21   -1    0    0  501  502  0.00000000000E+00 -0.00000000000E+00 -0.13625353908E+03  0.13625353908E+03  0.00000000000E+00 0.  1.
         23    2    1    2    0    0 -0.32809211313E+01 -0.61819844374E+02  0.52609634054E+02  0.12190145214E+03  0.90883072339E+02 0.  0.
         23    2    1    2    0    0 -0.11647468726E+02  0.24747287939E+02 -0.38086023580E+02  0.87077839543E+02  0.73375153555E+02 0.  0.
        -11    1    4    4    0    0 -0.16071016803E+02 -0.14504523662E+02  0.10828530326E+02  0.24205698849E+02  0.00000000000E+00 0.  1.
         11    1    4    4    0    0  0.44235480779E+01  0.39251811601E+02 -0.48914553906E+02  0.62872140694E+02  0.00000000000E+00 0. -1.
        -13    1    3    3    0    0  0.17626585538E+02 -0.75267269363E+02  0.57779551208E+02  0.96510801949E+02  0.00000000000E+00 0.  1.
         13    1    3    3    0    0 -0.20907506669E+02  0.13447424989E+02 -0.51699171532E+01  0.25390650195E+02  0.00000000000E+00 0. -1.
         -1    1    1    2    0  502  0.14928389857E+02  0.37072556434E+02 -0.28793778691E+02  0.49257618250E+02  0.00000000000E+00 0.  1.
<scales pt_clust_5="13000.00000" pt_clust_6="13000.00000" pt_clust_7="13000.00000" pt_clust_8="13000.00000" pt_clust_9="39.96538"></scales>
<clustering>
<clus scale="   39.965">  2  9  1 -1</clus>
<clus scale="   73.375">  5  6 -1 -1</clus>
<clus scale="   88.039">  2  5  1 -1</clus>
<clus scale="   90.883">  7  8 -1 -1</clus>
<clus scale="   39.965">  2  5  1 -1</clus>
</clustering>
</event>
<event>
 9    1  0.1504846E-005  0.9290205E+02  0.7546771E-02  0.1295987E+00
         21   -1    0    0  501  502  0.00000000000E+00  0.00000000000E+00  0.10194582902E+03  0.10194582902E+03  0.00000000000E+00 0. -1.
          3   -1    0    0  502    0 -0.00000000000E+00 -0.00000000000E+00 -0.22873247225E+03  0.22873247225E+03  0.00000000000E+00 0. -1.
         23    2    1    2    0    0 -0.34505975535E+02  0.25274606857E+02 -0.12102482969E+03  0.15722117681E+03  0.90785576694E+02 0.  0.
         23    2    1    2    0    0 -0.15948095090E+02  0.95114699928E+01 -0.42538776757E+02  0.10198524602E+03  0.90810974439E+02 0.  0.
        -11    1    4    4    0    0 -0.24757299846E+02 -0.18437468718E+02  0.17278690530E+02  0.35375376956E+02  0.00000000000E+00 0.  1.
         11    1    4    4    0    0  0.88092047557E+01  0.27948938710E+02 -0.59817467287E+02  0.66609869059E+02  0.00000000000E+00 0. -1.
        -11    1    3    3    0    0 -0.34849523568E+02 -0.56021045630E+01 -0.32277920704E+01  0.35444202771E+02  0.00000000000E+00 0.  1.
         11    1    3    3    0    0  0.34354803273E+00  0.30876711420E+02 -0.11779703762E+03  0.12177697404E+03  0.00000000000E+00 0. -1.
          3    1    1    2  501    0  0.50454070625E+02 -0.34786076849E+02  0.36776963215E+02  0.71471878445E+02  0.00000000000E+00 0. -1.
<scales pt_clust_5="13000.00000" pt_clust_6="13000.00000" pt_clust_7="13000.00000" pt_clust_8="13000.00000" pt_clust_9="61.28364"></scales>
<clustering>
<clus scale="   61.284">  1  9  2 -1</clus>
<clus scale="   90.786">  7  8 -1 -1</clus>
<clus scale="   90.811">  5  6 -1 -1</clus>
<clus scale="   92.877">  2  7  1 -1</clus>
<clus scale="   61.284">  1  5  2 -1</clus>
</clustering>
</event>
<event>
 9    1  0.1504846E-005  0.9704694E+02  0.7546771E-02  0.1287059E+00
         21   -1    0    0  501  502  0.00000000000E+00  0.00000000000E+00  0.16170304206E+03  0.16170304206E+03  0.00000000000E+00 0. -1.
         -2   -1    0    0    0  501 -0.00000000000E+00 -0.00000000000E+00 -0.93014455110E+02  0.93014455110E+02  0.00000000000E+00 0.  1.
         23    2    1    2    0    0  0.40531491277E+02  0.24517120413E+02  0.39508419681E+01  0.10153084320E+03  0.89716286096E+02 0.  0.
         23    2    1    2    0    0 -0.28700924643E+02 -0.15517385705E+01  0.11628064143E+02  0.94127283255E+02  0.88873970370E+02 0.  0.
        -13    1    3    3    0    0 -0.22259603240E+02  0.23602930743E+02 -0.15269876610E+02  0.35857459583E+02  0.00000000000E+00 0. -1.
         13    1    3    3    0    0  0.62791094518E+02  0.91418967025E+00  0.19220718578E+02  0.65673383620E+02  0.00000000000E+00 0.  1.
        -13    1    4    4    0    0 -0.53043601576E+02  0.12140631244E+02 -0.14036937068E+02  0.56196567488E+02  0.00000000000E+00 0. -1.
         13    1    4    4    0    0  0.24342676933E+02 -0.13692369814E+02  0.25665001211E+02  0.37930715767E+02  0.00000000000E+00 0.  1.
         -2    1    1    2    0  502 -0.11830566635E+02 -0.22965381843E+02  0.53109680843E+02  0.59059370716E+02  0.00000000000E+00 0.  1.
<scales pt_clust_5="13000.00000" pt_clust_6="13000.00000" pt_clust_7="13000.00000" pt_clust_8="13000.00000" pt_clust_9="25.83353"></scales>
<clustering>
<clus scale="   25.834">  1  9  2 -1</clus>
<clus scale="   88.874">  7  8 -1 -1</clus>
<clus scale="   89.716">  5  6 -1 -1</clus>
<clus scale="   96.269">  1  7  2 -1</clus>
<clus scale="   25.834">  1  5  2 -1</clus>
</clustering>
</event>
<event>
 9    1  0.1504846E-005  0.2655629E+03  0.7546771E-02  0.1105559E+00
         -1   -1    0    0    0  501 -0.00000000000E+00  0.00000000000E+00  0.14202181046E+03  0.14202181046E+03  0.00000000000E+00 0.  1.
         21   -1    0    0  501  502  0.00000000000E+00 -0.00000000000E+00 -0.14247882503E+04  0.14247882503E+04  0.00000000000E+00 0.  1.
         23    2    1    2    0    0  0.89592988134E+02  0.21555075886E+03 -0.13381366876E+03  0.28719747659E+03  0.10043534957E+03 0.  0.
         23    2    1    2    0    0  0.17443747736E+03 -0.22227559182E+03 -0.60181799691E+03  0.67206524347E+03  0.98244174672E+02 0.  0.
        -11    1    4    4    0    0  0.12491343167E+03 -0.84295129705E+02 -0.34230780335E+03  0.37401024924E+03  0.00000000000E+00 0. -1.
         11    1    4    4    0    0  0.49524045694E+02 -0.13798046211E+03 -0.25951019355E+03  0.29805499423E+03  0.00000000000E+00 0.  1.
        -13    1    3    3    0    0  0.37989466406E+02  0.19402814299E+03 -0.96738422410E+02  0.22011006838E+03  0.00000000000E+00 0.  1.
         13    1    3    3    0    0  0.51603521728E+02  0.21522615870E+02 -0.37075246346E+02  0.67087408209E+02  0.00000000000E+00 0. -1.
         -1    1    1    2    0  502 -0.26403046550E+03  0.67248329534E+01 -0.54713477418E+03  0.60754734071E+03  0.00000000000E+00 0.  1.
<scales pt_clust_5="13000.00000" pt_clust_6="13000.00000" pt_clust_7="13000.00000" pt_clust_8="13000.00000" pt_clust_9="246.72200"></scales>
<clustering>
<clus scale="   98.244">  5  6 -1 -1</clus>
<clus scale="  100.435">  7  8 -1 -1</clus>
<clus scale="  254.119">  1  7  2 -1</clus>
<clus scale="  246.722">  2  9  1 -1</clus>
<clus scale="  246.722">  2  5  1 -1</clus>
</clustering>
</event>
<event>
 9    1  0.1504846E-005  0.1053539E+03  0.7546771E-02  0.1269542E+00
         21   -1    0    0  501  502  0.00000000000E+00  0.00000000000E+00  0.30694897956E+03  0.30694897956E+03  0.00000000000E+00 0. -1.
          1   -1    0    0  502    0 -0.00000000000E+00 -0.00000000000E+00 -0.13448735443E+03  0.13448735443E+03  0.00000000000E+00 0. -1.
         23    2    1    2    0    0  0.40212245870E+01  0.30007951128E+02 -0.31110677717E+02  0.10268516241E+03  0.93057621579E+02 0.  0.
         23    2    1    2    0    0 -0.86563853998E+02 -0.77174763761E+02  0.47368618299E+02  0.15589170381E+03  0.92785733481E+02 0.  0.
        -11    1    3    3    0    0  0.33752996522E+02  0.50953508554E+02 -0.23796546260E+02  0.65588111896E+02  0.00000000000E+00 0.  1.
         11    1    3    3    0    0 -0.29731771935E+02 -0.20945557425E+02 -0.73141314567E+01  0.37097050519E+02  0.00000000000E+00 0. -1.
        -13    1    4    4    0    0 -0.96939713354E+02 -0.59755520791E+02  0.63134967017E+02  0.13020773537E+03  0.00000000000E+00 0. -1.
         13    1    4    4    0    0  0.10375859356E+02 -0.17419242970E+02 -0.15766348718E+02  0.25683968442E+02  0.00000000000E+00 0.  1.
          1    1    1    2  501    0  0.82542629411E+02  0.47166812633E+02  0.15620368454E+03  0.18285946776E+03  0.00000000000E+00 0. -1.
<scales pt_clust_5="13000.00000" pt_clust_6="13000.00000" pt_clust_7="13000.00000" pt_clust_8="13000.00000" pt_clust_9="95.06836"></scales>
<clustering>
<clus scale="   92.786">  7  8 -1 -1</clus>
<clus scale="   93.058">  5  6 -1 -1</clus>
<clus scale="   95.068">  1  9  2 -1</clus>
<clus scale="  105.114">  1  7  2 -1</clus>
<clus scale="   95.068">  1  5  2 -1</clus>
</clustering>
</event>
<event>
 9    1  0.1504846E-005  0.1645851E+03  0.7546771E-02  0.1184035E+00
         21   -1    0    0  501  502  0.00000000000E+00  0.00000000000E+00  0.14746714973E+03  0.14746714973E+03  0.00000000000E+00 0. -1.
          3   -1    0    0  502    0 -0.00000000000E+00 -0.00000000000E+00 -0.63164055977E+03  0.63164055977E+03  0.00000000000E+00 0. -1.
         23    2    1    2    0    0 -0.10872422163E+03 -0.65149702724E+02 -0.24981504877E+03  0.29530388239E+03  0.93441876177E+02 0.  0.
         23    2    1    2    0    0  0.15509745778E+03 -0.11369418906E+01 -0.31937393549E+03  0.36644947421E+03  0.90713794072E+02 0.  0.
        -13    1    3    3    0    0 -0.70867932600E+02 -0.20153407254E+02 -0.55376613363E+02  0.92168286316E+02  0.00000000000E+00 0.  1.
         13    1    3    3    0    0 -0.37856289032E+02 -0.44996295470E+02 -0.19443843541E+03  0.20313559607E+03  0.00000000000E+00 0. -1.
        -13    1    4    4    0    0  0.11901171796E+03  0.38505103884E+02 -0.24047834246E+03  0.27106505719E+03  0.00000000000E+00 0.  1.
         13    1    4    4    0    0  0.36085739822E+02 -0.39642045774E+02 -0.78895593022E+02  0.95384417019E+02  0.00000000000E+00 0. -1.
          3    1    1    2  501    0 -0.46373236151E+02  0.66286644615E+02  0.85015574223E+02  0.11735435291E+03  0.00000000000E+00 0. -1.
<scales pt_clust_5="13000.00000" pt_clust_6="13000.00000" pt_clust_7="13000.00000" pt_clust_8="13000.00000" pt_clust_9="80.89744"></scales>
<clustering>
<clus scale="   80.897">  1  9  2 -1</clus>
<clus scale="   90.714">  7  8 -1 -1</clus>
<clus scale="   93.442">  5  6 -1 -1</clus>
<clus scale="  163.052">  1  7  2 -1</clus>
<clus scale="   80.897">  1  5  2 -1</clus>
</clustering>
</event>
<event>
 9    1  0.1504846E-005  0.9556796E+02  0.7546771E-02  0.1290865E+00
          1   -1    0    0  502    0 -0.00000000000E+00  0.00000000000E+00  0.16217321329E+03  0.16217321329E+03  0.00000000000E+00 0. -1.
         21   -1    0    0  501  502  0.00000000000E+00 -0.00000000000E+00 -0.84162333055E+02  0.84162333055E+02  0.00000000000E+00 0.  1.
         23    2    1    2    0    0 -0.90990376868E+01  0.18038118075E+00  0.39349116280E+02  0.10034321795E+03  0.91856319394E+02 0.  0.
         23    2    1    2    0    0  0.45890910093E+02 -0.10989492647E+02  0.34669205757E+02  0.10743821983E+03  0.90079257741E+02 0.  0.
        -11    1    3    3    0    0  0.39143571385E+02  0.13210774828E+02  0.25261506560E+02  0.48424038101E+02  0.00000000000E+00 0.  1.
         11    1    3    3    0    0 -0.48242609072E+02 -0.13030393648E+02  0.14087609720E+02  0.51919179850E+02  0.00000000000E+00 0. -1.
        -13    1    4    4    0    0  0.51758128434E+02 -0.41497041461E+02  0.86225905056E+01  0.66897364492E+02  0.00000000000E+00 0.  1.
         13    1    4    4    0    0 -0.58672183409E+01  0.30507548814E+02  0.26046615251E+02  0.40540855341E+02  0.00000000000E+00 0. -1.
          1    1    1    2  501    0 -0.36791872407E+02  0.10809111466E+02  0.39925581970E+01  0.38554108560E+02  0.00000000000E+00 0. -1.
<scales pt_clust_5="13000.00000" pt_clust_6="13000.00000" pt_clust_7="13000.00000" pt_clust_8="13000.00000" pt_clust_9="38.34682"></scales>
<clustering>
<clus scale="   38.347">  2  9  1 -1</clus>
<clus scale="   90.079">  7  8 -1 -1</clus>
<clus scale="   91.856">  5  6 -1 -1</clus>
<clus scale="   93.861">  2  7  1 -1</clus>
<clus scale="   38.347">  2  5  1 -1</clus>
</clustering>
</event>
<event>
 9    1  0.1504846E-005  0.1612365E+03  0.7546771E-02  0.1187758E+00
          3   -1    0    0  502    0 -0.00000000000E+00  0.00000000000E+00  0.15558614103E+03  0.15558614103E+03  0.00000000000E+00 0. -1.
         21   -1    0    0  501  502  0.00000000000E+00 -0.00000000000E+00 -0.27172234908E+03  0.27172234908E+03  0.00000000000E+00 0.  1.
         23    2    1    2    0    0 -0.97636397779E+02  0.12014198078E+03  0.27086337847E+02  0.18020828229E+03  0.88172521746E+02 0.  0.
         23    2    1    2    0    0  0.64204822824E+02 -0.80363176984E+02 -0.62071241514E+02  0.15073860946E+03  0.91042791428E+02 0.  0.
        -11    1    4    4    0    0  0.45597203046E+02 -0.95865446726E+02 -0.67656777631E+02  0.12588378911E+03  0.00000000000E+00 0.  1.
         11    1    4    4    0    0  0.18607619778E+02  0.15502269743E+02  0.55855361177E+01  0.24854820351E+02  0.00000000000E+00 0. -1.
        -11    1    3    3    0    0 -0.10126930171E+03  0.63076872106E+02  0.66742331826E+01  0.11949355067E+03  0.00000000000E+00 0.  1.
         11    1    3    3    0    0  0.36329039277E+01  0.57065108678E+02  0.20412104665E+02  0.60714731624E+02  0.00000000000E+00 0. -1.
          3    1    1    2  501    0  0.33431574955E+02 -0.39778803800E+02 -0.81151304384E+02  0.96361598363E+02  0.00000000000E+00 0. -1.
<scales pt_clust_5="13000.00000" pt_clust_6="13000.00000" pt_clust_7="13000.00000" pt_clust_8="13000.00000" pt_clust_9="51.96175"></scales>
<clustering>
<clus scale="   51.962">  2  9  1 -1</clus>
<clus scale="   88.173">  7  8 -1 -1</clus>
<clus scale="   91.043">  5  6 -1 -1</clus>
<clus scale="  159.633">  1  7  2 -1</clus>
<clus scale="   51.962">  2  5  1 -1</clus>
</clustering>
</event>
<event>
 9    1  0.1504846E-005  0.1177285E+03  0.7546771E-02  0.1248210E+00
         21   -1    0    0  501  502  0.00000000000E+00  0.00000000000E+00  0.52234383823E+02  0.52234383823E+02  0.00000000000E+00 0. -1.
          2   -1    0    0  502    0 -0.00000000000E+00 -0.00000000000E+00 -0.79722467584E+03  0.79722467584E+03  0.00000000000E+00 0. -1.
         23    2    1    2    0    0 -0.44072540039E+02 -0.12788536861E+02 -0.36694504851E+03  0.38176424284E+03  0.94812093225E+02 0.  0.
         23    2    1    2    0    0  0.13313691581E+03  0.50787437630E+02 -0.29555693828E+03  0.34049143641E+03  0.90970942224E+02 0.  0.
        -11    1    4    4    0    0  0.88488881715E+02  0.12341317312E+02 -0.25156615628E+03  0.26696089842E+03  0.00000000000E+00 0. -1.
         11    1    4    4    0    0  0.44648034092E+02  0.38446120318E+02 -0.43990782006E+02  0.73530537991E+02  0.00000000000E+00 0.  1.
        -13    1    3    3    0    0 -0.73945234071E+02 -0.34986164338E+01 -0.26149532588E+03  0.27177185914E+03  0.00000000000E+00 0.  1.
         13    1    3    3    0    0  0.29872694032E+02 -0.92899204270E+01 -0.10544972262E+03  0.10999238370E+03  0.00000000000E+00 0. -1.
          2    1    1    2  501    0 -0.89064375769E+02 -0.37998900769E+02 -0.82488305222E+02  0.12720338042E+03  0.00000000000E+00 0. -1.
<scales pt_clust_5="13000.00000" pt_clust_6="13000.00000" pt_clust_7="13000.00000" pt_clust_8="13000.00000" pt_clust_9="96.83171"></scales>
<clustering>
<clus scale="   90.971">  5  6 -1 -1</clus>
<clus scale="   94.812">  7  8 -1 -1</clus>
<clus scale="   96.832">  1  9  2 -1</clus>
<clus scale="  114.658">  1  5  2 -1</clus>
<clus scale="   96.832">  1  5  2 -1</clus>
</clustering>
</event>
<event>
 9    1  0.1504846E-005  0.1131376E+03  0.7546771E-02  0.1256767E+00
          1   -1    0    0  502    0 -0.00000000000E+00  0.00000000000E+00  0.15716057557E+03  0.15716057557E+03  0.00000000000E+00 0. -1.
         21   -1    0    0  501  502  0.00000000000E+00 -0.00000000000E+00 -0.10996194294E+03  0.10996194294E+03  0.00000000000E+00 0. -1.
         23    2    1    2    0    0 -0.77988199601E+01  0.44303002481E+02  0.24037508413E+02  0.10483018391E+03  0.91585959772E+02 0.  0.
         23    2    1    2    0    0  0.17014802867E+02 -0.72483493949E+02  0.39882699546E+02  0.12825286454E+03  0.96513248454E+02 0.  0.
        -11    1    4    4    0    0  0.53868658059E+02 -0.63506641507E+02  0.33626224596E+02  0.89808957333E+02  0.00000000000E+00 0.  1.
         11    1    4    4    0    0 -0.36853855192E+02 -0.89768524419E+01  0.62564749502E+01  0.38443907204E+02  0.00000000000E+00 0. -1.
        -13    1    3    3    0    0 -0.49189371770E+02  0.22701068693E+02  0.49852802583E+01  0.54403913776E+02  0.00000000000E+00 0.  1.
         13    1    3    3    0    0  0.41390551810E+02  0.21601933788E+02  0.19052228154E+02  0.50426270139E+02  0.00000000000E+00 0. -1.
          1    1    1    2  501    0 -0.92159829070E+01  0.28180491468E+02 -0.16721575331E+02  0.34039470059E+02  0.00000000000E+00 0. -1.
<scales pt_clust_5="13000.00000" pt_clust_6="13000.00000" pt_clust_7="13000.00000" pt_clust_8="13000.00000" pt_clust_9="29.64919"></scales>
<clustering>
<clus scale="   29.649">  2  9  1 -1</clus>
<clus scale="   91.586">  7  8 -1 -1</clus>
<clus scale="   96.513">  5  6 -1 -1</clus>
<clus scale="  108.965">  1  7  2 -1</clus>
<clus scale="   29.649">  2  5  1 -1</clus>
</clustering>
</event>
<event>
 9    1  0.1504846E-005  0.1575329E+03  0.7546771E-02  0.1191702E+00
          1   -1    0    0  502    0 -0.00000000000E+00  0.00000000000E+00  0.44574630359E+03  0.44574630359E+03  0.00000000000E+00 0. -1.
         21   -1    0    0  501  502  0.00000000000E+00 -0.00000000000E+00 -0.31952779083E+03  0.31952779083E+03  0.00000000000E+00 0. -1.
         23    2    1    2    0    0  0.11693805624E+03 -0.68702476959E+02  0.34497407882E+03  0.38132957307E+03  0.89501893311E+02 0.  0.
         23    2    1    2    0    0 -0.12389486265E+03 -0.13594610526E+02 -0.28592533952E+01  0.15278997221E+03  0.88328080768E+02 0.  0.
        -11    1    4    4    0    0 -0.76660022478E+02 -0.47005815755E+02  0.17200390183E+02  0.91554132531E+02  0.00000000000E+00 0. -1.
         11    1    4    4    0    0 -0.47234840174E+02  0.33411205229E+02 -0.20059643578E+02  0.61235839683E+02  0.00000000000E+00 0.  1.
        -13    1    3    3    0    0  0.55467319341E+02 -0.65806774599E+02  0.27495947328E+03  0.28811432982E+03  0.00000000000E+00 0. -1.
         13    1    3    3    0    0  0.61470736898E+02 -0.28957023592E+01  0.70014605535E+02  0.93215243255E+02  0.00000000000E+00 0.  1.
          1    1    1    2  501    0  0.69568064125E+01  0.82297087485E+02 -0.21589631266E+03  0.23115454913E+03  0.00000000000E+00 0. -1.
<scales pt_clust_5="13000.00000" pt_clust_6="13000.00000" pt_clust_7="13000.00000" pt_clust_8="13000.00000" pt_clust_9="82.59060"></scales>
<clustering>
<clus scale="   82.591">  2  9  1 -1</clus>
<clus scale="   88.328">  5  6 -1 -1</clus>
<clus scale="   89.502">  7  8 -1 -1</clus>
<clus scale="  156.869">  2  5  1 -1</clus>
<clus scale="   82.591">  2  5  1 -1</clus>
</clustering>
</event>
<event>
 9    1  0.1504846E-005  0.1387679E+03  0.7546771E-02  0.1215630E+00
          1   -1    0    0  502    0 -0.00000000000E+00  0.00000000000E+00  0.58939872316E+03  0.58939872316E+03  0.00000000000E+00 0. -1.
         21   -1    0    0  501  502  0.00000000000E+00 -0.00000000000E+00 -0.14226757483E+03  0.14226757483E+03  0.00000000000E+00 0. -1.
         23    2    1    2    0    0  0.98931854960E+02  0.45906339705E+02  0.50064910570E+03  0.51979122358E+03  0.87398427461E+02 0.  0.
         23    2    1    2    0    0 -0.48824263006E+02 -0.81255697924E+02 -0.63523500722E+00  0.13090020039E+03  0.90267169193E+02 0.  0.
        -11    1    4    4    0    0  0.21656146688E+02 -0.25062753773E+02 -0.20015521528E+02  0.38700793507E+02  0.00000000000E+00 0.  1.
         11    1    4    4    0    0 -0.70480409694E+02 -0.56192944151E+02  0.19380286521E+02  0.92199406878E+02  0.00000000000E+00 0. -1.
        -13    1    3    3    0    0  0.95474616310E+02  0.28854060007E+01  0.31342070905E+03  0.32765266486E+03  0.00000000000E+00 0. -1.
         13    1    3    3    0    0  0.34572386497E+01  0.43020933704E+02  0.18722839665E+03  0.19213855873E+03  0.00000000000E+00 0.  1.
          1    1    1    2  501    0 -0.50107591955E+02  0.35349358220E+02 -0.52882722365E+02  0.80974874021E+02  0.00000000000E+00 0. -1.
<scales pt_clust_5="13000.00000" pt_clust_6="13000.00000" pt_clust_7="13000.00000" pt_clust_8="13000.00000" pt_clust_9="61.32168"></scales>
<clustering>
<clus scale="   61.322">  2  9  1 -1</clus>
<clus scale="   87.398">  7  8 -1 -1</clus>
<clus scale="   90.267">  5  6 -1 -1</clus>
<clus scale="  136.919">  1  7  2 -1</clus>
<clus scale="   61.322">  2  5  1 -1</clus>
</clustering>
</event>
<event>
 9    1  0.1504846E-005  0.1651804E+03  0.7546771E-02  0.1188702E+00
         -3   -1    0    0    0  501 -0.00000000000E+00  0.00000000000E+00  0.28267896002E+03  0.28267896002E+03  0.00000000000E+00 0.  1.
         21   -1    0    0  501  502  0.00000000000E+00 -0.00000000000E+00 -0.10450886534E+03  0.10450886534E+03  0.00000000000E+00 0. -1.
         23    2    1    2    0    0 -0.35395062383E+02  0.10427910717E+03  0.11868161968E+03  0.20117278171E+03  0.11940778289E+03 0.  0.
         23    2    1    2    0    0  0.15128561555E+02 -0.11982479591E+03  0.49543747175E+02  0.15860524420E+03  0.90078773939E+02 0.  0.
        -13    1    3    3    0    0 -0.75640482225E+02  0.50948368956E+02  0.91058774866E+02  0.12887559634E+03  0.00000000000E+00 0. -1.
         13    1    3    3    0    0  0.40245419842E+02  0.53330738216E+02  0.27622844818E+02  0.72297185372E+02  0.00000000000E+00 0.  1.
        -13    1    4    4    0    0 -0.20588054431E+01 -0.97305854768E+02 -0.46664696511E+01  0.97439437555E+02  0.00000000000E+00 0. -1.
         13    1    4    4    0    0  0.17187366998E+02 -0.22518941144E+02  0.54210216826E+02  0.61165806648E+02  0.00000000000E+00 0.  1.
         -3    1    1    2    0  502  0.20266500828E+02  0.15545688740E+02  0.99447278301E+01  0.27409799449E+02  0.00000000000E+00 0.  1.
<scales pt_clust_5="13000.00000" pt_clust_6="13000.00000" pt_clust_7="13000.00000" pt_clust_8="13000.00000" pt_clust_9="25.54211"></scales>
<clustering>
<clus scale="   25.542">  2  9  1 -1</clus>
<clus scale="   90.079">  7  8 -1 -1</clus>
<clus scale="  119.408">  5  6 -1 -1</clus>
<clus scale="  145.398">  2  7  1 -1</clus>
<clus scale="   25.542">  2  5  1 -1</clus>
</clustering>
</event>
<event>
 9    1  0.1504846E-005  0.2392428E+03  0.7546771E-02  0.1120417E+00
         21   -1    0    0  501  502  0.00000000000E+00  0.00000000000E+00  0.58559119537E+03  0.58559119537E+03  0.00000000000E+00 0.  1.
          1   -1    0    0  502    0 -0.00000000000E+00 -0.00000000000E+00 -0.29194830151E+03  0.29194830151E+03  0.00000000000E+00 0. -1.
         23    2    1    2    0    0  0.31495330943E+02  0.22023188927E+03 -0.20034955562E+03  0.31332144021E+03  0.92392313186E+02 0.  0.
         23    2    1    2    0    0 -0.46241886736E+02 -0.20410471681E+03  0.34445231850E+03  0.41308964315E+03  0.90546154237E+02 0.  0.
        -11    1    3    3    0    0  0.46807784665E+02  0.45456018718E+02 -0.48681038399E+02  0.81406767793E+02  0.00000000000E+00 0.  1.
         11    1    3    3    0    0 -0.15312453722E+02  0.17477587056E+03 -0.15166851722E+03  0.23191467242E+03  0.00000000000E+00 0. -1.
        -13    1    4    4    0    0  0.69854858227E+01 -0.15629536358E+03  0.23335528350E+03  0.28094790625E+03  0.00000000000E+00 0.  1.
         13    1    4    4    0    0 -0.53227372559E+02 -0.47809353226E+02  0.11109703500E+03  0.13214173690E+03  0.00000000000E+00 0. -1.
          1    1    1    2  501    0  0.14746555794E+02 -0.16127172467E+02  0.14954013098E+03  0.15112841352E+03  0.00000000000E+00 0. -1.
<scales pt_clust_5="13000.00000" pt_clust_6="13000.00000" pt_clust_7="13000.00000" pt_clust_8="13000.00000" pt_clust_9="21.85284"></scales>
<clustering>
<clus scale="   21.853">  1  9  2 -1</clus>
<clus scale="   90.546">  7  8 -1 -1</clus>
<clus scale="   92.392">  5  6 -1 -1</clus>
<clus scale="  238.536">  1  7  2 -1</clus>
<clus scale="   21.853">  1  5  2 -1</clus>
</clustering>
</event>
<event>
 9    1  0.1504846E-005  0.3300718E+03  0.7546771E-02  0.1071823E+00
         21   -1    0    0  501  502  0.00000000000E+00  0.00000000000E+00  0.16209843863E+03  0.16209843863E+03  0.00000000000E+00 0. -1.
          2   -1    0    0  502    0 -0.00000000000E+00 -0.00000000000E+00 -0.11155015804E+04  0.11155015804E+04  0.00000000000E+00 0. -1.
         23    2    1    2    0    0  0.26994608008E+03 -0.12636287941E+03 -0.66670542562E+03  0.73555956074E+03  0.87825277686E+02 0.  0.
         23    2    1    2    0    0 -0.34658091927E+03  0.86730861270E+02 -0.22714069209E+03  0.43720423099E+03  0.10915159043E+03 0.  0.
        -11    1    3    3    0    0  0.44567521588E+02  0.10340759502E+02 -0.75999521136E+02  0.88708074607E+02  0.00000000000E+00 0.  1.
         11    1    3    3    0    0  0.22537855849E+03 -0.13670363891E+03 -0.59070590448E+03  0.64685148613E+03  0.00000000000E+00 0. -1.
        -13    1    4    4    0    0 -0.26475428532E+03  0.11266285768E+03 -0.17408704971E+03  0.33629459105E+03  0.00000000000E+00 0. -1.
         13    1    4    4    0    0 -0.81826633959E+02 -0.25931996413E+02 -0.53053642373E+02  0.10090963994E+03  0.00000000000E+00 0.  1.
          2    1    1    2  501    0  0.76634839193E+02  0.39632018137E+02 -0.59557024075E+02  0.10483622731E+03  0.00000000000E+00 0. -1.
<scales pt_clust_5="13000.00000" pt_clust_6="13000.00000" pt_clust_7="13000.00000" pt_clust_8="13000.00000" pt_clust_9="86.27627"></scales>
<clustering>
<clus scale="   86.276">  1  9  2 -1</clus>
<clus scale="   87.825">  5  6 -1 -1</clus>
<clus scale="  109.152">  7  8 -1 -1</clus>
<clus scale="  323.646">  2  5  1 -1</clus>
<clus scale="   86.276">  1  5  2 -1</clus>
</clustering>
</event>
<event>
 9    1  0.1504846E-005  0.1570953E+03  0.7546771E-02  0.1210755E+00
          2   -1    0    0  502    0 -0.00000000000E+00  0.00000000000E+00  0.49017014842E+03  0.49017014842E+03  0.00000000000E+00 0. -1.
         21   -1    0    0  501  502  0.00000000000E+00 -0.00000000000E+00 -0.94798879445E+02  0.94798879445E+02  0.00000000000E+00 0.  1.
         23    2    1    2    0    0 -0.33228805128E+01  0.52349100516E+02  0.20183175612E+03  0.22735684690E+03  0.90573772098E+02 0.  0.
         23    2    1    2    0    0  0.81214682749E+02 -0.13777826450E+03  0.13917726461E+03  0.22986035535E+03  0.88807641089E+02 0.  0.
        -13    1    3    3    0    0 -0.33327084827E+02  0.63762191113E+02  0.12769662803E+03  0.14656991645E+03  0.00000000000E+00 0.  1.
         13    1    3    3    0    0  0.30004204314E+02 -0.11413090597E+02  0.74135128095E+02  0.80786930448E+02  0.00000000000E+00 0. -1.
        -13    1    4    4    0    0  0.63831764164E+02 -0.12422384629E+03  0.67981697247E+02  0.15533051620E+03  0.00000000000E+00 0.  1.
         13    1    4    4    0    0  0.17382918585E+02 -0.13554418208E+02  0.71195567360E+02  0.74529839146E+02  0.00000000000E+00 0. -1.
          2    1    1    2  501    0 -0.77891802236E+02  0.85429163982E+02  0.54362248245E+02  0.12775182562E+03  0.00000000000E+00 0. -1.
<scales pt_clust_5="13000.00000" pt_clust_6="13000.00000" pt_clust_7="13000.00000" pt_clust_8="13000.00000" pt_clust_9="129.58447"></scales>
<clustering>
<clus scale="   88.808">  7  8 -1 -1</clus>
<clus scale="   90.574">  5  6 -1 -1</clus>
<clus scale="  104.667">  1  5  2 -1</clus>
<clus scale="  129.584">  2  9  1 -1</clus>
<clus scale="  129.584">  2  5  1 -1</clus>
</clustering>
</event>
<event>
 9    1  0.1504846E-005  0.2098687E+03  0.7546771E-02  0.1141764E+00
         -4   -1    0    0    0  501 -0.00000000000E+00  0.00000000000E+00  0.56699926020E+03  0.56699926020E+03  0.00000000000E+00 0.  1.
         21   -1    0    0  501  502  0.00000000000E+00 -0.00000000000E+00 -0.10334812712E+03  0.10334812712E+03  0.00000000000E+00 0. -1.
         23    2    1    2    0    0  0.19376529319E+03 -0.37599761445E+02  0.24950598393E+03  0.33109031718E+03  0.91699679432E+02 0.  0.
         23    2    1    2    0    0 -0.18252517506E+03 -0.89591971442E+01  0.20738549804E+03  0.29088590349E+03  0.90609918365E+02 0.  0.
        -11    1    4    4    0    0 -0.16483891325E+03 -0.35548614205E+02  0.15235676875E+03  0.22726230720E+03  0.00000000000E+00 0.  1.
         11    1    4    4    0    0 -0.17686261814E+02  0.26589417061E+02  0.55028729292E+02  0.63623596284E+02  0.00000000000E+00 0. -1.
        -13    1    3    3    0    0  0.17184337335E+03 -0.61270774113E+02  0.22929567495E+03  0.29302006634E+03  0.00000000000E+00 0. -1.
         13    1    3    3    0    0  0.21921919842E+02  0.23671012668E+02  0.20210308974E+02  0.38070250841E+02  0.00000000000E+00 0.  1.
         -4    1    1    2    0  502 -0.11240118128E+02  0.46558958589E+02  0.67596511107E+01  0.48371166655E+02  0.00000000000E+00 0.  1.
<scales pt_clust_5="13000.00000" pt_clust_6="13000.00000" pt_clust_7="13000.00000" pt_clust_8="13000.00000" pt_clust_9="47.89652"></scales>
<clustering>
<clus scale="   47.897">  2  9  1 -1</clus>
<clus scale="   90.610">  5  6 -1 -1</clus>
<clus scale="   91.700">  7  8 -1 -1</clus>
<clus scale="  209.395">  2  5  1 -1</clus>
<clus scale="   47.897">  2  5  1 -1</clus>
</clustering>
</event>
<event>
 9    1  0.1504846E-005  0.9607322E+02  0.7546771E-02  0.1289368E+00
         -1   -1    0    0    0  501 -0.00000000000E+00  0.00000000000E+00  0.14397607365E+03  0.14397607365E+03  0.00000000000E+00 0.  1.
         21   -1    0    0  501  502  0.00000000000E+00 -0.00000000000E+00 -0.15540708074E+03  0.15540708074E+03  0.00000000000E+00 0.  1.
         23    2    1    2    0    0  0.37494743372E+02 -0.25716869301E+02  0.54368721946E+02  0.11621410661E+03  0.92100746484E+02 0.  0.
         23    2    1    2    0    0  0.91401216774E+01 -0.28260130150E+02 -0.56716084133E+02  0.11126049673E+03  0.90994544635E+02 0.  0.
        -11    1    4    4    0    0 -0.35314884698E+02  0.77302155366E+01 -0.10273779420E+02  0.37582547240E+02  0.00000000000E+00 0. -1.
         11    1    4    4    0    0  0.44455006375E+02 -0.35990345686E+02 -0.46442304713E+02  0.73677949493E+02  0.00000000000E+00 0.  1.
        -13    1    3    3    0    0 -0.81485959802E+01 -0.48060448620E+02  0.12382362283E+02  0.50294425473E+02  0.00000000000E+00 0. -1.
         13    1    3    3    0    0  0.45643339352E+02  0.22343579319E+02  0.41986359662E+02  0.65919681141E+02  0.00000000000E+00 0.  1.
         -1    1    1    2    0  502 -0.46634865049E+02  0.53976999450E+02 -0.90836449041E+01  0.71908551039E+02  0.00000000000E+00 0.  1.
<scales pt_clust_5="13000.00000" pt_clust_6="13000.00000" pt_clust_7="13000.00000" pt_clust_8="13000.00000" pt_clust_9="71.33251"></scales>
<clustering>
<clus scale="   71.333">  2  9  1 -1</clus>
<clus scale="   90.995">  5  6 -1 -1</clus>
<clus scale="   92.101">  7  8 -1 -1</clus>
<clus scale="   95.013">  2  5  1 -1</clus>
<clus scale="   71.333">  2  5  1 -1</clus>
</clustering>
</event>
<event>
 9    1  0.1504846E-005  0.1031474E+03  0.7546771E-02  0.1273952E+00
          1   -1    0    0  502    0 -0.00000000000E+00  0.00000000000E+00  0.49787928671E+03  0.49787928671E+03  0.00000000000E+00 0. -1.
         21   -1    0    0  501  502  0.00000000000E+00 -0.00000000000E+00 -0.35823657932E+02  0.35823657932E+02  0.00000000000E+00 0. -1.
         23    2    1    2    0    0 -0.54393576800E+02  0.14290404751E+02  0.29798661599E+03  0.31659030325E+03  0.90942399005E+02 0.  0.
         23    2    1    2    0    0  0.37716948928E+02  0.56400884920E+01  0.16353996648E+03  0.19112005844E+03  0.91253368540E+02 0.  0.
        -11    1    3    3    0    0 -0.32821521828E+02 -0.34788361725E+02  0.91356859032E+02  0.10311914516E+03  0.00000000000E+00 0.  1.
         11    1    3    3    0    0 -0.21572054972E+02  0.49078766476E+02  0.20662975696E+03  0.21347115809E+03  0.00000000000E+00 0. -1.
        -11    1    4    4    0    0  0.43000573628E+01  0.24737071022E+02  0.14716712873E+03  0.14929359314E+03  0.00000000000E+00 0. -1.
         11    1    4    4    0    0  0.33416891565E+02 -0.19096982530E+02  0.16372837751E+02  0.41826465301E+02  0.00000000000E+00 0.  1.
          1    1    1    2  501    0  0.16676627872E+02 -0.19930493243E+02  0.52904630545E+00  0.25992582944E+02  0.00000000000E+00 0. -1.
<scales pt_clust_5="13000.00000" pt_clust_6="13000.00000" pt_clust_7="13000.00000" pt_clust_8="13000.00000" pt_clust_9="25.98720"></scales>
<clustering>
<clus scale="   25.987">  2  9  1 -1</clus>
<clus scale="   90.942">  5  6 -1 -1</clus>
<clus scale="   91.253">  7  8 -1 -1</clus>
<clus scale="  102.872">  1  5  2 -1</clus>
<clus scale="   25.987">  2  5  1 -1</clus>
</clustering>
</event>
<event>
 9    1  0.1504846E-005  0.1058694E+03  0.7546771E-02  0.1271146E+00
          1   -1    0    0  502    0 -0.00000000000E+00  0.00000000000E+00  0.36777486021E+03  0.36777486021E+03  0.00000000000E+00 0. -1.
         21   -1    0    0  501  502  0.00000000000E+00 -0.00000000000E+00 -0.19614254782E+03  0.19614254782E+03  0.00000000000E+00 0. -1.
         23    2    1    2    0    0 -0.30694766784E+02 -0.14480326094E+02  0.25210634120E+03  0.27291607958E+03  0.98862180169E+02 0.  0.
         23    2    1    2    0    0  0.50276752610E+02  0.28443241715E+01  0.77673802235E+02  0.13122152005E+03  0.93005514553E+02 0.  0.
        -13    1    4    4    0    0  0.31185706159E+02  0.19117777697E+02 -0.11691397249E+02  0.38402167417E+02  0.00000000000E+00 0.  1.
         13    1    4    4    0    0  0.19091046450E+02 -0.16273453525E+02  0.89365199484E+02  0.92819352632E+02  0.00000000000E+00 0. -1.
        -13    1    3    3    0    0  0.33841599834E+02 -0.20728702053E+02  0.94916370290E+02  0.10287881374E+03  0.00000000000E+00 0.  1.
         13    1    3    3    0    0 -0.64536366617E+02  0.62483759587E+01  0.15718997091E+03  0.17003726583E+03  0.00000000000E+00 0. -1.
          1    1    1    2  501    0 -0.19581985826E+02  0.11636001923E+02 -0.15814783105E+03  0.15977980841E+03  0.00000000000E+00 0. -1.
<scales pt_clust_5="13000.00000" pt_clust_6="13000.00000" pt_clust_7="13000.00000" pt_clust_8="13000.00000" pt_clust_9="22.77829"></scales>
<clustering>
<clus scale="   22.778">  2  9  1 -1</clus>
<clus scale="   93.006">  5  6 -1 -1</clus>
<clus scale="   98.862">  7  8 -1 -1</clus>
<clus scale="  100.422">  2  5  1 -1</clus>
<clus scale="   22.778">  2  5  1 -1</clus>
</clustering>
</event>
<event>
 9    1  0.1504846E-005  0.1168990E+03  0.7546771E-02  0.1250099E+00
         21   -1    0    0  501  502  0.00000000000E+00  0.00000000000E+00  0.17619735408E+03  0.17619735408E+03  0.00000000000E+00 0.  1.
         -3   -1    0    0    0  501 -0.00000000000E+00 -0.00000000000E+00 -0.12539917412E+03  0.12539917412E+03  0.00000000000E+00 0.  1.
         23    2    1    2    0    0 -0.36829595155E+02 -0.59911944278E+02 -0.46280735204E+01  0.11162255448E+03  0.86558162288E+02 0.  0.
         23    2    1    2    0    0 -0.36721045637E+01  0.82004254737E+02  0.74666547761E+01  0.12342638947E+03  0.91870237490E+02 0.  0.
        -11    1    3    3    0    0  0.15145090083E+02 -0.45297598350E+02 -0.25008712176E+02  0.53913651839E+02  0.00000000000E+00 0. -1.
         11    1    3    3    0    0 -0.51974685239E+02 -0.14614345928E+02  0.20380638656E+02  0.57708902646E+02  0.00000000000E+00 0.  1.
        -13    1    4    4    0    0  0.36348759092E+02  0.42478680340E+02  0.29261846557E+02  0.63102505774E+02  0.00000000000E+00 0. -1.
         13    1    4    4    0    0 -0.40020863656E+02  0.39525574396E+02 -0.21795191781E+02  0.60323883694E+02  0.00000000000E+00 0.  1.
         -3    1    1    2    0  502  0.40501699719E+02 -0.22092310459E+02  0.47959598699E+02  0.66547584246E+02  0.00000000000E+00 0.  1.
<scales pt_clust_5="13000.00000" pt_clust_6="13000.00000" pt_clust_7="13000.00000" pt_clust_8="13000.00000" pt_clust_9="46.13521"></scales>
<clustering>
<clus scale="   46.135">  1  9  2 -1</clus>
<clus scale="   86.558">  5  6 -1 -1</clus>
<clus scale="   91.870">  7  8 -1 -1</clus>
<clus scale="  112.772">  2  5  1 -1</clus>
<clus scale="   46.135">  1  5  2 -1</clus>
</clustering>
</event>
<event>
 9    1  0.1504846E-005  0.1176666E+03  0.7546771E-02  0.1248251E+00
         -4   -1    0    0    0  501 -0.00000000000E+00  0.00000000000E+00  0.43479588971E+03  0.43479588971E+03  0.00000000000E+00 0.  1.
         21   -1    0    0  501  502  0.00000000000E+00 -0.00000000000E+00 -0.41027792915E+02  0.41027792915E+02  0.00000000000E+00 0. -1.
         23    2    1    2    0    0 -0.75293445587E+02  0.47960323124E+01  0.20977768288E+03  0.24132875265E+03  0.92416371621E+02 0.  0.
         23    2    1    2    0    0  0.66636070066E+02 -0.27374098101E+02  0.17438920070E+03  0.20847757999E+03  0.88665669538E+02 0.  0.
        -13    1    4    4    0    0  0.28044545139E+02  0.90350927966E+01  0.14472114647E+03  0.14769001201E+03  0.00000000000E+00 0.  1.
         13    1    4    4    0    0  0.38591524927E+02 -0.36409190898E+02  0.29668054237E+02  0.60787567974E+02  0.00000000000E+00 0. -1.
        -13    1    3    3    0    0 -0.38691019766E+01  0.35328935099E+02  0.34140629643E+02  0.49281702464E+02  0.00000000000E+00 0. -1.
         13    1    3    3    0    0 -0.71424343610E+02 -0.30532902786E+02  0.17563705324E+03  0.19204705018E+03  0.00000000000E+00 0.  1.
         -4    1    1    2    0  502  0.86573755211E+01  0.22578065789E+02  0.96012132131E+01  0.26017349996E+02  0.00000000000E+00 0.  1.
<scales pt_clust_5="13000.00000" pt_clust_6="13000.00000" pt_clust_7="13000.00000" pt_clust_8="13000.00000" pt_clust_9="24.18097"></scales>
<clustering>
<clus scale="   24.181">  2  9  1 -1</clus>
<clus scale="   88.666">  5  6 -1 -1</clus>
<clus scale="   92.416">  7  8 -1 -1</clus>
<clus scale="  114.744">  2  5  1 -1</clus>
<clus scale="   24.181">  2  5  1 -1</clus>
</clustering>
</event>
<event>
 9    1  0.1504846E-005  0.1022614E+03  0.7546771E-02  0.1275807E+00
         -2   -1    0    0    0  501 -0.00000000000E+00  0.00000000000E+00  0.57397449436E+03  0.57397449436E+03  0.00000000000E+00 0.  1.
         21   -1    0    0  501  502  0.00000000000E+00 -0.00000000000E+00 -0.48255389240E+02  0.48255389240E+02  0.00000000000E+00 0. -1.
         23    2    1    2    0    0 -0.16022004330E+01 -0.31863110086E+02  0.27864978575E+03  0.29461118208E+03  0.90178826109E+02 0.  0.
         23    2    1    2    0    0  0.59892020043E+02  0.66373401187E+02  0.22099836007E+03  0.25503524486E+03  0.90610256133E+02 0.  0.
        -11    1    4    4    0    0  0.30830079874E+02  0.29536564260E+02  0.17407837301E+02  0.46107865412E+02  0.00000000000E+00 0. -1.
         11    1    4    4    0    0  0.29061940169E+02  0.36836836927E+02  0.20359052277E+03  0.20892737944E+03  0.00000000000E+00 0.  1.
        -11    1    3    3    0    0 -0.43998406707E+02 -0.27614229388E+02  0.13058877390E+03  0.14054121576E+03  0.00000000000E+00 0.  1.
         11    1    3    3    0    0  0.42396206274E+02 -0.42488806975E+01  0.14806101185E+03  0.15406996632E+03  0.00000000000E+00 0. -1.
         -2    1    1    2    0  502 -0.58289819610E+02 -0.34510291102E+02  0.26070959304E+02  0.72583456663E+02  0.00000000000E+00 0.  1.
<scales pt_clust_5="13000.00000" pt_clust_6="13000.00000" pt_clust_7="13000.00000" pt_clust_8="13000.00000" pt_clust_9="67.73967"></scales>
<clustering>
<clus scale="   67.740">  2  9  1 -1</clus>
<clus scale="   90.179">  7  8 -1 -1</clus>
<clus scale="   90.610">  5  6 -1 -1</clus>
<clus scale="  101.879">  1  7  2 -1</clus>
<clus scale="   67.740">  2  5  1 -1</clus>
</clustering>
</event>
<event>
 9    1  0.1504846E-005  0.1140176E+03  0.7546771E-02  0.1253695E+00
          2   -1    0    0  502    0 -0.00000000000E+00  0.00000000000E+00  0.88141642636E+02  0.88141642636E+02  0.00000000000E+00 0.  1.
         21   -1    0    0  501  502  0.00000000000E+00 -0.00000000000E+00 -0.22126732331E+03  0.22126732331E+03  0.00000000000E+00 0. -1.
         23    2    1    2    0    0  0.23117454233E+02 -0.60254624604E+02 -0.10776622872E+02  0.11050244449E+03  0.89048403469E+02 0.  0.
         23    2    1    2    0    0 -0.47734547640E+02  0.69276171907E+02 -0.70066088263E+02  0.14041807382E+03  0.87921576976E+02 0.  0.
        -13    1    3    3    0    0  0.51709566687E+02 -0.42704727937E+02  0.14356868895E+02  0.68583472933E+02  0.00000000000E+00 0.  1.
         13    1    3    3    0    0 -0.28592112454E+02 -0.17549896667E+02 -0.25133491767E+02  0.41918971552E+02  0.00000000000E+00 0. -1.
        -13    1    4    4    0    0  0.25186922401E+02  0.14091877255E+02 -0.81819198960E+01  0.29998431256E+02  0.00000000000E+00 0.  1.
         13    1    4    4    0    0 -0.72921470042E+02  0.55184294651E+02 -0.61884168367E+02  0.11041964256E+03  0.00000000000E+00 0. -1.
          2    1    1    2  501    0  0.24617093407E+02 -0.90215473030E+01 -0.52282969535E+02  0.58488447637E+02  0.00000000000E+00 0.  1.
<scales pt_clust_5="13000.00000" pt_clust_6="13000.00000" pt_clust_7="13000.00000" pt_clust_8="13000.00000" pt_clust_9="26.21812"></scales>
<clustering>
<clus scale="   26.218">  2  9  1 -1</clus>
<clus scale="   87.922">  7  8 -1 -1</clus>
<clus scale="   89.048">  5  6 -1 -1</clus>
<clus scale="  113.140">  2  7  1 -1</clus>
<clus scale="   26.218">  2  5  1 -1</clus>
</clustering>
</event>
<event>
 9    1  0.1504846E-005  0.2339460E+03  0.7546771E-02  0.1124063E+00
          2   -1    0    0  502    0 -0.00000000000E+00  0.00000000000E+00  0.12462033192E+04  0.12462033192E+04  0.00000000000E+00 0. -1.
         21   -1    0    0  501  502  0.00000000000E+00 -0.00000000000E+00 -0.60881354041E+02  0.60881354041E+02  0.00000000000E+00 0. -1.
         23    2    1    2    0    0  0.11636918851E+03 -0.20060368953E+03  0.74566622098E+03  0.78624141383E+03  0.91508575721E+02 0.  0.
         23    2    1    2    0    0 -0.10795488669E+03  0.16226189746E+03  0.43000746742E+03  0.48042070702E+03  0.88963210205E+02 0.  0.
        -11    1    4    4    0    0 -0.90867121304E+02  0.97316534670E+02  0.35800209359E+03  0.38195921336E+03  0.00000000000E+00 0. -1.
         11    1    4    4    0    0 -0.17087765382E+02  0.64945362790E+02  0.72005373827E+02  0.98461493659E+02  0.00000000000E+00 0.  1.
        -11    1    3    3    0    0 -0.59451937996E+01 -0.68860434106E+02  0.18701442550E+03  0.19937778226E+03  0.00000000000E+00 0.  1.
         11    1    3    3    0    0  0.12231438231E+03 -0.13174325542E+03  0.55865179548E+03  0.58686363158E+03  0.00000000000E+00 0. -1.
          2    1    1    2  501    0 -0.84143018251E+01  0.38341792068E+02  0.96482767133E+01  0.40422552340E+02  0.00000000000E+00 0. -1.
<scales pt_clust_5="13000.00000" pt_clust_6="13000.00000" pt_clust_7="13000.00000" pt_clust_8="13000.00000" pt_clust_9="39.25422"></scales>
<clustering>
<clus scale="   39.254">  2  9  1 -1</clus>
<clus scale="   88.963">  5  6 -1 -1</clus>
<clus scale="   91.509">  7  8 -1 -1</clus>
<clus scale="  232.962">  2  5  1 -1</clus>
<clus scale="   39.254">  2  5  1 -1</clus>
</clustering>
</event>
<event>
 9    1  0.1504846E-005  0.1169619E+03  0.7546771E-02  0.1249011E+00
         21   -1    0    0  501  502  0.00000000000E+00  0.00000000000E+00  0.19295718560E+03  0.19295718560E+03  0.00000000000E+00 0.  1.
          3   -1    0    0  502    0 -0.00000000000E+00 -0.00000000000E+00 -0.10326802687E+03  0.10326802687E+03  0.00000000000E+00 0. -1.
         23    2    1    2    0    0 -0.32409652013E+02  0.78347328616E+02 -0.13513324188E+02  0.12093818281E+03  0.85174789028E+02 0.  0.
         23    2    1    2    0    0  0.11166603507E+02 -0.64823600233E+02  0.59237804513E+02  0.12462095336E+03  0.87718141527E+02 0.  0.
        -11    1    4    4    0    0 -0.29930149043E+02 -0.61361493926E+02  0.39821892638E+02  0.79036889437E+02  0.00000000000E+00 0. -1.
         11    1    4    4    0    0  0.41096752550E+02 -0.34621063068E+01  0.19415911875E+02  0.45584063928E+02  0.00000000000E+00 0.  1.
        -11    1    3    3    0    0  0.29179827571E+02  0.20305098575E+02 -0.36891410497E+01  0.35740301159E+02  0.00000000000E+00 0.  1.
         11    1    3    3    0    0 -0.61589479584E+02  0.58042230041E+02 -0.98241831387E+01  0.85197881651E+02  0.00000000000E+00 0. -1.
          3    1    1    2  501    0  0.21243048505E+02 -0.13523728383E+02  0.43964678410E+02  0.50666076293E+02  0.00000000000E+00 0. -1.
<scales pt_clust_5="13000.00000" pt_clust_6="13000.00000" pt_clust_7="13000.00000" pt_clust_8="13000.00000" pt_clust_9="25.18250"></scales>
<clustering>
<clus scale="   25.183">  1  9  2 -1</clus>
<clus scale="   85.175">  7  8 -1 -1</clus>
<clus scale="   87.718">  5  6 -1 -1</clus>
<clus scale="  115.067">  2  7  1 -1</clus>
<clus scale="   25.183">  1  5  2 -1</clus>
</clustering>
</event>
<event>
 9    1  0.1504846E-005  0.9716262E+02  0.7546771E-02  0.1287119E+00
         -1   -1    0    0    0  501 -0.00000000000E+00  0.00000000000E+00  0.44557978930E+03  0.44557978930E+03  0.00000000000E+00 0.  1.
         21   -1    0    0  501  502  0.00000000000E+00 -0.00000000000E+00 -0.40737456117E+02  0.40737456117E+02  0.00000000000E+00 0. -1.
         23    2    1    2    0    0  0.13418894399E+02 -0.21355313401E+02  0.22482563045E+03  0.24372952396E+03  0.90671939467E+02 0.  0.
         23    2    1    2    0    0 -0.25730928170E+02  0.40235339022E+02  0.19201425417E+03  0.21705376791E+03  0.89229486084E+02 0.  0.
        -13    1    3    3    0    0 -0.29359047542E+02  0.18963226571E+02  0.73480535137E+02  0.81369199815E+02  0.00000000000E+00 0.  1.
         13    1    3    3    0    0  0.42777941941E+02 -0.40318539972E+02  0.15134509531E+03  0.16236032414E+03  0.00000000000E+00 0. -1.
        -13    1    4    4    0    0 -0.14427777533E+02 -0.19394657005E+02  0.11809404518E+02  0.26903076404E+02  0.00000000000E+00 0. -1.
         13    1    4    4    0    0 -0.11303150636E+02  0.59629996027E+02  0.18020484965E+03  0.19015069150E+03  0.00000000000E+00 0.  1.
         -1    1    1    2    0  502  0.12312033771E+02 -0.18880025621E+02 -0.11997551441E+02  0.25533953544E+02  0.00000000000E+00 0.  1.
<scales pt_clust_5="13000.00000" pt_clust_6="13000.00000" pt_clust_7="13000.00000" pt_clust_8="13000.00000" pt_clust_9="22.53978"></scales>
<clustering>
<clus scale="   22.540">  2  9  1 -1</clus>
<clus scale="   89.229">  7  8 -1 -1</clus>
<clus scale="   90.672">  5  6 -1 -1</clus>
<clus scale="   95.818">  2  7  1 -1</clus>
<clus scale="   22.540">  2  5  1 -1</clus>
</clustering>
</event>
<event>
 9    1  0.1504846E-005  0.9577207E+02  0.7546771E-02  0.1294386E+00
          1   -1    0    0  502    0 -0.00000000000E+00  0.00000000000E+00  0.15841049194E+03  0.15841049194E+03  0.00000000000E+00 0. -1.
         21   -1    0    0  501  502  0.00000000000E+00 -0.00000000000E+00 -0.22926924781E+03  0.22926924781E+03  0.00000000000E+00 0.  1.
         23    2    1    2    0    0  0.89326905197E+01 -0.12384060808E+02  0.12382495677E+03  0.15165994987E+03  0.86226228913E+02 0.  0.
         23    2    1    2    0    0  0.11721079603E+02  0.97634348324E+01 -0.98207940561E+02  0.13732318154E+03  0.94763644038E+02 0.  0.
        -11    1    3    3    0    0  0.34447724681E+02  0.24183252413E+01  0.11615732672E+03  0.12118175846E+03  0.00000000000E+00 0. -1.
         11    1    3    3    0    0 -0.25515034161E+02 -0.14802386049E+02  0.76676300534E+01  0.30478191410E+02  0.00000000000E+00 0.  1.
        -13    1    4    4    0    0 -0.27700260590E+02 -0.17991280462E+02 -0.78633999137E+02  0.85289486045E+02  0.00000000000E+00 0. -1.
         13    1    4    4    0    0  0.39421340193E+02  0.27754715295E+02 -0.19573941423E+02  0.52033695492E+02  0.00000000000E+00 0.  1.
          1    1    1    2  501    0 -0.20653770123E+02  0.26206259756E+01 -0.96475772076E+02  0.98696608344E+02  0.00000000000E+00 0. -1.
<scales pt_clust_5="13000.00000" pt_clust_6="13000.00000" pt_clust_7="13000.00000" pt_clust_8="13000.00000" pt_clust_9="20.81936"></scales>
<clustering>
<clus scale="   20.819">  2  9  1 -1</clus>
<clus scale="   86.226">  5  6 -1 -1</clus>
<clus scale="   87.333">  1  5  2 -1</clus>
<clus scale="   94.764">  7  8 -1 -1</clus>
<clus scale="   20.819">  2  5  1 -1</clus>
</clustering>
</event>
<event>
 9    1  0.1504846E-005  0.1925857E+03  0.7546771E-02  0.1171216E+00
         -3   -1    0    0    0  501 -0.00000000000E+00  0.00000000000E+00  0.13910026051E+03  0.13910026051E+03  0.00000000000E+00 0.  1.
         21   -1    0    0  501  502  0.00000000000E+00 -0.00000000000E+00 -0.58208556964E+03  0.58208556964E+03  0.00000000000E+00 0. -1.
         23    2    1    2    0    0  0.90982960579E+02 -0.21306887741E+02 -0.27751609509E+03  0.30901413986E+03  0.98704979691E+02 0.  0.
         23    2    1    2    0    0  0.96234863456E+02 -0.88603940447E+02 -0.52799134843E+02  0.16757927312E+03  0.90461356019E+02 0.  0.
        -11    1    4    4    0    0  0.86135847755E+02 -0.67969465181E+02  0.29963004203E+00  0.10972384537E+03  0.00000000000E+00 0. -1.
         11    1    4    4    0    0  0.10099015702E+02 -0.20634475266E+02 -0.53098764885E+02  0.57855427748E+02  0.00000000000E+00 0.  1.
        -13    1    3    3    0    0  0.96324227822E+02  0.69739918476E+01 -0.15082790577E+03  0.17909787991E+03  0.00000000000E+00 0. -1.
         13    1    3    3    0    0 -0.53412672432E+01 -0.28280879588E+02 -0.12668818932E+03  0.12991625995E+03  0.00000000000E+00 0.  1.
         -3    1    1    2    0  502 -0.18721782404E+03  0.10991082819E+03 -0.11267007920E+03  0.24459241717E+03  0.00000000000E+00 0.  1.
<scales pt_clust_5="13000.00000" pt_clust_6="13000.00000" pt_clust_7="13000.00000" pt_clust_8="13000.00000" pt_clust_9="170.01768"></scales>
<clustering>
<clus scale="   90.461">  5  6 -1 -1</clus>
<clus scale="   98.705">  7  8 -1 -1</clus>
<clus scale="  135.921">  1  7  2 -1</clus>
<clus scale="  170.018">  2  9  1 -1</clus>
<clus scale="  170.018">  2  5  1 -1</clus>
</clustering>
</event>
<event>
 9    1  0.1504846E-005  0.1793205E+03  0.7546771E-02  0.1190235E+00
         21   -1    0    0  501  502  0.00000000000E+00  0.00000000000E+00  0.73104379415E+03  0.73104379415E+03  0.00000000000E+00 0.  1.
         -3   -1    0    0    0  501 -0.00000000000E+00 -0.00000000000E+00 -0.18257953656E+03  0.18257953656E+03  0.00000000000E+00 0.  1.
         23    2    1    2    0    0  0.20828685994E+02  0.61151024535E+02  0.12868545204E+03  0.16919717268E+03  0.88850749652E+02 0.  0.
         23    2    1    2    0    0  0.10941238375E+03 -0.15071151881E+03 -0.81189610516E+02  0.21911370598E+03  0.82061145938E+02 0.  0.
        -11    1    3    3    0    0 -0.16643034027E+02 -0.13899735436E+02  0.10047929308E+02  0.23898830728E+02  0.00000000000E+00 0.  1.
         11    1    3    3    0    0  0.37471720021E+02  0.75050759971E+02  0.11863752273E+03  0.14529834195E+03  0.00000000000E+00 0. -1.
        -11    1    4    4    0    0  0.53397309998E+02 -0.11613017213E+03 -0.20259147423E+02  0.12941376530E+03  0.00000000000E+00 0. -1.
         11    1    4    4    0    0  0.56015073750E+02 -0.34581346675E+02 -0.60930463093E+02  0.89699940679E+02  0.00000000000E+00 0.  1.
         -3    1    1    2    0  502 -0.13024106974E+03  0.89560494270E+02  0.50096841607E+03  0.52531245205E+03  0.00000000000E+00 0.  1.
<scales pt_clust_5="13000.00000" pt_clust_6="13000.00000" pt_clust_7="13000.00000" pt_clust_8="13000.00000" pt_clust_9="159.44216"></scales>
<clustering>
<clus scale="   82.061">  7  8 -1 -1</clus>
<clus scale="   88.851">  5  6 -1 -1</clus>
<clus scale="  109.853">  2  5  1 -1</clus>
<clus scale="  159.442">  1  9  2 -1</clus>
<clus scale="  159.442">  1  5  2 -1</clus>
</clustering>
</event>
<event>
 9    1  0.1504846E-005  0.1044360E+03  0.7546771E-02  0.1277029E+00
          1   -1    0    0  502    0 -0.00000000000E+00  0.00000000000E+00  0.27504109535E+03  0.27504109535E+03  0.00000000000E+00 0. -1.
         21   -1    0    0  501  502  0.00000000000E+00 -0.00000000000E+00 -0.51154090519E+02  0.51154090519E+02  0.00000000000E+00 0.  1.
         23    2    1    2    0    0  0.48957097888E+00  0.33386320005E+02  0.13036488467E+03  0.16206658093E+03  0.90308844844E+02 0.  0.
         23    2    1    2    0    0  0.14705170086E+02 -0.78167143915E+01  0.83955609035E+02  0.13288435711E+03  0.10164824163E+03 0.  0.
        -11    1    4    4    0    0  0.13896283319E+02 -0.39377407030E+02 -0.14989164625E+01  0.41784370583E+02  0.00000000000E+00 0.  1.
         11    1    4    4    0    0  0.80888676638E+00  0.31560692638E+02  0.85454525497E+02  0.91099986529E+02  0.00000000000E+00 0. -1.
        -11    1    3    3    0    0 -0.31652463626E+02 -0.12935679917E+02  0.24304277702E+02  0.41951259613E+02  0.00000000000E+00 0. -1.
         11    1    3    3    0    0  0.32142034605E+02  0.46321999922E+02  0.10606060697E+03  0.12011532132E+03  0.00000000000E+00 0.  1.
          1    1    1    2  501    0 -0.15194741065E+02 -0.25569605613E+02  0.95665111329E+01  0.31244247830E+02  0.00000000000E+00 0. -1.
<scales pt_clust_5="13000.00000" pt_clust_6="13000.00000" pt_clust_7="13000.00000" pt_clust_8="13000.00000" pt_clust_9="29.74365"></scales>
<clustering>
<clus scale="   29.744">  2  9  1 -1</clus>
<clus scale="   90.309">  7  8 -1 -1</clus>
<clus scale="   93.436">  1  7  2 -1</clus>
<clus scale="  101.648">  5  6 -1 -1</clus>
<clus scale="   29.744">  2  5  1 -1</clus>
</clustering>
</event>
<event>
 9    1  0.1504846E-005  0.9356114E+02  0.7546771E-02  0.1294925E+00
         21   -1    0    0  501  502  0.00000000000E+00  0.00000000000E+00  0.22536274197E+03  0.22536274197E+03  0.00000000000E+00 0. -1.
         -4   -1    0    0    0  501 -0.00000000000E+00 -0.00000000000E+00 -0.12803704141E+03  0.12803704141E+03  0.00000000000E+00 0.  1.
         23    2    1    2    0    0  0.21078059832E+02  0.39586867278E+01 -0.36054007058E+02  0.10149310253E+03  0.92417545026E+02 0.  0.
         23    2    1    2    0    0 -0.33077746396E+00 -0.15080996189E+02 -0.21476719351E+02  0.95271217223E+02  0.91584985108E+02 0.  0.
        -13    1    3    3    0    0  0.18407511959E+02  0.25522858061E+02 -0.60861173415E+02  0.68515218818E+02  0.00000000000E+00 0.  1.
         13    1    3    3    0    0  0.26705478728E+01 -0.21564171334E+02  0.24807166357E+02  0.32977883709E+02  0.00000000000E+00 0. -1.
        -13    1    4    4    0    0  0.40502845419E+02 -0.16950568884E+02  0.83190950199E+01  0.44687913517E+02  0.00000000000E+00 0. -1.
         13    1    4    4    0    0 -0.40833622883E+02  0.18695726946E+01 -0.29795814371E+02  0.50583303706E+02  0.00000000000E+00 0.  1.
         -4    1    1    2    0  502 -0.20747282368E+02  0.11122309461E+02  0.15485642697E+03  0.15663546363E+03  0.00000000000E+00 0.  1.
<scales pt_clust_5="13000.00000" pt_clust_6="13000.00000" pt_clust_7="13000.00000" pt_clust_8="13000.00000" pt_clust_9="23.54051"></scales>
<clustering>
<clus scale="   23.541">  1  9  2 -1</clus>
<clus scale="   91.585">  7  8 -1 -1</clus>
<clus scale="   92.418">  5  6 -1 -1</clus>
<clus scale="   92.739">  1  7  2 -1</clus>
<clus scale="   23.541">  1  5  2 -1</clus>
</clustering>
</event>
<event>
 9    1  0.1504846E-005  0.1396629E+03  0.7546771E-02  0.1216569E+00
         -3   -1    0    0    0  501 -0.00000000000E+00  0.00000000000E+00  0.72264084104E+02  0.72264084104E+02  0.00000000000E+00 0.  1.
         21   -1    0    0  501  502  0.00000000000E+00 -0.00000000000E+00 -0.95299881318E+03  0.95299881318E+03  0.00000000000E+00 0. -1.
         23    2    1    2    0    0  0.34546040963E+02 -0.97106292675E+02 -0.25335481089E+02  0.13477439606E+03  0.83061364106E+02 0.  0.
         23    2    1    2    0    0 -0.11356219272E+03  0.56189365993E+02 -0.55417593599E+03  0.57639738257E+03  0.95233177723E+02 0.  0.
        -11    1    3    3    0    0 -0.61686042327E+01 -0.81008316658E+02 -0.37287042797E+02  0.89390841849E+02  0.00000000000E+00 0.  1.
         11    1    3    3    0    0  0.40714645195E+02 -0.16097976017E+02  0.11951561709E+02  0.45383554207E+02  0.00000000000E+00 0. -1.
        -13    1    4    4    0    0 -0.36889039260E+02  0.59320650196E+02 -0.15645945096E+03  0.17134555890E+03  0.00000000000E+00 0.  1.
         13    1    4    4    0    0 -0.76673153462E+02 -0.31312842030E+01 -0.39771648503E+03  0.40505182368E+03  0.00000000000E+00 0. -1.
         -3    1    1    2    0  502  0.79016151759E+02  0.40916926682E+02 -0.30122331200E+03  0.31409111866E+03  0.00000000000E+00 0.  1.
<scales pt_clust_5="13000.00000" pt_clust_6="13000.00000" pt_clust_7="13000.00000" pt_clust_8="13000.00000" pt_clust_9="88.98172"></scales>
<clustering>
<clus scale="   83.061">  5  6 -1 -1</clus>
<clus scale="   88.982">  2  9  1 -1</clus>
<clus scale="   95.233">  7  8 -1 -1</clus>
<clus scale="  131.665">  1  5  2 -1</clus>
<clus scale="   88.982">  2  5  1 -1</clus>
</clustering>
</event>
<event>
 9    1  0.1504846E-005  0.1026468E+03  0.7546771E-02  0.1278555E+00
         -3   -1    0    0    0  501 -0.00000000000E+00  0.00000000000E+00  0.38819074341E+03  0.38819074341E+03  0.00000000000E+00 0.  1.
         21   -1    0    0  501  502  0.00000000000E+00 -0.00000000000E+00 -0.69783502862E+02  0.69783502862E+02  0.00000000000E+00 0.  1.
         23    2    1    2    0    0 -0.23558716857E+02 -0.66897428649E+01  0.27227588175E+03  0.28900643578E+03  0.93759257358E+02 0.  0.
         23    2    1    2    0    0 -0.10604761866E+01 -0.34114389281E+02  0.55873262490E+02  0.12032640267E+03  0.10095397740E+03 0.  0.
        -13    1    4    4    0    0  0.41930572894E+02 -0.36860236323E+02  0.53275527645E+02  0.77169500522E+02  0.00000000000E+00 0.  1.
         13    1    4    4    0    0 -0.42991049080E+02  0.27458470415E+01  0.25977348447E+01  0.43156902152E+02  0.00000000000E+00 0. -1.
        -13    1    3    3    0    0 -0.52351933420E+02  0.14995638753E+02  0.21100454041E+03  0.21791858615E+03  0.00000000000E+00 0.  1.
         13    1    3    3    0    0  0.28793216564E+02 -0.21685381618E+02  0.61271341341E+02  0.71087849635E+02  0.00000000000E+00 0. -1.
         -3    1    1    2    0  502  0.24619193043E+02  0.40804132146E+02 -0.97419036977E+01  0.48641407812E+02  0.00000000000E+00 0.  1.
<scales pt_clust_5="13000.00000" pt_clust_6="13000.00000" pt_clust_7="13000.00000" pt_clust_8="13000.00000" pt_clust_9="47.65587"></scales>
<clustering>
<clus scale="   47.656">  2  9  1 -1</clus>
<clus scale="   93.759">  7  8 -1 -1</clus>
<clus scale="   95.580">  1  7  2 -1</clus>
<clus scale="  100.954">  5  6 -1 -1</clus>
<clus scale="   47.656">  2  5  1 -1</clus>
</clustering>
</event>
<event>
 9    1  0.1504846E-005  0.1222661E+03  0.7546771E-02  0.1240314E+00
         21   -1    0    0  501  502  0.00000000000E+00  0.00000000000E+00  0.60948534737E+03  0.60948534737E+03  0.00000000000E+00 0. -1.
         -3   -1    0    0    0  501 -0.00000000000E+00 -0.00000000000E+00 -0.17729874098E+03  0.17729874098E+03  0.00000000000E+00 0.  1.
         23    2    1    2    0    0  0.65999083360E+01 -0.78811448796E+02 -0.11862853334E+03  0.16939712937E+03  0.91475981897E+02 0.  0.
         23    2    1    2    0    0 -0.99582159069E+02  0.86686434859E+02  0.20606189427E+03  0.26022801031E+03  0.88464505245E+02 0.  0.
        -11    1    3    3    0    0  0.37347653296E+02 -0.77530180752E+02 -0.66080174471E+02  0.10850053268E+03  0.00000000000E+00 0.  1.
         11    1    3    3    0    0 -0.30747744960E+02 -0.12812680443E+01 -0.52548358873E+02  0.60896596688E+02  0.00000000000E+00 0. -1.
        -11    1    4    4    0    0 -0.10896309060E+02  0.48175390466E+02  0.25923082741E+02  0.55781753437E+02  0.00000000000E+00 0.  1.
         11    1    4    4    0    0 -0.88685850009E+02  0.38511044393E+02  0.18013881153E+03  0.20444625687E+03  0.00000000000E+00 0. -1.
         -3    1    1    2    0  502  0.92982250733E+02 -0.78749860622E+01  0.34475324547E+03  0.35715894868E+03  0.00000000000E+00 0.  1.
<scales pt_clust_5="13000.00000" pt_clust_6="13000.00000" pt_clust_7="13000.00000" pt_clust_8="13000.00000" pt_clust_9="93.31513"></scales>
<clustering>
<clus scale="   88.465">  7  8 -1 -1</clus>
<clus scale="   91.476">  5  6 -1 -1</clus>
<clus scale="   93.315">  1  9  2 -1</clus>
<clus scale="  120.030">  1  7  2 -1</clus>
<clus scale="   93.315">  1  5  2 -1</clus>
</clustering>
</event>
<event>
 9    1  0.1504846E-005  0.1000008E+03  0.7546771E-02  0.1280755E+00
         21   -1    0    0  501  502  0.00000000000E+00  0.00000000000E+00  0.15800201973E+03  0.15800201973E+03  0.00000000000E+00 0.  1.
          2   -1    0    0  502    0 -0.00000000000E+00 -0.00000000000E+00 -0.22610091845E+03  0.22610091845E+03  0.00000000000E+00 0. -1.
         23    2    1    2    0    0  0.45469422472E+02  0.33208033081E+01 -0.17225529469E+03  0.20051392551E+03  0.91953529887E+02 0.  0.
         23    2    1    2    0    0  0.96163983418E+01  0.16183797084E+00  0.48613419436E+02  0.10528448734E+03  0.92892719931E+02 0.  0.
        -11    1    3    3    0    0  0.42896059657E+02 -0.37645908164E+02 -0.69935714468E+02  0.90267881850E+02  0.00000000000E+00 0.  1.
         11    1    3    3    0    0  0.25733628148E+01  0.40966711472E+02 -0.10231958022E+03  0.11024604366E+03  0.00000000000E+00 0. -1.
        -13    1    4    4    0    0  0.26550812067E+02 -0.18015326578E+02  0.67060618223E+02  0.74341268011E+02  0.00000000000E+00 0.  1.
         13    1    4    4    0    0 -0.16934413725E+02  0.18177164549E+02 -0.18447198787E+02  0.30943219327E+02  0.00000000000E+00 0. -1.
          2    1    1    2  501    0 -0.55085820814E+02 -0.34826412789E+01  0.55542976532E+02  0.78304525329E+02  0.00000000000E+00 0. -1.
<scales pt_clust_5="13000.00000" pt_clust_6="13000.00000" pt_clust_7="13000.00000" pt_clust_8="13000.00000" pt_clust_9="55.19580"></scales>
<clustering>
<clus scale="   55.196">  1  9  2 -1</clus>
<clus scale="   91.954">  5  6 -1 -1</clus>
<clus scale="   92.893">  7  8 -1 -1</clus>
<clus scale="   99.129">  2  5  1 -1</clus>
<clus scale="   55.196">  1  5  2 -1</clus>
</clustering>
</event>
<event>
 9    1  0.1504846E-005  0.9873226E+02  0.7546771E-02  0.1287431E+00
         21   -1    0    0  501  502  0.00000000000E+00  0.00000000000E+00  0.14899830626E+03  0.14899830626E+03  0.00000000000E+00 0.  1.
         -3   -1    0    0    0  501 -0.00000000000E+00 -0.00000000000E+00 -0.24222987596E+03  0.24222987596E+03  0.00000000000E+00 0.  1.
         23    2    1    2    0    0  0.11432213330E+02 -0.30797551593E+02 -0.17978071748E+03  0.20466365940E+03  0.92124494121E+02 0.  0.
         23    2    1    2    0    0 -0.36201085453E+02  0.34145063281E+02  0.80396310905E+00  0.97250808556E+02  0.83550400799E+02 0.  0.
        -11    1    4    4    0    0  0.24014380359E+02  0.20184559149E+02 -0.12930231692E+02  0.33930779297E+02  0.00000000000E+00 0. -1.
         11    1    4    4    0    0 -0.60215465812E+02  0.13960504132E+02  0.13734194801E+02  0.63320029259E+02  0.00000000000E+00 0.  1.
        -11    1    3    3    0    0 -0.29527611016E+02 -0.23351285616E+02 -0.14680484757E+03  0.15155469515E+03  0.00000000000E+00 0.  1.
         11    1    3    3    0    0  0.40959824346E+02 -0.74462659769E+01 -0.32975869904E+02  0.53108964247E+02  0.00000000000E+00 0. -1.
         -3    1    1    2    0  502  0.24768872123E+02 -0.33475116877E+01  0.85745184667E+02  0.89313714256E+02  0.00000000000E+00 0.  1.
<scales pt_clust_5="13000.00000" pt_clust_6="13000.00000" pt_clust_7="13000.00000" pt_clust_8="13000.00000" pt_clust_9="24.99406"></scales>
<clustering>
<clus scale="   24.994">  1  9  2 -1</clus>
<clus scale="   83.550">  5  6 -1 -1</clus>
<clus scale="   90.784">  1  5  2 -1</clus>
<clus scale="   92.124">  7  8 -1 -1</clus>
<clus scale="   24.994">  1  5  2 -1</clus>
</clustering>
</event>
<event>
 9    1  0.1504846E-005  0.5466002E+03  0.7546771E-02  0.1047453E+00
         21   -1    0    0  501  502  0.00000000000E+00  0.00000000000E+00  0.17461389138E+03  0.17461389138E+03  0.00000000000E+00 0. -1.
          2   -1    0    0  502    0 -0.00000000000E+00 -0.00000000000E+00 -0.22425214930E+04  0.22425214930E+04  0.00000000000E+00 0. -1.
         23    2    1    2    0    0 -0.10236773918E+02  0.10552971018E+03 -0.38480759792E+03  0.40983882974E+03  0.93003589585E+02 0.  0.
         23    2    1    2    0    0 -0.47284409329E+03 -0.29527298965E+03 -0.75190370449E+03  0.94123080430E+03  0.98937208220E+02 0.  0.
        -11    1    4    4    0    0 -0.44765875264E+02 -0.13954822786E+02 -0.28638104105E+02  0.54944168698E+02  0.00000000000E+00 0.  1.
         11    1    4    4    0    0 -0.42807821803E+03 -0.28131816687E+03 -0.72326560038E+03  0.88628663561E+03  0.00000000000E+00 0. -1.
        -13    1    3    3    0    0 -0.27010212997E+02 -0.49558989856E+01 -0.52570543324E+02  0.59310830092E+02  0.00000000000E+00 0. -1.
         13    1    3    3    0    0  0.16773439079E+02  0.11048560916E+03 -0.33223705460E+03  0.35052799965E+03  0.00000000000E+00 0.  1.
          2    1    1    2  501    0  0.48308086721E+03  0.18974327948E+03 -0.93119629923E+03  0.10660657504E+04  0.00000000000E+00 0. -1.
<scales pt_clust_5="13000.00000" pt_clust_6="13000.00000" pt_clust_7="13000.00000" pt_clust_8="13000.00000" pt_clust_9="537.57187"></scales>
<clustering>
<clus scale="   93.004">  7  8 -1 -1</clus>
<clus scale="   98.937">  5  6 -1 -1</clus>
<clus scale="  141.035">  2  7  1 -1</clus>
<clus scale="  537.572">  1  9  2 -1</clus>
<clus scale="  537.572">  1  5  2 -1</clus>
</clustering>
</event>
<event>
 9    1  0.1504846E-005  0.1268653E+03  0.7546771E-02  0.1232703E+00
         -1   -1    0    0    0  501 -0.00000000000E+00  0.00000000000E+00  0.56111399343E+03  0.56111399343E+03  0.00000000000E+00 0.  1.
         21   -1    0    0  501  502  0.00000000000E+00 -0.00000000000E+00 -0.58922373764E+02  0.58922373764E+02  0.00000000000E+00 0.  1.
         23    2    1    2    0    0  0.84864055805E+02 -0.67911890222E+02  0.22128709130E+03  0.26287241969E+03  0.91214031030E+02 0.  0.
         23    2    1    2    0    0 -0.50013892256E+02  0.15530392627E+02  0.50133428336E+02  0.11797018546E+03  0.93064609319E+02 0.  0.
        -11    1    3    3    0    0  0.10460694098E+03 -0.54060398653E+02  0.18173495942E+03  0.21654730264E+03  0.00000000000E+00 0.  1.
         11    1    3    3    0    0 -0.19742885176E+02 -0.13851491569E+02  0.39552131874E+02  0.46325117048E+02  0.00000000000E+00 0. -1.
        -13    1    4    4    0    0 -0.19652094377E+02  0.47022246605E+02  0.53758097741E+02  0.74075836559E+02  0.00000000000E+00 0.  1.
         13    1    4    4    0    0 -0.30361797879E+02 -0.31491853978E+02 -0.36246694052E+01  0.43894348904E+02  0.00000000000E+00 0. -1.
         -1    1    1    2    0  502 -0.34850163549E+02  0.52381497595E+02  0.23077110003E+03  0.23919376204E+03  0.00000000000E+00 0.  1.
<scales pt_clust_5="13000.00000" pt_clust_6="13000.00000" pt_clust_7="13000.00000" pt_clust_8="13000.00000" pt_clust_9="62.91549"></scales>
<clustering>
<clus scale="   62.915">  2  9  1 -1</clus>
<clus scale="   91.214">  5  6 -1 -1</clus>
<clus scale="   93.065">  7  8 -1 -1</clus>
<clus scale="  125.514">  1  5  2 -1</clus>
<clus scale="   62.915">  2  5  1 -1</clus>
</clustering>
</event>
<event>
 9    1  0.1504846E-005  0.1008818E+03  0.7546771E-02  0.1278949E+00
         21   -1    0    0  501  502  0.00000000000E+00  0.00000000000E+00  0.79187353506E+02  0.79187353506E+02  0.00000000000E+00 0. -1.
         -3   -1    0    0    0  501 -0.00000000000E+00 -0.00000000000E+00 -0.24853639434E+03  0.24853639434E+03  0.00000000000E+00 0.  1.
         23    2    1    2    0    0 -0.38592445487E+02 -0.26921455187E+01 -0.14619126039E+03  0.17596820328E+03  0.89979439068E+02 0.  0.
         23    2    1    2    0    0  0.55571304811E+02  0.34710075421E+02 -0.79175735803E+01  0.11244023706E+03  0.91033838131E+02 0.  0.
        -13    1    4    4    0    0 -0.17359347438E+02  0.28695951384E+02 -0.18814679294E+02  0.38455126138E+02  0.00000000000E+00 0.  1.
         13    1    4    4    0    0  0.72930652249E+02  0.60141240366E+01  0.10897105714E+02  0.73985110923E+02  0.00000000000E+00 0. -1.
        -13    1    3    3    0    0 -0.43271135615E+02  0.37168356604E+02 -0.74794504895E+02  0.94064317743E+02  0.00000000000E+00 0.  1.
         13    1    3    3    0    0  0.46786901281E+01 -0.39860502122E+02 -0.71396755496E+02  0.81903885537E+02  0.00000000000E+00 0. -1.
         -3    1    1    2    0  502 -0.16978859324E+02 -0.32017929902E+02 -0.15240206867E+02  0.39315307509E+02  0.00000000000E+00 0.  1.
<scales pt_clust_5="13000.00000" pt_clust_6="13000.00000" pt_clust_7="13000.00000" pt_clust_8="13000.00000" pt_clust_9="36.24127"></scales>
<clustering>
<clus scale="   36.241">  1  9  2 -1</clus>
<clus scale="   89.979">  7  8 -1 -1</clus>
<clus scale="   91.034">  5  6 -1 -1</clus>
<clus scale="   99.931">  2  7  1 -1</clus>
<clus scale="   36.241">  1  5  2 -1</clus>
</clustering>
</event>
<event>
 9    1  0.1504846E-005  0.1075862E+03  0.7546771E-02  0.1266133E+00
          2   -1    0    0  502    0 -0.00000000000E+00  0.00000000000E+00  0.45631326093E+03  0.45631326093E+03  0.00000000000E+00 0. -1.
         21   -1    0    0  501  502  0.00000000000E+00 -0.00000000000E+00 -0.48382455206E+02  0.48382455206E+02  0.00000000000E+00 0. -1.
         23    2    1    2    0    0  0.45586783370E+02 -0.19116439791E+02  0.27451765678E+03  0.29265389362E+03  0.88559383919E+02 0.  0.
         23    2    1    2    0    0 -0.84656463290E+02  0.10792019038E+02  0.98900068182E+02  0.15925083262E+03  0.91084684512E+02 0.  0.
        -11    1    3    3    0    0 -0.14178374335E+01  0.26562489396E+02  0.14582865923E+03  0.14823486081E+03  0.00000000000E+00 0.  1.
         11    1    3    3    0    0  0.47004620803E+02 -0.45678929187E+02  0.12868899754E+03  0.14441903281E+03  0.00000000000E+00 0. -1.
        -13    1    4    4    0    0 -0.44893437768E+02  0.43507238346E+02  0.21152156910E+02  0.65997835458E+02  0.00000000000E+00 0.  1.
         13    1    4    4    0    0 -0.39763025522E+02 -0.32715219308E+02  0.77747911272E+02  0.93252997165E+02  0.00000000000E+00 0. -1.
          2    1    1    2  501    0  0.39069679921E+02  0.83244207529E+01  0.34513080759E+02  0.52790989889E+02  0.00000000000E+00 0. -1.
<scales pt_clust_5="13000.00000" pt_clust_6="13000.00000" pt_clust_7="13000.00000" pt_clust_8="13000.00000" pt_clust_9="39.94666"></scales>
<clustering>
<clus scale="   39.947">  2  9  1 -1</clus>
<clus scale="   88.559">  5  6 -1 -1</clus>
<clus scale="   91.085">  7  8 -1 -1</clus>
<clus scale="  105.457">  1  5  2 -1</clus>
<clus scale="   39.947">  2  5  1 -1</clus>
</clustering>
</event>
<event>
 9    1  0.1504846E-005  0.1160720E+03  0.7546771E-02  0.1249921E+00
          3   -1    0    0  502    0 -0.00000000000E+00  0.00000000000E+00  0.41449219887E+03  0.41449219887E+03  0.00000000000E+00 0. -1.
         21   -1    0    0  501  502  0.00000000000E+00 -0.00000000000E+00 -0.98829128177E+02  0.98829128177E+02  0.00000000000E+00 0. -1.
         23    2    1    2    0    0 -0.62613591137E+02  0.24041877160E+02  0.28806231930E+03  0.31021749211E+03  0.93576273484E+02 0.  0.
         23    2    1    2    0    0  0.49179445937E+02 -0.68740885360E+02  0.66646757825E+02  0.14225099433E+03  0.93003375410E+02 0.  0.
        -13    1    3    3    0    0 -0.64881632569E+02  0.53218578864E+02  0.23626241957E+03  0.25072250454E+03  0.00000000000E+00 0. -1.
         13    1    3    3    0    0  0.22680414324E+01 -0.29176701704E+02  0.51799899728E+02  0.59494987571E+02  0.00000000000E+00 0.  1.
        -13    1    4    4    0    0  0.40384923314E+02  0.12853232157E+02  0.13504137310E+02  0.44480437638E+02  0.00000000000E+00 0.  1.
         13    1    4    4    0    0  0.87945226228E+01 -0.81594117516E+02  0.53142620515E+02  0.97770556696E+02  0.00000000000E+00 0. -1.
          3    1    1    2  501    0  0.13434145200E+02  0.44699008200E+02 -0.39046006430E+02  0.60852840603E+02  0.00000000000E+00 0. -1.
<scales pt_clust_5="13000.00000" pt_clust_6="13000.00000" pt_clust_7="13000.00000" pt_clust_8="13000.00000" pt_clust_9="46.67416"></scales>
<clustering>
<clus scale="   46.674">  2  9  1 -1</clus>
<clus scale="   93.003">  7  8 -1 -1</clus>
<clus scale="   93.576">  5  6 -1 -1</clus>
<clus scale="  115.611">  2  7  1 -1</clus>
<clus scale="   46.674">  2  5  1 -1</clus>
</clustering>
</event>
<event>
 9    1  0.1504846E-005  0.1676361E+03  0.7546771E-02  0.1180464E+00
          4   -1    0    0  502    0 -0.00000000000E+00  0.00000000000E+00  0.23935949779E+03  0.23935949779E+03  0.00000000000E+00 0. -1.
         21   -1    0    0  501  502  0.00000000000E+00 -0.00000000000E+00 -0.14013296383E+03  0.14013296383E+03  0.00000000000E+00 0. -1.
         23    2    1    2    0    0  0.13827209107E+03 -0.30956807225E+02  0.60815269116E+02  0.17936919271E+03  0.91636866242E+02 0.  0.
         23    2    1    2    0    0 -0.14043793875E+03  0.18858579277E+01  0.31453529590E+02  0.17015293242E+03  0.90754199844E+02 0.  0.
        -13    1    4    4    0    0 -0.11194735016E+03 -0.36276221367E+02  0.33906700721E+02  0.12246565967E+03  0.00000000000E+00 0. -1.
         13    1    4    4    0    0 -0.28490588586E+02  0.38162079295E+02 -0.24531711304E+01  0.47687272754E+02  0.00000000000E+00 0.  1.
        -13    1    3    3    0    0 -0.46781376386E+01 -0.20764714391E+02 -0.46890190202E+01  0.21795532452E+02  0.00000000000E+00 0.  1.
         13    1    3    3    0    0  0.14295022871E+03 -0.10192092834E+02  0.65504288136E+02  0.15757366026E+03  0.00000000000E+00 0. -1.
          4    1    1    2  501    0  0.21658476783E+01  0.29070949297E+02  0.69577352508E+01  0.29970336485E+02  0.00000000000E+00 0. -1.
<scales pt_clust_5="13000.00000" pt_clust_6="13000.00000" pt_clust_7="13000.00000" pt_clust_8="13000.00000" pt_clust_9="29.15152"></scales>
<clustering>
<clus scale="   29.152">  2  9  1 -1</clus>
<clus scale="   90.754">  5  6 -1 -1</clus>
<clus scale="   91.637">  7  8 -1 -1</clus>
<clus scale="  167.155">  2  5  1 -1</clus>
<clus scale="   29.152">  2  5  1 -1</clus>
</clustering>
</event>
<event>
 9    1  0.1504846E-005  0.1240881E+03  0.7546771E-02  0.1242397E+00
         21   -1    0    0  501  502  0.00000000000E+00  0.00000000000E+00  0.41307763349E+03  0.41307763349E+03  0.00000000000E+00 0.  1.
         -2   -1    0    0    0  501 -0.00000000000E+00 -0.00000000000E+00 -0.81778459031E+02  0.81778459031E+02  0.00000000000E+00 0.  1.
         23    2    1    2    0    0  0.50538967225E+01 -0.76164443954E+02 -0.29158860670E+01  0.10576086285E+03  0.73145699288E+02 0.  0.
         23    2    1    2    0    0 -0.42035762659E+02  0.10467375996E+03  0.20542760676E+03  0.25210381478E+03  0.92909797324E+02 0.  0.
        -11    1    3    3    0    0  0.18628097540E+02 -0.16365091130E+02  0.27738070090E+02  0.37205144240E+02  0.00000000000E+00 0. -1.
         11    1    3    3    0    0 -0.13574200818E+02 -0.59799352825E+02 -0.30653956157E+02  0.68555718610E+02  0.00000000000E+00 0.  1.
        -11    1    4    4    0    0  0.11545848115E+02  0.65401162114E+02  0.15522477098E+03  0.16883526925E+03  0.00000000000E+00 0.  1.
         11    1    4    4    0    0 -0.53581610773E+02  0.39272597847E+02  0.50202835777E+02  0.83268545531E+02  0.00000000000E+00 0. -1.
         -2    1    1    2    0  502  0.36981865936E+02 -0.28509316007E+02  0.12878745377E+03  0.13699141489E+03  0.00000000000E+00 0.  1.
<scales pt_clust_5="13000.00000" pt_clust_6="13000.00000" pt_clust_7="13000.00000" pt_clust_8="13000.00000" pt_clust_9="46.69518"></scales>
<clustering>
<clus scale="   46.695">  1  9  2 -1</clus>
<clus scale="   73.146">  5  6 -1 -1</clus>
<clus scale="   92.910">  7  8 -1 -1</clus>
<clus scale="  110.072">  2  5  1 -1</clus>
<clus scale="   46.695">  1  5  2 -1</clus>
</clustering>
</event>
<event>
 9    1  0.1504846E-005  0.1098831E+03  0.7546771E-02  0.1264911E+00
         21   -1    0    0  501  502  0.00000000000E+00  0.00000000000E+00  0.11319700630E+03  0.11319700630E+03  0.00000000000E+00 0. -1.
          1   -1    0    0  502    0 -0.00000000000E+00 -0.00000000000E+00 -0.31216894699E+03  0.31216894699E+03  0.00000000000E+00 0. -1.
         23    2    1    2    0    0  0.20008718377E+02  0.42397407024E+02 -0.19270237966E+03  0.21772861224E+03  0.89853505920E+02 0.  0.
         23    2    1    2    0    0  0.32717243089E+02 -0.58534883542E+02 -0.56977086464E+02  0.13272607157E+03  0.99363328776E+02 0.  0.
        -11    1    4    4    0    0  0.69123134602E+01  0.27677020422E+02 -0.55010516191E+01  0.29052695326E+02  0.00000000000E+00 0.  1.
         11    1    4    4    0    0  0.25804929629E+02 -0.86211903964E+02 -0.51476034845E+02  0.10367337624E+03  0.00000000000E+00 0. -1.
        -13    1    3    3    0    0 -0.17828867702E+02 -0.12323325636E+02 -0.11155438679E+02  0.24375739791E+02  0.00000000000E+00 0. -1.
         13    1    3    3    0    0  0.37837586079E+02  0.54720732660E+02 -0.18154694098E+03  0.19335287244E+03  0.00000000000E+00 0.  1.
          1    1    1    2  501    0 -0.52725961467E+02  0.16137476518E+02  0.50707525430E+02  0.74911269487E+02  0.00000000000E+00 0. -1.
<scales pt_clust_5="13000.00000" pt_clust_6="13000.00000" pt_clust_7="13000.00000" pt_clust_8="13000.00000" pt_clust_9="55.14023"></scales>
<clustering>
<clus scale="   55.140">  1  9  2 -1</clus>
<clus scale="   89.854">  7  8 -1 -1</clus>
<clus scale="   99.363">  5  6 -1 -1</clus>
<clus scale="  101.365">  2  7  1 -1</clus>
<clus scale="   55.140">  1  5  2 -1</clus>
</clustering>
</event>
<event>
 9    1  0.1504846E-005  0.1481337E+03  0.7546771E-02  0.1215629E+00
         21   -1    0    0  501  502  0.00000000000E+00  0.00000000000E+00  0.10579056166E+03  0.10579056166E+03  0.00000000000E+00 0. -1.
          2   -1    0    0  502    0 -0.00000000000E+00 -0.00000000000E+00 -0.76824323484E+03  0.76824323484E+03  0.00000000000E+00 0. -1.
         23    2    1    2    0    0 -0.33512224903E+02 -0.45588595419E+02 -0.59761606044E+02  0.12744133885E+03  0.97305991809E+02 0.  0.
         23    2    1    2    0    0  0.40854499511E+02 -0.74280899600E+02 -0.61348063702E+03  0.62601460043E+03  0.91373112957E+02 0.  0.
        -11    1    4    4    0    0  0.20756480948E+02 -0.92188880395E+02 -0.52820129148E+03  0.53658757485E+03  0.00000000000E+00 0. -1.
         11    1    4    4    0    0  0.20098018563E+02  0.17907980795E+02 -0.85279345549E+02  0.89427025577E+02  0.00000000000E+00 0.  1.
        -11    1    3    3    0    0 -0.37232193405E+02 -0.16819958045E+02 -0.81516679727E+02  0.91181776075E+02  0.00000000000E+00 0.  1.
         11    1    3    3    0    0  0.37199685018E+01 -0.28768637374E+02  0.21755073683E+02  0.36259562780E+02  0.00000000000E+00 0. -1.
          2    1    1    2  501    0 -0.73422746073E+01  0.11986949502E+03  0.10789569894E+02  0.12057785722E+03  0.00000000000E+00 0. -1.
<scales pt_clust_5="13000.00000" pt_clust_6="13000.00000" pt_clust_7="13000.00000" pt_clust_8="13000.00000" pt_clust_9="116.59564"></scales>
<clustering>
<clus scale="   91.373">  5  6 -1 -1</clus>
<clus scale="   97.306">  7  8 -1 -1</clus>
<clus scale="  112.560">  2  7  1 -1</clus>
<clus scale="  116.596">  1  9  2 -1</clus>
<clus scale="  116.596">  1  5  2 -1</clus>
</clustering>
</event>
<event>
 9    1  0.1504846E-005  0.1378151E+03  0.7546771E-02  0.1217669E+00
          1   -1    0    0  502    0 -0.00000000000E+00  0.00000000000E+00  0.44477997615E+02  0.44477997615E+02  0.00000000000E+00 0. -1.
         21   -1    0    0  501  502  0.00000000000E+00 -0.00000000000E+00 -0.64422237755E+03  0.64422237755E+03  0.00000000000E+00 0.  1.
         23    2    1    2    0    0  0.55873372745E+02 -0.82879543888E+02 -0.12069427038E+03  0.18231200824E+03  0.93164955162E+02 0.  0.
         23    2    1    2    0    0 -0.79279328995E+02  0.73397962884E+02 -0.40710415493E+03  0.43013904198E+03  0.87254395402E+02 0.  0.
        -13    1    3    3    0    0 -0.16919016830E+02 -0.43267997673E+02 -0.16773647023E+02  0.49393602699E+02  0.00000000000E+00 0.  1.
         13    1    3    3    0    0  0.72792389575E+02 -0.39611546216E+02 -0.10392062336E+03  0.13291840555E+03  0.00000000000E+00 0. -1.
        -13    1    4    4    0    0 -0.80832892286E+02  0.22896973901E+02 -0.30284942843E+03  0.31428650017E+03  0.00000000000E+00 0.  1.
         13    1    4    4    0    0  0.15535632909E+01  0.50500988984E+02 -0.10425472650E+03  0.11585254181E+03  0.00000000000E+00 0. -1.
          1    1    1    2  501    0  0.23405956250E+02  0.94815810039E+01 -0.71945954630E+02  0.76249324941E+02  0.00000000000E+00 0. -1.
<scales pt_clust_5="13000.00000" pt_clust_6="13000.00000" pt_clust_7="13000.00000" pt_clust_8="13000.00000" pt_clust_9="25.25350"></scales>
<clustering>
<clus scale="   25.253">  2  9  1 -1</clus>
<clus scale="   87.254">  7  8 -1 -1</clus>
<clus scale="   93.165">  5  6 -1 -1</clus>
<clus scale="  133.890">  2  7  1 -1</clus>
<clus scale="   25.253">  2  5  1 -1</clus>
</clustering>
</event>
<event>
 9    1  0.1504846E-005  0.1125198E+03  0.7546771E-02  0.1256922E+00
          1   -1    0    0  502    0 -0.00000000000E+00  0.00000000000E+00  0.90072569958E+03  0.90072569958E+03  0.00000000000E+00 0. -1.
         21   -1    0    0  501  502  0.00000000000E+00 -0.00000000000E+00 -0.10784672985E+03  0.10784672985E+03  0.00000000000E+00 0. -1.
         23    2    1    2    0    0 -0.63439746868E+02  0.79784009729E+01  0.61078743461E+03  0.62112475697E+03  0.92986112284E+02 0.  0.
         23    2    1    2    0    0  0.62890366387E+02  0.28612914894E+02  0.26957534333E+03  0.29261812582E+03  0.90446695600E+02 0.  0.
        -11    1    3    3    0    0 -0.36071660303E+02 -0.42113402108E+02  0.27772111208E+03  0.28320261194E+03  0.00000000000E+00 0.  1.
         11    1    3    3    0    0 -0.27368086565E+02  0.50091803081E+02  0.33306632253E+03  0.33792214503E+03  0.00000000000E+00 0. -1.
        -13    1    4    4    0    0 -0.17777502923E+02  0.25631856899E+02  0.53134676016E+02  0.61614328639E+02  0.00000000000E+00 0. -1.
         13    1    4    4    0    0  0.80667869309E+02  0.29810579953E+01  0.21644066732E+03  0.23100379719E+03  0.00000000000E+00 0.  1.
          1    1    1    2  501    0  0.54938048155E+00 -0.36591315867E+02 -0.87483808214E+02  0.94829546637E+02  0.00000000000E+00 0. -1.
<scales pt_clust_5="13000.00000" pt_clust_6="13000.00000" pt_clust_7="13000.00000" pt_clust_8="13000.00000" pt_clust_9="36.59544"></scales>
<clustering>
<clus scale="   36.595">  2  9  1 -1</clus>
<clus scale="   90.447">  7  8 -1 -1</clus>
<clus scale="   92.986">  5  6 -1 -1</clus>
<clus scale="  110.430">  2  7  1 -1</clus>
<clus scale="   36.595">  2  5  1 -1</clus>
</clustering>
</event>
<event>
 9    1  0.1504846E-005  0.1819716E+03  0.7546771E-02  0.1192482E+00
         21   -1    0    0  501  502  0.00000000000E+00  0.00000000000E+00  0.15480984355E+03  0.15480984355E+03  0.00000000000E+00 0. -1.
          2   -1    0    0  502    0 -0.00000000000E+00 -0.00000000000E+00 -0.49920207825E+03  0.49920207825E+03  0.00000000000E+00 0. -1.
         23    2    1    2    0    0 -0.34165133522E+02  0.28125433849E+02 -0.26577535567E+03  0.28398081072E+03  0.89723267870E+02 0.  0.
         23    2    1    2    0    0  0.21638756382E+02  0.14065288831E+03 -0.10736804128E+03  0.19836381226E+03  0.86999051480E+02 0.  0.
        -11    1    3    3    0    0 -0.40656446636E+02 -0.24189739450E+02 -0.12839357792E+03  0.13683201745E+03  0.00000000000E+00 0.  1.
         11    1    3    3    0    0  0.64913131150E+01  0.52315173300E+02 -0.13738177775E+03  0.14714879327E+03  0.00000000000E+00 0. -1.
        -13    1    4    4    0    0  0.50650377801E+02  0.49692240320E+02 -0.39342237768E+02  0.81133169493E+02  0.00000000000E+00 0. -1.
         13    1    4    4    0    0 -0.29011621419E+02  0.90960647990E+02 -0.68025803513E+02  0.11723064277E+03  0.00000000000E+00 0.  1.
          2    1    1    2  501    0  0.12526377139E+02 -0.16877832216E+03  0.28751162247E+02  0.17166729882E+03  0.00000000000E+00 0. -1.
<scales pt_clust_5="13000.00000" pt_clust_6="13000.00000" pt_clust_7="13000.00000" pt_clust_8="13000.00000" pt_clust_9="159.82745"></scales>
<clustering>
<clus scale="   86.999">  7  8 -1 -1</clus>
<clus scale="   89.723">  5  6 -1 -1</clus>
<clus scale="  100.043">  2  5  1 -1</clus>
<clus scale="  159.827">  1  9  2 -1</clus>
<clus scale="  159.827">  1  5  2 -1</clus>
</clustering>
</event>
<event>
 9    1  0.1504846E-005  0.1026255E+03  0.7546771E-02  0.1278463E+00
         21   -1    0    0  501  502  0.00000000000E+00  0.00000000000E+00  0.14193701535E+02  0.14193701535E+02  0.00000000000E+00 0.  1.
          2   -1    0    0  502    0 -0.00000000000E+00 -0.00000000000E+00 -0.98243628830E+03  0.98243628830E+03  0.00000000000E+00 0. -1.
         23    2    1    2    0    0 -0.15521482759E+02  0.31306158438E+02 -0.45422790873E+03  0.46529914408E+03  0.94653623443E+02 0.  0.
         23    2    1    2    0    0 -0.71753551035E+01 -0.47297264363E+02 -0.45960717555E+03  0.47024862048E+03  0.87215206868E+02 0.  0.
        -13    1    3    3    0    0  0.35078233417E+02  0.35561920141E+02 -0.21184374008E+03  0.21765317098E+03  0.00000000000E+00 0. -1.
         13    1    3    3    0    0 -0.50599716175E+02 -0.42557617025E+01 -0.24238416865E+03  0.24764597311E+03  0.00000000000E+00 0.  1.
        -13    1    4    4    0    0  0.39037123554E+02 -0.13125325769E+02 -0.22210239449E+03  0.22588856728E+03  0.00000000000E+00 0. -1.
         13    1    4    4    0    0 -0.46212478658E+02 -0.34171938594E+02 -0.23750478106E+03  0.24436005319E+03  0.00000000000E+00 0.  1.
          2    1    1    2  501    0  0.22696837862E+02  0.15991105925E+02 -0.54407502493E+02  0.61082225280E+02  0.00000000000E+00 0. -1.
<scales pt_clust_5="13000.00000" pt_clust_6="13000.00000" pt_clust_7="13000.00000" pt_clust_8="13000.00000" pt_clust_9="27.76440"></scales>
<clustering>
<clus scale="   27.764">  1  9  2 -1</clus>
<clus scale="   87.215">  7  8 -1 -1</clus>
<clus scale="   94.654">  5  6 -1 -1</clus>
<clus scale="   95.808">  1  7  2 -1</clus>
<clus scale="   27.764">  1  5  2 -1</clus>
</clustering>
</event>
<event>
 9    1  0.1504846E-005  0.1013583E+03  0.7546771E-02  0.1278972E+00
         -1   -1    0    0    0  501 -0.00000000000E+00  0.00000000000E+00  0.26160567288E+02  0.26160567288E+02  0.00000000000E+00 0.  1.
         21   -1    0    0  501  502  0.00000000000E+00 -0.00000000000E+00 -0.56176844659E+03  0.56176844659E+03  0.00000000000E+00 0. -1.
         23    2    1    2    0    0  0.22293867709E+02  0.41117955528E+02 -0.15708983008E+03  0.18908251588E+03  0.94272372908E+02 0.  0.
         23    2    1    2    0    0 -0.17050102779E+01 -0.25049298774E+02 -0.24139328459E+03  0.25925672812E+03  0.91175428697E+02 0.  0.
        -11    1    4    4    0    0 -0.43740230260E+02 -0.18166313598E+02 -0.16641937449E+03  0.17302783273E+03  0.00000000000E+00 0.  1.
         11    1    4    4    0    0  0.42035219982E+02 -0.68829851763E+01 -0.74973910105E+02  0.86228895391E+02  0.00000000000E+00 0. -1.
        -13    1    3    3    0    0 -0.29073977892E+02  0.13376417359E+01 -0.14778203855E+02  0.32641703158E+02  0.00000000000E+00 0.  1.
         13    1    3    3    0    0  0.51367845601E+02  0.39780313792E+02 -0.14231162623E+03  0.15644081273E+03  0.00000000000E+00 0. -1.
         -1    1    1    2    0  502 -0.20588857431E+02 -0.16068656754E+02 -0.13712476463E+03  0.13958976988E+03  0.00000000000E+00 0.  1.
<scales pt_clust_5="13000.00000" pt_clust_6="13000.00000" pt_clust_7="13000.00000" pt_clust_8="13000.00000" pt_clust_9="26.11710"></scales>
<clustering>
<clus scale="   26.117">  2  9  1 -1</clus>
<clus scale="   91.175">  5  6 -1 -1</clus>
<clus scale="   94.272">  7  8 -1 -1</clus>
<clus scale="   98.484">  2  5  1 -1</clus>
<clus scale="   26.117">  2  5  1 -1</clus>
</clustering>
</event>
<event>
 9    1  0.1504846E-005  0.1108981E+03  0.7546771E-02  0.1261534E+00
         21   -1    0    0  501  502  0.00000000000E+00  0.00000000000E+00  0.34499110903E+03  0.34499110903E+03  0.00000000000E+00 0.  1.
         -1   -1    0    0    0  501 -0.00000000000E+00 -0.00000000000E+00 -0.17289504601E+03  0.17289504601E+03  0.00000000000E+00 0.  1.
         23    2    1    2    0    0  0.20585125344E+02  0.53788525482E+02 -0.13643989443E+03  0.17308464890E+03  0.89585144048E+02 0.  0.
         23    2    1    2    0    0 -0.43608836231E+02 -0.16409394060E+02  0.18371396518E+03  0.21248438524E+03  0.96061408275E+02 0.  0.
        -11    1    4    4    0    0  0.25398170619E+02 -0.72321288792E+01  0.10089633702E+03  0.10429497391E+03  0.00000000000E+00 0. -1.
         11    1    4    4    0    0 -0.69007006850E+02 -0.91772651808E+01  0.82817628154E+02  0.10818941133E+03  0.00000000000E+00 0.  1.
        -11    1    3    3    0    0  0.47070553545E+02  0.62169593157E+02 -0.10914683504E+03  0.13414069824E+03  0.00000000000E+00 0.  1.
         11    1    3    3    0    0 -0.26485428201E+02 -0.83810676754E+01 -0.27293059387E+02  0.38943950661E+02  0.00000000000E+00 0. -1.
         -1    1    1    2    0  502  0.23023710887E+02 -0.37379131422E+02  0.12482199227E+03  0.13231712090E+03  0.00000000000E+00 0.  1.
<scales pt_clust_5="13000.00000" pt_clust_6="13000.00000" pt_clust_7="13000.00000" pt_clust_8="13000.00000" pt_clust_9="43.90092"></scales>
<clustering>
<clus scale="   43.901">  1  9  2 -1</clus>
<clus scale="   89.585">  7  8 -1 -1</clus>
<clus scale="   96.061">  5  6 -1 -1</clus>
<clus scale="  105.338">  2  7  1 -1</clus>
<clus scale="   43.901">  1  5  2 -1</clus>
</clustering>
</event>
<event>
 9    1  0.1504846E-005  0.1061536E+03  0.7546771E-02  0.1268717E+00
         21   -1    0    0  501  502  0.00000000000E+00  0.00000000000E+00  0.15117197768E+03  0.15117197768E+03  0.00000000000E+00 0.  1.
          1   -1    0    0  502    0 -0.00000000000E+00 -0.00000000000E+00 -0.17220821245E+03  0.17220821245E+03  0.00000000000E+00 0. -1.
         23    2    1    2    0    0  0.56682361103E+02  0.61716266474E+01 -0.75004214376E+02  0.13145065210E+03  0.91666039124E+02 0.  0.
         23    2    1    2    0    0 -0.43931724574E+02  0.45238643909E+02 -0.86173755946E+01  0.10993855477E+03  0.89642040007E+02 0.  0.
        -11    1    4    4    0    0  0.60942477184E+01  0.30139623885E+02  0.31529976523E+02  0.44041755219E+02  0.00000000000E+00 0.  1.
         11    1    4    4    0    0 -0.50025972292E+02  0.15099020024E+02 -0.40147352118E+02  0.65896799555E+02  0.00000000000E+00 0. -1.
        -13    1    3    3    0    0  0.78106008228E+02  0.14824725557E+02 -0.38704756939E+02  0.88421599278E+02  0.00000000000E+00 0.  1.
         13    1    3    3    0    0 -0.21423647125E+02 -0.86530989094E+01 -0.36299457437E+02  0.43029052826E+02  0.00000000000E+00 0. -1.
          1    1    1    2  501    0 -0.12750636529E+02 -0.51410270557E+02  0.62585355197E+02  0.81990983259E+02  0.00000000000E+00 0. -1.
<scales pt_clust_5="13000.00000" pt_clust_6="13000.00000" pt_clust_7="13000.00000" pt_clust_8="13000.00000" pt_clust_9="52.96786"></scales>
<clustering>
<clus scale="   52.968">  1  9  2 -1</clus>
<clus scale="   89.642">  5  6 -1 -1</clus>
<clus scale="   91.666">  7  8 -1 -1</clus>
<clus scale="  104.411">  1  5  2 -1</clus>
<clus scale="   52.968">  1  5  2 -1</clus>
</clustering>
</event>
<event>
 9    1  0.1504846E-005  0.9969103E+02  0.7546771E-02  0.1284864E+00
          1   -1    0    0  502    0 -0.00000000000E+00  0.00000000000E+00  0.39264935835E+03  0.39264935835E+03  0.00000000000E+00 0. -1.
         21   -1    0    0  501  502  0.00000000000E+00 -0.00000000000E+00 -0.70920092096E+02  0.70920092096E+02  0.00000000000E+00 0. -1.
         23    2    1    2    0    0 -0.46857770105E+02 -0.53775577086E+02  0.22543593201E+03  0.25074381780E+03  0.83448423671E+02 0.  0.
         23    2    1    2    0    0  0.48226875530E+01 -0.11123023516E+02  0.99316347720E+02  0.13544401250E+03  0.91292735919E+02 0.  0.
        -11    1    3    3    0    0 -0.49254693423E+02  0.59526703171E+01  0.91831813501E+02  0.10437691832E+03  0.00000000000E+00 0.  1.
         11    1    3    3    0    0  0.23969233175E+01 -0.59728247403E+02  0.13360411851E+03  0.14636689947E+03  0.00000000000E+00 0. -1.
        -13    1    4    4    0    0  0.27351413419E+02  0.31577951770E+02  0.60362889691E+02  0.73409436082E+02  0.00000000000E+00 0.  1.
         13    1    4    4    0    0 -0.22528725866E+02 -0.42700975286E+02  0.38953458029E+02  0.62034576422E+02  0.00000000000E+00 0. -1.
          1    1    1    2  501    0  0.42035082552E+02  0.64898600602E+02 -0.30230134765E+01  0.77381620142E+02  0.00000000000E+00 0. -1.
<scales pt_clust_5="13000.00000" pt_clust_6="13000.00000" pt_clust_7="13000.00000" pt_clust_8="13000.00000" pt_clust_9="77.32255"></scales>
<clustering>
<clus scale="   77.323">  2  9  1 -1</clus>
<clus scale="   83.448">  5  6 -1 -1</clus>
<clus scale="   91.293">  7  8 -1 -1</clus>
<clus scale="   92.561">  1  5  2 -1</clus>
<clus scale="   77.323">  2  5  1 -1</clus>
</clustering>
</event>
<event>
 9    1  0.1504846E-005  0.1908213E+03  0.7546771E-02  0.1160440E+00
         -1   -1    0    0    0  501 -0.00000000000E+00  0.00000000000E+00  0.50950092287E+03  0.50950092287E+03  0.00000000000E+00 0.  1.
         21   -1    0    0  501  502  0.00000000000E+00 -0.00000000000E+00 -0.15553986815E+03  0.15553986815E+03  0.00000000000E+00 0.  1.
         23    2    1    2    0    0  0.98053860466E+02  0.11071721884E+03  0.32091925321E+03  0.36478320911E+03  0.90580132864E+02 0.  0.
         23    2    1    2    0    0 -0.11435806244E+03 -0.13146541718E+03  0.98743732111E+02  0.22945462702E+03  0.11197400980E+03 0.  0.
        -11    1    3    3    0    0  0.42447221161E+02  0.43054410760E+02  0.23288172261E+03  0.24060204820E+03  0.00000000000E+00 0.  1.
         11    1    3    3    0    0  0.55606639305E+02  0.67662808081E+02  0.88037530593E+02  0.12418116091E+03  0.00000000000E+00 0. -1.
        -11    1    4    4    0    0 -0.64021157227E+02 -0.12462412914E+03  0.28843504236E+02  0.14304485266E+03  0.00000000000E+00 0. -1.
         11    1    4    4    0    0 -0.50336905211E+02 -0.68412880427E+01  0.69900227875E+02  0.86409774361E+02  0.00000000000E+00 0.  1.
         -1    1    1    2    0  502  0.16304201972E+02  0.20748198337E+02 -0.65701930596E+02  0.70802954884E+02  0.00000000000E+00 0.  1.
<scales pt_clust_5="13000.00000" pt_clust_6="13000.00000" pt_clust_7="13000.00000" pt_clust_8="13000.00000" pt_clust_9="26.38778"></scales>
<clustering>
<clus scale="   26.388">  2  9  1 -1</clus>
<clus scale="   90.580">  5  6 -1 -1</clus>
<clus scale="  111.974">  7  8 -1 -1</clus>
<clus scale="  179.107">  1  5  2 -1</clus>
<clus scale="   26.388">  2  5  1 -1</clus>
</clustering>
</event>
<event>
 9    1  0.1504846E-005  0.1423328E+03  0.7546771E-02  0.1224100E+00
         21   -1    0    0  501  502  0.00000000000E+00  0.00000000000E+00  0.93063228119E+02  0.93063228119E+02  0.00000000000E+00 0.  1.
         -1   -1    0    0    0  501 -0.00000000000E+00 -0.00000000000E+00 -0.35995557329E+03  0.35995557329E+03  0.00000000000E+00 0.  1.
         23    2    1    2    0    0  0.20575683150E+01  0.53723735313E+02 -0.66563089731E+02  0.12534478275E+03  0.91598014857E+02 0.  0.
         23    2    1    2    0    0  0.97592990402E+02  0.40898618567E+01 -0.14895978977E+03  0.20153335165E+03  0.94263217172E+02 0.  0.
        -13    1    3    3    0    0  0.35671970513E+02  0.17301148859E+02  0.31918292488E+01  0.39774451675E+02  0.00000000000E+00 0.  1.
         13    1    3    3    0    0 -0.33614402197E+02  0.36422586454E+02 -0.69754918980E+02  0.85570331079E+02  0.00000000000E+00 0. -1.
        -13    1    4    4    0    0  0.52932752442E+02 -0.39288690858E+02 -0.10953439251E+03  0.12784076288E+03  0.00000000000E+00 0.  1.
         13    1    4    4    0    0  0.44660237959E+02  0.43378552715E+02 -0.39425397260E+02  0.73692588768E+02  0.00000000000E+00 0. -1.
         -1    1    1    2    0  502 -0.99650558717E+02 -0.57813597169E+02 -0.51369465667E+02  0.12614066701E+03  0.00000000000E+00 0.  1.
<scales pt_clust_5="13000.00000" pt_clust_6="13000.00000" pt_clust_7="13000.00000" pt_clust_8="13000.00000" pt_clust_9="106.64465"></scales>
<clustering>
<clus scale="   91.598">  5  6 -1 -1</clus>
<clus scale="   94.263">  7  8 -1 -1</clus>
<clus scale="  106.211">  2  5  1 -1</clus>
<clus scale="  106.645">  1  9  2 -1</clus>
<clus scale="  106.645">  1  5  2 -1</clus>
</clustering>
</event>
<event>
 9    1  0.1504846E-005  0.1081521E+03  0.7546771E-02  0.1264257E+00
          1   -1    0    0  502    0 -0.00000000000E+00  0.00000000000E+00  0.15618965290E+03  0.15618965290E+03  0.00000000000E+00 0. -1.
         21   -1    0    0  501  502  0.00000000000E+00 -0.00000000000E+00 -0.97153335077E+02  0.97153335077E+02  0.00000000000E+00 0.  1.
         23    2    1    2    0    0  0.50923629305E+02  0.15719221215E+02  0.35353796020E+02  0.11166860651E+03  0.91540574882E+02 0.  0.
         23    2    1    2    0    0 -0.65271410289E+02  0.76529870225E+01  0.20112817970E+02  0.11401824793E+03  0.90976426631E+02 0.  0.
        -13    1    3    3    0    0  0.22232808537E+02 -0.37566136598E+02  0.49198955211E+01  0.43928552973E+02  0.00000000000E+00 0.  1.
         13    1    3    3    0    0  0.28690820768E+02  0.53285357814E+02  0.30433900498E+02  0.67740053537E+02  0.00000000000E+00 0. -1.
        -13    1    4    4    0    0 -0.21607053328E+02  0.43264690151E+02  0.29860573777E+02  0.56836185953E+02  0.00000000000E+00 0. -1.
         13    1    4    4    0    0 -0.43664356961E+02 -0.35611703128E+02 -0.97477558067E+01  0.57182061975E+02  0.00000000000E+00 0.  1.
          1    1    1    2  501    0  0.14347780984E+02 -0.23372208238E+02  0.35697038369E+01  0.27656133543E+02  0.00000000000E+00 0. -1.
<scales pt_clust_5="13000.00000" pt_clust_6="13000.00000" pt_clust_7="13000.00000" pt_clust_8="13000.00000" pt_clust_9="27.42479"></scales>
<clustering>
<clus scale="   27.425">  2  9  1 -1</clus>
<clus scale="   90.976">  7  8 -1 -1</clus>
<clus scale="   91.541">  5  6 -1 -1</clus>
<clus scale="  107.675">  2  7  1 -1</clus>
<clus scale="   27.425">  2  5  1 -1</clus>
</clustering>
</event>
<event>
 9    1  0.1504846E-005  0.1227795E+03  0.7546771E-02  0.1238817E+00
          1   -1    0    0  502    0 -0.00000000000E+00  0.00000000000E+00  0.13418836943E+03  0.13418836943E+03  0.00000000000E+00 0. -1.
         21   -1    0    0  501  502  0.00000000000E+00 -0.00000000000E+00 -0.21235482709E+03  0.21235482709E+03  0.00000000000E+00 0.  1.
         23    2    1    2    0    0  0.28146960190E+02  0.73459240197E+02  0.60315922398E+02  0.13526596461E+03  0.92034555195E+02 0.  0.
         23    2    1    2    0    0 -0.11137297853E+02 -0.89159051515E+02 -0.13666824494E+03  0.18805862354E+03  0.92814119849E+02 0.  0.
        -11    1    4    4    0    0  0.12355406401E+02 -0.18060522760E+02  0.94777212207E+01  0.23846713594E+02  0.00000000000E+00 0. -1.
         11    1    4    4    0    0 -0.23492704254E+02 -0.71098528755E+02 -0.14614596616E+03  0.16421190995E+03  0.00000000000E+00 0.  1.
        -13    1    3    3    0    0  0.60029079948E+02  0.46297361313E+02  0.53609379271E+02  0.92848810708E+02  0.00000000000E+00 0. -1.
         13    1    3    3    0    0 -0.31882119758E+02  0.27161878884E+02  0.67065431271E+01  0.42417153906E+02  0.00000000000E+00 0.  1.
          1    1    1    2  501    0 -0.17009662336E+02  0.15699811318E+02 -0.18141351246E+01  0.23218608366E+02  0.00000000000E+00 0. -1.
<scales pt_clust_5="13000.00000" pt_clust_6="13000.00000" pt_clust_7="13000.00000" pt_clust_8="13000.00000" pt_clust_9="23.14764"></scales>
<clustering>
<clus scale="   23.148">  2  9  1 -1</clus>
<clus scale="   92.035">  7  8 -1 -1</clus>
<clus scale="   92.814">  5  6 -1 -1</clus>
<clus scale="  122.191">  1  7  2 -1</clus>
<clus scale="   23.148">  2  5  1 -1</clus>
</clustering>
</event>
<event>
 9    1  0.1504846E-005  0.4492786E+03  0.7546771E-02  0.1027943E+00
          1   -1    0    0  502    0 -0.00000000000E+00  0.00000000000E+00  0.18577167743E+04  0.18577167743E+04  0.00000000000E+00 0. -1.
         21   -1    0    0  501  502  0.00000000000E+00 -0.00000000000E+00 -0.24941247828E+03  0.24941247828E+03  0.00000000000E+00 0.  1.
         23    2    1    2    0    0 -0.43343558801E+02 -0.44015071254E+03  0.15221060006E+04  0.15876141462E+04  0.90003813683E+02 0.  0.
         23    2    1    2    0    0  0.75184322009E+02  0.42414224956E+03  0.13395583914E+03  0.45992577791E+03  0.89656144270E+02 0.  0.
        -11    1    3    3    0    0 -0.19538694671E+02 -0.33327937395E+03  0.12617904482E+04  0.13052095759E+04  0.00000000000E+00 0. -1.
         11    1    3    3    0    0 -0.23804864130E+02 -0.10687133858E+03  0.26031555233E+03  0.28240457035E+03  0.00000000000E+00 0.  1.
        -13    1    4    4    0    0  0.39251312523E+02  0.49131142507E+02  0.25869467852E+02  0.67998265167E+02  0.00000000000E+00 0.  1.
         13    1    4    4    0    0  0.35933009486E+02  0.37501110706E+03  0.10808637129E+03  0.39192751274E+03  0.00000000000E+00 0. -1.
          1    1    1    2  501    0 -0.31840763207E+02  0.16008462973E+02 -0.47757543673E+02  0.59589328458E+02  0.00000000000E+00 0. -1.
<scales pt_clust_5="13000.00000" pt_clust_6="13000.00000" pt_clust_7="13000.00000" pt_clust_8="13000.00000" pt_clust_9="35.63853"></scales>
<clustering>
<clus scale="   35.639">  2  9  1 -1</clus>
<clus scale="   89.656">  7  8 -1 -1</clus>
<clus scale="   90.004">  5  6 -1 -1</clus>
<clus scale="  449.209">  2  7  1 -1</clus>
<clus scale="   35.639">  2  5  1 -1</clus>
</clustering>
</event>
<event>
 9    1  0.1504846E-005  0.1059873E+03  0.7546771E-02  0.1268484E+00
          1   -1    0    0  502    0 -0.00000000000E+00  0.00000000000E+00  0.17897953587E+03  0.17897953587E+03  0.00000000000E+00 0. -1.
         21   -1    0    0  501  502  0.00000000000E+00 -0.00000000000E+00 -0.15834906379E+03  0.15834906379E+03  0.00000000000E+00 0.  1.
         23    2    1    2    0    0 -0.27815813697E+02 -0.48350813913E+02  0.12096123011E+03  0.16190199496E+03  0.92027800606E+02 0.  0.
         23    2    1    2    0    0  0.41985334214E+02  0.94552197923E+01 -0.66369530059E+02  0.12188216000E+03  0.92726355131E+02 0.  0.
        -11    1    3    3    0    0  0.22675301773E+02 -0.52242632432E+02  0.62426921326E+02  0.84501967197E+02  0.00000000000E+00 0.  1.
         11    1    3    3    0    0 -0.50491115469E+02  0.38918185194E+01  0.58534308780E+02  0.77400027758E+02  0.00000000000E+00 0. -1.
        -13    1    4    4    0    0  0.58974182433E+02  0.24756726116E+02 -0.15059797657E+02  0.65708806009E+02  0.00000000000E+00 0.  1.
         13    1    4    4    0    0 -0.16988848219E+02 -0.15301506324E+02 -0.51309732402E+02  0.56173353993E+02  0.00000000000E+00 0. -1.
          1    1    1    2  501    0 -0.14169520517E+02  0.38895594120E+02 -0.33961227968E+02  0.53544444705E+02  0.00000000000E+00 0. -1.
<scales pt_clust_5="13000.00000" pt_clust_6="13000.00000" pt_clust_7="13000.00000" pt_clust_8="13000.00000" pt_clust_9="41.39617"></scales>
<clustering>
<clus scale="   41.396">  2  9  1 -1</clus>
<clus scale="   92.028">  5  6 -1 -1</clus>
<clus scale="   92.726">  7  8 -1 -1</clus>
<clus scale="  105.377">  1  5  2 -1</clus>
<clus scale="   41.396">  2  5  1 -1</clus>
</clustering>
</event>
<event>
 9    1  0.1504846E-005  0.1324763E+03  0.7546771E-02  0.1223915E+00
         -4   -1    0    0    0  501 -0.00000000000E+00  0.00000000000E+00  0.17403655466E+03  0.17403655466E+03  0.00000000000E+00 0.  1.
         21   -1    0    0  501  502  0.00000000000E+00 -0.00000000000E+00 -0.22547921523E+03  0.22547921523E+03  0.00000000000E+00 0.  1.
         23    2    1    2    0    0  0.98647297677E+02 -0.16933395696E+02  0.90022448761E+02  0.16312755472E+03  0.92133211159E+02 0.  0.
         23    2    1    2    0    0 -0.66248633198E+02  0.64000497485E+02 -0.81017065204E+02  0.15320797973E+03  0.91782215705E+02 0.  0.
        -11    1    3    3    0    0 -0.12223180102E+02 -0.21804561787E+02  0.18522063745E+02  0.31111282389E+02  0.00000000000E+00 0. -1.
         11    1    3    3    0    0  0.11087047778E+03  0.48711660913E+01  0.71500385016E+02  0.13201627233E+03  0.00000000000E+00 0.  1.
        -13    1    4    4    0    0 -0.87075825828E+02  0.65707153578E+02 -0.66380129869E+02  0.12769475759E+03  0.00000000000E+00 0. -1.
         13    1    4    4    0    0  0.20827192630E+02 -0.17066560930E+01 -0.14636935334E+02  0.25513222138E+02  0.00000000000E+00 0.  1.
         -4    1    1    2    0  502 -0.32398664479E+02 -0.47067101789E+02 -0.60448044128E+02  0.83180235451E+02  0.00000000000E+00 0.  1.
<scales pt_clust_5="13000.00000" pt_clust_6="13000.00000" pt_clust_7="13000.00000" pt_clust_8="13000.00000" pt_clust_9="57.14005"></scales>
<clustering>
<clus scale="   57.140">  2  9  1 -1</clus>
<clus scale="   91.782">  7  8 -1 -1</clus>
<clus scale="   92.133">  5  6 -1 -1</clus>
<clus scale="  132.232">  2  7  1 -1</clus>
<clus scale="   57.140">  2  5  1 -1</clus>
</clustering>
</event>
<event>
 9    1  0.1504846E-005  0.1557765E+03  0.7546771E-02  0.1193651E+00
         -1   -1    0    0    0  501 -0.00000000000E+00  0.00000000000E+00  0.27473429136E+03  0.27473429136E+03  0.00000000000E+00 0.  1.
         21   -1    0    0  501  502  0.00000000000E+00 -0.00000000000E+00 -0.17696985458E+03  0.17696985458E+03  0.00000000000E+00 0.  1.
         23    2    1    2    0    0 -0.10988628605E+03 -0.73685597869E+01  0.63794238291E+02  0.15634068878E+03  0.90793251914E+02 0.  0.
         23    2    1    2    0    0  0.14241864434E+03 -0.28406054474E+02  0.11142062918E+03  0.20405767106E+03  0.90194247737E+02 0.  0.
        -11    1    3    3    0    0 -0.55503447035E+02  0.41717932704E+02  0.29197561110E+02  0.75322746343E+02  0.00000000000E+00 0.  1.
         11    1    3    3    0    0 -0.54382839016E+02 -0.49086492491E+02  0.34596677181E+02  0.81017942435E+02  0.00000000000E+00 0. -1.
        -11    1    4    4    0    0  0.58095860973E+02 -0.60713634860E+00 -0.42334697577E+01  0.58253068099E+02  0.00000000000E+00 0. -1.
         11    1    4    4    0    0  0.84322783372E+02 -0.27798918125E+02  0.11565409893E+03  0.14580460296E+03  0.00000000000E+00 0.  1.
         -1    1    1    2    0  502 -0.32532358294E+02  0.35774614260E+02 -0.77450430690E+02  0.91305786102E+02  0.00000000000E+00 0.  1.
<scales pt_clust_5="13000.00000" pt_clust_6="13000.00000" pt_clust_7="13000.00000" pt_clust_8="13000.00000" pt_clust_9="48.35470"></scales>
<clustering>
<clus scale="   48.355">  2  9  1 -1</clus>
<clus scale="   90.194">  7  8 -1 -1</clus>
<clus scale="   90.793">  5  6 -1 -1</clus>
<clus scale="  155.428">  2  7  1 -1</clus>
<clus scale="   48.355">  2  5  1 -1</clus>
</clustering>
</event>
<event>
 9    1  0.1504846E-005  0.1772340E+03  0.7546771E-02  0.1170566E+00
         21   -1    0    0  501  502  0.00000000000E+00  0.00000000000E+00  0.95346690715E+02  0.95346690715E+02  0.00000000000E+00 0. -1.
          1   -1    0    0  502    0 -0.00000000000E+00 -0.00000000000E+00 -0.46409939668E+03  0.46409939668E+03  0.00000000000E+00 0. -1.
         23    2    1    2    0    0  0.10261085104E+03  0.14463214452E+03 -0.22764830868E+03  0.30267131623E+03  0.91316642769E+02 0.  0.
         23    2    1    2    0    0 -0.56119173782E+02 -0.11382657454E+03 -0.12100673497E+03  0.19749260498E+03  0.90856196138E+02 0.  0.
        -11    1    3    3    0    0  0.11944628680E+03  0.11941807186E+03 -0.19819359525E+03  0.26040121451E+03  0.00000000000E+00 0. -1.
         11    1    3    3    0    0 -0.16835435757E+02  0.25214072654E+02 -0.29454713431E+02  0.42270101729E+02  0.00000000000E+00 0.  1.
        -11    1    4    4    0    0 -0.36310078463E+01 -0.83580074247E+02 -0.10608407858E+03  0.13510234920E+03  0.00000000000E+00 0. -1.
         11    1    4    4    0    0 -0.52488165936E+02 -0.30246500288E+02 -0.14922656385E+02  0.62390255783E+02  0.00000000000E+00 0.  1.
          1    1    1    2  501    0 -0.46491677261E+02 -0.30805569981E+02 -0.20097662309E+02  0.59282166177E+02  0.00000000000E+00 0. -1.
<scales pt_clust_5="13000.00000" pt_clust_6="13000.00000" pt_clust_7="13000.00000" pt_clust_8="13000.00000" pt_clust_9="55.77149"></scales>
<clustering>
<clus scale="   55.771">  1  9  2 -1</clus>
<clus scale="   90.856">  7  8 -1 -1</clus>
<clus scale="   91.317">  5  6 -1 -1</clus>
<clus scale="  176.997">  1  7  2 -1</clus>
<clus scale="   55.771">  1  5  2 -1</clus>
</clustering>
</event>
<event>
 9    1  0.1504846E-005  0.1289385E+03  0.7546771E-02  0.1251878E+00
          1   -1    0    0  502    0 -0.00000000000E+00  0.00000000000E+00  0.10586374817E+03  0.10586374817E+03  0.00000000000E+00 0. -1.
         21   -1    0    0  501  502  0.00000000000E+00 -0.00000000000E+00 -0.28009559205E+03  0.28009559205E+03  0.00000000000E+00 0. -1.
         23    2    1    2    0    0 -0.14388135987E+02  0.16220525858E+02 -0.93302582510E+02  0.12362926324E+03  0.78158165981E+02 0.  0.
         23    2    1    2    0    0 -0.49634016419E+02 -0.68498842869E+02  0.20125701882E+02  0.13177754340E+03  0.99018432662E+02 0.  0.
        -11    1    3    3    0    0  0.23421149866E+02 -0.10199849799E+02 -0.64185203799E+02  0.69082035173E+02  0.00000000000E+00 0.  1.
         11    1    3    3    0    0 -0.37809285853E+02  0.26420375657E+02 -0.29117378711E+02  0.54547228065E+02  0.00000000000E+00 0. -1.
        -13    1    4    4    0    0  0.36732239774E+01 -0.48248937520E+02  0.48129263400E+02  0.68248652306E+02  0.00000000000E+00 0.  1.
         13    1    4    4    0    0 -0.53307240397E+02 -0.20249905349E+02 -0.28003561518E+02  0.63528891090E+02  0.00000000000E+00 0. -1.
          1    1    1    2  501    0  0.64022152407E+02  0.52278317011E+02 -0.10105496325E+03  0.13055253359E+03  0.00000000000E+00 0. -1.
<scales pt_clust_5="13000.00000" pt_clust_6="13000.00000" pt_clust_7="13000.00000" pt_clust_8="13000.00000" pt_clust_9="82.58626"></scales>
<clustering>
<clus scale="   78.158">  5  6 -1 -1</clus>
<clus scale="   81.110">  1  5  2 -1</clus>
<clus scale="   82.586">  2  9  1 -1</clus>
<clus scale="   99.018">  7  8 -1 -1</clus>
<clus scale="   82.586">  2  5  1 -1</clus>
</clustering>
</event>
<event>
 9    1  0.1504846E-005  0.1274877E+03  0.7546771E-02  0.1232190E+00
          1   -1    0    0  502    0 -0.00000000000E+00  0.00000000000E+00  0.46602724589E+03  0.46602724589E+03  0.00000000000E+00 0. -1.
         21   -1    0    0  501  502  0.00000000000E+00 -0.00000000000E+00 -0.81528900598E+02  0.81528900598E+02  0.00000000000E+00 0. -1.
         23    2    1    2    0    0  0.10586520250E+02  0.99410033284E+02  0.33573885961E+03  0.36148011568E+03  0.89178826244E+02 0.  0.
         23    2    1    2    0    0  0.17632541101E+02 -0.59442598040E+02  0.71179320161E+02  0.13225818728E+03  0.92635865179E+02 0.  0.
        -11    1    3    3    0    0  0.34555773674E+02  0.79544029435E+02  0.15097182569E+03  0.17410871967E+03  0.00000000000E+00 0. -1.
         11    1    3    3    0    0 -0.23969253425E+02  0.19866003849E+02  0.18476703392E+03  0.18737139601E+03  0.00000000000E+00 0.  1.
        -13    1    4    4    0    0  0.22988463912E+02 -0.82704828623E+02  0.64790865607E+02  0.10754726597E+03  0.00000000000E+00 0.  1.
         13    1    4    4    0    0 -0.53559228108E+01  0.23262230582E+02  0.63884545543E+01  0.24710921319E+02  0.00000000000E+00 0. -1.
          1    1    1    2  501    0 -0.28219061351E+02 -0.39967435243E+02 -0.22419834480E+02  0.53817843524E+02  0.00000000000E+00 0. -1.
<scales pt_clust_5="13000.00000" pt_clust_6="13000.00000" pt_clust_7="13000.00000" pt_clust_8="13000.00000" pt_clust_9="48.92557"></scales>
<clustering>
<clus scale="   48.926">  2  9  1 -1</clus>
<clus scale="   89.179">  5  6 -1 -1</clus>
<clus scale="   92.636">  7  8 -1 -1</clus>
<clus scale="  124.998">  1  5  2 -1</clus>
<clus scale="   48.926">  2  5  1 -1</clus>
</clustering>
</event>
<event>
 9    1  0.1504846E-005  0.1132302E+03  0.7546771E-02  0.1255307E+00
         -3   -1    0    0    0  501 -0.00000000000E+00  0.00000000000E+00  0.45690432425E+03  0.45690432425E+03  0.00000000000E+00 0.  1.
         21   -1    0    0  501  502  0.00000000000E+00 -0.00000000000E+00 -0.62027145585E+02  0.62027145585E+02  0.00000000000E+00 0.  1.
         23    2    1    2    0    0  0.49129876442E+02 -0.27105513629E+02  0.26832284570E+03  0.28862221707E+03  0.90317113744E+02 0.  0.
         23    2    1    2    0    0 -0.94185788608E+02  0.49123480276E+02  0.79011692933E+02  0.16120694674E+03  0.91982351386E+02 0.  0.
        -11    1    3    3    0    0  0.17404908206E+02  0.19906441794E+02  0.18079133426E+02  0.32032051448E+02  0.00000000000E+00 0. -1.
         11    1    3    3    0    0  0.31724968235E+02 -0.47011955423E+02  0.25024371227E+03  0.25659016562E+03  0.00000000000E+00 0.  1.
        -13    1    4    4    0    0 -0.55158658639E+01  0.26700579022E+02 -0.14095280709E+02  0.30692387242E+02  0.00000000000E+00 0. -1.
         13    1    4    4    0    0 -0.88669922744E+02  0.22422901254E+02  0.93106973641E+02  0.13051455950E+03  0.00000000000E+00 0.  1.
         -3    1    1    2    0  502  0.45055912166E+02 -0.22017966647E+02  0.47542640029E+02  0.69102306020E+02  0.00000000000E+00 0.  1.
<scales pt_clust_5="13000.00000" pt_clust_6="13000.00000" pt_clust_7="13000.00000" pt_clust_8="13000.00000" pt_clust_9="50.14804"></scales>
<clustering>
<clus scale="   50.148">  2  9  1 -1</clus>
<clus scale="   90.317">  5  6 -1 -1</clus>
<clus scale="   91.982">  7  8 -1 -1</clus>
<clus scale="  111.882">  1  5  2 -1</clus>
<clus scale="   50.148">  2  5  1 -1</clus>
</clustering>
</event>
<event>
 9    1  0.1504846E-005  0.1157624E+03  0.7546771E-02  0.1251170E+00
          2   -1    0    0  502    0 -0.00000000000E+00  0.00000000000E+00  0.95933033965E+02  0.95933033965E+02  0.00000000000E+00 0. -1.
         21   -1    0    0  501  502  0.00000000000E+00 -0.00000000000E+00 -0.19876591183E+03  0.19876591183E+03  0.00000000000E+00 0.  1.
         23    2    1    2    0    0 -0.73850276900E+02  0.81886833383E+01  0.13153504953E+02  0.11994958185E+03  0.93241458379E+02 0.  0.
         23    2    1    2    0    0  0.53735853545E+02 -0.20098388279E+02 -0.93026636930E+02  0.14198381756E+03  0.90630911406E+02 0.  0.
        -11    1    3    3    0    0 -0.11856719996E+02  0.44541950113E+02  0.13683906729E+02  0.48081352231E+02  0.00000000000E+00 0. -1.
         11    1    3    3    0    0 -0.61993556903E+02 -0.36353266775E+02 -0.53040177602E+00  0.71868229620E+02  0.00000000000E+00 0.  1.
        -13    1    4    4    0    0  0.54185423531E+02  0.74009780266E+01 -0.11421199239E+02  0.55868402439E+02  0.00000000000E+00 0. -1.
         13    1    4    4    0    0 -0.44956998602E+00 -0.27499366306E+02 -0.81605437692E+02  0.86115415120E+02  0.00000000000E+00 0.  1.
          2    1    1    2  501    0  0.20114423355E+02  0.11909704941E+02 -0.22959745888E+02  0.32765546385E+02  0.00000000000E+00 0. -1.
<scales pt_clust_5="13000.00000" pt_clust_6="13000.00000" pt_clust_7="13000.00000" pt_clust_8="13000.00000" pt_clust_9="23.37587"></scales>
<clustering>
<clus scale="   23.376">  2  9  1 -1</clus>
<clus scale="   90.631">  7  8 -1 -1</clus>
<clus scale="   93.241">  5  6 -1 -1</clus>
<clus scale="  113.670">  2  7  1 -1</clus>
<clus scale="   23.376">  2  5  1 -1</clus>
</clustering>
</event>
<event>
 9    1  0.1504846E-005  0.1175081E+03  0.7546771E-02  0.1248469E+00
         21   -1    0    0  501  502  0.00000000000E+00  0.00000000000E+00  0.72283885631E+02  0.72283885631E+02  0.00000000000E+00 0.  1.
         -3   -1    0    0    0  501 -0.00000000000E+00 -0.00000000000E+00 -0.38684410189E+03  0.38684410189E+03  0.00000000000E+00 0.  1.
         23    2    1    2    0    0  0.18675770346E+02 -0.80229961006E+02 -0.22423761980E+03  0.25617534437E+03  0.92507653135E+02 0.  0.
         23    2    1    2    0    0  0.21392277826E+01  0.60967681501E+02 -0.12038681087E+03  0.16162279260E+03  0.88923047478E+02 0.  0.
        -11    1    3    3    0    0 -0.22416499672E+02 -0.71532938030E+02 -0.99649675442E+02  0.12469770847E+03  0.00000000000E+00 0. -1.
         11    1    3    3    0    0  0.41092270018E+02 -0.86970229760E+01 -0.12458794436E+03  0.13147763590E+03  0.00000000000E+00 0.  1.
        -13    1    4    4    0    0  0.16439817030E+02 -0.19540530985E+02 -0.35807045332E+02  0.43980045822E+02  0.00000000000E+00 0.  1.
         13    1    4    4    0    0 -0.14300589248E+02  0.80508212486E+02 -0.84579765542E+02  0.11764274678E+03  0.00000000000E+00 0. -1.
         -3    1    1    2    0  502 -0.20814998128E+02  0.19262279505E+02  0.30064214410E+02  0.41329850555E+02  0.00000000000E+00 0.  1.
<scales pt_clust_5="13000.00000" pt_clust_6="13000.00000" pt_clust_7="13000.00000" pt_clust_8="13000.00000" pt_clust_9="28.36018"></scales>
<clustering>
<clus scale="   28.360">  1  9  2 -1</clus>
<clus scale="   88.923">  7  8 -1 -1</clus>
<clus scale="   92.508">  5  6 -1 -1</clus>
<clus scale="  114.707">  1  7  2 -1</clus>
<clus scale="   28.360">  1  5  2 -1</clus>
</clustering>
</event>
<event>
 9    1  0.1504846E-005  0.9190833E+02  0.7546771E-02  0.1303824E+00
         -2   -1    0    0    0  501 -0.00000000000E+00  0.00000000000E+00  0.10677533367E+03  0.10677533367E+03  0.00000000000E+00 0. -1.
         21   -1    0    0  501  502  0.00000000000E+00 -0.00000000000E+00 -0.10276402228E+03  0.10276402228E+03  0.00000000000E+00 0. -1.
         23    2    1    2    0    0 -0.11126857496E+01 -0.68503331112E+01  0.33789040156E+02  0.89700402295E+02  0.82802764471E+02 0.  0.
         23    2    1    2    0    0  0.15842822978E+02 -0.10095521029E+02 -0.24564661745E+02  0.96788682875E+02  0.91715385521E+02 0.  0.
        -11    1    4    4    0    0  0.53563197671E+02 -0.74966191628E+01 -0.52730828392E+01  0.54341704484E+02  0.00000000000E+00 0. -1.
         11    1    4    4    0    0 -0.37720374693E+02 -0.25989018663E+01 -0.19291578906E+02  0.42446978391E+02  0.00000000000E+00 0.  1.
        -11    1    3    3    0    0  0.19184559259E+02  0.32391318947E+02  0.23363360612E+02  0.44306788150E+02  0.00000000000E+00 0.  1.
         11    1    3    3    0    0 -0.20297245008E+02 -0.39241652059E+02  0.10425679545E+02  0.45393614145E+02  0.00000000000E+00 0. -1.
         -2    1    1    2    0  502 -0.14730137228E+02  0.16945854140E+02 -0.52130670164E+01  0.23050270780E+02  0.00000000000E+00 0. -1.
<scales pt_clust_5="13000.00000" pt_clust_6="13000.00000" pt_clust_7="13000.00000" pt_clust_8="13000.00000" pt_clust_9="22.45304"></scales>
<clustering>
<clus scale="   22.453">  2  9  1 -1</clus>
<clus scale="   82.803">  7  8 -1 -1</clus>
<clus scale="   83.016">  1  7  2 -1</clus>
<clus scale="   91.715">  5  6 -1 -1</clus>
<clus scale="   22.453">  2  5  1 -1</clus>
</clustering>
</event>
<event>
 9    1  0.2363505E-005  0.9343997E+02  0.7546771E-02  0.1295354E+00
         21   -1    0    0  501  502  0.00000000000E+00  0.00000000000E+00  0.16854063464E+03  0.16854063464E+03  0.00000000000E+00 0. -1.
          2   -1    0    0  502    0 -0.00000000000E+00 -0.00000000000E+00 -0.58463394147E+03  0.58463394147E+03  0.00000000000E+00 0. -1.
         23    2    1    2    0    0 -0.34710051188E+02 -0.28995890179E+01 -0.41619448139E+03  0.42703256105E+03  0.89026774576E+02 0.  0.
         23    2    1    2    0    0  0.82192684839E+00 -0.80078971745E+01 -0.14818780310E+03  0.17363955894E+03  0.90145823313E+02 0.  0.
        -13    1    4    4    0    0  0.12218805193E+02  0.16228578288E+02  0.26106491694E+01  0.20481246121E+02  0.00000000000E+00 0.  1.
         13    1    4    4    0    0 -0.11396878345E+02 -0.24236475462E+02 -0.15079845227E+03  0.15315831282E+03  0.00000000000E+00 0. -1.
        -13    1    3    3    0    0  0.26854823556E+02 -0.60680707400E+01 -0.66964180362E+02  0.72403069564E+02  0.00000000000E+00 0.  1.
         13    1    3    3    0    0 -0.61564874745E+02  0.31684817222E+01 -0.34923030103E+03  0.35462949149E+03  0.00000000000E+00 0. -1.
          2    1    1    2  501    0  0.33888124340E+02  0.10907486192E+02  0.14828897766E+03  0.15250245612E+03  0.00000000000E+00 0. -1.
<scales pt_clust_5="13000.00000" pt_clust_6="13000.00000" pt_clust_7="13000.00000" pt_clust_8="13000.00000" pt_clust_9="35.60026"></scales>
<clustering>
<clus scale="   35.600">  1  9  2 -1</clus>
<clus scale="   89.027">  7  8 -1 -1</clus>
<clus scale="   90.146">  5  6 -1 -1</clus>
<clus scale="   92.361">  2  7  1 -1</clus>
<clus scale="   35.600">  1  5  2 -1</clus>
</clustering>
</event>
<event>
 9    1  0.1504846E-005  0.1135498E+03  0.7546771E-02  0.1254643E+00
         -1   -1    0    0    0  501 -0.00000000000E+00  0.00000000000E+00  0.13736962906E+03  0.13736962906E+03  0.00000000000E+00 0.  1.
         21   -1    0    0  501  502  0.00000000000E+00 -0.00000000000E+00 -0.16820905189E+03  0.16820905189E+03  0.00000000000E+00 0. -1.
         23    2    1    2    0    0 -0.32456301415E+02  0.61595110215E+02  0.62905541817E+02  0.13259499170E+03  0.93685407241E+02 0.  0.
         23    2    1    2    0    0  0.44688185255E+02 -0.27898920365E+02 -0.84994377291E+02  0.13608348637E+03  0.92299986093E+02 0.  0.
        -11    1    4    4    0    0 -0.20226873859E+02 -0.24824583597E+02 -0.40468426186E+01  0.32276358408E+02  0.00000000000E+00 0.  1.
         11    1    4    4    0    0  0.64915059114E+02 -0.30743367683E+01 -0.80947534673E+02  0.10380712796E+03  0.00000000000E+00 0. -1.
        -13    1    3    3    0    0 -0.12475923546E+02 -0.24952632863E+02  0.15315314792E+02  0.31825169635E+02  0.00000000000E+00 0. -1.
         13    1    3    3    0    0 -0.19980377870E+02  0.86547743078E+02  0.47590227026E+02  0.10076982207E+03  0.00000000000E+00 0.  1.
         -1    1    1    2    0  502 -0.12231883840E+02 -0.33696189849E+02 -0.87505873566E+01  0.36900202868E+02  0.00000000000E+00 0.  1.
<scales pt_clust_5="13000.00000" pt_clust_6="13000.00000" pt_clust_7="13000.00000" pt_clust_8="13000.00000" pt_clust_9="35.84762"></scales>
<clustering>
<clus scale="   35.848">  2  9  1 -1</clus>
<clus scale="   92.300">  5  6 -1 -1</clus>
<clus scale="   93.685">  7  8 -1 -1</clus>
<clus scale="  112.409">  2  5  1 -1</clus>
<clus scale="   35.848">  2  5  1 -1</clus>
</clustering>
</event>
<event>
 9    1  0.1504846E-005  0.1320469E+03  0.7546771E-02  0.1226080E+00
          4   -1    0    0  502    0 -0.00000000000E+00  0.00000000000E+00  0.22679688563E+03  0.22679688563E+03  0.00000000000E+00 0. -1.
         21   -1    0    0  501  502  0.00000000000E+00 -0.00000000000E+00 -0.16390923096E+03  0.16390923096E+03  0.00000000000E+00 0.  1.
         23    2    1    2    0    0 -0.52141972537E+02  0.80896594611E+02  0.13316223661E+03  0.19231784414E+03  0.99954627696E+02 0.  0.
         23    2    1    2    0    0  0.57884029875E+02 -0.40008831347E+02 -0.68156499318E+00  0.11746875432E+03  0.94059429142E+02 0.  0.
        -13    1    3    3    0    0 -0.14257199737E+02 -0.23609031316E+02  0.25241404147E+02  0.37386930702E+02  0.00000000000E+00 0.  1.
         13    1    3    3    0    0 -0.37884772800E+02  0.10450562593E+03  0.10792083246E+03  0.15493091344E+03  0.00000000000E+00 0. -1.
        -13    1    4    4    0    0  0.37359885225E+01 -0.51390385556E+02  0.24049309634E+02  0.56862101894E+02  0.00000000000E+00 0. -1.
         13    1    4    4    0    0  0.54148041352E+02  0.11381554210E+02 -0.24730874628E+02  0.60606652426E+02  0.00000000000E+00 0.  1.
          4    1    1    2  501    0 -0.57420573375E+01 -0.40887763264E+02 -0.69593016943E+02  0.80919518130E+02  0.00000000000E+00 0. -1.
<scales pt_clust_5="13000.00000" pt_clust_6="13000.00000" pt_clust_7="13000.00000" pt_clust_8="13000.00000" pt_clust_9="41.28899"></scales>
<clustering>
<clus scale="   41.289">  2  9  1 -1</clus>
<clus scale="   94.059">  7  8 -1 -1</clus>
<clus scale="   99.955">  5  6 -1 -1</clus>
<clus scale="  127.643">  2  7  1 -1</clus>
<clus scale="   41.289">  2  5  1 -1</clus>
</clustering>
</event>
<event>
 9    1  0.1504846E-005  0.1022822E+03  0.7546771E-02  0.1277092E+00
         -2   -1    0    0    0  501 -0.00000000000E+00  0.00000000000E+00  0.18664337325E+03  0.18664337325E+03  0.00000000000E+00 0.  1.
         21   -1    0    0  501  502  0.00000000000E+00 -0.00000000000E+00 -0.15119462448E+03  0.15119462448E+03  0.00000000000E+00 0.  1.
         23    2    1    2    0    0  0.42202964941E+02  0.18823808983E+02  0.13687349822E+03  0.16957931988E+03  0.88810839326E+02 0.  0.
         23    2    1    2    0    0 -0.20025737096E+02 -0.38248284937E+02 -0.62299564265E+02  0.11926970136E+03  0.92087265722E+02 0.  0.
        -11    1    4    4    0    0 -0.11742876742E+02  0.28840932789E+02 -0.33658221772E+02  0.45853794294E+02  0.00000000000E+00 0. -1.
         11    1    4    4    0    0 -0.82828603539E+01 -0.67089217725E+02 -0.28641342492E+02  0.73415907066E+02  0.00000000000E+00 0.  1.
        -13    1    3    3    0    0  0.26603317473E+02 -0.22452722221E+02  0.11491838246E+02  0.36659563309E+02  0.00000000000E+00 0. -1.
         13    1    3    3    0    0  0.15599647468E+02  0.41276531204E+02  0.12538165998E+03  0.13291975657E+03  0.00000000000E+00 0.  1.
         -2    1    1    2    0  502 -0.22177227845E+02  0.19424475953E+02 -0.39125185189E+02  0.48988976485E+02  0.00000000000E+00 0.  1.
<scales pt_clust_5="13000.00000" pt_clust_6="13000.00000" pt_clust_7="13000.00000" pt_clust_8="13000.00000" pt_clust_9="29.48118"></scales>
<clustering>
<clus scale="   29.481">  2  9  1 -1</clus>
<clus scale="   88.811">  7  8 -1 -1</clus>
<clus scale="   92.087">  5  6 -1 -1</clus>
<clus scale="   99.343">  1  7  2 -1</clus>
<clus scale="   29.481">  2  5  1 -1</clus>
</clustering>
</event>
<event>
 9    1  0.1504846E-005  0.1098871E+03  0.7546771E-02  0.1261202E+00
          2   -1    0    0  502    0 -0.00000000000E+00  0.00000000000E+00  0.22235351716E+03  0.22235351716E+03  0.00000000000E+00 0. -1.
         21   -1    0    0  501  502  0.00000000000E+00 -0.00000000000E+00 -0.87400363528E+02  0.87400363528E+02  0.00000000000E+00 0.  1.
         23    2    1    2    0    0  0.67811909014E+02 -0.15209158932E+02  0.13093369271E+03  0.17459048282E+03  0.92241158310E+02 0.  0.
         23    2    1    2    0    0 -0.33846593210E+02  0.23231794240E+02  0.64244083623E+01  0.10018070033E+03  0.91156961116E+02 0.  0.
        -11    1    4    4    0    0 -0.43674910783E+02  0.44994583786E+02 -0.18783069709E+02  0.65458491501E+02  0.00000000000E+00 0.  1.
         11    1    4    4    0    0  0.98283175729E+01 -0.21762789545E+02  0.25207478071E+02  0.34722208827E+02  0.00000000000E+00 0. -1.
        -13    1    3    3    0    0 -0.96597853713E+01  0.25984770760E+02  0.29865020720E+02  0.40748487425E+02  0.00000000000E+00 0.  1.
         13    1    3    3    0    0  0.77471694385E+02 -0.41193929692E+02  0.10106867199E+03  0.13384199540E+03  0.00000000000E+00 0. -1.
          2    1    1    2  501    0 -0.33965315804E+02 -0.80226353078E+01 -0.24049474357E+01  0.34982697539E+02  0.00000000000E+00 0. -1.
<scales pt_clust_5="13000.00000" pt_clust_6="13000.00000" pt_clust_7="13000.00000" pt_clust_8="13000.00000" pt_clust_9="34.89993"></scales>
<clustering>
<clus scale="   34.900">  2  9  1 -1</clus>
<clus scale="   91.157">  5  6 -1 -1</clus>
<clus scale="   92.241">  7  8 -1 -1</clus>
<clus scale="  108.979">  2  5  1 -1</clus>
<clus scale="   34.900">  2  5  1 -1</clus>
</clustering>
</event>
<event>
 9    1  0.1504846E-005  0.1079922E+03  0.7546771E-02  0.1267830E+00
         -1   -1    0    0    0  501 -0.00000000000E+00  0.00000000000E+00  0.83712222241E+02  0.83712222241E+02  0.00000000000E+00 0.  1.
         21   -1    0    0  501  502  0.00000000000E+00 -0.00000000000E+00 -0.32245149755E+03  0.32245149755E+03  0.00000000000E+00 0.  1.
         23    2    1    2    0    0 -0.46944023741E+02 -0.85820762736E+01  0.27950265213E+02  0.10328249590E+03  0.87227651788E+02 0.  0.
         23    2    1    2    0    0  0.65202695334E+02  0.25899471436E+02 -0.21769203619E+03  0.24779922416E+03  0.95354385181E+02 0.  0.
        -11    1    4    4    0    0  0.45314742580E+02 -0.31887649028E+02 -0.81833198013E+02  0.98827730687E+02  0.00000000000E+00 0. -1.
         11    1    4    4    0    0  0.19887952754E+02  0.57787120464E+02 -0.13585883818E+03  0.14897149347E+03  0.00000000000E+00 0.  1.
        -11    1    3    3    0    0 -0.25343148837E+02  0.35088471433E+02  0.32818951932E+02  0.54319053990E+02  0.00000000000E+00 0.  1.
         11    1    3    3    0    0 -0.21600874904E+02 -0.43670547707E+02 -0.48686867195E+01  0.48963441913E+02  0.00000000000E+00 0. -1.
         -1    1    1    2    0  502 -0.18258671593E+02 -0.17317395162E+02 -0.48997504333E+02  0.55081999731E+02  0.00000000000E+00 0.  1.
<scales pt_clust_5="13000.00000" pt_clust_6="13000.00000" pt_clust_7="13000.00000" pt_clust_8="13000.00000" pt_clust_9="25.16488"></scales>
<clustering>
<clus scale="   25.165">  2  9  1 -1</clus>
<clus scale="   87.228">  7  8 -1 -1</clus>
<clus scale="   95.354">  5  6 -1 -1</clus>
<clus scale="  100.889">  1  7  2 -1</clus>
<clus scale="   25.165">  2  5  1 -1</clus>
</clustering>
</event>
<event>
 9    1  0.1504846E-005  0.1373338E+03  0.7546771E-02  0.1216986E+00
         -4   -1    0    0    0  501 -0.00000000000E+00  0.00000000000E+00  0.81508081846E+02  0.81508081846E+02  0.00000000000E+00 0.  1.
         21   -1    0    0  501  502  0.00000000000E+00 -0.00000000000E+00 -0.72844288715E+03  0.72844288715E+03  0.00000000000E+00 0.  1.
         23    2    1    2    0    0 -0.11584205692E+03  0.17623368665E+02 -0.21451841489E+02  0.14967478531E+03  0.90622263160E+02 0.  0.
         23    2    1    2    0    0  0.60443537380E+02 -0.40406922517E+02 -0.20538525052E+03  0.23592942099E+03  0.90517677601E+02 0.  0.
        -11    1    4    4    0    0 -0.13460970507E+02 -0.37032704910E+02 -0.97042681235E+02  0.10473729489E+03  0.00000000000E+00 0.  1.
         11    1    4    4    0    0  0.73904507887E+02 -0.33742176072E+01 -0.10834256929E+03  0.13119212610E+03  0.00000000000E+00 0. -1.
        -13    1    3    3    0    0 -0.43750148347E+02 -0.28953709367E+01 -0.52623892931E+02  0.68496224425E+02  0.00000000000E+00 0. -1.
         13    1    3    3    0    0 -0.72091908576E+02  0.20518739602E+02  0.31172051441E+02  0.81178560890E+02  0.00000000000E+00 0.  1.
         -4    1    1    2    0  502  0.55398519543E+02  0.22783553852E+02 -0.42009771329E+03  0.42434676269E+03  0.00000000000E+00 0.  1.
<scales pt_clust_5="13000.00000" pt_clust_6="13000.00000" pt_clust_7="13000.00000" pt_clust_8="13000.00000" pt_clust_9="59.90064"></scales>
<clustering>
<clus scale="   59.901">  2  9  1 -1</clus>
<clus scale="   90.518">  5  6 -1 -1</clus>
<clus scale="   90.622">  7  8 -1 -1</clus>
<clus scale="  137.265">  2  5  1 -1</clus>
<clus scale="   59.901">  2  5  1 -1</clus>
</clustering>
</event>
<event>
 9    1  0.1504846E-005  0.1016841E+03  0.7546771E-02  0.1282165E+00
         21   -1    0    0  501  502  0.00000000000E+00  0.00000000000E+00  0.52292434402E+02  0.52292434402E+02  0.00000000000E+00 0. -1.
         -1   -1    0    0    0  501 -0.00000000000E+00 -0.00000000000E+00 -0.35658502359E+03  0.35658502359E+03  0.00000000000E+00 0.  1.
         23    2    1    2    0    0 -0.12457232570E+02  0.17253720958E+02 -0.17785420854E+03  0.20565127130E+03  0.10103193734E+03 0.  0.
         23    2    1    2    0    0 -0.87909073378E+01 -0.58173797221E+01 -0.14583964150E+03  0.17226359194E+03  0.91073718037E+02 0.  0.
        -11    1    3    3    0    0 -0.43812195677E+02  0.38909653002E+02 -0.14077010863E+03  0.15247850035E+03  0.00000000000E+00 0.  1.
         11    1    3    3    0    0  0.31354963106E+02 -0.21655932044E+02 -0.37084099915E+02  0.53172770951E+02  0.00000000000E+00 0. -1.
        -13    1    4    4    0    0 -0.36799347322E+02 -0.31573175819E+02 -0.52496178930E+02  0.71462620977E+02  0.00000000000E+00 0.  1.
         13    1    4    4    0    0  0.28008439984E+02  0.25755796097E+02 -0.93343462573E+02  0.10080097097E+03  0.00000000000E+00 0. -1.
         -1    1    1    2    0  502  0.21248139908E+02 -0.11436341236E+02  0.19401260857E+02  0.30962594744E+02  0.00000000000E+00 0.  1.
<scales pt_clust_5="13000.00000" pt_clust_6="13000.00000" pt_clust_7="13000.00000" pt_clust_8="13000.00000" pt_clust_9="24.13034"></scales>
<clustering>
<clus scale="   24.130">  1  9  2 -1</clus>
<clus scale="   91.074">  7  8 -1 -1</clus>
<clus scale="   91.797">  1  7  2 -1</clus>
<clus scale="  101.032">  5  6 -1 -1</clus>
<clus scale="   24.130">  1  5  2 -1</clus>
</clustering>
</event>
<event>
 9    1  0.1504846E-005  0.9716822E+02  0.7546771E-02  0.1286705E+00
         21   -1    0    0  501  502  0.00000000000E+00  0.00000000000E+00  0.82025948360E+03  0.82025948360E+03  0.00000000000E+00 0. -1.
          3   -1    0    0  502    0 -0.00000000000E+00 -0.00000000000E+00 -0.14764451109E+03  0.14764451109E+03  0.00000000000E+00 0. -1.
         23    2    1    2    0    0  0.26306511792E+00  0.38283940251E+02 -0.10932960946E+03  0.14774954321E+03  0.91712783889E+02 0.  0.
         23    2    1    2    0    0 -0.46303184649E+02  0.25091966735E+02  0.14904998989E+03  0.18243055912E+03  0.91057222183E+02 0.  0.
        -11    1    4    4    0    0 -0.39791086580E+02  0.57142280967E+02  0.80218207624E+02  0.10622396942E+03  0.00000000000E+00 0. -1.
         11    1    4    4    0    0 -0.65120980690E+01 -0.32050314232E+02  0.68831782269E+02  0.76206589701E+02  0.00000000000E+00 0.  1.
        -13    1    3    3    0    0 -0.12562069390E+02  0.55858228061E+02 -0.11204399715E+03  0.12582449891E+03  0.00000000000E+00 0. -1.
         13    1    3    3    0    0  0.12825134508E+02 -0.17574287809E+02  0.27143876803E+01  0.21925044301E+02  0.00000000000E+00 0.  1.
          3    1    1    2  501    0  0.46040119531E+02 -0.63375906987E+02  0.63289459208E+03  0.63772389235E+03  0.00000000000E+00 0. -1.
<scales pt_clust_5="13000.00000" pt_clust_6="13000.00000" pt_clust_7="13000.00000" pt_clust_8="13000.00000" pt_clust_9="78.33389"></scales>
<clustering>
<clus scale="   78.334">  1  9  2 -1</clus>
<clus scale="   91.057">  5  6 -1 -1</clus>
<clus scale="   91.713">  7  8 -1 -1</clus>
<clus scale="   96.550">  1  5  2 -1</clus>
<clus scale="   78.334">  1  5  2 -1</clus>
</clustering>
</event>
<event>
 9    1  0.1504846E-005  0.9247591E+02  0.7546771E-02  0.1303741E+00
         21   -1    0    0  501  502  0.00000000000E+00  0.00000000000E+00  0.68965463484E+02  0.68965463484E+02  0.00000000000E+00 0.  1.
          3   -1    0    0  502    0 -0.00000000000E+00 -0.00000000000E+00 -0.36156951880E+03  0.36156951880E+03  0.00000000000E+00 0. -1.
         23    2    1    2    0    0  0.16349194202E+02 -0.10157672974E+02 -0.22501331258E+03  0.23979368262E+03  0.80619755136E+02 0.  0.
         23    2    1    2    0    0  0.53298073739E+02  0.20360006635E+02 -0.43379816735E+02  0.11630341628E+03  0.91594004198E+02 0.  0.
        -11    1    4    4    0    0 -0.23144584350E+02  0.78568504515E+01 -0.28294702225E+02  0.37389731983E+02  0.00000000000E+00 0. -1.
         11    1    4    4    0    0  0.76442658089E+02  0.12503156184E+02 -0.15085114510E+02  0.78913684301E+02  0.00000000000E+00 0.  1.
        -13    1    3    3    0    0  0.47216527096E+02 -0.82425752607E+01 -0.98327366660E+02  0.10938743763E+03  0.00000000000E+00 0.  1.
         13    1    3    3    0    0 -0.30867332895E+02 -0.19150977134E+01 -0.12668594592E+03  0.13040624499E+03  0.00000000000E+00 0. -1.
          3    1    1    2  501    0 -0.69647267940E+02 -0.10202333661E+02 -0.24210926005E+02  0.74437883378E+02  0.00000000000E+00 0. -1.
<scales pt_clust_5="13000.00000" pt_clust_6="13000.00000" pt_clust_7="13000.00000" pt_clust_8="13000.00000" pt_clust_9="70.39055"></scales>
<clustering>
<clus scale="   70.391">  1  9  2 -1</clus>
<clus scale="   80.620">  7  8 -1 -1</clus>
<clus scale="   81.620">  2  7  1 -1</clus>
<clus scale="   91.594">  5  6 -1 -1</clus>
<clus scale="   70.391">  1  5  2 -1</clus>
</clustering>
</event>
<event>
 9    1  0.1504846E-005  0.1670679E+03  0.7546771E-02  0.1181600E+00
          2   -1    0    0  502    0 -0.00000000000E+00  0.00000000000E+00  0.38369370534E+03  0.38369370534E+03  0.00000000000E+00 0. -1.
         21   -1    0    0  501  502  0.00000000000E+00 -0.00000000000E+00 -0.42007091013E+03  0.42007091013E+03  0.00000000000E+00 0. -1.
         23    2    1    2    0    0 -0.14097997810E+03  0.23063601355E+02  0.32797102230E+03  0.37055571186E+03  0.96639847834E+02 0.  0.
         23    2    1    2    0    0  0.88081859726E+02 -0.36856622912E+02 -0.10827559280E+03  0.17136610266E+03  0.92335867795E+02 0.  0.
        -11    1    4    4    0    0  0.27382626349E+02  0.21977451318E+02 -0.70534714513E+02  0.78790624719E+02  0.00000000000E+00 0.  1.
         11    1    4    4    0    0  0.60699233378E+02 -0.58834074230E+02 -0.37740878283E+02  0.92575477945E+02  0.00000000000E+00 0. -1.
        -13    1    3    3    0    0 -0.71343705878E+02  0.45054020558E+02  0.98266258220E+02  0.12952237892E+03  0.00000000000E+00 0.  1.
         13    1    3    3    0    0 -0.69636272225E+02 -0.21990419203E+02  0.22970476408E+03  0.24103333294E+03  0.00000000000E+00 0. -1.
          2    1    1    2  501    0  0.52898118376E+02  0.13793021557E+02 -0.25607263430E+03  0.26184280094E+03  0.00000000000E+00 0. -1.
<scales pt_clust_5="13000.00000" pt_clust_6="13000.00000" pt_clust_7="13000.00000" pt_clust_8="13000.00000" pt_clust_9="54.66679"></scales>
<clustering>
<clus scale="   54.667">  2  9  1 -1</clus>
<clus scale="   92.336">  5  6 -1 -1</clus>
<clus scale="   96.640">  7  8 -1 -1</clus>
<clus scale="  164.616">  2  5  1 -1</clus>
<clus scale="   54.667">  2  5  1 -1</clus>
</clustering>
</event>
<event>
 9    1  0.1504846E-005  0.1737045E+03  0.7546771E-02  0.1174175E+00
         21   -1    0    0  501  502  0.00000000000E+00  0.00000000000E+00  0.12321192048E+03  0.12321192048E+03  0.00000000000E+00 0.  1.
          3   -1    0    0  502    0 -0.00000000000E+00 -0.00000000000E+00 -0.57968151345E+03  0.57968151345E+03  0.00000000000E+00 0. -1.
         23    2    1    2    0    0 -0.12692206030E+03 -0.92851590636E+02 -0.37091516014E+03  0.41303525089E+03  0.91046335371E+02 0.  0.
         23    2    1    2    0    0  0.13074552858E+03  0.35140428748E+02 -0.13620936896E+03  0.21297437675E+03  0.92064379560E+02 0.  0.
        -11    1    3    3    0    0 -0.18278269225E+02  0.16218731968E+02 -0.28094212016E+02  0.37234757168E+02  0.00000000000E+00 0.  1.
         11    1    3    3    0    0 -0.10864379107E+03 -0.10907032260E+03 -0.34282094812E+03  0.37580049372E+03  0.00000000000E+00 0. -1.
        -11    1    4    4    0    0  0.42358749778E+02  0.45444305267E+02 -0.17361472295E+02  0.64504800474E+02  0.00000000000E+00 0.  1.
         11    1    4    4    0    0  0.88386778806E+02 -0.10303876519E+02 -0.11884789666E+03  0.14846957628E+03  0.00000000000E+00 0. -1.
          3    1    1    2  501    0 -0.38234682879E+01  0.57711161888E+02  0.50654936117E+02  0.76883806288E+02  0.00000000000E+00 0. -1.
<scales pt_clust_5="13000.00000" pt_clust_6="13000.00000" pt_clust_7="13000.00000" pt_clust_8="13000.00000" pt_clust_9="57.83768"></scales>
<clustering>
<clus scale="   57.838">  1  9  2 -1</clus>
<clus scale="   91.046">  5  6 -1 -1</clus>
<clus scale="   92.064">  7  8 -1 -1</clus>
<clus scale="  173.167">  2  5  1 -1</clus>
<clus scale="   57.838">  1  5  2 -1</clus>
</clustering>
</event>
<event>
 9    1  0.1504846E-005  0.1319517E+03  0.7546771E-02  0.1224754E+00
         21   -1    0    0  501  502  0.00000000000E+00  0.00000000000E+00  0.31742698582E+03  0.31742698582E+03  0.00000000000E+00 0. -1.
         -3   -1    0    0    0  501 -0.00000000000E+00 -0.00000000000E+00 -0.92883850556E+02  0.92883850556E+02  0.00000000000E+00 0.  1.
         23    2    1    2    0    0  0.85566628602E+02  0.32841170531E+02  0.45828897777E+02  0.13559800709E+03  0.88805074427E+02 0.  0.
         23    2    1    2    0    0 -0.82936211083E+02 -0.68091154413E+02  0.60746333966E+02  0.15156289335E+03  0.88127028380E+02 0.  0.
        -13    1    3    3    0    0  0.94773805227E+02  0.30056943580E+01  0.24991154802E+02  0.98059503232E+02  0.00000000000E+00 0.  1.
         13    1    3    3    0    0 -0.92071766244E+01  0.29835476173E+02  0.20837742975E+02  0.37538503862E+02  0.00000000000E+00 0. -1.
        -13    1    4    4    0    0 -0.45041800250E+02  0.67158923793E+01 -0.38617166321E+01  0.45703170958E+02  0.00000000000E+00 0.  1.
         13    1    4    4    0    0 -0.37894410832E+02 -0.74807046792E+02  0.64608050598E+02  0.10585972239E+03  0.00000000000E+00 0. -1.
         -3    1    1    2    0  502 -0.26304175199E+01  0.35249983882E+02  0.11796790352E+03  0.12314993593E+03  0.00000000000E+00 0.  1.
<scales pt_clust_5="13000.00000" pt_clust_6="13000.00000" pt_clust_7="13000.00000" pt_clust_8="13000.00000" pt_clust_9="35.34799"></scales>
<clustering>
<clus scale="   35.348">  1  9  2 -1</clus>
<clus scale="   88.127">  7  8 -1 -1</clus>
<clus scale="   88.805">  5  6 -1 -1</clus>
<clus scale="  131.496">  1  7  2 -1</clus>
<clus scale="   35.348">  1  5  2 -1</clus>
</clustering>
</event>
<event>
 9    1  0.1504846E-005  0.1076350E+03  0.7546771E-02  0.1266396E+00
          2   -1    0    0  502    0 -0.00000000000E+00  0.00000000000E+00  0.30668902322E+03  0.30668902322E+03  0.00000000000E+00 0. -1.
         21   -1    0    0  501  502  0.00000000000E+00 -0.00000000000E+00 -0.94555858413E+02  0.94555858413E+02  0.00000000000E+00 0.  1.
         23    2    1    2    0    0 -0.39588908324E+02  0.48519868308E+02  0.19979853537E+03  0.22780449759E+03  0.89743941867E+02 0.  0.
         23    2    1    2    0    0  0.28405667663E+01 -0.50792786435E+02 -0.41326236586E+02  0.10836277418E+03  0.86294014992E+02 0.  0.
        -11    1    4    4    0    0 -0.32364794582E+02 -0.23228189048E+02 -0.48836151082E+02  0.63023791915E+02  0.00000000000E+00 0.  1.
         11    1    4    4    0    0  0.35205361348E+02 -0.27564597386E+02  0.75099144964E+01  0.45338982261E+02  0.00000000000E+00 0. -1.
        -13    1    3    3    0    0 -0.83450854994E+01  0.66093620390E+02  0.16457963124E+03  0.17755129436E+03  0.00000000000E+00 0. -1.
         13    1    3    3    0    0 -0.31243822824E+02 -0.17573752082E+02  0.35218904132E+02  0.50253203233E+02  0.00000000000E+00 0.  1.
          2    1    1    2  501    0  0.36748341557E+02  0.22729181272E+01  0.53660866017E+02  0.65077609864E+02  0.00000000000E+00 0. -1.
<scales pt_clust_5="13000.00000" pt_clust_6="13000.00000" pt_clust_7="13000.00000" pt_clust_8="13000.00000" pt_clust_9="36.81858"></scales>
<clustering>
<clus scale="   36.819">  2  9  1 -1</clus>
<clus scale="   86.294">  5  6 -1 -1</clus>
<clus scale="   89.744">  7  8 -1 -1</clus>
<clus scale="  104.776">  2  5  1 -1</clus>
<clus scale="   36.819">  2  5  1 -1</clus>
</clustering>
</event>
<event>
 9    1  0.1504846E-005  0.9647212E+02  0.7546771E-02  0.1289801E+00
          2   -1    0    0  502    0 -0.00000000000E+00  0.00000000000E+00  0.17490092276E+03  0.17490092276E+03  0.00000000000E+00 0. -1.
         21   -1    0    0  501  502  0.00000000000E+00 -0.00000000000E+00 -0.21957815358E+03  0.21957815358E+03  0.00000000000E+00 0. -1.
         23    2    1    2    0    0  0.26323557526E+02 -0.13754888333E+01  0.11291009040E+03  0.14924620258E+03  0.93972968572E+02 0.  0.
         23    2    1    2    0    0 -0.83965393330E+01  0.11080898856E+02 -0.54255291793E+01  0.91711592104E+02  0.90489179282E+02 0.  0.
        -13    1    4    4    0    0  0.37232339106E+02  0.20589954652E+02 -0.13006232633E+02  0.44489947124E+02  0.00000000000E+00 0.  1.
         13    1    4    4    0    0 -0.45628878439E+02 -0.95090557962E+01  0.75807034533E+01  0.47221644979E+02  0.00000000000E+00 0. -1.
        -13    1    3    3    0    0  0.31459279518E+02 -0.21891184878E+02  0.42662491486E+01  0.38563079816E+02  0.00000000000E+00 0.  1.
         13    1    3    3    0    0 -0.51357219922E+01  0.20515696044E+02  0.10864384125E+03  0.11068312277E+03  0.00000000000E+00 0. -1.
          2    1    1    2  501    0 -0.17927018193E+02 -0.97054100224E+01 -0.15216179203E+03  0.15352128165E+03  0.00000000000E+00 0. -1.
<scales pt_clust_5="13000.00000" pt_clust_6="13000.00000" pt_clust_7="13000.00000" pt_clust_8="13000.00000" pt_clust_9="20.38561"></scales>
<clustering>
<clus scale="   20.386">  2  9  1 -1</clus>
<clus scale="   90.489">  5  6 -1 -1</clus>
<clus scale="   93.082">  2  5  1 -1</clus>
<clus scale="   93.973">  7  8 -1 -1</clus>
<clus scale="   20.386">  2  5  1 -1</clus>
</clustering>
</event>
<event>
 9    1  0.1504846E-005  0.1098253E+03  0.7546771E-02  0.1262219E+00
         21   -1    0    0  501  502  0.00000000000E+00  0.00000000000E+00  0.37836057330E+03  0.37836057330E+03  0.00000000000E+00 0.  1.
         -4   -1    0    0    0  501 -0.00000000000E+00 -0.00000000000E+00 -0.69298114361E+02  0.69298114361E+02  0.00000000000E+00 0.  1.
         23    2    1    2    0    0 -0.68317484221E+02 -0.22474466285E+02  0.19672324240E+01  0.11445823640E+03  0.89019310216E+02 0.  0.
         23    2    1    2    0    0  0.33429472932E+02  0.11353344309E+02  0.21267581502E+03  0.23192914263E+03  0.85520154445E+02 0.  0.
        -13    1    4    4    0    0 -0.29016880187E+02  0.24323241376E+01  0.58449342065E+02  0.65301004007E+02  0.00000000000E+00 0.  1.
         13    1    4    4    0    0  0.62446353118E+02  0.89210201713E+01  0.15422647296E+03  0.16662813862E+03  0.00000000000E+00 0. -1.
        -13    1    3    3    0    0 -0.22048407232E+02 -0.10502051046E+02  0.44317647679E+02  0.50601178182E+02  0.00000000000E+00 0. -1.
         13    1    3    3    0    0 -0.46269076989E+02 -0.11972415240E+02 -0.42350415255E+02  0.63857058219E+02  0.00000000000E+00 0.  1.
         -4    1    1    2    0  502  0.34888011290E+02  0.11121121976E+02  0.94419411488E+02  0.10127130863E+03  0.00000000000E+00 0.  1.
<scales pt_clust_5="13000.00000" pt_clust_6="13000.00000" pt_clust_7="13000.00000" pt_clust_8="13000.00000" pt_clust_9="36.61766"></scales>
<clustering>
<clus scale="   36.618">  1  9  2 -1</clus>
<clus scale="   85.520">  5  6 -1 -1</clus>
<clus scale="   89.019">  7  8 -1 -1</clus>
<clus scale="  107.009">  1  5  2 -1</clus>
<clus scale="   36.618">  1  5  2 -1</clus>
</clustering>
</event>
<event>
 9    1  0.1504846E-005  0.1158092E+03  0.7546771E-02  0.1251191E+00
         21   -1    0    0  501  502  0.00000000000E+00  0.00000000000E+00  0.24799875826E+02  0.24799875826E+02  0.00000000000E+00 0.  1.
          1   -1    0    0  502    0 -0.00000000000E+00 -0.00000000000E+00 -0.71088391744E+03  0.71088391744E+03  0.00000000000E+00 0. -1.
         23    2    1    2    0    0  0.51359521600E+02  0.26502668338E+02 -0.32005359729E+03  0.33790886329E+03  0.91694617446E+02 0.  0.
         23    2    1    2    0    0 -0.65888630460E+02 -0.48620381849E+02 -0.26045948296E+03  0.28893782169E+03  0.94555112943E+02 0.  0.
        -13    1    4    4    0    0 -0.63651149781E+02 -0.14600441308E+02 -0.71123253687E+02  0.96556506616E+02  0.00000000000E+00 0.  1.
         13    1    4    4    0    0 -0.22374806791E+01 -0.34019940541E+02 -0.18933622927E+03  0.19238131507E+03  0.00000000000E+00 0. -1.
        -13    1    3    3    0    0  0.75721581579E+02  0.52168992882E+01 -0.23200447873E+03  0.24410459255E+03  0.00000000000E+00 0.  1.
         13    1    3    3    0    0 -0.24362059980E+02  0.21285769050E+02 -0.88049118554E+02  0.93804270738E+02  0.00000000000E+00 0. -1.
          1    1    1    2  501    0  0.14529108860E+02  0.22117713511E+02 -0.10557096137E+03  0.10883710828E+03  0.00000000000E+00 0. -1.
<scales pt_clust_5="13000.00000" pt_clust_6="13000.00000" pt_clust_7="13000.00000" pt_clust_8="13000.00000" pt_clust_9="26.46297"></scales>
<clustering>
<clus scale="   26.463">  1  9  2 -1</clus>
<clus scale="   91.695">  7  8 -1 -1</clus>
<clus scale="   94.555">  5  6 -1 -1</clus>
<clus scale="  113.486">  2  7  1 -1</clus>
<clus scale="   26.463">  1  5  2 -1</clus>
</clustering>
</event>
<event>
 9    1  0.1504846E-005  0.1491305E+03  0.7546771E-02  0.1202567E+00
          1   -1    0    0  502    0 -0.00000000000E+00  0.00000000000E+00  0.35621910144E+03  0.35621910144E+03  0.00000000000E+00 0. -1.
         21   -1    0    0  501  502  0.00000000000E+00 -0.00000000000E+00 -0.14228632974E+03  0.14228632974E+03  0.00000000000E+00 0. -1.
         23    2    1    2    0    0 -0.24195324256E+02  0.85336814733E+02  0.10809960827E+03  0.16390961369E+03  0.85516375557E+02 0.  0.
         23    2    1    2    0    0  0.25974221224E+02 -0.18733069939E+03  0.99862652224E+02  0.23241184621E+03  0.90968488223E+02 0.  0.
        -11    1    4    4    0    0  0.10298295154E+02 -0.98003379907E+02  0.14092464356E+01  0.98553048313E+02  0.00000000000E+00 0.  1.
         11    1    4    4    0    0  0.15675926070E+02 -0.89327319479E+02  0.98453405789E+02  0.13385879790E+03  0.00000000000E+00 0. -1.
        -11    1    3    3    0    0  0.17383307222E+02  0.23054249734E+02  0.78050216130E+02  0.83219673388E+02  0.00000000000E+00 0.  1.
         11    1    3    3    0    0 -0.41578631478E+02  0.62282564999E+02  0.30049392137E+02  0.80689940304E+02  0.00000000000E+00 0. -1.
          1    1    1    2  501    0 -0.17788969684E+01  0.10199388465E+03  0.59705112150E+01  0.10218397127E+03  0.00000000000E+00 0. -1.
<scales pt_clust_5="13000.00000" pt_clust_6="13000.00000" pt_clust_7="13000.00000" pt_clust_8="13000.00000" pt_clust_9="102.00940"></scales>
<clustering>
<clus scale="   85.516">  7  8 -1 -1</clus>
<clus scale="   90.968">  5  6 -1 -1</clus>
<clus scale="  102.009">  2  9  1 -1</clus>
<clus scale="  145.869">  1  7  2 -1</clus>
<clus scale="  102.009">  2  5  1 -1</clus>
</clustering>
</event>
<event>
 9    1  0.1504846E-005  0.1186752E+03  0.7546771E-02  0.1245424E+00
         21   -1    0    0  501  502  0.00000000000E+00  0.00000000000E+00  0.26145452380E+03  0.26145452380E+03  0.00000000000E+00 0.  1.
         -3   -1    0    0    0  501 -0.00000000000E+00 -0.00000000000E+00 -0.16166664893E+03  0.16166664893E+03  0.00000000000E+00 0.  1.
         23    2    1    2    0    0 -0.38782220463E+02  0.65373993652E+02 -0.72515851461E+02  0.13864026157E+03  0.90469628860E+02 0.  0.
         23    2    1    2    0    0 -0.14627781297E+02 -0.90825019044E+02  0.33464335877E+02  0.13356119964E+03  0.90860201435E+02 0.  0.
        -13    1    3    3    0    0  0.27140059203E+01  0.71098021901E+02 -0.25283321325E+02  0.75508548414E+02  0.00000000000E+00 0. -1.
         13    1    3    3    0    0 -0.41496226383E+02 -0.57240282484E+01 -0.47232530137E+02  0.63131713160E+02  0.00000000000E+00 0.  1.
        -13    1    4    4    0    0 -0.30089152362E+02 -0.57183072116E+01 -0.15327927107E+02  0.34249109136E+02  0.00000000000E+00 0.  1.
         13    1    4    4    0    0  0.15461371065E+02 -0.85106711832E+02  0.48792262984E+02  0.99312090509E+02  0.00000000000E+00 0. -1.
         -3    1    1    2    0  502  0.53410001760E+02  0.25451025392E+02  0.13883939046E+03  0.15091971151E+03  0.00000000000E+00 0.  1.
<scales pt_clust_5="13000.00000" pt_clust_6="13000.00000" pt_clust_7="13000.00000" pt_clust_8="13000.00000" pt_clust_9="59.16403"></scales>
<clustering>
<clus scale="   59.164">  1  9  2 -1</clus>
<clus scale="   90.470">  5  6 -1 -1</clus>
<clus scale="   90.860">  7  8 -1 -1</clus>
<clus scale="  118.376">  2  5  1 -1</clus>
<clus scale="   59.164">  1  5  2 -1</clus>
</clustering>
</event>
<event>
 9    1  0.1504846E-005  0.1065841E+03  0.7546771E-02  0.1275136E+00
         21   -1    0    0  501  502  0.00000000000E+00  0.00000000000E+00  0.20508571142E+02  0.20508571142E+02  0.00000000000E+00 0.  1.
          3   -1    0    0  502    0 -0.00000000000E+00 -0.00000000000E+00 -0.75283250580E+03  0.75283250580E+03  0.00000000000E+00 0. -1.
         23    2    1    2    0    0  0.60187738176E+00  0.17091532416E+02 -0.33343131940E+03  0.34608613585E+03  0.91141022260E+02 0.  0.
         23    2    1    2    0    0  0.10668848865E+01  0.21488919320E+02 -0.33883443956E+03  0.35585311694E+03  0.10658213502E+03 0.  0.
        -11    1    3    3    0    0 -0.44423815366E+02  0.17386384378E+02 -0.17127679936E+03  0.17779624217E+03  0.00000000000E+00 0. -1.
         11    1    3    3    0    0  0.45025692748E+02 -0.29485196267E+00 -0.16215452004E+03  0.16828989368E+03  0.00000000000E+00 0.  1.
        -13    1    4    4    0    0 -0.37023638050E+02 -0.11991056276E+02 -0.54132525993E+02  0.66669825075E+02  0.00000000000E+00 0.  1.
         13    1    4    4    0    0  0.38090522937E+02  0.33479975596E+02 -0.28470191357E+03  0.28918329186E+03  0.00000000000E+00 0. -1.
          3    1    1    2  501    0 -0.16687622682E+01 -0.38580451735E+02 -0.60058175703E+02  0.71401824153E+02  0.00000000000E+00 0. -1.
<scales pt_clust_5="13000.00000" pt_clust_6="13000.00000" pt_clust_7="13000.00000" pt_clust_8="13000.00000" pt_clust_9="38.61653"></scales>
<clustering>
<clus scale="   38.617">  1  9  2 -1</clus>
<clus scale="   91.141">  5  6 -1 -1</clus>
<clus scale="   91.143">  2  5  1 -1</clus>
<clus scale="  106.582">  7  8 -1 -1</clus>
<clus scale="   38.617">  1  5  2 -1</clus>
</clustering>
</event>
<event>
 9    1  0.1504846E-005  0.1543966E+03  0.7546771E-02  0.1195769E+00
         -1   -1    0    0    0  501 -0.00000000000E+00  0.00000000000E+00  0.64594652854E+03  0.64594652854E+03  0.00000000000E+00 0.  1.
         21   -1    0    0  501  502  0.00000000000E+00 -0.00000000000E+00 -0.55734646097E+02  0.55734646097E+02  0.00000000000E+00 0. -1.
         23    2    1    2    0    0  0.98544035368E+02 -0.57377866395E+02  0.37131810911E+03  0.39940091382E+03  0.92955932288E+02 0.  0.
         23    2    1    2    0    0 -0.12290568512E+03  0.71648686146E+02  0.21625978142E+03  0.27392388255E+03  0.89591621877E+02 0.  0.
        -11    1    3    3    0    0  0.81641251467E+02 -0.34083857980E+02  0.35593909632E+03  0.36676919664E+03  0.00000000000E+00 0.  1.
         11    1    3    3    0    0  0.16902783901E+02 -0.23294008414E+02  0.15379012793E+02  0.32631717180E+02  0.00000000000E+00 0. -1.
        -13    1    4    4    0    0  0.17117166115E+00  0.41255267352E+02  0.49191278794E+02  0.64201310683E+02  0.00000000000E+00 0.  1.
         13    1    4    4    0    0 -0.12307685678E+03  0.30393418793E+02  0.16706850263E+03  0.20972257187E+03  0.00000000000E+00 0. -1.
         -1    1    1    2    0  502  0.24361649749E+02 -0.14270819751E+02  0.26339919070E+01  0.28356378264E+02  0.00000000000E+00 0.  1.
<scales pt_clust_5="13000.00000" pt_clust_6="13000.00000" pt_clust_7="13000.00000" pt_clust_8="13000.00000" pt_clust_9="28.23378"></scales>
<clustering>
<clus scale="   28.234">  2  9  1 -1</clus>
<clus scale="   89.592">  7  8 -1 -1</clus>
<clus scale="   92.956">  5  6 -1 -1</clus>
<clus scale="  152.395">  2  7  1 -1</clus>
<clus scale="   28.234">  2  5  1 -1</clus>
</clustering>
</event>
<event>
 9    1  0.1525227E-005  0.9589480E+02  0.7546771E-02  0.1289556E+00
          1   -1    0    0  502    0 -0.00000000000E+00  0.00000000000E+00  0.46214156981E+03  0.46214156981E+03  0.00000000000E+00 0. -1.
         21   -1    0    0  501  502  0.00000000000E+00 -0.00000000000E+00 -0.67557213092E+02  0.67557213092E+02  0.00000000000E+00 0.  1.
         23    2    1    2    0    0 -0.17133816157E+02  0.14524460957E+02  0.35108342513E+03  0.36353034132E+03  0.91598089723E+02 0.  0.
         23    2    1    2    0    0  0.19527787139E+02 -0.58038633933E+02  0.10046927717E+02  0.11122861339E+03  0.92309512943E+02 0.  0.
        -11    1    4    4    0    0 -0.32496523851E+02 -0.54144190590E+01 -0.10240003480E+02  0.34499241548E+02  0.00000000000E+00 0. -1.
         11    1    4    4    0    0  0.52024310991E+02 -0.52624214874E+02  0.20286931197E+02  0.76729371837E+02  0.00000000000E+00 0.  1.
        -13    1    3    3    0    0 -0.53998764059E+02  0.93407058340E+01  0.16839800428E+03  0.17709038130E+03  0.00000000000E+00 0. -1.
         13    1    3    3    0    0  0.36864947902E+02  0.51837551233E+01  0.18268542085E+03  0.18643996002E+03  0.00000000000E+00 0.  1.
          1    1    1    2  501    0 -0.23939709823E+01  0.43514172975E+02  0.33454003873E+02  0.54939828193E+02  0.00000000000E+00 0. -1.
<scales pt_clust_5="13000.00000" pt_clust_6="13000.00000" pt_clust_7="13000.00000" pt_clust_8="13000.00000" pt_clust_9="43.57998"></scales>
<clustering>
<clus scale="   43.580">  2  9  1 -1</clus>
<clus scale="   91.598">  7  8 -1 -1</clus>
<clus scale="   92.310">  5  6 -1 -1</clus>
<clus scale="   95.210">  1  7  2 -1</clus>
<clus scale="   43.580">  2  5  1 -1</clus>
</clustering>
</event>
<event>
 9    1  0.1504846E-005  0.1217285E+03  0.7546771E-02  0.1246257E+00
         21   -1    0    0  501  502  0.00000000000E+00  0.00000000000E+00  0.21409767805E+03  0.21409767805E+03  0.00000000000E+00 0. -1.
          3   -1    0    0  502    0 -0.00000000000E+00 -0.00000000000E+00 -0.14766429763E+03  0.14766429763E+03  0.00000000000E+00 0. -1.
         23    2    1    2    0    0  0.63216217040E+02 -0.57245359574E+02 -0.88804563434E+02  0.14171509003E+03  0.70168333071E+02 0.  0.
         23    2    1    2    0    0 -0.26436318818E+02  0.67412516085E+02  0.99384532146E+02  0.15240270198E+03  0.90033172022E+02 0.  0.
        -13    1    4    4    0    0 -0.23368123969E+02 -0.12884826514E+02  0.29052804053E+01  0.26842664294E+02  0.00000000000E+00 0.  1.
         13    1    4    4    0    0 -0.30681948482E+01  0.80297342599E+02  0.96479251741E+02  0.12556003769E+03  0.00000000000E+00 0. -1.
        -13    1    3    3    0    0 -0.69217989178E+01 -0.31408249648E+02 -0.11426715248E+02  0.34131499638E+02  0.00000000000E+00 0.  1.
         13    1    3    3    0    0  0.70138015957E+02 -0.25837109927E+02 -0.77377848186E+02  0.10758359039E+03  0.00000000000E+00 0. -1.
          3    1    1    2  501    0 -0.36779898222E+02 -0.10167156510E+02  0.55853411708E+02  0.67644183669E+02  0.00000000000E+00 0. -1.
<scales pt_clust_5="13000.00000" pt_clust_6="13000.00000" pt_clust_7="13000.00000" pt_clust_8="13000.00000" pt_clust_9="38.15930"></scales>
<clustering>
<clus scale="   38.159">  1  9  2 -1</clus>
<clus scale="   70.168">  7  8 -1 -1</clus>
<clus scale="   90.033">  5  6 -1 -1</clus>
<clus scale="  107.868">  2  7  1 -1</clus>
<clus scale="   38.159">  1  5  2 -1</clus>
</clustering>
</event>
<event>
 9    1  0.1504846E-005  0.9869816E+02  0.7546771E-02  0.1284311E+00
          2   -1    0    0  502    0 -0.00000000000E+00  0.00000000000E+00  0.57159963629E+03  0.57159963629E+03  0.00000000000E+00 0. -1.
         21   -1    0    0  501  502  0.00000000000E+00 -0.00000000000E+00 -0.48056494569E+02  0.48056494569E+02  0.00000000000E+00 0.  1.
         23    2    1    2    0    0  0.20528445354E+02  0.45142966989E+01  0.32285507764E+03  0.33577775540E+03  0.89830417551E+02 0.  0.
         23    2    1    2    0    0 -0.65477310130E+02 -0.88257358895E+01  0.20911910187E+03  0.23794286250E+03  0.92308370651E+02 0.  0.
        -11    1    3    3    0    0  0.39846048316E+02 -0.24586103986E+02  0.25703026767E+03  0.26125991383E+03  0.00000000000E+00 0. -1.
         11    1    3    3    0    0 -0.19317602962E+02  0.29100400685E+02  0.65824809976E+02  0.74517841572E+02  0.00000000000E+00 0.  1.
        -11    1    4    4    0    0 -0.50440620588E+02 -0.46082115737E+02  0.95445805142E+02  0.11737853004E+03  0.00000000000E+00 0.  1.
         11    1    4    4    0    0 -0.15036689542E+02  0.37256379848E+02  0.11367329672E+03  0.12056433245E+03  0.00000000000E+00 0. -1.
          2    1    1    2  501    0  0.44948864776E+02  0.43114391906E+01 -0.84310377909E+01  0.45935512959E+02  0.00000000000E+00 0. -1.
<scales pt_clust_5="13000.00000" pt_clust_6="13000.00000" pt_clust_7="13000.00000" pt_clust_8="13000.00000" pt_clust_9="45.15517"></scales>
<clustering>
<clus scale="   45.155">  2  9  1 -1</clus>
<clus scale="   89.830">  5  6 -1 -1</clus>
<clus scale="   92.308">  7  8 -1 -1</clus>
<clus scale="   96.385">  1  5  2 -1</clus>
<clus scale="   45.155">  2  5  1 -1</clus>
</clustering>
</event>
<event>
 9    1  0.1504846E-005  0.1219560E+03  0.7546771E-02  0.1239996E+00
         -3   -1    0    0    0  501 -0.00000000000E+00  0.00000000000E+00  0.64963222004E+03  0.64963222004E+03  0.00000000000E+00 0.  1.
         21   -1    0    0  501  502  0.00000000000E+00 -0.00000000000E+00 -0.28914252281E+02  0.28914252281E+02  0.00000000000E+00 0. -1.
         23    2    1    2    0    0 -0.38075812062E+02  0.76678488291E+02  0.33012795159E+03  0.35413335871E+03  0.95376167382E+02 0.  0.
         23    2    1    2    0    0  0.12621373368E+02 -0.64973737486E+02  0.22454917406E+03  0.25267524029E+03  0.95087117201E+02 0.  0.
        -11    1    3    3    0    0  0.17329671405E+02  0.68941706935E+02  0.16105288690E+03  0.17604348567E+03  0.00000000000E+00 0.  1.
         11    1    3    3    0    0 -0.55405483468E+02  0.77367813560E+01  0.16907506468E+03  0.17808987305E+03  0.00000000000E+00 0. -1.
        -13    1    4    4    0    0  0.21325560566E+01 -0.83087959858E+02  0.21327962596E+03  0.22890250265E+03  0.00000000000E+00 0. -1.
         13    1    4    4    0    0  0.10488817311E+02  0.18114222372E+02  0.11269548097E+02  0.23772737643E+02  0.00000000000E+00 0.  1.
         -3    1    1    2    0  502  0.25454438694E+02 -0.11704750805E+02  0.66040842112E+02  0.71737873313E+02  0.00000000000E+00 0.  1.
<scales pt_clust_5="13000.00000" pt_clust_6="13000.00000" pt_clust_7="13000.00000" pt_clust_8="13000.00000" pt_clust_9="28.01661"></scales>
<clustering>
<clus scale="   28.017">  2  9  1 -1</clus>
<clus scale="   95.087">  7  8 -1 -1</clus>
<clus scale="   95.376">  5  6 -1 -1</clus>
<clus scale="  121.730">  2  7  1 -1</clus>
<clus scale="   28.017">  2  5  1 -1</clus>
</clustering>
</event>
<event>
 9    1  0.1504846E-005  0.1196400E+03  0.7546771E-02  0.1245463E+00
         -4   -1    0    0    0  501 -0.00000000000E+00  0.00000000000E+00  0.82694058545E+02  0.82694058545E+02  0.00000000000E+00 0.  1.
         21   -1    0    0  501  502  0.00000000000E+00 -0.00000000000E+00 -0.69829779085E+03  0.69829779085E+03  0.00000000000E+00 0.  1.
         23    2    1    2    0    0 -0.75666159972E+02 -0.32573885222E+02  0.16229045862E+02  0.12434766844E+03  0.91719872178E+02 0.  0.
         23    2    1    2    0    0  0.84941488318E+01 -0.94094833133E+00 -0.26740489010E+03  0.28456487657E+03  0.96947190699E+02 0.  0.
        -11    1    4    4    0    0 -0.20599433556E+02 -0.31853575483E+02 -0.48453928865E+02  0.61536738266E+02  0.00000000000E+00 0.  1.
         11    1    4    4    0    0  0.29093582388E+02  0.30912627152E+02 -0.21895096123E+03  0.22302813831E+03  0.00000000000E+00 0. -1.
        -11    1    3    3    0    0 -0.82719713590E+02  0.52499909294E+01  0.21193481994E+02  0.85552773772E+02  0.00000000000E+00 0.  1.
         11    1    3    3    0    0  0.70535536175E+01 -0.37823876152E+02 -0.49644361326E+01  0.38794894663E+02  0.00000000000E+00 0. -1.
         -4    1    1    2    0  502  0.67172011140E+02  0.33514833554E+02 -0.36442788807E+03  0.37207930439E+03  0.00000000000E+00 0.  1.
<scales pt_clust_5="13000.00000" pt_clust_6="13000.00000" pt_clust_7="13000.00000" pt_clust_8="13000.00000" pt_clust_9="75.06879"></scales>
<clustering>
<clus scale="   75.069">  2  9  1 -1</clus>
<clus scale="   91.720">  7  8 -1 -1</clus>
<clus scale="   96.947">  5  6 -1 -1</clus>
<clus scale="  115.445">  1  7  2 -1</clus>
<clus scale="   75.069">  2  5  1 -1</clus>
</clustering>
</event>
<event>
 9    1  0.1504846E-005  0.1536415E+03  0.7546771E-02  0.1215325E+00
          1   -1    0    0  502    0 -0.00000000000E+00  0.00000000000E+00  0.27322526648E+03  0.27322526648E+03  0.00000000000E+00 0. -1.
         21   -1    0    0  501  502  0.00000000000E+00 -0.00000000000E+00 -0.18428737013E+03  0.18428737013E+03  0.00000000000E+00 0. -1.
         23    2    1    2    0    0 -0.19758085814E+02  0.42074613785E+02  0.69303336449E+02  0.12293189752E+03  0.90269839400E+02 0.  0.
         23    2    1    2    0    0  0.49885499348E+02  0.84029238174E+02  0.11241256375E+03  0.17515175640E+03  0.92152468041E+02 0.  0.
        -13    1    4    4    0    0  0.17831698955E+02 -0.12288620233E+02  0.53657090108E+02  0.57862448909E+02  0.00000000000E+00 0.  1.
         13    1    4    4    0    0  0.32053800392E+02  0.96317858407E+02  0.58755473646E+02  0.11728930749E+03  0.00000000000E+00 0. -1.
        -13    1    3    3    0    0 -0.43475068598E+02  0.50650599370E+02  0.71255424731E+02  0.97636572860E+02  0.00000000000E+00 0. -1.
         13    1    3    3    0    0  0.23716982784E+02 -0.85759855849E+01 -0.19520882819E+01  0.25295324663E+02  0.00000000000E+00 0.  1.
          1    1    1    2  501    0 -0.30127413534E+02 -0.12610385196E+03 -0.92778003853E+02  0.15942898270E+03  0.00000000000E+00 0. -1.
<scales pt_clust_5="13000.00000" pt_clust_6="13000.00000" pt_clust_7="13000.00000" pt_clust_8="13000.00000" pt_clust_9="122.93752"></scales>
<clustering>
<clus scale="   90.270">  7  8 -1 -1</clus>
<clus scale="   92.152">  5  6 -1 -1</clus>
<clus scale="  101.535">  1  7  2 -1</clus>
<clus scale="  122.938">  2  9  1 -1</clus>
<clus scale="  122.938">  2  5  1 -1</clus>
</clustering>
</event>
<event>
 9    1  0.1504846E-005  0.9992696E+02  0.7546771E-02  0.1281139E+00
         -1   -1    0    0    0  501 -0.00000000000E+00  0.00000000000E+00  0.23471489864E+03  0.23471489864E+03  0.00000000000E+00 0.  1.
         21   -1    0    0  501  502  0.00000000000E+00 -0.00000000000E+00 -0.70702112513E+03  0.70702112513E+03  0.00000000000E+00 0.  1.
         23    2    1    2    0    0  0.92542223843E+01 -0.43583775925E+02  0.19611637617E+03  0.22049693752E+03  0.90399559169E+02 0.  0.
         23    2    1    2    0    0 -0.46548915169E+02 -0.22504814675E+02 -0.92122647901E+02  0.13996442331E+03  0.91816062587E+02 0.  0.
        -13    1    3    3    0    0 -0.20721926242E+02 -0.49127153166E+02  0.56881530047E+02  0.77963990829E+02  0.00000000000E+00 0.  1.
         13    1    3    3    0    0  0.29976148627E+02  0.55433772413E+01  0.13923484612E+03  0.14253294669E+03  0.00000000000E+00 0. -1.
        -13    1    4    4    0    0 -0.58398002077E+02  0.10698425816E+02 -0.25551869001E+02  0.64634982564E+02  0.00000000000E+00 0.  1.
         13    1    4    4    0    0  0.11849086908E+02 -0.33203240491E+02 -0.66570778901E+02  0.75329440746E+02  0.00000000000E+00 0. -1.
         -1    1    1    2    0  502  0.37294692784E+02  0.66088590600E+02 -0.57629995476E+03  0.58127466294E+03  0.00000000000E+00 0.  1.
<scales pt_clust_5="13000.00000" pt_clust_6="13000.00000" pt_clust_7="13000.00000" pt_clust_8="13000.00000" pt_clust_9="75.88541"></scales>
<clustering>
<clus scale="   75.885">  2  9  1 -1</clus>
<clus scale="   90.400">  5  6 -1 -1</clus>
<clus scale="   91.816">  7  8 -1 -1</clus>
<clus scale="   98.627">  1  5  2 -1</clus>
<clus scale="   75.885">  2  5  1 -1</clus>
</clustering>
</event>
<event>
 9    1  0.1504846E-005  0.8954409E+02  0.7546771E-02  0.1304103E+00
          1   -1    0    0  502    0 -0.00000000000E+00  0.00000000000E+00  0.49989891066E+03  0.49989891066E+03  0.00000000000E+00 0. -1.
         21   -1    0    0  501  502  0.00000000000E+00 -0.00000000000E+00 -0.40928844716E+02  0.40928844716E+02  0.00000000000E+00 0.  1.
         23    2    1    2    0    0  0.51711389530E+01  0.13959099679E+01  0.35757725595E+03  0.36863559694E+03  0.89454011186E+02 0.  0.
         23    2    1    2    0    0  0.12719022219E+02 -0.11322893190E+02  0.11579772764E+03  0.14717007789E+03  0.89218477143E+02 0.  0.
        -11    1    3    3    0    0 -0.30246491763E+02 -0.23733968554E+02  0.94890918692E+02  0.10238377790E+03  0.00000000000E+00 0.  1.
         11    1    3    3    0    0  0.35417630716E+02  0.25129878522E+02  0.26268633726E+03  0.26625181904E+03  0.00000000000E+00 0. -1.
        -11    1    4    4    0    0 -0.17646579811E+01  0.35266705999E+02  0.77431721710E+02  0.85103032242E+02  0.00000000000E+00 0. -1.
         11    1    4    4    0    0  0.14483680200E+02 -0.46589599188E+02  0.38366005929E+02  0.62067045649E+02  0.00000000000E+00 0.  1.
          1    1    1    2  501    0 -0.17890161172E+02  0.99269832220E+01 -0.14404917640E+02  0.25022080547E+02  0.00000000000E+00 0. -1.
<scales pt_clust_5="13000.00000" pt_clust_6="13000.00000" pt_clust_7="13000.00000" pt_clust_8="13000.00000" pt_clust_9="20.45979"></scales>
<clustering>
<clus scale="   20.460">  2  9  1 -1</clus>
<clus scale="   89.218">  7  8 -1 -1</clus>
<clus scale="   89.309">  2  7  1 -1</clus>
<clus scale="   89.454">  5  6 -1 -1</clus>
<clus scale="   20.460">  2  5  1 -1</clus>
</clustering>
</event>
<event>
 9    1  0.1504846E-005  0.1150661E+03  0.7546771E-02  0.1251710E+00
         21   -1    0    0  501  502  0.00000000000E+00  0.00000000000E+00  0.18154071358E+03  0.18154071358E+03  0.00000000000E+00 0.  1.
         -1   -1    0    0    0  501 -0.00000000000E+00 -0.00000000000E+00 -0.31554544500E+03  0.31554544500E+03  0.00000000000E+00 0.  1.
         23    2    1    2    0    0  0.91263231624E+02 -0.10984324503E+02 -0.17606048510E+03  0.21847544519E+03  0.91019739115E+02 0.  0.
         23    2    1    2    0    0 -0.46591835389E+02 -0.21358689778E+02 -0.88783882356E+02  0.13662263442E+03  0.90311536999E+02 0.  0.
        -13    1    4    4    0    0 -0.51147106259E+02 -0.49249738156E+02 -0.80139295379E+02  0.10706946274E+03  0.00000000000E+00 0. -1.
         13    1    4    4    0    0  0.45552708703E+01  0.27891048379E+02 -0.86445869774E+01  0.29553171680E+02  0.00000000000E+00 0.  1.
        -13    1    3    3    0    0  0.97776071408E+02  0.10064607347E+02 -0.16869757691E+03  0.19524428011E+03  0.00000000000E+00 0.  1.
         13    1    3    3    0    0 -0.65128397836E+01 -0.21048931850E+02 -0.73629081867E+01  0.23231165081E+02  0.00000000000E+00 0. -1.
         -1    1    1    2    0  502 -0.44671396236E+02  0.32343014281E+02  0.13083963603E+03  0.14198807898E+03  0.00000000000E+00 0.  1.
<scales pt_clust_5="13000.00000" pt_clust_6="13000.00000" pt_clust_7="13000.00000" pt_clust_8="13000.00000" pt_clust_9="55.15074"></scales>
<clustering>
<clus scale="   55.151">  1  9  2 -1</clus>
<clus scale="   90.312">  5  6 -1 -1</clus>
<clus scale="   91.020">  7  8 -1 -1</clus>
<clus scale="  114.507">  1  5  2 -1</clus>
<clus scale="   55.151">  1  5  2 -1</clus>
</clustering>
</event>
<event>
 9    1  0.1504846E-005  0.1049037E+03  0.7546771E-02  0.1272747E+00
         21   -1    0    0  501  502  0.00000000000E+00  0.00000000000E+00  0.10341309341E+03  0.10341309341E+03  0.00000000000E+00 0. -1.
         -1   -1    0    0    0  501 -0.00000000000E+00 -0.00000000000E+00 -0.35936106754E+03  0.35936106754E+03  0.00000000000E+00 0.  1.
         23    2    1    2    0    0  0.34246013859E+02  0.24146388366E+02 -0.29552391862E+03  0.31320050085E+03  0.94891146691E+02 0.  0.
         23    2    1    2    0    0 -0.48817354713E+02 -0.50589950127E+02  0.34553435518E+02  0.11896628306E+03  0.89535241240E+02 0.  0.
        -11    1    4    4    0    0  0.25646101430E+02 -0.22449002818E+02  0.75719017631E+01  0.34914380167E+02  0.00000000000E+00 0.  1.
         11    1    4    4    0    0 -0.74463456143E+02 -0.28140947308E+02  0.26981533755E+02  0.84051902893E+02  0.00000000000E+00 0. -1.
        -13    1    3    3    0    0  0.67261470464E+02  0.12448655641E+02 -0.18388271712E+03  0.19619359850E+03  0.00000000000E+00 0.  1.
         13    1    3    3    0    0 -0.33015456605E+02  0.11697732725E+02 -0.11164120150E+03  0.11700690236E+03  0.00000000000E+00 0. -1.
         -1    1    1    2    0  502  0.14571340854E+02  0.26443561761E+02  0.50225089788E+01  0.30607377041E+02  0.00000000000E+00 0.  1.
<scales pt_clust_5="13000.00000" pt_clust_6="13000.00000" pt_clust_7="13000.00000" pt_clust_8="13000.00000" pt_clust_9="30.19248"></scales>
<clustering>
<clus scale="   30.192">  1  9  2 -1</clus>
<clus scale="   89.535">  5  6 -1 -1</clus>
<clus scale="   94.891">  7  8 -1 -1</clus>
<clus scale="  100.085">  1  5  2 -1</clus>
<clus scale="   30.192">  1  5  2 -1</clus>
</clustering>
</event>
<event>
 9    1  0.1504846E-005  0.2730409E+03  0.7546771E-02  0.1099580E+00
         21   -1    0    0  501  502  0.00000000000E+00  0.00000000000E+00  0.10027663800E+04  0.10027663800E+04  0.00000000000E+00 0. -1.
          2   -1    0    0  502    0 -0.00000000000E+00 -0.00000000000E+00 -0.11564893493E+03  0.11564893493E+03  0.00000000000E+00 0. -1.
         23    2    1    2    0    0 -0.89943884615E+02 -0.23747319805E+03  0.14050105080E+03  0.30418246182E+03  0.91120813374E+02 0.  0.
         23    2    1    2    0    0  0.12385151301E+03  0.23730378656E+03  0.59478189750E+03  0.65865820746E+03  0.91721558388E+02 0.  0.
        -11    1    3    3    0    0 -0.21576904755E+02 -0.22322506410E+02  0.54269087660E+02  0.62521924048E+02  0.00000000000E+00 0.  1.
         11    1    3    3    0    0 -0.68366979860E+02 -0.21515069164E+03  0.86231963142E+02  0.24166053777E+03  0.00000000000E+00 0. -1.
        -13    1    4    4    0    0  0.13113525279E+02  0.11592109589E+03  0.28610662547E+03  0.30897680520E+03  0.00000000000E+00 0.  1.
         13    1    4    4    0    0  0.11073798773E+03  0.12138269067E+03  0.30867527203E+03  0.34968140226E+03  0.00000000000E+00 0. -1.
          2    1    1    2  501    0 -0.33907628395E+02  0.16941149053E+00  0.15183449678E+03  0.15557464567E+03  0.00000000000E+00 0. -1.
<scales pt_clust_5="13000.00000" pt_clust_6="13000.00000" pt_clust_7="13000.00000" pt_clust_8="13000.00000" pt_clust_9="33.90805"></scales>
<clustering>
<clus scale="   33.908">  1  9  2 -1</clus>
<clus scale="   91.121">  5  6 -1 -1</clus>
<clus scale="   91.722">  7  8 -1 -1</clus>
<clus scale="  272.840">  2  5  1 -1</clus>
<clus scale="   33.908">  1  5  2 -1</clus>
</clustering>
</event>
<event>
 9    1  0.1504846E-005  0.1244373E+03  0.7546771E-02  0.1254675E+00
          2   -1    0    0  502    0 -0.00000000000E+00  0.00000000000E+00  0.34130292458E+03  0.34130292458E+03  0.00000000000E+00 0. -1.
         21   -1    0    0  501  502  0.00000000000E+00 -0.00000000000E+00 -0.77763109345E+02  0.77763109345E+02  0.00000000000E+00 0. -1.
         23    2    1    2    0    0 -0.13831144133E+02 -0.41123521981E+01  0.17348130726E+03  0.19334269802E+03  0.84127420739E+02 0.  0.
         23    2    1    2    0    0 -0.54425268098E+02 -0.48207661834E+02  0.67402048545E+02  0.13678719684E+03  0.94242307929E+02 0.  0.
        -11    1    3    3    0    0 -0.40910485565E+02  0.22607620906E+02  0.10663295215E+03  0.11642748316E+03  0.00000000000E+00 0. -1.
         11    1    3    3    0    0  0.27079341431E+02 -0.26719973104E+02  0.66848355112E+02  0.76915214855E+02  0.00000000000E+00 0.  1.
        -11    1    4    4    0    0  0.20624849796E+02 -0.27676000360E+02  0.10539971485E+01  0.34531961066E+02  0.00000000000E+00 0.  1.
         11    1    4    4    0    0 -0.75050117894E+02 -0.20531661474E+02  0.66348051397E+02  0.10225523577E+03  0.00000000000E+00 0. -1.
          2    1    1    2  501    0  0.68256412232E+02  0.52320014032E+02  0.22656459436E+02  0.88936139073E+02  0.00000000000E+00 0. -1.
<scales pt_clust_5="13000.00000" pt_clust_6="13000.00000" pt_clust_7="13000.00000" pt_clust_8="13000.00000" pt_clust_9="81.25897"></scales>
<clustering>
<clus scale="   84.127">  5  6 -1 -1</clus>
<clus scale="   85.356">  1  5  2 -1</clus>
<clus scale="   81.259">  2  9  1 -1</clus>
<clus scale="   94.242">  7  8 -1 -1</clus>
<clus scale="   81.259">  2  5  1 -1</clus>
</clustering>
</event>
<event>
 9    1  0.1504846E-005  0.1760849E+03  0.7546771E-02  0.1173466E+00
          1   -1    0    0  502    0 -0.00000000000E+00  0.00000000000E+00  0.22709814197E+03  0.22709814197E+03  0.00000000000E+00 0. -1.
         21   -1    0    0  501  502  0.00000000000E+00 -0.00000000000E+00 -0.29079727805E+03  0.29079727805E+03  0.00000000000E+00 0. -1.
         23    2    1    2    0    0  0.36730051752E+02  0.16041159903E+03  0.13549595820E+03  0.22655082886E+03  0.76714702404E+02 0.  0.
         23    2    1    2    0    0 -0.21682150100E+02 -0.10847599188E+03 -0.89668535136E+02  0.16919790152E+03  0.91380124966E+02 0.  0.
        -11    1    3    3    0    0  0.14860366610E+02  0.77164561794E+02  0.17515835971E+02  0.80510897414E+02  0.00000000000E+00 0. -1.
         11    1    3    3    0    0  0.21869685142E+02  0.83247037237E+02  0.11798012222E+03  0.14603993145E+03  0.00000000000E+00 0.  1.
        -13    1    4    4    0    0 -0.46307577949E+02 -0.75866205118E+02 -0.24362118963E+02  0.92160651554E+02  0.00000000000E+00 0. -1.
         13    1    4    4    0    0  0.24625427850E+02 -0.32609786766E+02 -0.65306416173E+02  0.77037249971E+02  0.00000000000E+00 0.  1.
          1    1    1    2  501    0 -0.15047901653E+02 -0.51935607148E+02 -0.10952655914E+03  0.12214668964E+03  0.00000000000E+00 0. -1.
<scales pt_clust_5="13000.00000" pt_clust_6="13000.00000" pt_clust_7="13000.00000" pt_clust_8="13000.00000" pt_clust_9="54.07168"></scales>
<clustering>
<clus scale="   54.072">  2  9  1 -1</clus>
<clus scale="   76.715">  5  6 -1 -1</clus>
<clus scale="   91.380">  7  8 -1 -1</clus>
<clus scale="  168.940">  1  5  2 -1</clus>
<clus scale="   54.072">  2  5  1 -1</clus>
</clustering>
</event>
<event>
 9    1  0.1504846E-005  0.9379461E+02  0.7546771E-02  0.1296924E+00
         21   -1    0    0  501  502  0.00000000000E+00  0.00000000000E+00  0.57524069503E+02  0.57524069503E+02  0.00000000000E+00 0.  1.
         -2   -1    0    0    0  501 -0.00000000000E+00 -0.00000000000E+00 -0.19228938944E+03  0.19228938944E+03  0.00000000000E+00 0.  1.
         23    2    1    2    0    0 -0.17962787721E+02 -0.15192413057E+01 -0.58339109839E+02  0.10539087434E+03  0.85900028056E+02 0.  0.
         23    2    1    2    0    0  0.20899310253E+02 -0.23690621445E+02 -0.66486346022E+02  0.11716526921E+03  0.91155029421E+02 0.  0.
        -13    1    4    4    0    0 -0.95608367619E+01  0.31641881026E+02 -0.26954904356E+02  0.42651906209E+02  0.00000000000E+00 0. -1.
         13    1    4    4    0    0  0.30460147015E+02 -0.55332502470E+02 -0.39531441666E+02  0.74513363003E+02  0.00000000000E+00 0.  1.
        -13    1    3    3    0    0  0.24876763791E+02 -0.20272119632E+02 -0.47603768532E+02  0.57410199351E+02  0.00000000000E+00 0.  1.
         13    1    3    3    0    0 -0.42839551511E+02  0.18752878327E+02 -0.10735341307E+02  0.47980674987E+02  0.00000000000E+00 0. -1.
         -2    1    1    2    0  502 -0.29365225324E+01  0.25209862750E+02 -0.99398640721E+01  0.27257315390E+02  0.00000000000E+00 0.  1.
<scales pt_clust_5="13000.00000" pt_clust_6="13000.00000" pt_clust_7="13000.00000" pt_clust_8="13000.00000" pt_clust_9="25.38031"></scales>
<clustering>
<clus scale="   25.380">  1  9  2 -1</clus>
<clus scale="   85.900">  7  8 -1 -1</clus>
<clus scale="   88.696">  2  7  1 -1</clus>
<clus scale="   91.155">  5  6 -1 -1</clus>
<clus scale="   25.380">  1  5  2 -1</clus>
</clustering>
</event>
<event>
 9    1  0.1504846E-005  0.1314687E+03  0.7546771E-02  0.1225830E+00
          4   -1    0    0  502    0 -0.00000000000E+00  0.00000000000E+00  0.85150454786E+03  0.85150454786E+03  0.00000000000E+00 0. -1.
         21   -1    0    0  501  502  0.00000000000E+00 -0.00000000000E+00 -0.44765659846E+02  0.44765659846E+02  0.00000000000E+00 0.  1.
         23    2    1    2    0    0 -0.19941153403E+02  0.97081272846E+02  0.62560591899E+03  0.64018904387E+03  0.92934508546E+02 0.  0.
         23    2    1    2    0    0  0.16772236148E+02 -0.76984758297E+02  0.19664129446E+03  0.23049952802E+03  0.90853028643E+02 0.  0.
        -11    1    3    3    0    0 -0.39435664854E+02  0.10435888357E+03  0.57005089168E+03  0.58086484430E+03  0.00000000000E+00 0. -1.
         11    1    3    3    0    0  0.19494511451E+02 -0.72776107290E+01  0.55555027315E+02  0.59324199570E+02  0.00000000000E+00 0.  1.
        -11    1    4    4    0    0  0.28815798851E+02 -0.11733821295E+02  0.13951751905E+03  0.14294464295E+03  0.00000000000E+00 0. -1.
         11    1    4    4    0    0 -0.12043562703E+02 -0.65250937002E+02  0.57123775406E+02  0.87554885065E+02  0.00000000000E+00 0.  1.
          4    1    1    2  501    0  0.31689172544E+01 -0.20096514549E+02 -0.15508325434E+02  0.25581635822E+02  0.00000000000E+00 0. -1.
<scales pt_clust_5="13000.00000" pt_clust_6="13000.00000" pt_clust_7="13000.00000" pt_clust_8="13000.00000" pt_clust_9="20.34483"></scales>
<clustering>
<clus scale="   20.345">  2  9  1 -1</clus>
<clus scale="   90.853">  7  8 -1 -1</clus>
<clus scale="   92.935">  5  6 -1 -1</clus>
<clus scale="  130.006">  2  7  1 -1</clus>
<clus scale="   20.345">  2  5  1 -1</clus>
</clustering>
</event>
<event>
 9    1  0.1504846E-005  0.1164322E+03  0.7546771E-02  0.1250784E+00
         -1   -1    0    0    0  501 -0.00000000000E+00  0.00000000000E+00  0.76558719224E+02  0.76558719224E+02  0.00000000000E+00 0.  1.
         21   -1    0    0  501  502  0.00000000000E+00 -0.00000000000E+00 -0.49046947355E+03  0.49046947355E+03  0.00000000000E+00 0.  1.
         23    2    1    2    0    0  0.61042339222E+02  0.30283423500E+02  0.17166800249E+02  0.11579853949E+03  0.92039935900E+02 0.  0.
         23    2    1    2    0    0 -0.35680679911E+02 -0.24671168271E+02 -0.31769772888E+03  0.33491243166E+03  0.96709422923E+02 0.  0.
        -11    1    3    3    0    0 -0.16901041920E+02  0.15717527087E+02  0.27425754686E+02  0.35844914504E+02  0.00000000000E+00 0.  1.
         11    1    3    3    0    0  0.77943381142E+02  0.14565896413E+02 -0.10258954437E+02  0.79953624985E+02  0.00000000000E+00 0. -1.
        -13    1    4    4    0    0 -0.40366790242E+02 -0.57710002462E+02 -0.24500963406E+03  0.25493066297E+03  0.00000000000E+00 0. -1.
         13    1    4    4    0    0  0.46861103311E+01  0.33038834190E+02 -0.72688094821E+02  0.79981768694E+02  0.00000000000E+00 0.  1.
         -1    1    1    2    0  502 -0.25361659311E+02 -0.56122552287E+01 -0.11337982570E+03  0.11631722162E+03  0.00000000000E+00 0.  1.
<scales pt_clust_5="13000.00000" pt_clust_6="13000.00000" pt_clust_7="13000.00000" pt_clust_8="13000.00000" pt_clust_9="25.97520"></scales>
<clustering>
<clus scale="   25.975">  2  9  1 -1</clus>
<clus scale="   92.040">  5  6 -1 -1</clus>
<clus scale="   96.709">  7  8 -1 -1</clus>
<clus scale="  112.584">  1  5  2 -1</clus>
<clus scale="   25.975">  2  5  1 -1</clus>
</clustering>
</event>
<event>
 9    1  0.1504846E-005  0.2004888E+03  0.7546771E-02  0.1149381E+00
         -2   -1    0    0    0  501 -0.00000000000E+00  0.00000000000E+00  0.11454478040E+03  0.11454478040E+03  0.00000000000E+00 0.  1.
         21   -1    0    0  501  502  0.00000000000E+00 -0.00000000000E+00 -0.44012709289E+03  0.44012709289E+03  0.00000000000E+00 0.  1.
         23    2    1    2    0    0  0.14446629458E+02  0.17445478788E+03 -0.84440018363E+02  0.21419971538E+03  0.90045673135E+02 0.  0.
         23    2    1    2    0    0  0.15658320484E+02 -0.18594211715E+03 -0.19931847021E+03  0.28767538725E+03  0.90606964025E+02 0.  0.
        -11    1    4    4    0    0 -0.30787696016E+02 -0.10585511412E+03 -0.13801124377E+03  0.17663604054E+03  0.00000000000E+00 0.  1.
         11    1    4    4    0    0  0.46446016501E+02 -0.80087003031E+02 -0.61307226448E+02  0.11103934671E+03  0.00000000000E+00 0. -1.
        -13    1    3    3    0    0  0.48482178673E+02  0.80780161483E+02 -0.59610953824E+02  0.11148731746E+03  0.00000000000E+00 0.  1.
         13    1    3    3    0    0 -0.34035549214E+02  0.93674626397E+02 -0.24829064539E+02  0.10271239792E+03  0.00000000000E+00 0. -1.
         -2    1    1    2    0  502 -0.30104949942E+02  0.11487329268E+02 -0.41823823914E+02  0.52796770654E+02  0.00000000000E+00 0.  1.
<scales pt_clust_5="13000.00000" pt_clust_6="13000.00000" pt_clust_7="13000.00000" pt_clust_8="13000.00000" pt_clust_9="32.22215"></scales>
<clustering>
<clus scale="   32.222">  2  9  1 -1</clus>
<clus scale="   90.046">  7  8 -1 -1</clus>
<clus scale="   90.607">  5  6 -1 -1</clus>
<clus scale="  200.236">  1  7  2 -1</clus>
<clus scale="   32.222">  2  5  1 -1</clus>
</clustering>
</event>
<event>
 9    1  0.1504846E-005  0.1851711E+03  0.7546771E-02  0.1181384E+00
         21   -1    0    0  501  502  0.00000000000E+00  0.00000000000E+00  0.98410810002E+03  0.98410810002E+03  0.00000000000E+00 0. -1.
          1   -1    0    0  502    0 -0.00000000000E+00 -0.00000000000E+00 -0.87661832873E+02  0.87661832873E+02  0.00000000000E+00 0. -1.
         23    2    1    2    0    0 -0.70245042520E+02  0.42647908238E+02  0.39198818263E+02  0.12765553312E+03  0.89477246871E+02 0.  0.
         23    2    1    2    0    0 -0.71528157777E+02  0.71043949545E+02  0.10885687024E+03  0.17397549214E+03  0.90852262187E+02 0.  0.
        -11    1    4    4    0    0 -0.52623979190E+02  0.52597783272E+02  0.12319690450E+03  0.14392111474E+03  0.00000000000E+00 0. -1.
         11    1    4    4    0    0 -0.18904178587E+02  0.18446166273E+02 -0.14340034256E+02  0.30054377397E+02  0.00000000000E+00 0.  1.
        -13    1    3    3    0    0  0.20854389986E+02  0.28600302282E+01  0.72860836201E+00  0.21062198953E+02  0.00000000000E+00 0.  1.
         13    1    3    3    0    0 -0.91099432505E+02  0.39787878010E+02  0.38470209901E+02  0.10659333417E+03  0.00000000000E+00 0. -1.
          1    1    1    2  501    0  0.14177320030E+03 -0.11369185778E+03  0.74839057865E+03  0.77013890764E+03  0.00000000000E+00 0. -1.
<scales pt_clust_5="13000.00000" pt_clust_6="13000.00000" pt_clust_7="13000.00000" pt_clust_8="13000.00000" pt_clust_9="161.35123"></scales>
<clustering>
<clus scale="   89.477">  7  8 -1 -1</clus>
<clus scale="   90.852">  5  6 -1 -1</clus>
<clus scale="  121.488">  2  7  1 -1</clus>
<clus scale="  161.351">  1  9  2 -1</clus>
<clus scale="  161.351">  1  5  2 -1</clus>
</clustering>
</event>
<event>
 9    1  0.1504846E-005  0.1021484E+03  0.7546771E-02  0.1276198E+00
         -3   -1    0    0    0  501 -0.00000000000E+00  0.00000000000E+00  0.46683738022E+02  0.46683738022E+02  0.00000000000E+00 0.  1.
         21   -1    0    0  501  502  0.00000000000E+00 -0.00000000000E+00 -0.31976675841E+03  0.31976675841E+03  0.00000000000E+00 0.  1.
         23    2    1    2    0    0  0.31372542131E+02 -0.45506195482E+02 -0.74136773777E+02  0.12970561494E+03  0.90951828428E+02 0.  0.
         23    2    1    2    0    0 -0.23234814198E+02  0.26474270439E+02 -0.11518065247E+03  0.15045982167E+03  0.90171124243E+02 0.  0.
        -11    1    3    3    0    0 -0.35983583556E+00 -0.51881080818E+02 -0.34924566316E+01  0.51999743095E+02  0.00000000000E+00 0.  1.
         11    1    3    3    0    0  0.31732377967E+02  0.63748853362E+01 -0.70644317145E+02  0.77705871846E+02  0.00000000000E+00 0. -1.
        -13    1    4    4    0    0 -0.12013825227E+01  0.57811597331E+02 -0.60434121761E+02  0.83641539793E+02  0.00000000000E+00 0. -1.
         13    1    4    4    0    0 -0.22033431675E+02 -0.31337326893E+02 -0.54746530712E+02  0.66818281878E+02  0.00000000000E+00 0.  1.
         -3    1    1    2    0  502 -0.81377279335E+01  0.19031925043E+02 -0.83765594137E+02  0.86285059819E+02  0.00000000000E+00 0.  1.
<scales pt_clust_5="13000.00000" pt_clust_6="13000.00000" pt_clust_7="13000.00000" pt_clust_8="13000.00000" pt_clust_9="20.69871"></scales>
<clustering>
<clus scale="   20.699">  2  9  1 -1</clus>
<clus scale="   90.171">  7  8 -1 -1</clus>
<clus scale="   90.952">  5  6 -1 -1</clus>
<clus scale="  101.454">  2  7  1 -1</clus>
<clus scale="   20.699">  2  5  1 -1</clus>
</clustering>
</event>
<event>
 9    1  0.1504846E-005  0.1360120E+03  0.7546771E-02  0.1220796E+00
         21   -1    0    0  501  502  0.00000000000E+00  0.00000000000E+00  0.48173888469E+03  0.48173888469E+03  0.00000000000E+00 0. -1.
          1   -1    0    0  502    0 -0.00000000000E+00 -0.00000000000E+00 -0.21191522641E+03  0.21191522641E+03  0.00000000000E+00 0. -1.
         23    2    1    2    0    0 -0.22086281194E+02 -0.96436474528E+02 -0.17338997717E+03  0.22221103417E+03  0.97600522984E+02 0.  0.
         23    2    1    2    0    0  0.16756370583E+02  0.36673071809E+02  0.31297258522E+03  0.32804571498E+03  0.89646315426E+02 0.  0.
        -11    1    3    3    0    0  0.19242939634E+02 -0.93352367182E+02 -0.10155496048E+03  0.13927801400E+03  0.00000000000E+00 0. -1.
         11    1    3    3    0    0 -0.41329220828E+02 -0.30841073463E+01 -0.71835016684E+02  0.82933020169E+02  0.00000000000E+00 0.  1.
        -13    1    4    4    0    0  0.27580760317E+02  0.63436251316E+02  0.20972834657E+03  0.22084120013E+03  0.00000000000E+00 0.  1.
         13    1    4    4    0    0 -0.10824389735E+02 -0.26763179507E+02  0.10324423865E+03  0.10720451485E+03  0.00000000000E+00 0. -1.
          1    1    1    2  501    0  0.53299106117E+01  0.59763402719E+02  0.13024105023E+03  0.14339736196E+03  0.00000000000E+00 0. -1.
<scales pt_clust_5="13000.00000" pt_clust_6="13000.00000" pt_clust_7="13000.00000" pt_clust_8="13000.00000" pt_clust_9="60.00060"></scales>
<clustering>
<clus scale="   60.001">  1  9  2 -1</clus>
<clus scale="   89.646">  7  8 -1 -1</clus>
<clus scale="   97.601">  5  6 -1 -1</clus>
<clus scale="  130.422">  1  7  2 -1</clus>
<clus scale="   60.001">  1  5  2 -1</clus>
</clustering>
</event>
<event>
 9    1  0.1504846E-005  0.1118020E+03  0.7546771E-02  0.1257357E+00
          3   -1    0    0  502    0 -0.00000000000E+00  0.00000000000E+00  0.79701572371E+02  0.79701572371E+02  0.00000000000E+00 0. -1.
         21   -1    0    0  501  502  0.00000000000E+00 -0.00000000000E+00 -0.36860647230E+03  0.36860647230E+03  0.00000000000E+00 0. -1.
         23    2    1    2    0    0 -0.52574941923E+02 -0.43159841216E+02  0.18946088766E+02  0.11554655504E+03  0.91461225061E+02 0.  0.
         23    2    1    2    0    0  0.29892719731E+02  0.33550203649E+02 -0.24761323947E+03  0.26768142533E+03  0.91224110018E+02 0.  0.
        -13    1    3    3    0    0 -0.73529335455E+02 -0.19562346631E+02  0.30454050119E+02  0.81955461970E+02  0.00000000000E+00 0. -1.
         13    1    3    3    0    0  0.20954393532E+02 -0.23597494585E+02 -0.11507961354E+02  0.33591093068E+02  0.00000000000E+00 0.  1.
        -13    1    4    4    0    0  0.21025648695E+02 -0.30376208796E+02 -0.98539851508E+02  0.10523732370E+03  0.00000000000E+00 0.  1.
         13    1    4    4    0    0  0.88670710363E+01  0.63926412445E+02 -0.14907338796E+03  0.16244410163E+03  0.00000000000E+00 0. -1.
          3    1    1    2  501    0  0.22682222192E+02  0.96096375671E+01 -0.60237749222E+02  0.65080064299E+02  0.00000000000E+00 0. -1.
<scales pt_clust_5="13000.00000" pt_clust_6="13000.00000" pt_clust_7="13000.00000" pt_clust_8="13000.00000" pt_clust_9="24.63389"></scales>
<clustering>
<clus scale="   24.634">  2  9  1 -1</clus>
<clus scale="   91.224">  7  8 -1 -1</clus>
<clus scale="   91.461">  5  6 -1 -1</clus>
<clus scale="  111.608">  2  7  1 -1</clus>
<clus scale="   24.634">  2  5  1 -1</clus>
</clustering>
</event>
<event>
 9    1  0.1504846E-005  0.1140818E+03  0.7546771E-02  0.1256631E+00
          1   -1    0    0  502    0 -0.00000000000E+00  0.00000000000E+00  0.27249075468E+03  0.27249075468E+03  0.00000000000E+00 0. -1.
         21   -1    0    0  501  502  0.00000000000E+00 -0.00000000000E+00 -0.15112219463E+03  0.15112219463E+03  0.00000000000E+00 0. -1.
         23    2    1    2    0    0 -0.47206004907E+02 -0.12871061901E+01  0.88171099115E+02  0.13222495977E+03  0.86482563134E+02 0.  0.
         23    2    1    2    0    0  0.77531582516E+02 -0.21482923206E+02  0.13428642412E+03  0.18341996939E+03  0.95589639569E+02 0.  0.
        -11    1    4    4    0    0 -0.15134322114E+02  0.13743714668E+02  0.60259951841E+01  0.21313141878E+02  0.00000000000E+00 0.  1.
         11    1    4    4    0    0  0.92665904630E+02 -0.35226637874E+02  0.12826042893E+03  0.16210682752E+03  0.00000000000E+00 0. -1.
        -13    1    3    3    0    0 -0.20094903211E+02 -0.22754286936E+02 -0.68382809226E+01  0.31117917588E+02  0.00000000000E+00 0. -1.
         13    1    3    3    0    0 -0.27111101696E+02  0.21467180746E+02  0.95009380038E+02  0.10110704219E+03  0.00000000000E+00 0.  1.
          1    1    1    2  501    0 -0.30325577609E+02  0.22770029396E+02 -0.10108896319E+03  0.10796802015E+03  0.00000000000E+00 0. -1.
<scales pt_clust_5="13000.00000" pt_clust_6="13000.00000" pt_clust_7="13000.00000" pt_clust_8="13000.00000" pt_clust_9="37.92249"></scales>
<clustering>
<clus scale="   37.922">  2  9  1 -1</clus>
<clus scale="   86.483">  7  8 -1 -1</clus>
<clus scale="   95.590">  5  6 -1 -1</clus>
<clus scale="  106.567">  1  7  2 -1</clus>
<clus scale="   37.922">  2  5  1 -1</clus>
</clustering>
</event>
<event>
 9    1  0.1504846E-005  0.1084632E+03  0.7546771E-02  0.1264099E+00
         21   -1    0    0  501  502  0.00000000000E+00  0.00000000000E+00  0.13540522965E+03  0.13540522965E+03  0.00000000000E+00 0. -1.
          1   -1    0    0  502    0 -0.00000000000E+00 -0.00000000000E+00 -0.18328904368E+03  0.18328904368E+03  0.00000000000E+00 0. -1.
         23    2    1    2    0    0 -0.57745659828E+02 -0.52165186550E+02 -0.82720237300E+02  0.14687926183E+03  0.93140281195E+02 0.  0.
         23    2    1    2    0    0  0.33090750832E+02 -0.55097646699E+01 -0.48301055239E+01  0.97601144582E+02  0.91527581673E+02 0.  0.
        -13    1    3    3    0    0  0.23084826767E+02 -0.23941606089E+02 -0.37253412252E+02  0.49939227601E+02  0.00000000000E+00 0.  1.
         13    1    3    3    0    0 -0.80830486594E+02 -0.28223580461E+02 -0.45466825048E+02  0.96940034233E+02  0.00000000000E+00 0. -1.
        -13    1    4    4    0    0 -0.13262107410E+02  0.34049689147E+02 -0.15507232801E+01  0.36574165290E+02  0.00000000000E+00 0. -1.
         13    1    4    4    0    0  0.46352858243E+02 -0.39559453817E+02 -0.32793822438E+01  0.61026979292E+02  0.00000000000E+00 0.  1.
          1    1    1    2  501    0  0.24654908995E+02  0.57674951220E+02  0.39666528801E+02  0.74213866917E+02  0.00000000000E+00 0. -1.
<scales pt_clust_5="13000.00000" pt_clust_6="13000.00000" pt_clust_7="13000.00000" pt_clust_8="13000.00000" pt_clust_9="62.72372"></scales>
<clustering>
<clus scale="   62.724">  1  9  2 -1</clus>
<clus scale="   91.528">  7  8 -1 -1</clus>
<clus scale="   93.140">  5  6 -1 -1</clus>
<clus scale="  107.082">  1  7  2 -1</clus>
<clus scale="   62.724">  1  5  2 -1</clus>
</clustering>
</event>
<event>
 9    1  0.1504846E-005  0.1478108E+03  0.7546771E-02  0.1203396E+00
         21   -1    0    0  501  502  0.00000000000E+00  0.00000000000E+00  0.48829812059E+03  0.48829812059E+03  0.00000000000E+00 0.  1.
          3   -1    0    0  502    0 -0.00000000000E+00 -0.00000000000E+00 -0.61224141393E+02  0.61224141393E+02  0.00000000000E+00 0. -1.
         23    2    1    2    0    0 -0.40692332790E+02 -0.11922372787E+03  0.10982606416E+03  0.19101803334E+03  0.92498440297E+02 0.  0.
         23    2    1    2    0    0  0.39694879624E+02  0.84924242702E+02  0.25924461037E+03  0.29111110623E+03  0.93541956891E+02 0.  0.
        -13    1    3    3    0    0  0.49594551916E+01 -0.47154426239E+02  0.92529907301E+02  0.10397076442E+03  0.00000000000E+00 0.  1.
         13    1    3    3    0    0 -0.45651787981E+02 -0.72069301631E+02  0.17296156854E+02  0.87047268914E+02  0.00000000000E+00 0. -1.
        -13    1    4    4    0    0  0.64693294230E+02  0.35728282254E+02  0.17966083828E+03  0.19426721104E+03  0.00000000000E+00 0. -1.
         13    1    4    4    0    0 -0.24998414606E+02  0.49195960448E+02  0.79583772088E+02  0.96843895197E+02  0.00000000000E+00 0.  1.
          3    1    1    2  501    0  0.99745316548E+00  0.34299485168E+02  0.58003304666E+02  0.67393122408E+02  0.00000000000E+00 0. -1.
<scales pt_clust_5="13000.00000" pt_clust_6="13000.00000" pt_clust_7="13000.00000" pt_clust_8="13000.00000" pt_clust_9="34.31399"></scales>
<clustering>
<clus scale="   34.314">  1  9  2 -1</clus>
<clus scale="   92.498">  5  6 -1 -1</clus>
<clus scale="   93.542">  7  8 -1 -1</clus>
<clus scale="  147.153">  2  5  1 -1</clus>
<clus scale="   34.314">  1  5  2 -1</clus>
</clustering>
</event>
<event>
 9    1  0.1504846E-005  0.1423729E+03  0.7546771E-02  0.1210705E+00
          2   -1    0    0  502    0 -0.00000000000E+00  0.00000000000E+00  0.68529935816E+03  0.68529935816E+03  0.00000000000E+00 0. -1.
         21   -1    0    0  501  502  0.00000000000E+00 -0.00000000000E+00 -0.90037780667E+02  0.90037780667E+02  0.00000000000E+00 0. -1.
         23    2    1    2    0    0 -0.91841839332E+02  0.57000378271E+02  0.40990635008E+03  0.43299803867E+03  0.88204983292E+02 0.  0.
         23    2    1    2    0    0  0.62011741996E+02 -0.10496360306E+03  0.22628311613E+03  0.27258669723E+03  0.90755962604E+02 0.  0.
        -11    1    4    4    0    0  0.85122366420E+02 -0.92502197493E+02  0.18545334879E+03  0.22404334041E+03  0.00000000000E+00 0.  1.
         11    1    4    4    0    0 -0.23110624424E+02 -0.12461405566E+02  0.40829767345E+02  0.48543356820E+02  0.00000000000E+00 0. -1.
        -11    1    3    3    0    0 -0.85454169432E+02  0.37142737781E+02  0.39844933433E+03  0.40919905922E+03  0.00000000000E+00 0. -1.
         11    1    3    3    0    0 -0.63876699005E+01  0.19857640490E+02  0.11457015754E+02  0.23798979444E+02  0.00000000000E+00 0.  1.
          2    1    1    2  501    0  0.29830097336E+02  0.47963224788E+02 -0.40927888721E+02  0.69752402929E+02  0.00000000000E+00 0. -1.
<scales pt_clust_5="13000.00000" pt_clust_6="13000.00000" pt_clust_7="13000.00000" pt_clust_8="13000.00000" pt_clust_9="56.48279"></scales>
<clustering>
<clus scale="   56.483">  2  9  1 -1</clus>
<clus scale="   88.205">  7  8 -1 -1</clus>
<clus scale="   90.756">  5  6 -1 -1</clus>
<clus scale="  140.761">  1  7  2 -1</clus>
<clus scale="   56.483">  2  5  1 -1</clus>
</clustering>
</event>
<event>
 9    1  0.1504846E-005  0.9103495E+02  0.7546771E-02  0.1309583E+00
         -4   -1    0    0    0  501 -0.00000000000E+00  0.00000000000E+00  0.59295876184E+02  0.59295876184E+02  0.00000000000E+00 0.  1.
         21   -1    0    0  501  502  0.00000000000E+00 -0.00000000000E+00 -0.31867551094E+03  0.31867551094E+03  0.00000000000E+00 0.  1.
         23    2    1    2    0    0  0.70325924564E+01 -0.12453678737E+01 -0.35930203864E+02  0.83573563541E+02  0.75116926691E+02 0.  0.
         23    2    1    2    0    0  0.22778182476E+02  0.32101895753E+02 -0.39437520166E+02  0.10545023587E+03  0.89526850383E+02 0.  0.
        -13    1    3    3    0    0 -0.23056871494E+02 -0.21750999836E+02 -0.34901099018E+02  0.47146707517E+02  0.00000000000E+00 0. -1.
         13    1    3    3    0    0  0.30089463951E+02  0.20505631963E+02 -0.10291048452E+01  0.36426856024E+02  0.00000000000E+00 0.  1.
        -13    1    4    4    0    0  0.72806130660E+01 -0.23448107256E+02 -0.40964328805E+02  0.47758740509E+02  0.00000000000E+00 0. -1.
         13    1    4    4    0    0  0.15497569410E+02  0.55550003009E+02  0.15268086390E+01  0.57691495357E+02  0.00000000000E+00 0.  1.
         -4    1    1    2    0  502 -0.29810774932E+02 -0.30856527879E+02 -0.18401191072E+03  0.18894758772E+03  0.00000000000E+00 0.  1.
<scales pt_clust_5="13000.00000" pt_clust_6="13000.00000" pt_clust_7="13000.00000" pt_clust_8="13000.00000" pt_clust_9="42.90463"></scales>
<clustering>
<clus scale="   42.905">  2  9  1 -1</clus>
<clus scale="   75.117">  5  6 -1 -1</clus>
<clus scale="   76.908">  1  5  2 -1</clus>
<clus scale="   89.527">  7  8 -1 -1</clus>
<clus scale="   42.905">  2  5  1 -1</clus>
</clustering>
</event>
<event>
 9    1  0.1504846E-005  0.1074763E+03  0.7546771E-02  0.1265515E+00
          3   -1    0    0  502    0 -0.00000000000E+00  0.00000000000E+00  0.42157458870E+03  0.42157458870E+03  0.00000000000E+00 0. -1.
         21   -1    0    0  501  502  0.00000000000E+00 -0.00000000000E+00 -0.10530862718E+03  0.10530862718E+03  0.00000000000E+00 0. -1.
         23    2    1    2    0    0  0.37490614194E+02 -0.33763024471E+02  0.25959576366E+03  0.28016778957E+03  0.92512387434E+02 0.  0.
         23    2    1    2    0    0 -0.65848902132E+02  0.18273103129E+02  0.12593103957E+03  0.17028771961E+03  0.92028780897E+02 0.  0.
        -13    1    3    3    0    0 -0.17744494412E+02 -0.45242065536E+02  0.13178550143E+03  0.14046042134E+03  0.00000000000E+00 0. -1.
         13    1    3    3    0    0  0.55235108607E+02  0.11479041066E+02  0.12781026223E+03  0.13970736823E+03  0.00000000000E+00 0.  1.
        -13    1    4    4    0    0  0.22374277251E+02  0.13129643647E+01  0.12750560411E+02  0.25785828448E+02  0.00000000000E+00 0.  1.
         13    1    4    4    0    0 -0.88223179383E+02  0.16960138765E+02  0.11318047916E+03  0.14450189116E+03  0.00000000000E+00 0. -1.
          3    1    1    2  501    0  0.28358287938E+02  0.15489921341E+02 -0.69260841702E+02  0.76427706699E+02  0.00000000000E+00 0. -1.
<scales pt_clust_5="13000.00000" pt_clust_6="13000.00000" pt_clust_7="13000.00000" pt_clust_8="13000.00000" pt_clust_9="32.31300"></scales>
<clustering>
<clus scale="   32.313">  2  9  1 -1</clus>
<clus scale="   92.029">  7  8 -1 -1</clus>
<clus scale="   92.512">  5  6 -1 -1</clus>
<clus scale="  107.060">  2  7  1 -1</clus>
<clus scale="   32.313">  2  5  1 -1</clus>
</clustering>
</event>
<event>
 9    1  0.1504846E-005  0.1045508E+03  0.7546771E-02  0.1271905E+00
         21   -1    0    0  501  502  0.00000000000E+00  0.00000000000E+00  0.20540473486E+02  0.20540473486E+02  0.00000000000E+00 0.  1.
         -1   -1    0    0    0  501 -0.00000000000E+00 -0.00000000000E+00 -0.71973459897E+03  0.71973459897E+03  0.00000000000E+00 0.  1.
         23    2    1    2    0    0 -0.45409223078E+02 -0.45849964969E+02 -0.34490812586E+03  0.36236226797E+03  0.90446565103E+02 0.  0.
         23    2    1    2    0    0  0.41451473062E+02  0.13192496727E+02 -0.27293141245E+03  0.29015892780E+03  0.88365043400E+02 0.  0.
        -11    1    3    3    0    0 -0.39998989704E+02  0.13975568896E+02 -0.21638416727E+03  0.22049340931E+03  0.00000000000E+00 0. -1.
         11    1    3    3    0    0 -0.54102333740E+01 -0.59825533865E+02 -0.12852395859E+03  0.14186885866E+03  0.00000000000E+00 0.  1.
        -11    1    4    4    0    0  0.28251889442E+02  0.50599785024E+02 -0.18049782914E+03  0.18957313582E+03  0.00000000000E+00 0. -1.
         11    1    4    4    0    0  0.13199583620E+02 -0.37407288297E+02 -0.92433583309E+02  0.10058579198E+03  0.00000000000E+00 0.  1.
         -1    1    1    2    0  502  0.39577500160E+01  0.32657468242E+02 -0.81354587180E+02  0.87753876680E+02  0.00000000000E+00 0.  1.
<scales pt_clust_5="13000.00000" pt_clust_6="13000.00000" pt_clust_7="13000.00000" pt_clust_8="13000.00000" pt_clust_9="32.89641"></scales>
<clustering>
<clus scale="   32.896">  1  9  2 -1</clus>
<clus scale="   88.365">  7  8 -1 -1</clus>
<clus scale="   90.447">  5  6 -1 -1</clus>
<clus scale="  102.755">  1  7  2 -1</clus>
<clus scale="   32.896">  1  5  2 -1</clus>
</clustering>
</event>
<event>
 9    1  0.1504846E-005  0.1193231E+03  0.7546771E-02  0.1256694E+00
         21   -1    0    0  501  502  0.00000000000E+00  0.00000000000E+00  0.30270628118E+03  0.30270628118E+03  0.00000000000E+00 0.  1.
         -1   -1    0    0    0  501 -0.00000000000E+00 -0.00000000000E+00 -0.22357536140E+03  0.22357536140E+03  0.00000000000E+00 0.  1.
         23    2    1    2    0    0 -0.28765354365E+02 -0.11211842978E+02 -0.11836500803E+03  0.16971592693E+03  0.11764382557E+03 0.  0.
         23    2    1    2    0    0 -0.18012827113E+02  0.27236990426E+02 -0.46820615227E+02  0.10729562756E+03  0.90850790278E+02 0.  0.
        -13    1    4    4    0    0  0.12652648391E+02 -0.16055561111E+02 -0.50131902433E+02  0.54139432907E+02  0.00000000000E+00 0. -1.
         13    1    4    4    0    0 -0.30665475504E+02  0.43292551537E+02  0.33112872063E+01  0.53156194648E+02  0.00000000000E+00 0.  1.
        -13    1    3    3    0    0 -0.53589895823E+02 -0.11667451959E+02 -0.13088326317E+03  0.14190995366E+03  0.00000000000E+00 0.  1.
         13    1    3    3    0    0  0.24824541458E+02  0.45560898169E+00  0.12518255138E+02  0.27805973276E+02  0.00000000000E+00 0. -1.
         -1    1    1    2    0  502  0.46778181478E+02 -0.16025147449E+02  0.24431654304E+03  0.24927008809E+03  0.00000000000E+00 0.  1.
<scales pt_clust_5="13000.00000" pt_clust_6="13000.00000" pt_clust_7="13000.00000" pt_clust_8="13000.00000" pt_clust_9="49.44698"></scales>
<clustering>
<clus scale="   49.447">  1  9  2 -1</clus>
<clus scale="   90.851">  5  6 -1 -1</clus>
<clus scale="   93.015">  1  5  2 -1</clus>
<clus scale="  117.644">  7  8 -1 -1</clus>
<clus scale="   49.447">  1  5  2 -1</clus>
</clustering>
</event>
<event>
 9    1  0.1504846E-005  0.9478254E+02  0.7546771E-02  0.1292283E+00
          1   -1    0    0  502    0 -0.00000000000E+00  0.00000000000E+00  0.72427830385E+03  0.72427830385E+03  0.00000000000E+00 0. -1.
         21   -1    0    0  501  502  0.00000000000E+00 -0.00000000000E+00 -0.37217254985E+02  0.37217254985E+02  0.00000000000E+00 0. -1.
         23    2    1    2    0    0  0.16693893742E+02 -0.19315738059E+02  0.53495501533E+03  0.54352797974E+03  0.92703896916E+02 0.  0.
         23    2    1    2    0    0  0.15716904951E+02  0.13168801771E+02  0.15864981677E+03  0.18433625743E+03  0.91595048999E+02 0.  0.
        -11    1    4    4    0    0 -0.80161876066E+00 -0.34251982148E+02  0.27601262755E+02  0.43996256425E+02  0.00000000000E+00 0.  1.
         11    1    4    4    0    0  0.16518523712E+02  0.47420783919E+02  0.13104855402E+03  0.14034000101E+03  0.00000000000E+00 0. -1.
        -11    1    3    3    0    0 -0.29825352325E+02 -0.35878739676E+02  0.27339987607E+03  0.27735235322E+03  0.00000000000E+00 0.  1.
         11    1    3    3    0    0  0.46519246066E+02  0.16563001617E+02  0.26155513927E+03  0.26617562652E+03  0.00000000000E+00 0. -1.
          1    1    1    2  501    0 -0.32410798693E+02  0.61469362887E+01 -0.65437832411E+01  0.33631321662E+02  0.00000000000E+00 0. -1.
<scales pt_clust_5="13000.00000" pt_clust_6="13000.00000" pt_clust_7="13000.00000" pt_clust_8="13000.00000" pt_clust_9="32.98855"></scales>
<clustering>
<clus scale="   32.989">  2  9  1 -1</clus>
<clus scale="   91.595">  5  6 -1 -1</clus>
<clus scale="   92.704">  7  8 -1 -1</clus>
<clus scale="   93.698">  2  5  1 -1</clus>
<clus scale="   32.989">  2  5  1 -1</clus>
</clustering>
</event>
<event>
 9    1  0.1504846E-005  0.1015033E+03  0.7546771E-02  0.1277365E+00
         21   -1    0    0  501  502  0.00000000000E+00  0.00000000000E+00  0.51369995231E+03  0.51369995231E+03  0.00000000000E+00 0.  1.
          3   -1    0    0  502    0 -0.00000000000E+00 -0.00000000000E+00 -0.42467732476E+02  0.42467732476E+02  0.00000000000E+00 0. -1.
         23    2    1    2    0    0 -0.47981102889E+02  0.18806691650E+02  0.51902379589E+02  0.11692717376E+03  0.91226252092E+02 0.  0.
         23    2    1    2    0    0  0.11652649280E+02 -0.85305378760E+01  0.30901293989E+03  0.32264216463E+03  0.91653778253E+02 0.  0.
        -11    1    4    4    0    0 -0.28659609682E+02 -0.33434809258E+02  0.17654455941E+03  0.18195395339E+03  0.00000000000E+00 0. -1.
         11    1    4    4    0    0  0.40312258961E+02  0.24904271382E+02  0.13246838048E+03  0.14068821124E+03  0.00000000000E+00 0.  1.
        -13    1    3    3    0    0  0.22486166864E+02 -0.12518054698E+02  0.23180223455E+02  0.34635995050E+02  0.00000000000E+00 0.  1.
         13    1    3    3    0    0 -0.70467269753E+02  0.31324746348E+02  0.28722156134E+02  0.82291178709E+02  0.00000000000E+00 0. -1.
          3    1    1    2  501    0  0.36328453610E+02 -0.10276153774E+02  0.11031690036E+03  0.11659834640E+03  0.00000000000E+00 0. -1.
<scales pt_clust_5="13000.00000" pt_clust_6="13000.00000" pt_clust_7="13000.00000" pt_clust_8="13000.00000" pt_clust_9="37.75389"></scales>
<clustering>
<clus scale="   37.754">  1  9  2 -1</clus>
<clus scale="   91.226">  7  8 -1 -1</clus>
<clus scale="   91.654">  5  6 -1 -1</clus>
<clus scale="  101.117">  2  7  1 -1</clus>
<clus scale="   37.754">  1  5  2 -1</clus>
</clustering>
</event>
<event>
 9    1  0.1504846E-005  0.9672419E+02  0.7546771E-02  0.1288333E+00
          2   -1    0    0  502    0 -0.00000000000E+00  0.00000000000E+00  0.53433039398E+03  0.53433039398E+03  0.00000000000E+00 0. -1.
         21   -1    0    0  501  502  0.00000000000E+00 -0.00000000000E+00 -0.12226881917E+03  0.12226881917E+03  0.00000000000E+00 0.  1.
         23    2    1    2    0    0  0.20400756214E+02  0.27077264352E+02  0.34581252062E+03  0.35898971271E+03  0.90210560987E+02 0.  0.
         23    2    1    2    0    0  0.29576074688E+02  0.28554048491E+02 -0.83038964118E+02  0.13063812862E+03  0.92091113628E+02 0.  0.
        -11    1    4    4    0    0  0.50149942037E+02 -0.12170667957E+01 -0.79862236604E+02  0.94310523131E+02  0.00000000000E+00 0.  1.
         11    1    4    4    0    0 -0.20573867349E+02  0.29771115286E+02 -0.31767275138E+01  0.36327605492E+02  0.00000000000E+00 0. -1.
        -13    1    3    3    0    0  0.13051899076E+02  0.60035396127E+02  0.24860995784E+03  0.25608887519E+03  0.00000000000E+00 0.  1.
         13    1    3    3    0    0  0.73488571383E+01 -0.32958131775E+02  0.97202562776E+02  0.10290083752E+03  0.00000000000E+00 0. -1.
          2    1    1    2  501    0 -0.49976830902E+02 -0.55631312843E+02  0.14928801831E+03  0.16697137181E+03  0.00000000000E+00 0. -1.
<scales pt_clust_5="13000.00000" pt_clust_6="13000.00000" pt_clust_7="13000.00000" pt_clust_8="13000.00000" pt_clust_9="74.78323"></scales>
<clustering>
<clus scale="   74.783">  2  9  1 -1</clus>
<clus scale="   90.211">  7  8 -1 -1</clus>
<clus scale="   92.091">  5  6 -1 -1</clus>
<clus scale="   94.935">  1  7  2 -1</clus>
<clus scale="   74.783">  2  5  1 -1</clus>
</clustering>
</event>
<event>
 9    1  0.1504846E-005  0.1456264E+03  0.7546771E-02  0.1206306E+00
          2   -1    0    0  502    0 -0.00000000000E+00  0.00000000000E+00  0.12921193966E+03  0.12921193966E+03  0.00000000000E+00 0. -1.
         21   -1    0    0  501  502  0.00000000000E+00 -0.00000000000E+00 -0.25296025037E+03  0.25296025037E+03  0.00000000000E+00 0. -1.
         23    2    1    2    0    0 -0.29839061082E+02 -0.11407640360E+03  0.26738036603E+02  0.15194941971E+03  0.92032103773E+02 0.  0.
         23    2    1    2    0    0  0.54487127609E+02  0.87966278808E+02 -0.12881390415E+03  0.18828280616E+03  0.90280008374E+02 0.  0.
        -13    1    4    4    0    0  0.42768200434E+02  0.10680942016E+03 -0.10559360888E+03  0.15616459727E+03  0.00000000000E+00 0. -1.
         13    1    4    4    0    0  0.11718927175E+02 -0.18843141354E+02 -0.23220295266E+02  0.32118208893E+02  0.00000000000E+00 0.  1.
        -13    1    3    3    0    0  0.26455046319E+02 -0.77542598701E+02  0.82870925573E+01  0.82349256173E+02  0.00000000000E+00 0.  1.
         13    1    3    3    0    0 -0.56294107401E+02 -0.36533804897E+02  0.18450944046E+02  0.69600163538E+02  0.00000000000E+00 0. -1.
          2    1    1    2  501    0 -0.24648066527E+02  0.26110124791E+02 -0.21672443164E+02  0.41939964149E+02  0.00000000000E+00 0. -1.
<scales pt_clust_5="13000.00000" pt_clust_6="13000.00000" pt_clust_7="13000.00000" pt_clust_8="13000.00000" pt_clust_9="35.90635"></scales>
<clustering>
<clus scale="   35.906">  2  9  1 -1</clus>
<clus scale="   90.280">  5  6 -1 -1</clus>
<clus scale="   92.032">  7  8 -1 -1</clus>
<clus scale="  144.526">  2  5  1 -1</clus>
<clus scale="   35.906">  2  5  1 -1</clus>
</clustering>
</event>
<event>
 9    1  0.1504846E-005  0.1123208E+03  0.7546771E-02  0.1260648E+00
          2   -1    0    0  502    0 -0.00000000000E+00  0.00000000000E+00  0.49416322250E+03  0.49416322250E+03  0.00000000000E+00 0. -1.
         21   -1    0    0  501  502  0.00000000000E+00 -0.00000000000E+00 -0.16879495180E+03  0.16879495180E+03  0.00000000000E+00 0. -1.
         23    2    1    2    0    0 -0.84226523773E+01  0.35683836613E+02  0.25716781369E+03  0.27571235970E+03  0.92399911378E+02 0.  0.
         23    2    1    2    0    0  0.46855428508E+01 -0.61831969635E+02  0.21066421857E+03  0.24235408190E+03  0.10252288156E+03 0.  0.
        -11    1    4    4    0    0  0.44756351069E+02 -0.64973531651E+02  0.15175894423E+03  0.17104229866E+03  0.00000000000E+00 0.  1.
         11    1    4    4    0    0 -0.40070808218E+02  0.31415620161E+01  0.58905274340E+02  0.71311783236E+02  0.00000000000E+00 0. -1.
        -13    1    3    3    0    0 -0.29112984270E+02 -0.20905322482E+01  0.21784592495E+02  0.36421211518E+02  0.00000000000E+00 0.  1.
         13    1    3    3    0    0  0.20690331893E+02  0.37774368861E+02  0.23538322120E+03  0.23929114818E+03  0.00000000000E+00 0. -1.
          2    1    1    2  501    0  0.37371095265E+01  0.26148133022E+02 -0.14246376156E+03  0.14489173270E+03  0.00000000000E+00 0. -1.
<scales pt_clust_5="13000.00000" pt_clust_6="13000.00000" pt_clust_7="13000.00000" pt_clust_8="13000.00000" pt_clust_9="26.41384"></scales>
<clustering>
<clus scale="   26.414">  2  9  1 -1</clus>
<clus scale="   92.400">  7  8 -1 -1</clus>
<clus scale="  102.523">  5  6 -1 -1</clus>
<clus scale="  103.164">  1  7  2 -1</clus>
<clus scale="   26.414">  2  5  1 -1</clus>
</clustering>
</event>
<event>
 9    1  0.1504846E-005  0.1079000E+03  0.7546771E-02  0.1265958E+00
          1   -1    0    0  502    0 -0.00000000000E+00  0.00000000000E+00  0.21030416811E+03  0.21030416811E+03  0.00000000000E+00 0. -1.
         21   -1    0    0  501  502  0.00000000000E+00 -0.00000000000E+00 -0.12641144337E+03  0.12641144337E+03  0.00000000000E+00 0.  1.
         23    2    1    2    0    0  0.12268184486E+02 -0.49914911474E+02  0.14003516318E+03  0.17378797551E+03  0.89165053498E+02 0.  0.
         23    2    1    2    0    0 -0.24666128617E+02  0.66407686025E+02 -0.15938451279E+02  0.11773824324E+03  0.92681503164E+02 0.  0.
        -13    1    3    3    0    0 -0.36135069913E+02 -0.23581761690E+02  0.87950745933E+02  0.97965179896E+02  0.00000000000E+00 0. -1.
         13    1    3    3    0    0  0.48403254399E+02 -0.26333149785E+02  0.52084417249E+02  0.75822795610E+02  0.00000000000E+00 0.  1.
        -13    1    4    4    0    0  0.29356038406E+02  0.16606113085E+02 -0.27297841529E+02  0.43390230869E+02  0.00000000000E+00 0.  1.
         13    1    4    4    0    0 -0.54022167023E+02  0.49801572940E+02  0.11359390250E+02  0.74348012375E+02  0.00000000000E+00 0. -1.
          1    1    1    2  501    0  0.12397944131E+02 -0.16492774550E+02 -0.40203987168E+02  0.45189392729E+02  0.00000000000E+00 0. -1.
<scales pt_clust_5="13000.00000" pt_clust_6="13000.00000" pt_clust_7="13000.00000" pt_clust_8="13000.00000" pt_clust_9="20.63300"></scales>
<clustering>
<clus scale="   20.633">  2  9  1 -1</clus>
<clus scale="   89.165">  5  6 -1 -1</clus>
<clus scale="   92.682">  7  8 -1 -1</clus>
<clus scale="  104.895">  1  5  2 -1</clus>
<clus scale="   20.633">  2  5  1 -1</clus>
</clustering>
</event>
<event>
 9    1  0.1504846E-005  0.1007101E+03  0.7546771E-02  0.1279571E+00
         21   -1    0    0  501  502  0.00000000000E+00  0.00000000000E+00  0.20840890801E+03  0.20840890801E+03  0.00000000000E+00 0. -1.
         -2   -1    0    0    0  501 -0.00000000000E+00 -0.00000000000E+00 -0.82400536558E+02  0.82400536558E+02  0.00000000000E+00 0.  1.
         23    2    1    2    0    0 -0.13613851308E+02  0.20304347625E+02  0.12306938424E+02  0.95574267692E+02  0.91571701041E+02 0.  0.
         23    2    1    2    0    0  0.51571642475E+02 -0.41137894809E+02  0.70978544339E+02  0.13440692837E+03  0.93141333145E+02 0.  0.
        -11    1    3    3    0    0  0.36154772441E+01  0.52270271124E+02 -0.94518763106E+01  0.53240876071E+02  0.00000000000E+00 0.  1.
         11    1    3    3    0    0 -0.17229328552E+02 -0.31965923498E+02  0.21758814735E+02  0.42333391621E+02  0.00000000000E+00 0. -1.
        -11    1    4    4    0    0  0.33735052288E+02 -0.84925103921E+01  0.87155331091E+02  0.93841505866E+02  0.00000000000E+00 0. -1.
         11    1    4    4    0    0  0.17836590187E+02 -0.32645384417E+02 -0.16176786751E+02  0.40565422503E+02  0.00000000000E+00 0.  1.
         -2    1    1    2    0  502 -0.37957791167E+02  0.20833547183E+02  0.42722888687E+02  0.60828248505E+02  0.00000000000E+00 0.  1.
<scales pt_clust_5="13000.00000" pt_clust_6="13000.00000" pt_clust_7="13000.00000" pt_clust_8="13000.00000" pt_clust_9="43.29931"></scales>
<clustering>
<clus scale="   43.299">  1  9  2 -1</clus>
<clus scale="   91.572">  5  6 -1 -1</clus>
<clus scale="   93.141">  7  8 -1 -1</clus>
<clus scale="   99.260">  2  5  1 -1</clus>
<clus scale="   43.299">  1  5  2 -1</clus>
</clustering>
</event>
<event>
 9    1  0.1504846E-005  0.1108465E+03  0.7546771E-02  0.1261672E+00
         -1   -1    0    0    0  501 -0.00000000000E+00  0.00000000000E+00  0.11454079664E+03  0.11454079664E+03  0.00000000000E+00 0.  1.
         21   -1    0    0  501  502  0.00000000000E+00 -0.00000000000E+00 -0.21369506583E+03  0.21369506583E+03  0.00000000000E+00 0.  1.
         23    2    1    2    0    0 -0.16415199263E+02 -0.59630096894E+02  0.46079926392E+02  0.12398407335E+03  0.97074629057E+02 0.  0.
         23    2    1    2    0    0  0.65073307452E+01  0.34605889378E+02 -0.58476423768E+02  0.11341518972E+03  0.90573727919E+02 0.  0.
        -13    1    4    4    0    0 -0.36260505715E+02  0.29164333550E+02 -0.52063375641E+02  0.69828201389E+02  0.00000000000E+00 0.  1.
         13    1    4    4    0    0  0.42767836460E+02  0.54415558281E+01 -0.64130481265E+01  0.43586988329E+02  0.00000000000E+00 0. -1.
        -13    1    3    3    0    0  0.25641738237E+02 -0.55718421026E+02  0.53147416617E+02  0.81158419615E+02  0.00000000000E+00 0.  1.
         13    1    3    3    0    0 -0.42056937500E+02 -0.39116758680E+01 -0.70674902251E+01  0.42825653738E+02  0.00000000000E+00 0. -1.
         -1    1    1    2    0  502  0.99078685179E+01  0.25024207516E+02 -0.86757771818E+02  0.90836599404E+02  0.00000000000E+00 0.  1.
<scales pt_clust_5="13000.00000" pt_clust_6="13000.00000" pt_clust_7="13000.00000" pt_clust_8="13000.00000" pt_clust_9="26.91425"></scales>
<clustering>
<clus scale="   26.914">  2  9  1 -1</clus>
<clus scale="   90.574">  5  6 -1 -1</clus>
<clus scale="   97.075">  7  8 -1 -1</clus>
<clus scale="  105.200">  2  5  1 -1</clus>
<clus scale="   26.914">  2  5  1 -1</clus>
</clustering>
</event>
<event>
 9    1  0.1504846E-005  0.1332648E+03  0.7546771E-02  0.1222779E+00
         21   -1    0    0  501  502  0.00000000000E+00  0.00000000000E+00  0.64633994799E+03  0.64633994799E+03  0.00000000000E+00 0.  1.
          2   -1    0    0  502    0 -0.00000000000E+00 -0.00000000000E+00 -0.69347271582E+02  0.69347271582E+02  0.00000000000E+00 0. -1.
         23    2    1    2    0    0  0.18550161167E+01  0.87114677936E+02  0.47900927588E+02  0.13480123601E+03  0.91019042894E+02 0.  0.
         23    2    1    2    0    0 -0.34311331893E+02 -0.14360456950E+03  0.41075056243E+03  0.44579654401E+03  0.90658668837E+02 0.  0.
        -11    1    4    4    0    0 -0.53004041380E+02 -0.41043958440E+02  0.19450853471E+03  0.20573673712E+03  0.00000000000E+00 0.  1.
         11    1    4    4    0    0  0.18692709487E+02 -0.10256061106E+03  0.21624202772E+03  0.24005980688E+03  0.00000000000E+00 0. -1.
        -13    1    3    3    0    0  0.10697924686E+02  0.39436447624E+02  0.70357426643E+02  0.81362438985E+02  0.00000000000E+00 0.  1.
         13    1    3    3    0    0 -0.88429085692E+01  0.47678230312E+02 -0.22456499055E+02  0.53438797025E+02  0.00000000000E+00 0. -1.
          2    1    1    2  501    0  0.32456315776E+02  0.56489891565E+02  0.11834118639E+03  0.13508943956E+03  0.00000000000E+00 0. -1.
<scales pt_clust_5="13000.00000" pt_clust_6="13000.00000" pt_clust_7="13000.00000" pt_clust_8="13000.00000" pt_clust_9="65.14998"></scales>
<clustering>
<clus scale="   65.150">  1  9  2 -1</clus>
<clus scale="   90.659">  5  6 -1 -1</clus>
<clus scale="   91.019">  7  8 -1 -1</clus>
<clus scale="  133.019">  1  5  2 -1</clus>
<clus scale="   65.150">  1  5  2 -1</clus>
</clustering>
</event>
<event>
 9    1  0.1504846E-005  0.1150926E+03  0.7546771E-02  0.1265125E+00
         21   -1    0    0  501  502  0.00000000000E+00  0.00000000000E+00  0.72834652127E+02  0.72834652127E+02  0.00000000000E+00 0.  1.
         -3   -1    0    0    0  501 -0.00000000000E+00 -0.00000000000E+00 -0.27512849876E+03  0.27512849876E+03  0.00000000000E+00 0.  1.
         23    2    1    2    0    0  0.74299236930E+02  0.13812764225E+01 -0.18664897437E+03  0.20834774046E+03  0.55214642894E+02 0.  0.
         23    2    1    2    0    0 -0.46945891708E+02 -0.50015288449E+00 -0.30830366390E+02  0.10831715000E+03  0.92617096649E+02 0.  0.
        -11    1    4    4    0    0 -0.48944348593E+02  0.25517751434E+02 -0.51143216399E+02  0.75248478264E+02  0.00000000000E+00 0.  1.
         11    1    4    4    0    0  0.19984568845E+01 -0.26017904319E+02  0.20312850009E+02  0.33068671738E+02  0.00000000000E+00 0. -1.
        -13    1    3    3    0    0  0.31754061337E+02  0.22860738925E+02 -0.12137664716E+03  0.12752734715E+03  0.00000000000E+00 0. -1.
         13    1    3    3    0    0  0.42545175593E+02 -0.21479462503E+02 -0.65272327206E+02  0.80820393309E+02  0.00000000000E+00 0.  1.
         -3    1    1    2    0  502 -0.27353345222E+02 -0.88112353796E+00  0.15185494127E+02  0.31298260421E+02  0.00000000000E+00 0.  1.
<scales pt_clust_5="13000.00000" pt_clust_6="13000.00000" pt_clust_7="13000.00000" pt_clust_8="13000.00000" pt_clust_9="27.36753"></scales>
<clustering>
<clus scale="   27.368">  1  9  2 -1</clus>
<clus scale="   55.215">  7  8 -1 -1</clus>
<clus scale="   87.847">  2  7  1 -1</clus>
<clus scale="   92.617">  5  6 -1 -1</clus>
<clus scale="   27.368">  1  5  2 -1</clus>
</clustering>
</event>
<event>
 9    1  0.1504846E-005  0.1106793E+03  0.7546771E-02  0.1259631E+00
         -1   -1    0    0    0  501 -0.00000000000E+00  0.00000000000E+00  0.14877746804E+03  0.14877746804E+03  0.00000000000E+00 0.  1.
         21   -1    0    0  501  502  0.00000000000E+00 -0.00000000000E+00 -0.18744170949E+03  0.18744170949E+03  0.00000000000E+00 0.  1.
         23    2    1    2    0    0  0.63724776266E+02  0.41900185234E+02  0.39314651632E+02  0.12577574857E+03  0.91964256436E+02 0.  0.
         23    2    1    2    0    0 -0.21512415586E+02 -0.46564812644E+02  0.17413001151E+02  0.10602477341E+03  0.91142603465E+02 0.  0.
        -11    1    4    4    0    0 -0.16680710712E+02 -0.67157198587E+02 -0.11555539718E+02  0.70156011361E+02  0.00000000000E+00 0.  1.
         11    1    4    4    0    0 -0.48317048739E+01  0.20592385942E+02  0.28968540869E+02  0.35868762048E+02  0.00000000000E+00 0. -1.
        -11    1    3    3    0    0 -0.19840738069E+02  0.69932331452E+01  0.27230087618E+02  0.34409851331E+02  0.00000000000E+00 0. -1.
         11    1    3    3    0    0  0.83565514335E+02  0.34906952089E+02  0.12084564014E+02  0.91365897235E+02  0.00000000000E+00 0.  1.
         -1    1    1    2    0  502 -0.42212360680E+02  0.46646274103E+01 -0.95391894236E+02  0.10441865556E+03  0.00000000000E+00 0.  1.
<scales pt_clust_5="13000.00000" pt_clust_6="13000.00000" pt_clust_7="13000.00000" pt_clust_8="13000.00000" pt_clust_9="42.46931"></scales>
<clustering>
<clus scale="   42.469">  2  9  1 -1</clus>
<clus scale="   91.143">  5  6 -1 -1</clus>
<clus scale="   91.964">  7  8 -1 -1</clus>
<clus scale="  109.998">  2  5  1 -1</clus>
<clus scale="   42.469">  2  5  1 -1</clus>
</clustering>
</event>
<event>
 9    1  0.1504846E-005  0.9493139E+02  0.7546771E-02  0.1292531E+00
         -1   -1    0    0    0  501 -0.00000000000E+00  0.00000000000E+00  0.92955469476E+02  0.92955469476E+02  0.00000000000E+00 0.  1.
         21   -1    0    0  501  502  0.00000000000E+00 -0.00000000000E+00 -0.33695404004E+03  0.33695404004E+03  0.00000000000E+00 0.  1.
         23    2    1    2    0    0  0.19787047207E+02 -0.33000521186E+02 -0.81773385758E+01  0.97975250953E+02  0.89731372983E+02 0.  0.
         23    2    1    2    0    0  0.45774003327E+02  0.77669548742E+01 -0.19900959868E+02  0.10487358797E+03  0.91906671587E+02 0.  0.
        -11    1    3    3    0    0 -0.30598091748E+02 -0.29875543878E+02  0.10694197837E+02  0.44081256879E+02  0.00000000000E+00 0. -1.
         11    1    3    3    0    0  0.50385138955E+02 -0.31249773086E+01 -0.18871536413E+02  0.53893994074E+02  0.00000000000E+00 0.  1.
        -11    1    4    4    0    0  0.31376129778E+02  0.49572833441E+02 -0.13447530608E+02  0.60189396198E+02  0.00000000000E+00 0.  1.
         11    1    4    4    0    0  0.14397873549E+02 -0.41805878567E+02 -0.64534292599E+01  0.44684191776E+02  0.00000000000E+00 0. -1.
         -1    1    1    2    0  502 -0.65561050534E+02  0.25233566312E+02 -0.21592027212E+03  0.22706067059E+03  0.00000000000E+00 0.  1.
<scales pt_clust_5="13000.00000" pt_clust_6="13000.00000" pt_clust_7="13000.00000" pt_clust_8="13000.00000" pt_clust_9="70.24944"></scales>
<clustering>
<clus scale="   70.249">  2  9  1 -1</clus>
<clus scale="   89.731">  5  6 -1 -1</clus>
<clus scale="   91.907">  7  8 -1 -1</clus>
<clus scale="   92.827">  1  5  2 -1</clus>
<clus scale="   70.249">  2  5  1 -1</clus>
</clustering>
</event>
<event>
 9    1  0.1504846E-005  0.1728678E+03  0.7546771E-02  0.1200369E+00
         21   -1    0    0  501  502  0.00000000000E+00  0.00000000000E+00  0.12242069801E+04  0.12242069801E+04  0.00000000000E+00 0. -1.
          2   -1    0    0  502    0 -0.00000000000E+00 -0.00000000000E+00 -0.52789467643E+02  0.52789467643E+02  0.00000000000E+00 0. -1.
         23    2    1    2    0    0  0.12443229065E+02  0.13967809479E+02  0.94777402829E+02  0.13649232087E+03  0.96423357748E+02 0.  0.
         23    2    1    2    0    0 -0.87962093210E+02 -0.13553326686E+03  0.31501551691E+03  0.36555039954E+03  0.91025943775E+02 0.  0.
        -11    1    4    4    0    0 -0.74402861782E+02 -0.32000930908E+02  0.13374460701E+03  0.15635685250E+03  0.00000000000E+00 0. -1.
         11    1    4    4    0    0 -0.13559231427E+02 -0.10353233596E+03  0.18127090990E+03  0.20919354704E+03  0.00000000000E+00 0.  1.
        -11    1    3    3    0    0  0.20124873091E+01  0.52563543623E+02  0.75730389202E+02  0.92206659586E+02  0.00000000000E+00 0. -1.
         11    1    3    3    0    0  0.10430741756E+02 -0.38595734143E+02  0.19047013627E+02  0.44285661288E+02  0.00000000000E+00 0.  1.
          2    1    1    2  501    0  0.75518864145E+02  0.12156545738E+03  0.76162459273E+03  0.77495372734E+03  0.00000000000E+00 0. -1.
<scales pt_clust_5="13000.00000" pt_clust_6="13000.00000" pt_clust_7="13000.00000" pt_clust_8="13000.00000" pt_clust_9="146.96101"></scales>
<clustering>
<clus scale="   91.026">  5  6 -1 -1</clus>
<clus scale="   96.423">  7  8 -1 -1</clus>
<clus scale="   98.221">  2  7  1 -1</clus>
<clus scale="  146.961">  1  9  2 -1</clus>
<clus scale="  146.961">  1  5  2 -1</clus>
</clustering>
</event>
<event>
 9    1  0.1504846E-005  0.1487249E+03  0.7546771E-02  0.1202138E+00
         21   -1    0    0  501  502  0.00000000000E+00  0.00000000000E+00  0.98472898217E+02  0.98472898217E+02  0.00000000000E+00 0.  1.
          3   -1    0    0  502    0 -0.00000000000E+00 -0.00000000000E+00 -0.57578553301E+03  0.57578553301E+03  0.00000000000E+00 0. -1.
         23    2    1    2    0    0 -0.68905553210E+02  0.10215321971E+03 -0.48065278197E+03  0.50468458825E+03  0.92174732109E+02 0.  0.
         23    2    1    2    0    0  0.61403735871E+02 -0.59999063991E+02 -0.59427895913E+01  0.12576262269E+03  0.91709400061E+02 0.  0.
        -11    1    4    4    0    0  0.61626701619E+02 -0.37396625928E+02  0.34127893710E+02  0.79756323337E+02  0.00000000000E+00 0.  1.
         11    1    4    4    0    0 -0.22296574775E+00 -0.22602438063E+02 -0.40070683301E+02  0.46006299355E+02  0.00000000000E+00 0. -1.
        -11    1    3    3    0    0 -0.23049164920E+02  0.10138626870E+03 -0.27547270328E+03  0.29444125006E+03  0.00000000000E+00 0.  1.
         11    1    3    3    0    0 -0.45856388290E+02  0.76695100646E+00 -0.20518007869E+03  0.21024333819E+03  0.00000000000E+00 0. -1.
          3    1    1    2  501    0  0.75018173392E+01 -0.42154155717E+02  0.92829367710E+01  0.43811220283E+02  0.00000000000E+00 0. -1.
<scales pt_clust_5="13000.00000" pt_clust_6="13000.00000" pt_clust_7="13000.00000" pt_clust_8="13000.00000" pt_clust_9="42.81647"></scales>
<clustering>
<clus scale="   42.816">  1  9  2 -1</clus>
<clus scale="   91.709">  5  6 -1 -1</clus>
<clus scale="   92.175">  7  8 -1 -1</clus>
<clus scale="  148.437">  1  5  2 -1</clus>
<clus scale="   42.816">  1  5  2 -1</clus>
</clustering>
</event>
<event>
 9    1  0.1504846E-005  0.1009626E+03  0.7546771E-02  0.1280745E+00
         21   -1    0    0  501  502  0.00000000000E+00  0.00000000000E+00  0.12110488110E+03  0.12110488110E+03  0.00000000000E+00 0. -1.
          1   -1    0    0  502    0 -0.00000000000E+00 -0.00000000000E+00 -0.46341880685E+03  0.46341880685E+03  0.00000000000E+00 0. -1.
         23    2    1    2    0    0  0.97596810236E+01  0.28667634633E+02 -0.28176643563E+03  0.30017179206E+03  0.98963103481E+02 0.  0.
         23    2    1    2    0    0  0.16858284326E+02 -0.71179997510E+01 -0.15587013442E+03  0.18306364703E+03  0.94244004526E+02 0.  0.
        -11    1    4    4    0    0  0.46977444558E+02 -0.27762827750E+02 -0.12025122588E+03  0.13205306595E+03  0.00000000000E+00 0.  1.
         11    1    4    4    0    0 -0.30119160232E+02  0.20644827999E+02 -0.35618908535E+02  0.51010581073E+02  0.00000000000E+00 0. -1.
        -11    1    3    3    0    0  0.32548584343E+02  0.56603477841E+02 -0.20903455007E+03  0.21899499348E+03  0.00000000000E+00 0. -1.
         11    1    3    3    0    0 -0.22788903320E+02 -0.27935843208E+02 -0.72731885566E+02  0.81176798584E+02  0.00000000000E+00 0.  1.
          1    1    1    2  501    0 -0.26617965350E+02 -0.21549634882E+02  0.95322644298E+02  0.10128824887E+03  0.00000000000E+00 0. -1.
<scales pt_clust_5="13000.00000" pt_clust_6="13000.00000" pt_clust_7="13000.00000" pt_clust_8="13000.00000" pt_clust_9="34.24767"></scales>
<clustering>
<clus scale="   34.248">  1  9  2 -1</clus>
<clus scale="   94.244">  5  6 -1 -1</clus>
<clus scale="   96.341">  1  5  2 -1</clus>
<clus scale="   98.963">  7  8 -1 -1</clus>
<clus scale="   34.248">  1  5  2 -1</clus>
</clustering>
</event>
<event>
 9    1  0.1504846E-005  0.1023467E+03  0.7546771E-02  0.1275728E+00
         21   -1    0    0  501  502  0.00000000000E+00  0.00000000000E+00  0.11940993423E+03  0.11940993423E+03  0.00000000000E+00 0. -1.
          2   -1    0    0  502    0 -0.00000000000E+00 -0.00000000000E+00 -0.35400269074E+03  0.35400269074E+03  0.00000000000E+00 0. -1.
         23    2    1    2    0    0  0.17528253167E+02  0.41461054117E+02 -0.28542341720E+03  0.30352683428E+03  0.92928754311E+02 0.  0.
         23    2    1    2    0    0 -0.42117204844E+02 -0.14148089814E+02 -0.55461748471E+01  0.10258822647E+03  0.92301445088E+02 0.  0.
        -11    1    4    4    0    0 -0.12372731979E+02 -0.52000704194E+02 -0.94809747190E+01  0.54286707534E+02  0.00000000000E+00 0.  1.
         11    1    4    4    0    0 -0.29744472865E+02  0.37852614380E+02  0.39347998720E+01  0.48301518935E+02  0.00000000000E+00 0. -1.
        -13    1    3    3    0    0  0.22105558451E+02  0.63219036363E+02 -0.26501465066E+03  0.27334605784E+03  0.00000000000E+00 0. -1.
         13    1    3    3    0    0 -0.45773052837E+01 -0.21757982246E+02 -0.20408766541E+02  0.30180776445E+02  0.00000000000E+00 0.  1.
          2    1    1    2  501    0  0.24588951677E+02 -0.27312964303E+02  0.56376835543E+02  0.67297564216E+02  0.00000000000E+00 0. -1.
<scales pt_clust_5="13000.00000" pt_clust_6="13000.00000" pt_clust_7="13000.00000" pt_clust_8="13000.00000" pt_clust_9="36.75071"></scales>
<clustering>
<clus scale="   36.751">  1  9  2 -1</clus>
<clus scale="   92.301">  5  6 -1 -1</clus>
<clus scale="   92.929">  7  8 -1 -1</clus>
<clus scale="  101.777">  1  5  2 -1</clus>
<clus scale="   36.751">  1  5  2 -1</clus>
</clustering>
</event>
<event>
 9    1  0.1504846E-005  0.9687501E+02  0.7546771E-02  0.1287616E+00
         21   -1    0    0  501  502  0.00000000000E+00  0.00000000000E+00  0.31943129795E+02  0.31943129795E+02  0.00000000000E+00 0. -1.
          3   -1    0    0  502    0 -0.00000000000E+00 -0.00000000000E+00 -0.36630983982E+03  0.36630983982E+03  0.00000000000E+00 0. -1.
         23    2    1    2    0    0 -0.41097112888E+01  0.55345310346E+01 -0.16325434805E+03  0.18869165674E+03  0.94366511037E+02 0.  0.
         23    2    1    2    0    0  0.11818480883E+02 -0.25495216079E+02 -0.14309436983E+03  0.17430706547E+03  0.95484406388E+02 0.  0.
        -11    1    4    4    0    0 -0.21364504916E+02  0.39625299613E+01  0.27129766459E+01  0.21897578777E+02  0.00000000000E+00 0.  1.
         11    1    4    4    0    0  0.33182985800E+02 -0.29457746041E+02 -0.14580734647E+03  0.15240948669E+03  0.00000000000E+00 0. -1.
        -13    1    3    3    0    0 -0.39097447490E+02  0.28864983603E+02 -0.11400350792E+03  0.12392980875E+03  0.00000000000E+00 0.  1.
         13    1    3    3    0    0  0.34987736201E+02 -0.23330452569E+02 -0.49250840128E+02  0.64761847989E+02  0.00000000000E+00 0. -1.
          3    1    1    2  501    0 -0.77087695945E+01  0.19960685045E+02 -0.28017992148E+02  0.35254247406E+02  0.00000000000E+00 0. -1.
<scales pt_clust_5="13000.00000" pt_clust_6="13000.00000" pt_clust_7="13000.00000" pt_clust_8="13000.00000" pt_clust_9="21.39752"></scales>
<clustering>
<clus scale="   21.398">  1  9  2 -1</clus>
<clus scale="   94.367">  7  8 -1 -1</clus>
<clus scale="   95.484">  5  6 -1 -1</clus>
<clus scale="   95.773">  2  7  1 -1</clus>
<clus scale="   21.398">  1  5  2 -1</clus>
</clustering>
</event>
<event>
 9    1  0.1504846E-005  0.1101625E+03  0.7546771E-02  0.1262040E+00
          2   -1    0    0  502    0 -0.00000000000E+00  0.00000000000E+00  0.19432662407E+03  0.19432662407E+03  0.00000000000E+00 0. -1.
         21   -1    0    0  501  502  0.00000000000E+00 -0.00000000000E+00 -0.12692296255E+03  0.12692296255E+03  0.00000000000E+00 0. -1.
         23    2    1    2    0    0 -0.73699444953E+02  0.27000810952E+02  0.79630472818E+02  0.14277785030E+03  0.88791048852E+02 0.  0.
         23    2    1    2    0    0  0.20493808181E+02 -0.37309393931E+02  0.33193947645E+02  0.10775998333E+03  0.93265153186E+02 0.  0.
        -11    1    4    4    0    0  0.86811446162E+01 -0.58190377893E+02  0.51017150579E+02  0.77873178980E+02  0.00000000000E+00 0.  1.
         11    1    4    4    0    0  0.11812663565E+02  0.20880983962E+02 -0.17823202935E+02  0.29886804355E+02  0.00000000000E+00 0. -1.
        -11    1    3    3    0    0 -0.37593831417E+02  0.40965559214E+02  0.15444180394E+01  0.55622463353E+02  0.00000000000E+00 0.  1.
         11    1    3    3    0    0 -0.36105613536E+02 -0.13964748262E+02  0.78086054778E+02  0.87155386946E+02  0.00000000000E+00 0. -1.
          2    1    1    2  501    0  0.53205636772E+02  0.10308582979E+02 -0.45420758948E+02  0.70711752988E+02  0.00000000000E+00 0. -1.
<scales pt_clust_5="13000.00000" pt_clust_6="13000.00000" pt_clust_7="13000.00000" pt_clust_8="13000.00000" pt_clust_9="54.19508"></scales>
<clustering>
<clus scale="   54.195">  2  9  1 -1</clus>
<clus scale="   88.791">  7  8 -1 -1</clus>
<clus scale="   93.265">  5  6 -1 -1</clus>
<clus scale="  106.401">  1  7  2 -1</clus>
<clus scale="   54.195">  2  5  1 -1</clus>
</clustering>
</event>
<event>
 9    1  0.1504846E-005  0.1601829E+03  0.7546771E-02  0.1188710E+00
         -3   -1    0    0    0  501 -0.00000000000E+00  0.00000000000E+00  0.31495621228E+03  0.31495621228E+03  0.00000000000E+00 0.  1.
         21   -1    0    0  501  502  0.00000000000E+00 -0.00000000000E+00 -0.16846506280E+03  0.16846506280E+03  0.00000000000E+00 0.  1.
         23    2    1    2    0    0 -0.51555982544E+02 -0.10794198539E+03  0.15478661842E+03  0.21620155005E+03  0.92058250354E+02 0.  0.
         23    2    1    2    0    0  0.41872524054E+02  0.14821390774E+03  0.57843899313E+02  0.18918118884E+03  0.93396653085E+02 0.  0.
        -11    1    3    3    0    0  0.85827524919E+01 -0.32541357044E+02 -0.20177070196E+00  0.33654780790E+02  0.00000000000E+00 0. -1.
         11    1    3    3    0    0 -0.60138735036E+02 -0.75400628349E+02  0.15498838912E+03  0.18254676926E+03  0.00000000000E+00 0.  1.
        -13    1    4    4    0    0  0.77717993233E+01  0.97980049839E+02  0.77711927188E+02  0.12529818298E+03  0.00000000000E+00 0.  1.
         13    1    4    4    0    0  0.34100724731E+02  0.50233857897E+02 -0.19868027874E+02  0.63883005863E+02  0.00000000000E+00 0. -1.
         -3    1    1    2    0  502  0.96834584892E+01 -0.40271922344E+02 -0.66139368249E+02  0.78038536186E+02  0.00000000000E+00 0.  1.
<scales pt_clust_5="13000.00000" pt_clust_6="13000.00000" pt_clust_7="13000.00000" pt_clust_8="13000.00000" pt_clust_9="41.41977"></scales>
<clustering>
<clus scale="   41.420">  2  9  1 -1</clus>
<clus scale="   92.058">  5  6 -1 -1</clus>
<clus scale="   93.397">  7  8 -1 -1</clus>
<clus scale="  159.406">  1  5  2 -1</clus>
<clus scale="   41.420">  2  5  1 -1</clus>
</clustering>
</event>
<event>
 9    1  0.1504846E-005  0.1347165E+03  0.7546771E-02  0.1226634E+00
          2   -1    0    0  502    0 -0.00000000000E+00  0.00000000000E+00  0.91317282655E+02  0.91317282655E+02  0.00000000000E+00 0. -1.
         21   -1    0    0  501  502  0.00000000000E+00 -0.00000000000E+00 -0.44543980608E+03  0.44543980608E+03  0.00000000000E+00 0. -1.
         23    2    1    2    0    0 -0.23333515538E+02 -0.71632841096E+02  0.23973841529E+02  0.12369013018E+03  0.95125108967E+02 0.  0.
         23    2    1    2    0    0  0.10697145757E+02  0.50641963772E+02 -0.22174914979E+03  0.25481163807E+03  0.11435579583E+03 0.  0.
        -11    1    3    3    0    0 -0.33702446734E+02  0.11178190291E+02 -0.38514460617E+01  0.35716109682E+02  0.00000000000E+00 0.  1.
         11    1    3    3    0    0  0.10368931196E+02 -0.82811031387E+02  0.27825287590E+02  0.87974020500E+02  0.00000000000E+00 0. -1.
        -13    1    4    4    0    0 -0.25805390346E+01  0.86708851535E+02 -0.16212679942E+03  0.18387545569E+03  0.00000000000E+00 0.  1.
         13    1    4    4    0    0  0.13277684791E+02 -0.36066887762E+02 -0.59622350371E+02  0.70936182376E+02  0.00000000000E+00 0. -1.
          2    1    1    2  501    0  0.12636369782E+02  0.20990877324E+02 -0.15634721517E+03  0.15825532049E+03  0.00000000000E+00 0. -1.
<scales pt_clust_5="13000.00000" pt_clust_6="13000.00000" pt_clust_7="13000.00000" pt_clust_8="13000.00000" pt_clust_9="24.50091"></scales>
<clustering>
<clus scale="   24.501">  2  9  1 -1</clus>
<clus scale="   95.125">  5  6 -1 -1</clus>
<clus scale="  114.356">  7  8 -1 -1</clus>
<clus scale="  118.828">  1  5  2 -1</clus>
<clus scale="   24.501">  2  5  1 -1</clus>
</clustering>
</event>
<event>
 9    1  0.1504846E-005  0.1115052E+03  0.7546771E-02  0.1266776E+00
         -1   -1    0    0    0  501 -0.00000000000E+00  0.00000000000E+00  0.15653247145E+03  0.15653247145E+03  0.00000000000E+00 0.  1.
         21   -1    0    0  501  502  0.00000000000E+00 -0.00000000000E+00 -0.91424517249E+02  0.91424517249E+02  0.00000000000E+00 0. -1.
         23    2    1    2    0    0 -0.25564231089E+02  0.13116184176E+02  0.41257215616E+02  0.12057897215E+03  0.10959729233E+03 0.  0.
         23    2    1    2    0    0  0.15114606907E+02  0.14553531612E+02  0.84325867955E+01  0.94023448318E+02  0.91263594544E+02 0.  0.
        -13    1    4    4    0    0  0.44192978696E+02  0.32884562803E+02 -0.84455790041E+01  0.55729181238E+02  0.00000000000E+00 0. -1.
         13    1    4    4    0    0 -0.29078371789E+02 -0.18331031190E+02  0.16878165800E+02  0.38294267079E+02  0.00000000000E+00 0.  1.
        -13    1    3    3    0    0  0.83860406897E+00 -0.43937108293E+02  0.37209644703E+02  0.57582379257E+02  0.00000000000E+00 0. -1.
         13    1    3    3    0    0 -0.26402835158E+02  0.57053292470E+02  0.40475709130E+01  0.62996592894E+02  0.00000000000E+00 0.  1.
         -1    1    1    2    0  502  0.10449624182E+02 -0.27669715789E+02  0.15418151792E+02  0.33354568234E+02  0.00000000000E+00 0.  1.
<scales pt_clust_5="13000.00000" pt_clust_6="13000.00000" pt_clust_7="13000.00000" pt_clust_8="13000.00000" pt_clust_9="29.57717"></scales>
<clustering>
<clus scale="   29.577">  2  9  1 -1</clus>
<clus scale="   91.264">  5  6 -1 -1</clus>
<clus scale="   93.546">  2  5  1 -1</clus>
<clus scale="  109.597">  7  8 -1 -1</clus>
<clus scale="   29.577">  2  5  1 -1</clus>
</clustering>
</event>
<event>
 9    1  0.2830752E-005  0.1496674E+03  0.7546771E-02  0.1213571E+00
          1   -1    0    0  502    0 -0.00000000000E+00  0.00000000000E+00  0.40383023279E+03  0.40383023279E+03  0.00000000000E+00 0. -1.
         21   -1    0    0  501  502  0.00000000000E+00 -0.00000000000E+00 -0.39833219398E+03  0.39833219398E+03  0.00000000000E+00 0. -1.
         23    2    1    2    0    0  0.61498055486E+02  0.39013577833E+01  0.34601807744E+03  0.36431351309E+03  0.95909303427E+02 0.  0.
         23    2    1    2    0    0 -0.29529693077E+01  0.11228865119E+03 -0.17850781844E+03  0.23006151082E+03  0.91901013603E+02 0.  0.
        -13    1    4    4    0    0 -0.28041900018E+02 -0.16517726963E+01 -0.28403464087E+02  0.39947882069E+02  0.00000000000E+00 0.  1.
         13    1    4    4    0    0  0.25088930711E+02  0.11394042389E+03 -0.15010435435E+03  0.19011362875E+03  0.00000000000E+00 0. -1.
        -13    1    3    3    0    0 -0.11186883322E+02 -0.29118298192E+02  0.63741151832E+02  0.70964470581E+02  0.00000000000E+00 0.  1.
         13    1    3    3    0    0  0.72684938808E+02  0.33019655975E+02  0.28227692560E+03  0.29334904251E+03  0.00000000000E+00 0. -1.
          1    1    1    2  501    0 -0.58545086178E+02 -0.11619000898E+03 -0.16201222018E+03  0.20778740287E+03  0.00000000000E+00 0. -1.
<scales pt_clust_5="13000.00000" pt_clust_6="13000.00000" pt_clust_7="13000.00000" pt_clust_8="13000.00000" pt_clust_9="118.12940"></scales>
<clustering>
<clus scale="   91.901">  5  6 -1 -1</clus>
<clus scale="   95.909">  7  8 -1 -1</clus>
<clus scale="  113.999">  1  7  2 -1</clus>
<clus scale="  118.129">  2  9  1 -1</clus>
<clus scale="  118.129">  2  5  1 -1</clus>
</clustering>
</event>
<event>
 9    1  0.1504846E-005  0.1135998E+03  0.7546771E-02  0.1257921E+00
          3   -1    0    0  502    0 -0.00000000000E+00  0.00000000000E+00  0.20186719543E+03  0.20186719543E+03  0.00000000000E+00 0. -1.
         21   -1    0    0  501  502  0.00000000000E+00 -0.00000000000E+00 -0.17209850049E+03  0.17209850049E+03  0.00000000000E+00 0.  1.
         23    2    1    2    0    0  0.40884165299E+02 -0.40243094082E+02  0.10749945305E+03  0.15161758268E+03  0.90226034920E+02 0.  0.
         23    2    1    2    0    0 -0.51104157499E+02  0.12586101439E+02  0.24862274858E+02  0.11560220984E+03  0.99878392782E+02 0.  0.
        -13    1    3    3    0    0  0.25074020915E+02 -0.69109818237E+02  0.80767371888E+02  0.10921649080E+03  0.00000000000E+00 0.  1.
         13    1    3    3    0    0  0.15810144385E+02  0.28866724155E+02  0.26732081160E+02  0.42401091873E+02  0.00000000000E+00 0. -1.
        -13    1    4    4    0    0 -0.11981781927E+02  0.53875293141E+02  0.19221766396E+02  0.58443020221E+02  0.00000000000E+00 0. -1.
         13    1    4    4    0    0 -0.39122375572E+02 -0.41289191702E+02  0.56405084619E+01  0.57159189616E+02  0.00000000000E+00 0.  1.
          3    1    1    2  501    0  0.10219992200E+02  0.27656992643E+02 -0.10259303296E+03  0.10674590341E+03  0.00000000000E+00 0. -1.
<scales pt_clust_5="13000.00000" pt_clust_6="13000.00000" pt_clust_7="13000.00000" pt_clust_8="13000.00000" pt_clust_9="29.48487"></scales>
<clustering>
<clus scale="   29.485">  2  9  1 -1</clus>
<clus scale="   90.226">  5  6 -1 -1</clus>
<clus scale="   99.878">  7  8 -1 -1</clus>
<clus scale="  105.214">  1  5  2 -1</clus>
<clus scale="   29.485">  2  5  1 -1</clus>
</clustering>
</event>
<event>
 9    1  0.1504846E-005  0.1516821E+03  0.7546771E-02  0.1198708E+00
         21   -1    0    0  501  502  0.00000000000E+00  0.00000000000E+00  0.16830424534E+03  0.16830424534E+03  0.00000000000E+00 0. -1.
          1   -1    0    0  502    0 -0.00000000000E+00 -0.00000000000E+00 -0.33173697788E+03  0.33173697788E+03  0.00000000000E+00 0. -1.
         23    2    1    2    0    0  0.80912346103E+02  0.95290257718E+02 -0.16511021253E+03  0.22651511222E+03  0.91764224046E+02 0.  0.
         23    2    1    2    0    0 -0.88479040643E+02 -0.75228573068E+02 -0.94626200613E+02  0.17486444187E+03  0.90197429840E+02 0.  0.
        -11    1    3    3    0    0  0.74989657120E+02  0.25493287006E+02 -0.56561045051E+02  0.97326811180E+02  0.00000000000E+00 0.  1.
         11    1    3    3    0    0  0.59226889831E+01  0.69796970712E+02 -0.10854916747E+03  0.12918830104E+03  0.00000000000E+00 0. -1.
        -11    1    4    4    0    0 -0.59253589065E+02 -0.75999960616E+02 -0.25313232480E+02  0.99638052818E+02  0.00000000000E+00 0. -1.
         11    1    4    4    0    0 -0.29225451578E+02  0.77138754795E+00 -0.69312968133E+02  0.75226389054E+02  0.00000000000E+00 0.  1.
          1    1    1    2  501    0  0.75666945403E+01 -0.20061684649E+02  0.96303680603E+02  0.98661669127E+02  0.00000000000E+00 0. -1.
<scales pt_clust_5="13000.00000" pt_clust_6="13000.00000" pt_clust_7="13000.00000" pt_clust_8="13000.00000" pt_clust_9="21.44122"></scales>
<clustering>
<clus scale="   21.441">  1  9  2 -1</clus>
<clus scale="   90.197">  7  8 -1 -1</clus>
<clus scale="   91.764">  5  6 -1 -1</clus>
<clus scale="  150.739">  1  7  2 -1</clus>
<clus scale="   21.441">  1  5  2 -1</clus>
</clustering>
</event>
<event>
 9    1  0.1504846E-005  0.1457649E+03  0.7546771E-02  0.1205996E+00
         -4   -1    0    0    0  501 -0.00000000000E+00  0.00000000000E+00  0.17330816876E+03  0.17330816876E+03  0.00000000000E+00 0.  1.
         21   -1    0    0  501  502  0.00000000000E+00 -0.00000000000E+00 -0.21641313941E+03  0.21641313941E+03  0.00000000000E+00 0.  1.
         23    2    1    2    0    0 -0.65282723438E+02 -0.68004586131E+02  0.22256691147E+02  0.13282764833E+03  0.90892057667E+02 0.  0.
         23    2    1    2    0    0  0.68275137882E+02  0.13428578962E+03 -0.22583695777E+02  0.17794996562E+03  0.91989125467E+02 0.  0.
        -11    1    3    3    0    0 -0.82529686252E+02 -0.57422367493E+02  0.37696126114E+02  0.10737539441E+03  0.00000000000E+00 0.  1.
         11    1    3    3    0    0  0.17246962814E+02 -0.10582218638E+02 -0.15439434966E+02  0.25452253922E+02  0.00000000000E+00 0. -1.
        -13    1    4    4    0    0  0.34715154609E+02 -0.11555883937E+01  0.66959172186E+01  0.35373897884E+02  0.00000000000E+00 0. -1.
         13    1    4    4    0    0  0.33559983273E+02  0.13544137801E+03 -0.29279612995E+02  0.14257606774E+03  0.00000000000E+00 0.  1.
         -4    1    1    2    0  502 -0.29924144437E+01 -0.66281203487E+02 -0.42777966016E+02  0.78943694215E+02  0.00000000000E+00 0.  1.
<scales pt_clust_5="13000.00000" pt_clust_6="13000.00000" pt_clust_7="13000.00000" pt_clust_8="13000.00000" pt_clust_9="66.34872"></scales>
<clustering>
<clus scale="   66.349">  2  9  1 -1</clus>
<clus scale="   90.892">  5  6 -1 -1</clus>
<clus scale="   91.989">  7  8 -1 -1</clus>
<clus scale="  145.075">  1  5  2 -1</clus>
<clus scale="   66.349">  2  5  1 -1</clus>
</clustering>
</event>
<event>
 9    1  0.1504846E-005  0.1025605E+03  0.7546771E-02  0.1278309E+00
          1   -1    0    0  502    0 -0.00000000000E+00  0.00000000000E+00  0.92051131310E+02  0.92051131310E+02  0.00000000000E+00 0. -1.
         21   -1    0    0  501  502  0.00000000000E+00 -0.00000000000E+00 -0.21391892464E+03  0.21391892464E+03  0.00000000000E+00 0. -1.
         23    2    1    2    0    0  0.59562981018E+01  0.35824762469E+02 -0.84204277236E+01  0.10525502222E+03  0.98431829236E+02 0.  0.
         23    2    1    2    0    0  0.14259501775E+02 -0.21477093597E+02 -0.11856728364E+02  0.96143566578E+02  0.91860788406E+02 0.  0.
        -11    1    4    4    0    0 -0.21090947911E+02 -0.13084849686E+02  0.31159459536E+02  0.39836582354E+02  0.00000000000E+00 0.  1.
         11    1    4    4    0    0  0.35350449686E+02 -0.83922439116E+01 -0.43016187900E+02  0.56306984223E+02  0.00000000000E+00 0. -1.
        -13    1    3    3    0    0 -0.18686442205E+02  0.13227004215E+02 -0.48157706988E+02  0.53322617201E+02  0.00000000000E+00 0.  1.
         13    1    3    3    0    0  0.24642740307E+02  0.22597758254E+02  0.39737279264E+02  0.51932405021E+02  0.00000000000E+00 0. -1.
          1    1    1    2  501    0 -0.20215799877E+02 -0.14347668872E+02 -0.10159063724E+03  0.10457146715E+03  0.00000000000E+00 0. -1.
<scales pt_clust_5="13000.00000" pt_clust_6="13000.00000" pt_clust_7="13000.00000" pt_clust_8="13000.00000" pt_clust_9="24.78980"></scales>
<clustering>
<clus scale="   24.790">  2  9  1 -1</clus>
<clus scale="   91.861">  5  6 -1 -1</clus>
<clus scale="   96.272">  2  5  1 -1</clus>
<clus scale="   98.432">  7  8 -1 -1</clus>
<clus scale="   24.790">  2  5  1 -1</clus>
</clustering>
</event>
<event>
 9    1  0.1504846E-005  0.1143750E+03  0.7546771E-02  0.1253219E+00
          2   -1    0    0  502    0 -0.00000000000E+00  0.00000000000E+00  0.74437013166E+02  0.74437013166E+02  0.00000000000E+00 0. -1.
         21   -1    0    0  501  502  0.00000000000E+00 -0.00000000000E+00 -0.38100969912E+03  0.38100969912E+03  0.00000000000E+00 0. -1.
         23    2    1    2    0    0  0.46525761679E+02 -0.52172666584E+02 -0.31078193793E+01  0.11389500469E+03  0.89865343226E+02 0.  0.
         23    2    1    2    0    0 -0.17940588075E+02  0.68555761852E+02 -0.18153086482E+03  0.21524486398E+03  0.91406451657E+02 0.  0.
        -11    1    3    3    0    0  0.56004021254E+02 -0.12954468303E+02  0.27043277863E+02  0.63526431690E+02  0.00000000000E+00 0.  1.
         11    1    3    3    0    0 -0.94782595742E+01 -0.39218198281E+02 -0.30151097243E+02  0.50368572998E+02  0.00000000000E+00 0. -1.
        -11    1    4    4    0    0  0.29263068117E+02  0.18472853370E+02 -0.20741633252E+02  0.40345864933E+02  0.00000000000E+00 0. -1.
         11    1    4    4    0    0 -0.47203656192E+02  0.50082908483E+02 -0.16078923157E+03  0.17489899905E+03  0.00000000000E+00 0.  1.
          2    1    1    2  501    0 -0.28585173605E+02 -0.16383095268E+02 -0.12193400175E+03  0.12630684362E+03  0.00000000000E+00 0. -1.
<scales pt_clust_5="13000.00000" pt_clust_6="13000.00000" pt_clust_7="13000.00000" pt_clust_8="13000.00000" pt_clust_9="32.94720"></scales>
<clustering>
<clus scale="   32.947">  2  9  1 -1</clus>
<clus scale="   89.865">  5  6 -1 -1</clus>
<clus scale="   91.406">  7  8 -1 -1</clus>
<clus scale="  113.147">  1  5  2 -1</clus>
<clus scale="   32.947">  2  5  1 -1</clus>
</clustering>
</event>
<event>
 9    1  0.1504846E-005  0.1279826E+03  0.7546771E-02  0.1230537E+00
          1   -1    0    0  502    0 -0.00000000000E+00  0.00000000000E+00  0.92311025627E+02  0.92311025627E+02  0.00000000000E+00 0. -1.
         21   -1    0    0  501  502  0.00000000000E+00 -0.00000000000E+00 -0.26624337418E+03  0.26624337418E+03  0.00000000000E+00 0.  1.
         23    2    1    2    0    0 -0.91732544581E+02 -0.39692054187E+02 -0.18796636556E+02  0.13629230038E+03  0.90730142158E+02 0.  0.
         23    2    1    2    0    0  0.71869994004E+02  0.26256048615E+02 -0.79001798824E+02  0.14244092494E+03  0.90517715139E+02 0.  0.
        -13    1    3    3    0    0 -0.34267849883E+02 -0.54171487388E+02  0.17946314241E+02  0.66565049209E+02  0.00000000000E+00 0.  1.
         13    1    3    3    0    0 -0.57464694698E+02  0.14479433200E+02 -0.36742950796E+02  0.69727251170E+02  0.00000000000E+00 0. -1.
        -13    1    4    4    0    0  0.76353838148E+02 -0.11618198897E+02 -0.67588946270E+02  0.10263116877E+03  0.00000000000E+00 0.  1.
         13    1    4    4    0    0 -0.44838441444E+01  0.37874247512E+02 -0.11412852554E+02  0.39809756171E+02  0.00000000000E+00 0. -1.
          1    1    1    2  501    0  0.19862550577E+02  0.13436005572E+02 -0.76133913179E+02  0.79821174491E+02  0.00000000000E+00 0. -1.
<scales pt_clust_5="13000.00000" pt_clust_6="13000.00000" pt_clust_7="13000.00000" pt_clust_8="13000.00000" pt_clust_9="23.98014"></scales>
<clustering>
<clus scale="   23.980">  2  9  1 -1</clus>
<clus scale="   90.518">  7  8 -1 -1</clus>
<clus scale="   90.730">  5  6 -1 -1</clus>
<clus scale="  127.832">  2  7  1 -1</clus>
<clus scale="   23.980">  2  5  1 -1</clus>
</clustering>
</event>
<event>
 9    1  0.1504846E-005  0.2045191E+03  0.7546771E-02  0.1146143E+00
          1   -1    0    0  502    0 -0.00000000000E+00  0.00000000000E+00  0.47349792983E+03  0.47349792983E+03  0.00000000000E+00 0. -1.
         21   -1    0    0  501  502  0.00000000000E+00 -0.00000000000E+00 -0.11758416672E+03  0.11758416672E+03  0.00000000000E+00 0. -1.
         23    2    1    2    0    0  0.62319373968E+02  0.16937572144E+03  0.25514959406E+03  0.32588665637E+03  0.92352358211E+02 0.  0.
         23    2    1    2    0    0 -0.87996535936E+02 -0.16510135063E+03  0.11281909412E+03  0.23650906517E+03  0.90589975101E+02 0.  0.
        -11    1    4    4    0    0 -0.87702938974E+02 -0.68555919392E+02  0.60973231249E+02  0.12692302595E+03  0.00000000000E+00 0. -1.
         11    1    4    4    0    0 -0.29359696183E+00 -0.96545431242E+02  0.51845862874E+02  0.10958603921E+03  0.00000000000E+00 0.  1.
        -11    1    3    3    0    0 -0.68289550769E+01  0.10997650871E+03  0.12052388454E+03  0.16330178762E+03  0.00000000000E+00 0. -1.
         11    1    3    3    0    0  0.69148329044E+02  0.59399212727E+02  0.13462570952E+03  0.16258486875E+03  0.00000000000E+00 0.  1.
          1    1    1    2  501    0  0.25677161969E+02 -0.42743708071E+01 -0.12054925077E+02  0.28686375009E+02  0.00000000000E+00 0. -1.
<scales pt_clust_5="13000.00000" pt_clust_6="13000.00000" pt_clust_7="13000.00000" pt_clust_8="13000.00000" pt_clust_9="26.03050"></scales>
<clustering>
<clus scale="   26.030">  2  9  1 -1</clus>
<clus scale="   90.590">  5  6 -1 -1</clus>
<clus scale="   92.352">  7  8 -1 -1</clus>
<clus scale="  203.729">  2  5  1 -1</clus>
<clus scale="   26.030">  2  5  1 -1</clus>
</clustering>
</event>
<event>
 9    1  0.1504846E-005  0.9307348E+02  0.7546771E-02  0.1296654E+00
         -1   -1    0    0    0  501 -0.00000000000E+00  0.00000000000E+00  0.18837512216E+03  0.18837512216E+03  0.00000000000E+00 0.  1.
         21   -1    0    0  501  502  0.00000000000E+00 -0.00000000000E+00 -0.85621291869E+02  0.85621291869E+02  0.00000000000E+00 0. -1.
         23    2    1    2    0    0 -0.17716853449E+02 -0.76725101981E+01  0.27943863768E+02  0.96551388310E+02  0.90380068341E+02 0.  0.
         23    2    1    2    0    0 -0.12349508505E+02  0.16325393591E+02 -0.20012532502E+01  0.94506361664E+02  0.92241089239E+02 0.  0.
        -13    1    4    4    0    0 -0.35123529407E+01 -0.37103839171E+02  0.10909330387E+02  0.38833554999E+02  0.00000000000E+00 0.  1.
         13    1    4    4    0    0 -0.88371555646E+01  0.53429232762E+02 -0.12910583637E+02  0.55672806664E+02  0.00000000000E+00 0. -1.
        -13    1    3    3    0    0  0.36716518201E+02 -0.85793881652E+00  0.17602159032E+02  0.40726831087E+02  0.00000000000E+00 0. -1.
         13    1    3    3    0    0 -0.54433371650E+02 -0.68145713816E+01  0.10341704736E+02  0.55824557223E+02  0.00000000000E+00 0.  1.
         -1    1    1    2    0  502  0.30066361954E+02 -0.86528833931E+01  0.76811219770E+02  0.82938664052E+02  0.00000000000E+00 0.  1.
<scales pt_clust_5="13000.00000" pt_clust_6="13000.00000" pt_clust_7="13000.00000" pt_clust_8="13000.00000" pt_clust_9="31.28673"></scales>
<clustering>
<clus scale="   31.287">  2  9  1 -1</clus>
<clus scale="   90.380">  7  8 -1 -1</clus>
<clus scale="   91.229">  1  7  2 -1</clus>
<clus scale="   92.241">  5  6 -1 -1</clus>
<clus scale="   31.287">  2  5  1 -1</clus>
</clustering>
</event>
<event>
 9    1  0.1504846E-005  0.1175910E+03  0.7546771E-02  0.1248572E+00
          2   -1    0    0  502    0 -0.00000000000E+00  0.00000000000E+00  0.33108615167E+03  0.33108615167E+03  0.00000000000E+00 0. -1.
         21   -1    0    0  501  502  0.00000000000E+00 -0.00000000000E+00 -0.28059188937E+03  0.28059188937E+03  0.00000000000E+00 0. -1.
         23    2    1    2    0    0  0.78191158156E+02  0.33224766223E+01  0.15793690533E+03  0.19941102750E+03  0.93251250707E+02 0.  0.
         23    2    1    2    0    0 -0.43479323062E+02 -0.45865796878E+02  0.12667146538E+03  0.17180025627E+03  0.97342411396E+02 0.  0.
        -13    1    3    3    0    0  0.87191603399E+02  0.31056079669E+02  0.11834507972E+03  0.15024118503E+03  0.00000000000E+00 0. -1.
         13    1    3    3    0    0 -0.90004452433E+01 -0.27733603047E+02  0.39591825617E+02  0.49169842467E+02  0.00000000000E+00 0.  1.
        -13    1    4    4    0    0  0.27633412139E+02 -0.23692559010E+02  0.67423084865E+02  0.76621245040E+02  0.00000000000E+00 0. -1.
         13    1    4    4    0    0 -0.71112735200E+02 -0.22173237868E+02  0.59248380515E+02  0.95179011231E+02  0.00000000000E+00 0.  1.
          2    1    1    2  501    0 -0.34711835094E+02  0.42543320255E+02 -0.23411410841E+03  0.24046675727E+03  0.00000000000E+00 0. -1.
<scales pt_clust_5="13000.00000" pt_clust_6="13000.00000" pt_clust_7="13000.00000" pt_clust_8="13000.00000" pt_clust_9="54.90761"></scales>
<clustering>
<clus scale="   54.908">  2  9  1 -1</clus>
<clus scale="   93.251">  5  6 -1 -1</clus>
<clus scale="   97.342">  7  8 -1 -1</clus>
<clus scale="  114.227">  1  5  2 -1</clus>
<clus scale="   54.908">  2  5  1 -1</clus>
</clustering>
</event>
<event>
 9    1  0.1504846E-005  0.9789105E+02  0.7546771E-02  0.1285670E+00
         21   -1    0    0  501  502  0.00000000000E+00  0.00000000000E+00  0.29168575524E+03  0.29168575524E+03  0.00000000000E+00 0. -1.
         -3   -1    0    0    0  501 -0.00000000000E+00 -0.00000000000E+00 -0.57966225067E+02  0.57966225067E+02  0.00000000000E+00 0.  1.
         23    2    1    2    0    0  0.40645900630E+02  0.19340507643E+01  0.23734839667E+02  0.10270091127E+03  0.91259546192E+02 0.  0.
         23    2    1    2    0    0 -0.47567761040E+01 -0.81554585472E+01  0.14637537118E+03  0.17365113262E+03  0.92950675892E+02 0.  0.
        -11    1    3    3    0    0  0.46485463129E+02 -0.37407101022E+02  0.19151338688E+02  0.62665487014E+02  0.00000000000E+00 0. -1.
         11    1    3    3    0    0 -0.58395624993E+01  0.39341151786E+02  0.45835009790E+01  0.40035424255E+02  0.00000000000E+00 0.  1.
        -13    1    4    4    0    0 -0.17989197823E+02 -0.47913031138E+02  0.72974253885E+02  0.89131989326E+02  0.00000000000E+00 0. -1.
         13    1    4    4    0    0  0.13232421719E+02  0.39757572591E+02  0.73401117291E+02  0.84519143289E+02  0.00000000000E+00 0.  1.
         -3    1    1    2    0  502 -0.35889124526E+02  0.62214077829E+01  0.63609319328E+02  0.73299936421E+02  0.00000000000E+00 0.  1.
<scales pt_clust_5="13000.00000" pt_clust_6="13000.00000" pt_clust_7="13000.00000" pt_clust_8="13000.00000" pt_clust_9="36.42438"></scales>
<clustering>
<clus scale="   36.424">  1  9  2 -1</clus>
<clus scale="   91.260">  5  6 -1 -1</clus>
<clus scale="   92.951">  7  8 -1 -1</clus>
<clus scale="   96.287">  2  5  1 -1</clus>
<clus scale="   36.424">  1  5  2 -1</clus>
</clustering>
</event>
<event>
 9    1  0.1504846E-005  0.3746506E+03  0.7546771E-02  0.1052952E+00
         21   -1    0    0  501  502  0.00000000000E+00  0.00000000000E+00  0.96464738439E+03  0.96464738439E+03  0.00000000000E+00 0. -1.
          1   -1    0    0  502    0 -0.00000000000E+00 -0.00000000000E+00 -0.28823369480E+03  0.28823369480E+03  0.00000000000E+00 0. -1.
         23    2    1    2    0    0 -0.34261859752E+03 -0.11422421914E+03 -0.76850242454E+02  0.38027118136E+03  0.90914993274E+02 0.  0.
         23    2    1    2    0    0  0.34234115601E+03  0.15785981393E+03  0.72022296565E+03  0.81787556157E+03  0.89900645150E+02 0.  0.
        -11    1    3    3    0    0 -0.13325884578E+03 -0.33274556077E+02  0.14117533473E+02  0.13807396862E+03  0.00000000000E+00 0. -1.
         11    1    3    3    0    0 -0.20935975174E+03 -0.80949663059E+02 -0.90967775927E+02  0.24219721273E+03  0.00000000000E+00 0.  1.
        -13    1    4    4    0    0  0.25535423505E+03  0.14641819447E+03  0.60729037989E+03  0.67486715622E+03  0.00000000000E+00 0. -1.
         13    1    4    4    0    0  0.86986920959E+02  0.11441619468E+02  0.11293258576E+03  0.14300840535E+03  0.00000000000E+00 0.  1.
          1    1    1    2  501    0  0.27744151190E+00 -0.43635594797E+02  0.33040966386E+02  0.54734336269E+02  0.00000000000E+00 0. -1.
<scales pt_clust_5="13000.00000" pt_clust_6="13000.00000" pt_clust_7="13000.00000" pt_clust_8="13000.00000" pt_clust_9="43.63648"></scales>
<clustering>
<clus scale="   43.636">  1  9  2 -1</clus>
<clus scale="   89.901">  7  8 -1 -1</clus>
<clus scale="   90.915">  5  6 -1 -1</clus>
<clus scale="  374.406">  1  7  2 -1</clus>
<clus scale="   43.636">  1  5  2 -1</clus>
</clustering>
</event>
<event>
 9    1  0.1504846E-005  0.2235008E+03  0.7546771E-02  0.1132994E+00
         21   -1    0    0  501  502  0.00000000000E+00  0.00000000000E+00  0.33553364475E+03  0.33553364475E+03  0.00000000000E+00 0.  1.
          1   -1    0    0  502    0 -0.00000000000E+00 -0.00000000000E+00 -0.24438797852E+03  0.24438797852E+03  0.00000000000E+00 0. -1.
         23    2    1    2    0    0 -0.28657456468E+02  0.19541994281E+03 -0.10526175776E+03  0.24171397529E+03  0.91298435616E+02 0.  0.
         23    2    1    2    0    0 -0.12166826151E+02 -0.18742994271E+03  0.11456926904E+03  0.24640380405E+03  0.11095360362E+03 0.  0.
        -11    1    3    3    0    0 -0.55464023970E+02  0.79770625723E+02 -0.62537459240E+02  0.11554455630E+03  0.00000000000E+00 0.  1.
         11    1    3    3    0    0  0.26806567502E+02  0.11564931709E+03 -0.42724298521E+02  0.12616941899E+03  0.00000000000E+00 0. -1.
        -11    1    4    4    0    0  0.16329016893E+02 -0.12002933690E+03  0.12313086351E+03  0.17272778600E+03  0.00000000000E+00 0.  1.
         11    1    4    4    0    0 -0.28495843045E+02 -0.67400605815E+02 -0.85615944686E+01  0.73676018044E+02  0.00000000000E+00 0. -1.
          1    1    1    2  501    0  0.40824282619E+02 -0.79900000968E+01  0.81838154957E+02  0.91803843926E+02  0.00000000000E+00 0. -1.
<scales pt_clust_5="13000.00000" pt_clust_6="13000.00000" pt_clust_7="13000.00000" pt_clust_8="13000.00000" pt_clust_9="41.59882"></scales>
<clustering>
<clus scale="   41.599">  1  9  2 -1</clus>
<clus scale="   91.298">  5  6 -1 -1</clus>
<clus scale="  110.954">  7  8 -1 -1</clus>
<clus scale="  214.423">  2  5  1 -1</clus>
<clus scale="   41.599">  1  5  2 -1</clus>
</clustering>
</event>
<event>
 9    1  0.1504846E-005  0.1147814E+03  0.7546771E-02  0.1253442E+00
         21   -1    0    0  501  502  0.00000000000E+00  0.00000000000E+00  0.48878212972E+02  0.48878212972E+02  0.00000000000E+00 0. -1.
          2   -1    0    0  502    0 -0.00000000000E+00 -0.00000000000E+00 -0.59689788233E+03  0.59689788233E+03  0.00000000000E+00 0. -1.
         23    2    1    2    0    0  0.35885361506E+02 -0.59779942332E+02 -0.44376690438E+03  0.45799673845E+03  0.89277916275E+02 0.  0.
         23    2    1    2    0    0 -0.95135036120E+01  0.59887520074E+02 -0.11428306743E+03  0.15956422919E+03  0.93397547748E+02 0.  0.
        -13    1    4    4    0    0  0.21790945386E+02 -0.14809974876E+02 -0.48614541522E+02  0.55295156243E+02  0.00000000000E+00 0. -1.
         13    1    4    4    0    0 -0.31304448998E+02  0.74697494949E+02 -0.65668525904E+02  0.10426907295E+03  0.00000000000E+00 0.  1.
        -13    1    3    3    0    0 -0.58020854674E+01 -0.58956735224E+02 -0.35519411323E+03  0.36010056776E+03  0.00000000000E+00 0. -1.
         13    1    3    3    0    0  0.41687446974E+02 -0.82320710756E+00 -0.88572791149E+02  0.97896170696E+02  0.00000000000E+00 0.  1.
          2    1    1    2  501    0 -0.26371857894E+02 -0.10757774197E+00  0.10030302446E+02  0.28215127661E+02  0.00000000000E+00 0. -1.
<scales pt_clust_5="13000.00000" pt_clust_6="13000.00000" pt_clust_7="13000.00000" pt_clust_8="13000.00000" pt_clust_9="26.37208"></scales>
<clustering>
<clus scale="   26.372">  1  9  2 -1</clus>
<clus scale="   89.278">  7  8 -1 -1</clus>
<clus scale="   93.398">  5  6 -1 -1</clus>
<clus scale="  111.455">  2  7  1 -1</clus>
<clus scale="   26.372">  1  5  2 -1</clus>
</clustering>
</event>
<event>
 9    1  0.1504846E-005  0.1237796E+03  0.7546771E-02  0.1237320E+00
         -1   -1    0    0    0  501 -0.00000000000E+00  0.00000000000E+00  0.25765472393E+03  0.25765472393E+03  0.00000000000E+00 0.  1.
         21   -1    0    0  501  502  0.00000000000E+00 -0.00000000000E+00 -0.77131389108E+02  0.77131389108E+02  0.00000000000E+00 0. -1.
         23    2    1    2    0    0 -0.25091136096E+02  0.92660856111E+02  0.11135297114E+03  0.17177929995E+03  0.88842806942E+02 0.  0.
         23    2    1    2    0    0  0.33625002342E+02 -0.65633856573E+02  0.67731454875E+02  0.13462801756E+03  0.89992828720E+02 0.  0.
        -11    1    4    4    0    0  0.18524642588E+02 -0.31261047608E+02  0.85641320775E+02  0.93031453308E+02  0.00000000000E+00 0.  1.
         11    1    4    4    0    0  0.15100359754E+02 -0.34372808965E+02 -0.17909865900E+02  0.41596564250E+02  0.00000000000E+00 0. -1.
        -11    1    3    3    0    0  0.30868738839E+02  0.20946165042E+02  0.48612936851E+02  0.61276736995E+02  0.00000000000E+00 0.  1.
         11    1    3    3    0    0 -0.55959874935E+02  0.71714691069E+02  0.62740034285E+02  0.11050256296E+03  0.00000000000E+00 0. -1.
         -1    1    1    2    0  502 -0.85338662456E+01 -0.27026999538E+02  0.14389088118E+01  0.28378795530E+02  0.00000000000E+00 0.  1.
<scales pt_clust_5="13000.00000" pt_clust_6="13000.00000" pt_clust_7="13000.00000" pt_clust_8="13000.00000" pt_clust_9="28.34229"></scales>
<clustering>
<clus scale="   28.342">  2  9  1 -1</clus>
<clus scale="   88.843">  7  8 -1 -1</clus>
<clus scale="   89.993">  5  6 -1 -1</clus>
<clus scale="  122.946">  1  7  2 -1</clus>
<clus scale="   28.342">  2  5  1 -1</clus>
</clustering>
</event>
<event>
 9    1  0.1504846E-005  0.1644419E+03  0.7546771E-02  0.1191272E+00
         21   -1    0    0  501  502  0.00000000000E+00  0.00000000000E+00  0.56565181105E+03  0.56565181105E+03  0.00000000000E+00 0. -1.
          1   -1    0    0  502    0 -0.00000000000E+00 -0.00000000000E+00 -0.12586037671E+03  0.12586037671E+03  0.00000000000E+00 0. -1.
         23    2    1    2    0    0 -0.59128380133E+02  0.87176334564E+02  0.20565329751E+03  0.24835011639E+03  0.91041874378E+02 0.  0.
         23    2    1    2    0    0 -0.78595593115E+02 -0.11940110594E+03  0.11062335201E+01  0.17056310464E+03  0.93041160553E+02 0.  0.
        -13    1    4    4    0    0  0.26969551695E+00 -0.56141958726E+02  0.32284900071E+02  0.64763469934E+02  0.00000000000E+00 0. -1.
         13    1    4    4    0    0 -0.78865288632E+02 -0.63259147209E+02 -0.31178666551E+02  0.10579963471E+03  0.00000000000E+00 0.  1.
        -13    1    3    3    0    0 -0.28852047279E+02 -0.12894582620E+02  0.28034289725E+02  0.42244908492E+02  0.00000000000E+00 0.  1.
         13    1    3    3    0    0 -0.30276332854E+02  0.10007091718E+03  0.17761900778E+03  0.20610520790E+03  0.00000000000E+00 0. -1.
          1    1    1    2  501    0  0.13772397325E+03  0.32224771372E+02  0.23303190331E+03  0.27259896672E+03  0.00000000000E+00 0. -1.
<scales pt_clust_5="13000.00000" pt_clust_6="13000.00000" pt_clust_7="13000.00000" pt_clust_8="13000.00000" pt_clust_9="135.58933"></scales>
<clustering>
<clus scale="   91.042">  7  8 -1 -1</clus>
<clus scale="   93.041">  5  6 -1 -1</clus>
<clus scale="  139.228">  2  7  1 -1</clus>
<clus scale="  135.589">  1  9  2 -1</clus>
<clus scale="  135.589">  1  5  2 -1</clus>
</clustering>
</event>
<event>
 9    1  0.1504846E-005  0.1105540E+03  0.7546771E-02  0.1262840E+00
         21   -1    0    0  501  502  0.00000000000E+00  0.00000000000E+00  0.20189567641E+03  0.20189567641E+03  0.00000000000E+00 0. -1.
          2   -1    0    0  502    0 -0.00000000000E+00 -0.00000000000E+00 -0.34777641086E+03  0.34777641086E+03  0.00000000000E+00 0. -1.
         23    2    1    2    0    0  0.38717917450E+02 -0.25349149915E+02 -0.14368877357E+03  0.17291921828E+03  0.84338223046E+02 0.  0.
         23    2    1    2    0    0 -0.67260980182E+02  0.41661559975E+02 -0.16809209562E+03  0.20762671531E+03  0.92704774779E+02 0.  0.
        -11    1    4    4    0    0 -0.30297735182E+02  0.97568824150E+01 -0.15335444617E+03  0.15662290916E+03  0.00000000000E+00 0. -1.
         11    1    4    4    0    0 -0.36963245000E+02  0.31904677560E+02 -0.14737649447E+02  0.51003806156E+02  0.00000000000E+00 0.  1.
        -13    1    3    3    0    0 -0.18110535201E+02 -0.33699491189E+02 -0.48929551069E+02  0.62110773297E+02  0.00000000000E+00 0. -1.
         13    1    3    3    0    0  0.56828452651E+02  0.83503412744E+01 -0.94759222499E+02  0.11080844498E+03  0.00000000000E+00 0.  1.
          2    1    1    2  501    0  0.28543062732E+02 -0.16312410059E+02  0.16590013474E+03  0.16912615368E+03  0.00000000000E+00 0. -1.
<scales pt_clust_5="13000.00000" pt_clust_6="13000.00000" pt_clust_7="13000.00000" pt_clust_8="13000.00000" pt_clust_9="32.87554"></scales>
<clustering>
<clus scale="   32.876">  1  9  2 -1</clus>
<clus scale="   84.338">  7  8 -1 -1</clus>
<clus scale="   92.705">  5  6 -1 -1</clus>
<clus scale="  103.639">  2  7  1 -1</clus>
<clus scale="   32.876">  1  5  2 -1</clus>
</clustering>
</event>
<event>
 9    1  0.1504846E-005  0.1132664E+03  0.7546771E-02  0.1254699E+00
         21   -1    0    0  501  502  0.00000000000E+00  0.00000000000E+00  0.32022980020E+03  0.32022980020E+03  0.00000000000E+00 0.  1.
         -2   -1    0    0    0  501 -0.00000000000E+00 -0.00000000000E+00 -0.13355357898E+03  0.13355357898E+03  0.00000000000E+00 0.  1.
         23    2    1    2    0    0 -0.76496457879E+02  0.53307452501E+02 -0.29145385310E+02  0.13271789217E+03  0.89839817774E+02 0.  0.
         23    2    1    2    0    0 -0.18359767213E+01 -0.57211449870E+02  0.17889555556E+02  0.10816102884E+03  0.90012505551E+02 0.  0.
        -11    1    4    4    0    0 -0.43329248757E+02 -0.26229748279E+02  0.23944166599E+02  0.56024517907E+02  0.00000000000E+00 0.  1.
         11    1    4    4    0    0  0.41493272035E+02 -0.30981701591E+02 -0.60546110426E+01  0.52136510935E+02  0.00000000000E+00 0. -1.
        -11    1    3    3    0    0 -0.12065777256E+02  0.59405973099E+02  0.25129951416E+01  0.60670979597E+02  0.00000000000E+00 0. -1.
         11    1    3    3    0    0 -0.64430680622E+02 -0.60985205975E+01 -0.31658380452E+02  0.72046912576E+02  0.00000000000E+00 0.  1.
         -2    1    1    2    0  502  0.78332434600E+02  0.39039973683E+01  0.19793205097E+03  0.21290445817E+03  0.00000000000E+00 0.  1.
<scales pt_clust_5="13000.00000" pt_clust_6="13000.00000" pt_clust_7="13000.00000" pt_clust_8="13000.00000" pt_clust_9="78.42966"></scales>
<clustering>
<clus scale="   78.430">  1  9  2 -1</clus>
<clus scale="   89.840">  7  8 -1 -1</clus>
<clus scale="   90.013">  5  6 -1 -1</clus>
<clus scale="  113.129">  2  7  1 -1</clus>
<clus scale="   78.430">  1  5  2 -1</clus>
</clustering>
</event>
<event>
 9    1  0.1504846E-005  0.2659043E+03  0.7546771E-02  0.1142009E+00
         21   -1    0    0  501  502  0.00000000000E+00  0.00000000000E+00  0.49492071264E+03  0.49492071264E+03  0.00000000000E+00 0. -1.
         -1   -1    0    0    0  501 -0.00000000000E+00 -0.00000000000E+00 -0.20645621655E+03  0.20645621655E+03  0.00000000000E+00 0.  1.
         23    2    1    2    0    0 -0.39445961130E+01 -0.42889080005E+02  0.60280785102E+01  0.10252492664E+03  0.92843900342E+02 0.  0.
         23    2    1    2    0    0  0.24805905137E+03 -0.24212507096E+02  0.20146285289E+03  0.33304905216E+03  0.90635818426E+02 0.  0.
        -13    1    3    3    0    0 -0.10704319638E+02 -0.67136980670E+02 -0.15122215553E+02  0.69646522064E+02  0.00000000000E+00 0.  1.
         13    1    3    3    0    0  0.67597235247E+01  0.24247900665E+02  0.21150294063E+02  0.32878404580E+02  0.00000000000E+00 0. -1.
        -13    1    4    4    0    0  0.10018712376E+03 -0.38496272416E+02  0.42400361040E+02  0.11540023125E+03  0.00000000000E+00 0.  1.
         13    1    4    4    0    0  0.14787192761E+03  0.14283765320E+02  0.15906249185E+03  0.21764882090E+03  0.00000000000E+00 0. -1.
         -1    1    1    2    0  502 -0.24411445526E+03  0.67101587101E+02  0.80973564696E+02  0.26580295039E+03  0.00000000000E+00 0.  1.
<scales pt_clust_5="13000.00000" pt_clust_6="13000.00000" pt_clust_7="13000.00000" pt_clust_8="13000.00000" pt_clust_9="249.98057"></scales>
<clustering>
<clus scale="   90.636">  7  8 -1 -1</clus>
<clus scale="   92.844">  5  6 -1 -1</clus>
<clus scale="  102.348">  2  5  1 -1</clus>
<clus scale="  249.981">  1  9  2 -1</clus>
<clus scale="  249.981">  1  5  2 -1</clus>
</clustering>
</event>
<event>
 9    1  0.1504846E-005  0.1667204E+03  0.7546771E-02  0.1201075E+00
         21   -1    0    0  501  502  0.00000000000E+00  0.00000000000E+00  0.52315134870E+02  0.52315134870E+02  0.00000000000E+00 0. -1.
          1   -1    0    0  502    0 -0.00000000000E+00 -0.00000000000E+00 -0.94405188428E+03  0.94405188428E+03  0.00000000000E+00 0. -1.
         23    2    1    2    0    0 -0.17320320704E+02  0.28090744853E+02 -0.39054199811E+03  0.40515384769E+03  0.10265234801E+03 0.  0.
         23    2    1    2    0    0 -0.27743277183E+02 -0.15462324030E+03 -0.30031762934E+03  0.34956711131E+03  0.85606372117E+02 0.  0.
        -13    1    4    4    0    0 -0.42257195886E+01 -0.11502214907E+03 -0.27237477037E+03  0.29569573385E+03  0.00000000000E+00 0. -1.
         13    1    4    4    0    0 -0.23517557594E+02 -0.39601091235E+02 -0.27942858969E+02  0.53871377461E+02  0.00000000000E+00 0.  1.
        -13    1    3    3    0    0  0.10554421099E+02  0.61831614923E+02 -0.19790009668E+03  0.20760296885E+03  0.00000000000E+00 0. -1.
         13    1    3    3    0    0 -0.27874741802E+02 -0.33740870070E+02 -0.19264190143E+03  0.19755087884E+03  0.00000000000E+00 0.  1.
          1    1    1    2  501    0  0.45063597886E+02  0.12653249545E+03 -0.20087712196E+03  0.24164606015E+03  0.00000000000E+00 0. -1.
<scales pt_clust_5="13000.00000" pt_clust_6="13000.00000" pt_clust_7="13000.00000" pt_clust_8="13000.00000" pt_clust_9="143.06381"></scales>
<clustering>
<clus scale="   85.606">  5  6 -1 -1</clus>
<clus scale="  102.652">  7  8 -1 -1</clus>
<clus scale="  107.827">  2  7  1 -1</clus>
<clus scale="  143.064">  1  9  2 -1</clus>
<clus scale="  143.064">  1  5  2 -1</clus>
</clustering>
</event>
<event>
 9    1  0.1504846E-005  0.4194432E+03  0.7546771E-02  0.1037292E+00
          1   -1    0    0  502    0 -0.00000000000E+00  0.00000000000E+00  0.15994243501E+03  0.15994243501E+03  0.00000000000E+00 0. -1.
         21   -1    0    0  501  502  0.00000000000E+00 -0.00000000000E+00 -0.15987900094E+04  0.15987900094E+04  0.00000000000E+00 0.  1.
         23    2    1    2    0    0  0.24575269977E+03 -0.34937468986E+03 -0.33417951291E+03  0.55017330970E+03  0.92507623969E+02 0.  0.
         23    2    1    2    0    0 -0.17314886479E+03  0.33763834109E+03 -0.73915606829E+03  0.83572126660E+03  0.89989796079E+02 0.  0.
        -11    1    4    4    0    0 -0.61129129382E+02  0.99353857331E+02 -0.14697445968E+03  0.18764181629E+03  0.00000000000E+00 0.  1.
         11    1    4    4    0    0 -0.11201973541E+03  0.23828448376E+03 -0.59218160861E+03  0.64807945030E+03  0.00000000000E+00 0. -1.
        -13    1    3    3    0    0  0.15476542956E+03 -0.15745101312E+03 -0.20680677457E+03  0.30250983741E+03  0.00000000000E+00 0.  1.
         13    1    3    3    0    0  0.90987270207E+02 -0.19192367674E+03 -0.12737273834E+03  0.24766347229E+03  0.00000000000E+00 0. -1.
          1    1    1    2  501    0 -0.72603834982E+02  0.11736348768E+02 -0.36551199317E+03  0.37283786809E+03  0.00000000000E+00 0. -1.
<scales pt_clust_5="13000.00000" pt_clust_6="13000.00000" pt_clust_7="13000.00000" pt_clust_8="13000.00000" pt_clust_9="73.54630"></scales>
<clustering>
<clus scale="   73.546">  2  9  1 -1</clus>
<clus scale="   89.990">  5  6 -1 -1</clus>
<clus scale="   92.508">  7  8 -1 -1</clus>
<clus scale="  418.895">  2  5  1 -1</clus>
<clus scale="   73.546">  2  5  1 -1</clus>
</clustering>
</event>
<event>
 9    1  0.1504846E-005  0.3785047E+03  0.7546771E-02  0.1051490E+00
          2   -1    0    0  502    0 -0.00000000000E+00  0.00000000000E+00  0.79276923198E+02  0.79276923198E+02  0.00000000000E+00 0.  1.
         21   -1    0    0  501  502  0.00000000000E+00 -0.00000000000E+00 -0.24124793510E+04  0.24124793510E+04  0.00000000000E+00 0.  1.
         23    2    1    2    0    0  0.40219529832E+03  0.70419138085E+02 -0.93259181884E+03  0.10220521878E+04  0.90240019414E+02 0.  0.
         23    2    1    2    0    0 -0.30277488854E+03 -0.10922543164E+03 -0.11426854727E+04  0.11905702077E+04  0.90136018809E+02 0.  0.
        -11    1    3    3    0    0  0.10942763106E+03  0.45528804760E+02 -0.35068369214E+03  0.37017067744E+03  0.00000000000E+00 0. -1.
         11    1    3    3    0    0  0.29276766726E+03  0.24890333325E+02 -0.58190812670E+03  0.65188151040E+03  0.00000000000E+00 0.  1.
        -13    1    4    4    0    0 -0.29543805430E+02  0.55744169485E+01 -0.49424785678E+02  0.57850842716E+02  0.00000000000E+00 0. -1.
         13    1    4    4    0    0 -0.27323108311E+03 -0.11479984859E+03 -0.10932606871E+04  0.11327193650E+04  0.00000000000E+00 0.  1.
          2    1    1    2  501    0 -0.99420409780E+02  0.38806293552E+02 -0.25792513624E+03  0.27913387864E+03  0.00000000000E+00 0.  1.
<scales pt_clust_5="13000.00000" pt_clust_6="13000.00000" pt_clust_7="13000.00000" pt_clust_8="13000.00000" pt_clust_9="106.72562"></scales>
<clustering>
<clus scale="   90.136">  7  8 -1 -1</clus>
<clus scale="   90.240">  5  6 -1 -1</clus>
<clus scale="  106.726">  2  9  1 -1</clus>
<clus scale="  378.480">  2  7  1 -1</clus>
<clus scale="  106.726">  2  5  1 -1</clus>
</clustering>
</event>
<event>
 9    1  0.1504846E-005  0.1715615E+03  0.7546771E-02  0.1176230E+00
         21   -1    0    0  501  502  0.00000000000E+00  0.00000000000E+00  0.36502180846E+03  0.36502180846E+03  0.00000000000E+00 0. -1.
          2   -1    0    0  502    0 -0.00000000000E+00 -0.00000000000E+00 -0.14935092655E+03  0.14935092655E+03  0.00000000000E+00 0. -1.
         23    2    1    2    0    0  0.40726935623E+02  0.12425248703E+03 -0.15546824203E+01  0.15994072223E+03  0.92093722760E+02 0.  0.
         23    2    1    2    0    0 -0.48145072227E+01 -0.18646916897E+03  0.15551844423E+03  0.25973044627E+03  0.92086849057E+02 0.  0.
        -11    1    4    4    0    0  0.19735426829E+02 -0.10426488189E+03  0.34889172604E+02  0.11170455243E+03  0.00000000000E+00 0.  1.
         11    1    4    4    0    0 -0.24549934051E+02 -0.82204287082E+02  0.12062927162E+03  0.14802589385E+03  0.00000000000E+00 0. -1.
        -13    1    3    3    0    0 -0.12419241246E+02  0.97409974294E+02 -0.13773359617E+02  0.99159699879E+02  0.00000000000E+00 0. -1.
         13    1    3    3    0    0  0.53146176869E+02  0.26842512740E+02  0.12218677196E+02  0.60781022354E+02  0.00000000000E+00 0.  1.
          2    1    1    2  501    0 -0.35912428400E+02  0.62216681941E+02  0.61707120108E+02  0.94701566499E+02  0.00000000000E+00 0. -1.
<scales pt_clust_5="13000.00000" pt_clust_6="13000.00000" pt_clust_7="13000.00000" pt_clust_8="13000.00000" pt_clust_9="71.83744"></scales>
<clustering>
<clus scale="   71.837">  1  9  2 -1</clus>
<clus scale="   92.087">  5  6 -1 -1</clus>
<clus scale="   92.094">  7  8 -1 -1</clus>
<clus scale="  171.558">  1  5  2 -1</clus>
<clus scale="   71.837">  1  5  2 -1</clus>
</clustering>
</event>
<event>
 9    1  0.1504846E-005  0.1120584E+03  0.7546771E-02  0.1256948E+00
          1   -1    0    0  502    0 -0.00000000000E+00  0.00000000000E+00  0.25569856418E+03  0.25569856418E+03  0.00000000000E+00 0. -1.
         21   -1    0    0  501  502  0.00000000000E+00 -0.00000000000E+00 -0.10908465927E+03  0.10908465927E+03  0.00000000000E+00 0.  1.
         23    2    1    2    0    0 -0.61738817828E+02  0.69929495516E+01  0.15144704613E+03  0.18725673387E+03  0.90930157962E+02 0.  0.
         23    2    1    2    0    0  0.66854558025E+02 -0.55674898603E+02 -0.16504153205E+02  0.12720437236E+03  0.91319981441E+02 0.  0.
        -11    1    3    3    0    0  0.12461043168E+02 -0.25687021610E+02  0.31912031857E+02  0.42819136531E+02  0.00000000000E+00 0.  1.
         11    1    3    3    0    0 -0.74199860997E+02  0.32679971162E+02  0.11953501427E+03  0.14443759734E+03  0.00000000000E+00 0. -1.
        -13    1    4    4    0    0  0.82712588603E+02 -0.36246060998E+02 -0.34141684923E+02  0.96544310556E+02  0.00000000000E+00 0.  1.
         13    1    4    4    0    0 -0.15858030578E+02 -0.19428837605E+02  0.17637531719E+02  0.30660061801E+02  0.00000000000E+00 0. -1.
          1    1    1    2  501    0 -0.51157401966E+01  0.48681949052E+02  0.11671011992E+02  0.50322117226E+02  0.00000000000E+00 0. -1.
<scales pt_clust_5="13000.00000" pt_clust_6="13000.00000" pt_clust_7="13000.00000" pt_clust_8="13000.00000" pt_clust_9="48.95000"></scales>
<clustering>
<clus scale="   48.950">  2  9  1 -1</clus>
<clus scale="   90.930">  5  6 -1 -1</clus>
<clus scale="   91.320">  7  8 -1 -1</clus>
<clus scale="  111.741">  1  5  2 -1</clus>
<clus scale="   48.950">  2  5  1 -1</clus>
</clustering>
</event>
<event>
 9    1  0.1504846E-005  0.9691795E+02  0.7546771E-02  0.1287027E+00
         -1   -1    0    0    0  501 -0.00000000000E+00  0.00000000000E+00  0.15060841270E+03  0.15060841270E+03  0.00000000000E+00 0.  1.
         21   -1    0    0  501  502  0.00000000000E+00 -0.00000000000E+00 -0.12463220419E+03  0.12463220419E+03  0.00000000000E+00 0. -1.
         23    2    1    2    0    0 -0.17463025157E+02 -0.21729714804E+02  0.84409532539E+02  0.12739968114E+03  0.91261009295E+02 0.  0.
         23    2    1    2    0    0  0.48048571160E+02  0.19314296868E+02 -0.44915108214E+02  0.11431405061E+03  0.91480205333E+02 0.  0.
        -11    1    3    3    0    0 -0.17814216054E+02 -0.44793317599E+02  0.96493145058E+01  0.49161945299E+02  0.00000000000E+00 0. -1.
         11    1    3    3    0    0  0.35119089737E+00  0.23063602795E+02  0.74760218033E+02  0.78237735839E+02  0.00000000000E+00 0.  1.
        -13    1    4    4    0    0 -0.23241878640E+02  0.93373110724E+01 -0.32873882822E+02  0.41328712448E+02  0.00000000000E+00 0. -1.
         13    1    4    4    0    0  0.71290449800E+02  0.99769857961E+01 -0.12041225392E+02  0.72985338166E+02  0.00000000000E+00 0.  1.
         -1    1    1    2    0  502 -0.30585546003E+02  0.24154179358E+01 -0.13518215809E+02  0.33526885134E+02  0.00000000000E+00 0.  1.
<scales pt_clust_5="13000.00000" pt_clust_6="13000.00000" pt_clust_7="13000.00000" pt_clust_8="13000.00000" pt_clust_9="30.68077"></scales>
<clustering>
<clus scale="   30.681">  2  9  1 -1</clus>
<clus scale="   91.261">  5  6 -1 -1</clus>
<clus scale="   91.480">  7  8 -1 -1</clus>
<clus scale="   96.711">  1  5  2 -1</clus>
<clus scale="   30.681">  2  5  1 -1</clus>
</clustering>
</event>
<event>
 9    1  0.1504846E-005  0.9557045E+02  0.7546771E-02  0.1291803E+00
         -3   -1    0    0    0  501 -0.00000000000E+00  0.00000000000E+00  0.83320247655E+02  0.83320247655E+02  0.00000000000E+00 0.  1.
         21   -1    0    0  501  502  0.00000000000E+00 -0.00000000000E+00 -0.18290930403E+03  0.18290930403E+03  0.00000000000E+00 0. -1.
         23    2    1    2    0    0  0.31560741116E+02 -0.34838892412E+02 -0.37781145951E+02  0.10599309727E+03  0.87162451060E+02 0.  0.
         23    2    1    2    0    0 -0.13410051249E+02 -0.29055287101E+01 -0.72604057926E+02  0.11698549293E+03  0.90697214718E+02 0.  0.
        -13    1    4    4    0    0  0.13968237650E+02  0.30732097795E+02 -0.16153359954E+01  0.33796195175E+02  0.00000000000E+00 0.  1.
         13    1    4    4    0    0 -0.27378288898E+02 -0.33637626505E+02 -0.70988721931E+02  0.83189297757E+02  0.00000000000E+00 0. -1.
        -13    1    3    3    0    0  0.20255869563E+01 -0.56342203099E+02 -0.40409639952E+02  0.69364874783E+02  0.00000000000E+00 0. -1.
         13    1    3    3    0    0  0.29535154159E+02  0.21503310687E+02  0.26284940010E+01  0.36628222485E+02  0.00000000000E+00 0.  1.
         -3    1    1    2    0  502 -0.18150689867E+02  0.37744421122E+02  0.10796147501E+02  0.43250961485E+02  0.00000000000E+00 0.  1.
<scales pt_clust_5="13000.00000" pt_clust_6="13000.00000" pt_clust_7="13000.00000" pt_clust_8="13000.00000" pt_clust_9="41.88187"></scales>
<clustering>
<clus scale="   41.882">  2  9  1 -1</clus>
<clus scale="   87.162">  7  8 -1 -1</clus>
<clus scale="   90.697">  5  6 -1 -1</clus>
<clus scale="   92.223">  1  7  2 -1</clus>
<clus scale="   41.882">  2  5  1 -1</clus>
</clustering>
</event>
<event>
 9    1  0.1504846E-005  0.1012581E+03  0.7546771E-02  0.1282788E+00
         21   -1    0    0  501  502  0.00000000000E+00  0.00000000000E+00  0.48267693628E+02  0.48267693628E+02  0.00000000000E+00 0.  1.
          2   -1    0    0  502    0 -0.00000000000E+00 -0.00000000000E+00 -0.24705421789E+03  0.24705421789E+03  0.00000000000E+00 0. -1.
         23    2    1    2    0    0  0.12153016036E+02 -0.86776426837E+01 -0.93065775247E+02  0.13065297501E+03  0.90476317752E+02 0.  0.
         23    2    1    2    0    0  0.35212106492E+01  0.23569407693E+02 -0.75651460602E+02  0.12763370797E+03  0.99996520022E+02 0.  0.
        -11    1    4    4    0    0 -0.34390309016E+02 -0.12153502005E+02 -0.85345249668E+00  0.36484645351E+02  0.00000000000E+00 0. -1.
         11    1    4    4    0    0  0.37911519665E+02  0.35722909698E+02 -0.74798008105E+02  0.91149062623E+02  0.00000000000E+00 0.  1.
        -13    1    3    3    0    0  0.20495372676E+02 -0.43791174879E+02 -0.77506721944E+02  0.91351076868E+02  0.00000000000E+00 0.  1.
         13    1    3    3    0    0 -0.83423566399E+01  0.35113532195E+02 -0.15559053303E+02  0.39301898137E+02  0.00000000000E+00 0. -1.
          2    1    1    2  501    0 -0.15674226686E+02 -0.14891765009E+02 -0.30069288413E+02  0.37035228539E+02  0.00000000000E+00 0. -1.
<scales pt_clust_5="13000.00000" pt_clust_6="13000.00000" pt_clust_7="13000.00000" pt_clust_8="13000.00000" pt_clust_9="21.62051"></scales>
<clustering>
<clus scale="   21.621">  1  9  2 -1</clus>
<clus scale="   90.476">  7  8 -1 -1</clus>
<clus scale="   91.869">  2  7  1 -1</clus>
<clus scale="   99.997">  5  6 -1 -1</clus>
<clus scale="   21.621">  1  5  2 -1</clus>
</clustering>
</event>
<event>
 9    1  0.1504846E-005  0.3103082E+03  0.7546771E-02  0.1116545E+00
         21   -1    0    0  501  502  0.00000000000E+00  0.00000000000E+00  0.65660180049E+03  0.65660180049E+03  0.00000000000E+00 0. -1.
          1   -1    0    0  502    0 -0.00000000000E+00 -0.00000000000E+00 -0.26614234662E+03  0.26614234662E+03  0.00000000000E+00 0. -1.
         23    2    1    2    0    0 -0.75405539068E+02  0.60725727873E+01 -0.41710728273E+02  0.12748000128E+03  0.93746970140E+02 0.  0.
         23    2    1    2    0    0  0.32795156294E+03 -0.11689759932E+03  0.12172016420E+03  0.38000411367E+03  0.91487986469E+02 0.  0.
        -11    1    3    3    0    0 -0.40005568946E+02  0.44693763808E+02 -0.44999885975E+02  0.74986450828E+02  0.00000000000E+00 0.  1.
         11    1    3    3    0    0 -0.35399970122E+02 -0.38621191021E+02  0.32891577020E+01  0.52493550450E+02  0.00000000000E+00 0. -1.
        -13    1    4    4    0    0  0.11681621897E+02 -0.28881526744E+02  0.16568868421E+02  0.35286403585E+02  0.00000000000E+00 0.  1.
         13    1    4    4    0    0  0.31626994104E+03 -0.88016072576E+02  0.10515129578E+03  0.34471771008E+03  0.00000000000E+00 0. -1.
          1    1    1    2  501    0 -0.25254602387E+03  0.11082502653E+03  0.31045001794E+03  0.41526003217E+03  0.00000000000E+00 0. -1.
<scales pt_clust_5="13000.00000" pt_clust_6="13000.00000" pt_clust_7="13000.00000" pt_clust_8="13000.00000" pt_clust_9="296.51493"></scales>
<clustering>
<clus scale="   91.488">  7  8 -1 -1</clus>
<clus scale="   93.747">  5  6 -1 -1</clus>
<clus scale="  120.463">  2  5  1 -1</clus>
<clus scale="  296.515">  1  9  2 -1</clus>
<clus scale="  296.515">  1  5  2 -1</clus>
</clustering>
</event>
<event>
 9    1  0.1504846E-005  0.1369475E+03  0.7546771E-02  0.1217514E+00
          1   -1    0    0  502    0 -0.00000000000E+00  0.00000000000E+00  0.13296682761E+03  0.13296682761E+03  0.00000000000E+00 0. -1.
         21   -1    0    0  501  502  0.00000000000E+00 -0.00000000000E+00 -0.37064841363E+03  0.37064841363E+03  0.00000000000E+00 0. -1.
         23    2    1    2    0    0 -0.71294778507E+01 -0.10678578428E+03  0.73260926467E+02  0.15794977131E+03  0.90149507670E+02 0.  0.
         23    2    1    2    0    0 -0.97219799713E+00  0.81028573955E+02 -0.22455522245E+03  0.25515671391E+03  0.90074001543E+02 0.  0.
        -11    1    3    3    0    0  0.32692483798E+02 -0.89390775481E+02  0.40084967465E+02  0.10327784784E+03  0.00000000000E+00 0.  1.
         11    1    3    3    0    0 -0.39821961649E+02 -0.17395008798E+02  0.33175959001E+02  0.54671923473E+02  0.00000000000E+00 0. -1.
        -13    1    4    4    0    0 -0.28950153325E+02  0.25017953311E+02 -0.24262584712E+02  0.45306537964E+02  0.00000000000E+00 0. -1.
         13    1    4    4    0    0  0.27977955328E+02  0.56010620644E+02 -0.20029263774E+03  0.20985017594E+03  0.00000000000E+00 0.  1.
          1    1    1    2  501    0  0.81016758478E+01  0.25757210324E+02 -0.86387290034E+02  0.90508756011E+02  0.00000000000E+00 0. -1.
<scales pt_clust_5="13000.00000" pt_clust_6="13000.00000" pt_clust_7="13000.00000" pt_clust_8="13000.00000" pt_clust_9="27.00132"></scales>
<clustering>
<clus scale="   27.001">  2  9  1 -1</clus>
<clus scale="   90.074">  7  8 -1 -1</clus>
<clus scale="   90.150">  5  6 -1 -1</clus>
<clus scale="  136.898">  2  7  1 -1</clus>
<clus scale="   27.001">  2  5  1 -1</clus>
</clustering>
</event>
<event>
 9    1  0.1504846E-005  0.1288863E+03  0.7546771E-02  0.1245769E+00
          1   -1    0    0  502    0 -0.00000000000E+00  0.00000000000E+00  0.15395232587E+03  0.15395232587E+03  0.00000000000E+00 0. -1.
         21   -1    0    0  501  502  0.00000000000E+00 -0.00000000000E+00 -0.32928556098E+03  0.32928556098E+03  0.00000000000E+00 0. -1.
         23    2    1    2    0    0  0.87093966468E-01  0.24751630637E+01  0.65429044225E+02  0.11270698316E+03  0.91737507096E+02 0.  0.
         23    2    1    2    0    0 -0.84393501003E+02  0.36980528989E+02 -0.18591077413E+02  0.12964843263E+03  0.89293143003E+02 0.  0.
        -11    1    3    3    0    0 -0.52010330990E+00  0.34191757296E+02 -0.58455407302E+01  0.34691744276E+02  0.00000000000E+00 0. -1.
         11    1    3    3    0    0  0.60719727637E+00 -0.31716594233E+02  0.71274584956E+02  0.78015238889E+02  0.00000000000E+00 0.  1.
        -11    1    4    4    0    0 -0.61019485510E+02  0.66764001946E+02 -0.13265335132E+02  0.91415418196E+02  0.00000000000E+00 0. -1.
         11    1    4    4    0    0 -0.23374015493E+02 -0.29783472957E+02 -0.53257422802E+01  0.38233014431E+02  0.00000000000E+00 0.  1.
          1    1    1    2  501    0  0.84306407036E+02 -0.39455692053E+02 -0.22217120191E+03  0.24088247106E+03  0.00000000000E+00 0. -1.
<scales pt_clust_5="13000.00000" pt_clust_6="13000.00000" pt_clust_7="13000.00000" pt_clust_8="13000.00000" pt_clust_9="92.94301"></scales>
<clustering>
<clus scale="   89.293">  7  8 -1 -1</clus>
<clus scale="   91.738">  5  6 -1 -1</clus>
<clus scale="   91.771">  1  5  2 -1</clus>
<clus scale="   92.943">  2  9  1 -1</clus>
<clus scale="   92.943">  2  5  1 -1</clus>
</clustering>
</event>
<event>
 9    1  0.1504846E-005  0.1259385E+03  0.7546771E-02  0.1233744E+00
         -2   -1    0    0    0  501 -0.00000000000E+00  0.00000000000E+00  0.76687131530E+02  0.76687131530E+02  0.00000000000E+00 0.  1.
         21   -1    0    0  501  502  0.00000000000E+00 -0.00000000000E+00 -0.54607298121E+03  0.54607298121E+03  0.00000000000E+00 0. -1.
         23    2    1    2    0    0 -0.71533141237E+02 -0.27626097532E+02 -0.15652656711E+02  0.12110014262E+03  0.92412376443E+02 0.  0.
         23    2    1    2    0    0  0.10735676581E+03  0.55705788944E+02 -0.24706743475E+03  0.29004112227E+03  0.91939791195E+02 0.  0.
        -11    1    3    3    0    0 -0.18419711256E+02 -0.44724797795E+02 -0.37473722890E+02  0.61187198071E+02  0.00000000000E+00 0. -1.
         11    1    3    3    0    0 -0.53113429982E+02  0.17098700262E+02  0.21821066179E+02  0.59912944547E+02  0.00000000000E+00 0.  1.
        -13    1    4    4    0    0 -0.79894324450E+01  0.27846825218E+02 -0.25035082874E+02  0.38288798363E+02  0.00000000000E+00 0.  1.
         13    1    4    4    0    0  0.11534619826E+03  0.27858963725E+02 -0.22203235188E+03  0.25175232391E+03  0.00000000000E+00 0. -1.
         -2    1    1    2    0  502 -0.35823624573E+02 -0.28079691411E+02 -0.20666575821E+03  0.21161884785E+03  0.00000000000E+00 0.  1.
<scales pt_clust_5="13000.00000" pt_clust_6="13000.00000" pt_clust_7="13000.00000" pt_clust_8="13000.00000" pt_clust_9="45.51704"></scales>
<clustering>
<clus scale="   45.517">  2  9  1 -1</clus>
<clus scale="   91.940">  7  8 -1 -1</clus>
<clus scale="   92.412">  5  6 -1 -1</clus>
<clus scale="  125.592">  2  7  1 -1</clus>
<clus scale="   45.517">  2  5  1 -1</clus>
</clustering>
</event>
<event>
 9    1  0.1504846E-005  0.1169488E+03  0.7546771E-02  0.1249055E+00
          1   -1    0    0  502    0 -0.00000000000E+00  0.00000000000E+00  0.34784630864E+03  0.34784630864E+03  0.00000000000E+00 0. -1.
         21   -1    0    0  501  502  0.00000000000E+00 -0.00000000000E+00 -0.66369017157E+02  0.66369017157E+02  0.00000000000E+00 0. -1.
         23    2    1    2    0    0 -0.46247510814E+02 -0.64640232232E+02  0.22557086638E+03  0.25545442667E+03  0.89763892888E+02 0.  0.
         23    2    1    2    0    0  0.33038167816E+02  0.46683539805E+02  0.72887176534E+02  0.13073813224E+03  0.92244486539E+02 0.  0.
        -11    1    3    3    0    0 -0.28264466737E+02  0.14887781930E+02  0.10615486181E+03  0.11085747975E+03  0.00000000000E+00 0. -1.
         11    1    3    3    0    0 -0.17983044078E+02 -0.79528014162E+02  0.11941600456E+03  0.14459694691E+03  0.00000000000E+00 0.  1.
        -13    1    4    4    0    0 -0.21799083494E+02  0.40670014971E+01  0.54584493122E+02  0.58916953686E+02  0.00000000000E+00 0.  1.
         13    1    4    4    0    0  0.54837251310E+02  0.42616538308E+02  0.18302683412E+02  0.71821178552E+02  0.00000000000E+00 0. -1.
          1    1    1    2  501    0  0.13209342998E+02  0.17956692427E+02 -0.16980751426E+02  0.28022766893E+02  0.00000000000E+00 0. -1.
<scales pt_clust_5="13000.00000" pt_clust_6="13000.00000" pt_clust_7="13000.00000" pt_clust_8="13000.00000" pt_clust_9="22.29192"></scales>
<clustering>
<clus scale="   22.292">  2  9  1 -1</clus>
<clus scale="   89.764">  5  6 -1 -1</clus>
<clus scale="   92.244">  7  8 -1 -1</clus>
<clus scale="  115.002">  1  5  2 -1</clus>
<clus scale="   22.292">  2  5  1 -1</clus>
</clustering>
</event>
<event>
 9    1  0.1504846E-005  0.9839519E+02  0.7546771E-02  0.1285101E+00
         -1   -1    0    0    0  501 -0.00000000000E+00  0.00000000000E+00  0.42856853833E+03  0.42856853833E+03  0.00000000000E+00 0.  1.
         21   -1    0    0  501  502  0.00000000000E+00 -0.00000000000E+00 -0.12125201244E+03  0.12125201244E+03  0.00000000000E+00 0.  1.
         23    2    1    2    0    0 -0.38287711371E+02  0.10739416235E+02  0.35102957820E+03  0.36495127136E+03  0.91577190334E+02 0.  0.
         23    2    1    2    0    0  0.12743384782E+02 -0.22030476781E+02  0.36946730034E+02  0.99511203306E+02  0.88823887329E+02 0.  0.
        -13    1    3    3    0    0 -0.40267647850E+02  0.46922853016E+02  0.18666446332E+03  0.19663890628E+03  0.00000000000E+00 0.  1.
         13    1    3    3    0    0  0.19799364798E+01 -0.36183436782E+02  0.16436511489E+03  0.16831236507E+03  0.00000000000E+00 0. -1.
        -13    1    4    4    0    0  0.26709430673E+02 -0.48957517724E+02  0.58586014035E+01  0.56076335820E+02  0.00000000000E+00 0.  1.
         13    1    4    4    0    0 -0.13966045891E+02  0.26927040943E+02  0.31088128631E+02  0.43434867486E+02  0.00000000000E+00 0. -1.
         -1    1    1    2    0  502  0.25544326588E+02  0.11291060546E+02 -0.80659782347E+02  0.85358076111E+02  0.00000000000E+00 0.  1.
<scales pt_clust_5="13000.00000" pt_clust_6="13000.00000" pt_clust_7="13000.00000" pt_clust_8="13000.00000" pt_clust_9="27.92849"></scales>
<clustering>
<clus scale="   27.928">  2  9  1 -1</clus>
<clus scale="   88.824">  7  8 -1 -1</clus>
<clus scale="   91.577">  5  6 -1 -1</clus>
<clus scale="   95.838">  2  7  1 -1</clus>
<clus scale="   27.928">  2  5  1 -1</clus>
</clustering>
</event>
<event>
 9    1  0.1504846E-005  0.1435610E+03  0.7546771E-02  0.1208766E+00
         21   -1    0    0  501  502  0.00000000000E+00  0.00000000000E+00  0.27061407983E+03  0.27061407983E+03  0.00000000000E+00 0. -1.
          2   -1    0    0  502    0 -0.00000000000E+00 -0.00000000000E+00 -0.82268576397E+03  0.82268576397E+03  0.00000000000E+00 0. -1.
         23    2    1    2    0    0  0.33075909949E+02  0.10820597487E+03 -0.51470366284E+03  0.53478523973E+03  0.90955171788E+02 0.  0.
         23    2    1    2    0    0 -0.99469309423E+02 -0.70672213592E+02 -0.27194821838E+03  0.31184734724E+03  0.91674583204E+02 0.  0.
        -13    1    4    4    0    0 -0.10614677123E+03 -0.43973703758E+02 -0.16265138280E+03  0.19913888619E+03  0.00000000000E+00 0. -1.
         13    1    4    4    0    0  0.66774618095E+01 -0.26698509834E+02 -0.10929683558E+03  0.11270846105E+03  0.00000000000E+00 0.  1.
        -13    1    3    3    0    0  0.28017351441E+02  0.85540520747E+02 -0.49827165571E+03  0.50633664252E+03  0.00000000000E+00 0. -1.
         13    1    3    3    0    0  0.50585585083E+01  0.22665454127E+02 -0.16432007125E+02  0.28448597209E+02  0.00000000000E+00 0.  1.
          2    1    1    2  501    0  0.66393399474E+02 -0.37533761282E+02  0.23458019708E+03  0.24666725683E+03  0.00000000000E+00 0. -1.
<scales pt_clust_5="13000.00000" pt_clust_6="13000.00000" pt_clust_7="13000.00000" pt_clust_8="13000.00000" pt_clust_9="76.26839"></scales>
<clustering>
<clus scale="   76.268">  1  9  2 -1</clus>
<clus scale="   90.955">  7  8 -1 -1</clus>
<clus scale="   91.675">  5  6 -1 -1</clus>
<clus scale="  143.103">  2  7  1 -1</clus>
<clus scale="   76.268">  1  5  2 -1</clus>
</clustering>
</event>
<event>
 9    1  0.1504846E-005  0.9741791E+02  0.7546771E-02  0.1286307E+00
         21   -1    0    0  501  502  0.00000000000E+00  0.00000000000E+00  0.59549424184E+02  0.59549424184E+02  0.00000000000E+00 0.  1.
          1   -1    0    0  502    0 -0.00000000000E+00 -0.00000000000E+00 -0.34087401247E+03  0.34087401247E+03  0.00000000000E+00 0. -1.
         23    2    1    2    0    0  0.26048702880E+02  0.18089354356E+02 -0.20295340182E+03  0.22453836403E+03  0.90673226195E+02 0.  0.
         23    2    1    2    0    0 -0.17437603672E+02 -0.40772724254E+02 -0.87549117504E+01  0.10216186051E+03  0.91618296195E+02 0.  0.
        -11    1    3    3    0    0  0.74626883724E+01 -0.35752707769E+02 -0.10570273950E+03  0.11183477531E+03  0.00000000000E+00 0.  1.
         11    1    3    3    0    0  0.18586014507E+02  0.53842062125E+02 -0.97250662323E+02  0.11270358872E+03  0.00000000000E+00 0. -1.
        -13    1    4    4    0    0 -0.28473866940E+02 -0.67229082536E+02 -0.41482377148E+01  0.73128096607E+02  0.00000000000E+00 0.  1.
         13    1    4    4    0    0  0.11036263268E+02  0.26456358283E+02 -0.46066740356E+01  0.29033763900E+02  0.00000000000E+00 0. -1.
          1    1    1    2  501    0 -0.86110992080E+01  0.22683369898E+02 -0.69616274719E+02  0.73723212120E+02  0.00000000000E+00 0. -1.
<scales pt_clust_5="13000.00000" pt_clust_6="13000.00000" pt_clust_7="13000.00000" pt_clust_8="13000.00000" pt_clust_9="24.26287"></scales>
<clustering>
<clus scale="   24.263">  1  9  2 -1</clus>
<clus scale="   90.673">  5  6 -1 -1</clus>
<clus scale="   91.618">  7  8 -1 -1</clus>
<clus scale="   96.530">  2  5  1 -1</clus>
<clus scale="   24.263">  1  5  2 -1</clus>
</clustering>
</event>
<event>
 9    1  0.1504846E-005  0.1248620E+03  0.7546771E-02  0.1235301E+00
          1   -1    0    0  502    0 -0.00000000000E+00  0.00000000000E+00  0.16889921863E+03  0.16889921863E+03  0.00000000000E+00 0. -1.
         21   -1    0    0  501  502  0.00000000000E+00 -0.00000000000E+00 -0.27605161821E+03  0.27605161821E+03  0.00000000000E+00 0.  1.
         23    2    1    2    0    0  0.39203603138E+02  0.75079766388E+02  0.11143330525E+03  0.16672610270E+03  0.90588729889E+02 0.  0.
         23    2    1    2    0    0 -0.67905523952E+02 -0.68760330429E+02 -0.13278112561E+03  0.18752654594E+03  0.90533059637E+02 0.  0.
        -13    1    3    3    0    0  0.66313306955E+02  0.56576140197E+02  0.98277773597E+02  0.13136527358E+03  0.00000000000E+00 0. -1.
         13    1    3    3    0    0 -0.27109703817E+02  0.18503626192E+02  0.13155531656E+02  0.35360829125E+02  0.00000000000E+00 0.  1.
        -13    1    4    4    0    0 -0.52486974567E+02 -0.31051696316E+02 -0.13351233332E+03  0.14678090302E+03  0.00000000000E+00 0.  1.
         13    1    4    4    0    0 -0.15418549384E+02 -0.37708634114E+02  0.73120770440E+00  0.40745642915E+02  0.00000000000E+00 0. -1.
          1    1    1    2  501    0  0.28701920813E+02 -0.63194359588E+01 -0.85804579220E+02  0.90698188209E+02  0.00000000000E+00 0. -1.
<scales pt_clust_5="13000.00000" pt_clust_6="13000.00000" pt_clust_7="13000.00000" pt_clust_8="13000.00000" pt_clust_9="29.38938"></scales>
<clustering>
<clus scale="   29.389">  2  9  1 -1</clus>
<clus scale="   90.533">  7  8 -1 -1</clus>
<clus scale="   90.589">  5  6 -1 -1</clus>
<clus scale="  124.822">  2  7  1 -1</clus>
<clus scale="   29.389">  2  5  1 -1</clus>
</clustering>
</event>
<event>
 9    1  0.1504846E-005  0.9860708E+02  0.7546771E-02  0.1284006E+00
         21   -1    0    0  501  502  0.00000000000E+00  0.00000000000E+00  0.43706666109E+02  0.43706666109E+02  0.00000000000E+00 0. -1.
          2   -1    0    0  502    0 -0.00000000000E+00 -0.00000000000E+00 -0.34406893594E+03  0.34406893594E+03  0.00000000000E+00 0. -1.
         23    2    1    2    0    0  0.57679476635E+01  0.23818243610E+02 -0.15357119660E+03  0.18061303538E+03  0.91849758718E+02 0.  0.
         23    2    1    2    0    0  0.13886813960E+02 -0.51706791069E+02 -0.13505366138E+03  0.17108144182E+03  0.90348948172E+02 0.  0.
        -11    1    4    4    0    0 -0.25178353202E+02 -0.12931218231E+01 -0.88765737295E+02  0.92276637084E+02  0.00000000000E+00 0.  1.
         11    1    4    4    0    0  0.39065167162E+02 -0.50413669246E+02 -0.46287924089E+02  0.78804804731E+02  0.00000000000E+00 0. -1.
        -11    1    3    3    0    0 -0.24765866509E+02 -0.22304501780E+02 -0.28487968534E+02  0.43845219748E+02  0.00000000000E+00 0.  1.
         11    1    3    3    0    0  0.30533814173E+02  0.46122745390E+02 -0.12508322806E+03  0.13676781563E+03  0.00000000000E+00 0. -1.
          2    1    1    2  501    0 -0.19654761624E+02  0.27888547459E+02 -0.11737411852E+02  0.36081124855E+02  0.00000000000E+00 0. -1.
<scales pt_clust_5="13000.00000" pt_clust_6="13000.00000" pt_clust_7="13000.00000" pt_clust_8="13000.00000" pt_clust_9="34.11863"></scales>
<clustering>
<clus scale="   34.119">  1  9  2 -1</clus>
<clus scale="   90.349">  5  6 -1 -1</clus>
<clus scale="   91.850">  7  8 -1 -1</clus>
<clus scale="   97.211">  1  5  2 -1</clus>
<clus scale="   34.119">  1  5  2 -1</clus>
</clustering>
</event>
<event>
 9    1  0.1504846E-005  0.9259044E+02  0.7546771E-02  0.1296730E+00
         21   -1    0    0  501  502  0.00000000000E+00  0.00000000000E+00  0.12688216647E+03  0.12688216647E+03  0.00000000000E+00 0. -1.
          3   -1    0    0  502    0 -0.00000000000E+00 -0.00000000000E+00 -0.15319726703E+03  0.15319726703E+03  0.00000000000E+00 0. -1.
         23    2    1    2    0    0  0.12453944510E+02 -0.46049113191E+01 -0.65476206069E+02  0.11293992294E+03  0.91060346426E+02 0.  0.
         23    2    1    2    0    0  0.45479287695E+01  0.34079709043E+02 -0.19601774060E+02  0.99235877290E+02  0.91002305304E+02 0.  0.
        -13    1    3    3    0    0 -0.33364611216E+02  0.13312141762E+01 -0.72930257588E+00  0.33399121171E+02  0.00000000000E+00 0.  1.
         13    1    3    3    0    0  0.45818555726E+02 -0.59361254953E+01 -0.64746903493E+02  0.79540801773E+02  0.00000000000E+00 0. -1.
        -13    1    4    4    0    0  0.35941338739E+02  0.19763035656E+02  0.20896044303E+02  0.46032619697E+02  0.00000000000E+00 0. -1.
         13    1    4    4    0    0 -0.31393409969E+02  0.14316673387E+02 -0.40497818363E+02  0.53203257593E+02  0.00000000000E+00 0.  1.
          3    1    1    2  501    0 -0.17001873280E+02 -0.29474797724E+02  0.58762879565E+02  0.67903633266E+02  0.00000000000E+00 0. -1.
<scales pt_clust_5="13000.00000" pt_clust_6="13000.00000" pt_clust_7="13000.00000" pt_clust_8="13000.00000" pt_clust_9="34.02686"></scales>
<clustering>
<clus scale="   34.027">  1  9  2 -1</clus>
<clus scale="   91.002">  7  8 -1 -1</clus>
<clus scale="   91.060">  5  6 -1 -1</clus>
<clus scale="   92.533">  1  7  2 -1</clus>
<clus scale="   34.027">  1  5  2 -1</clus>
</clustering>
</event>
<event>
 9    1  0.1504846E-005  0.1215046E+03  0.7546771E-02  0.1240762E+00
          2   -1    0    0  502    0 -0.00000000000E+00  0.00000000000E+00  0.38642607153E+03  0.38642607153E+03  0.00000000000E+00 0. -1.
         21   -1    0    0  501  502  0.00000000000E+00 -0.00000000000E+00 -0.55540880960E+02  0.55540880960E+02  0.00000000000E+00 0.  1.
         23    2    1    2    0    0 -0.57095995766E+02  0.46232253391E+02  0.15078401101E+03  0.19011855439E+03  0.89509065240E+02 0.  0.
         23    2    1    2    0    0  0.94793017095E+02 -0.25039714855E+02  0.14219579546E+03  0.19434181369E+03  0.89086434952E+02 0.  0.
        -11    1    4    4    0    0  0.58459427293E+02 -0.47080966563E+02  0.13002761987E+03  0.15013761681E+03  0.00000000000E+00 0. -1.
         11    1    4    4    0    0  0.36333589802E+02  0.22041251708E+02  0.12168175588E+02  0.44204196881E+02  0.00000000000E+00 0.  1.
        -13    1    3    3    0    0 -0.48991659161E+02  0.65725166561E+00  0.22839921748E+02  0.54058086098E+02  0.00000000000E+00 0. -1.
         13    1    3    3    0    0 -0.81043366051E+01  0.45575001726E+02  0.12794408927E+03  0.13606046829E+03  0.00000000000E+00 0.  1.
          2    1    1    2  501    0 -0.37697021329E+02 -0.21192538536E+02  0.37905384094E+02  0.57506584406E+02  0.00000000000E+00 0. -1.
<scales pt_clust_5="13000.00000" pt_clust_6="13000.00000" pt_clust_7="13000.00000" pt_clust_8="13000.00000" pt_clust_9="43.24568"></scales>
<clustering>
<clus scale="   43.246">  2  9  1 -1</clus>
<clus scale="   89.086">  5  6 -1 -1</clus>
<clus scale="   89.509">  7  8 -1 -1</clus>
<clus scale="  121.194">  2  5  1 -1</clus>
<clus scale="   43.246">  2  5  1 -1</clus>
</clustering>
</event>
<event>
 9    1  0.1504846E-005  0.9806407E+02  0.7546771E-02  0.1284529E+00
         21   -1    0    0  501  502  0.00000000000E+00  0.00000000000E+00  0.50224670120E+03  0.50224670120E+03  0.00000000000E+00 0.  1.
          1   -1    0    0  502    0 -0.00000000000E+00 -0.00000000000E+00 -0.72372978163E+02  0.72372978163E+02  0.00000000000E+00 0. -1.
         23    2    1    2    0    0 -0.26709923551E+02  0.20629982413E+02 -0.26479299107E+02  0.10095196108E+03  0.91384511671E+02 0.  0.
         23    2    1    2    0    0  0.44532222102E+02 -0.29804663987E+02  0.35798902971E+03  0.37328204145E+03  0.91169623625E+02 0.  0.
        -11    1    3    3    0    0 -0.51064210430E+02  0.41132174099E+02 -0.18580361350E+02  0.68151589569E+02  0.00000000000E+00 0. -1.
         11    1    3    3    0    0  0.24354286879E+02 -0.20502191686E+02 -0.78989377569E+01  0.32800371507E+02  0.00000000000E+00 0.  1.
        -13    1    4    4    0    0  0.68423333538E+02 -0.33743741707E+02  0.31329664034E+03  0.32245182203E+03  0.00000000000E+00 0.  1.
         13    1    4    4    0    0 -0.23891111437E+02  0.39390777199E+01  0.44692389366E+02  0.50830219419E+02  0.00000000000E+00 0. -1.
          1    1    1    2  501    0 -0.17822298551E+02  0.91746815736E+01  0.98363992436E+02  0.10038567684E+03  0.00000000000E+00 0. -1.
<scales pt_clust_5="13000.00000" pt_clust_6="13000.00000" pt_clust_7="13000.00000" pt_clust_8="13000.00000" pt_clust_9="20.04518"></scales>
<clustering>
<clus scale="   20.045">  1  9  2 -1</clus>
<clus scale="   91.170">  7  8 -1 -1</clus>
<clus scale="   91.385">  5  6 -1 -1</clus>
<clus scale="   97.864">  1  7  2 -1</clus>
<clus scale="   20.045">  1  5  2 -1</clus>
</clustering>
</event>
<event>
 9    1  0.1504846E-005  0.1121928E+03  0.7546771E-02  0.1267271E+00
          2   -1    0    0  502    0 -0.00000000000E+00  0.00000000000E+00  0.55529266501E+03  0.55529266501E+03  0.00000000000E+00 0. -1.
         21   -1    0    0  501  502  0.00000000000E+00 -0.00000000000E+00 -0.67197802036E+02  0.67197802036E+02  0.00000000000E+00 0.  1.
         23    2    1    2    0    0  0.58330661012E+01 -0.93409910694E+01  0.31934493972E+03  0.33810425754E+03  0.11050800725E+03 0.  0.
         23    2    1    2    0    0 -0.69187052027E+02  0.23036311348E+02  0.13005692447E+02  0.11569253814E+03  0.88871230082E+02 0.  0.
        -13    1    3    3    0    0  0.56911225409E+02 -0.16284442482E+02  0.18327472318E+03  0.19259723467E+03  0.00000000000E+00 0. -1.
         13    1    3    3    0    0 -0.51078159308E+02  0.69434514129E+01  0.13607021654E+03  0.14550702287E+03  0.00000000000E+00 0.  1.
        -13    1    4    4    0    0 -0.44361259090E+02  0.29337865026E+00  0.49208814594E+02  0.66253413594E+02  0.00000000000E+00 0. -1.
         13    1    4    4    0    0 -0.24825792937E+02  0.22742932697E+02 -0.36203122146E+02  0.49439124545E+02  0.00000000000E+00 0.  1.
          2    1    1    2  501    0  0.63353985926E+02 -0.13695320278E+02  0.15574423081E+03  0.16869367137E+03  0.00000000000E+00 0. -1.
<scales pt_clust_5="13000.00000" pt_clust_6="13000.00000" pt_clust_7="13000.00000" pt_clust_8="13000.00000" pt_clust_9="64.81739"></scales>
<clustering>
<clus scale="   64.817">  2  9  1 -1</clus>
<clus scale="   88.871">  7  8 -1 -1</clus>
<clus scale="   90.958">  2  7  1 -1</clus>
<clus scale="  110.508">  5  6 -1 -1</clus>
<clus scale="   64.817">  2  5  1 -1</clus>
</clustering>
</event>
<event>
 9    1  0.1504846E-005  0.1000941E+03  0.7546771E-02  0.1280346E+00
         21   -1    0    0  501  502  0.00000000000E+00  0.00000000000E+00  0.92086529878E+02  0.92086529878E+02  0.00000000000E+00 0. -1.
          2   -1    0    0  502    0 -0.00000000000E+00 -0.00000000000E+00 -0.39097852494E+03  0.39097852494E+03  0.00000000000E+00 0. -1.
         23    2    1    2    0    0  0.29736180208E+02  0.18850630778E+02 -0.23317401015E+03  0.25253867586E+03  0.90366349377E+02 0.  0.
         23    2    1    2    0    0 -0.92383332506E+02 -0.22408663643E+02  0.10341375273E+02  0.13192439338E+03  0.90886045105E+02 0.  0.
        -11    1    4    4    0    0  0.15007895478E+01 -0.27752600816E+02  0.24225137963E+02  0.36868910082E+02  0.00000000000E+00 0.  1.
         11    1    4    4    0    0 -0.93884122054E+02  0.53439371732E+01 -0.13883762691E+02  0.95055483297E+02  0.00000000000E+00 0. -1.
        -13    1    3    3    0    0  0.29970075711E+02 -0.25082883320E+02 -0.46393336626E+02  0.60660515634E+02  0.00000000000E+00 0. -1.
         13    1    3    3    0    0 -0.23389550309E+00  0.43933514098E+02 -0.18678067352E+03  0.19187816022E+03  0.00000000000E+00 0.  1.
          2    1    1    2  501    0  0.62647152299E+02  0.35580328647E+01 -0.76059360184E+02  0.98601985581E+02  0.00000000000E+00 0. -1.
<scales pt_clust_5="13000.00000" pt_clust_6="13000.00000" pt_clust_7="13000.00000" pt_clust_8="13000.00000" pt_clust_9="62.74814"></scales>
<clustering>
<clus scale="   62.748">  1  9  2 -1</clus>
<clus scale="   90.366">  7  8 -1 -1</clus>
<clus scale="   90.886">  5  6 -1 -1</clus>
<clus scale="   99.622">  2  7  1 -1</clus>
<clus scale="   62.748">  1  5  2 -1</clus>
</clustering>
</event>
<event>
 9    1  0.1504846E-005  0.1015097E+03  0.7546771E-02  0.1279130E+00
         -1   -1    0    0    0  501 -0.00000000000E+00  0.00000000000E+00  0.29021606109E+03  0.29021606109E+03  0.00000000000E+00 0.  1.
         21   -1    0    0  501  502  0.00000000000E+00 -0.00000000000E+00 -0.60848887323E+02  0.60848887323E+02  0.00000000000E+00 0. -1.
         23    2    1    2    0    0 -0.27658922959E+02 -0.40613215835E+02  0.14256262831E+03  0.17829524244E+03  0.95134857787E+02 0.  0.
         23    2    1    2    0    0 -0.71358296760E+01  0.25897137807E+02  0.94747342111E+02  0.13416496815E+03  0.91113105702E+02 0.  0.
        -11    1    4    4    0    0  0.16617967882E+02 -0.28026068859E+02  0.17421923911E+02  0.36947812181E+02  0.00000000000E+00 0.  1.
         11    1    4    4    0    0 -0.23753797558E+02  0.53923206666E+02  0.77325418201E+02  0.97217155973E+02  0.00000000000E+00 0. -1.
        -11    1    3    3    0    0  0.24406108602E+02 -0.41831835235E+02  0.99718637545E+02  0.11085741856E+03  0.00000000000E+00 0.  1.
         11    1    3    3    0    0 -0.52065031561E+02  0.12186194005E+01  0.42843990763E+02  0.67437823876E+02  0.00000000000E+00 0. -1.
         -1    1    1    2    0  502  0.34794752635E+02  0.14716078027E+02 -0.79427966545E+01  0.38604737820E+02  0.00000000000E+00 0.  1.
<scales pt_clust_5="13000.00000" pt_clust_6="13000.00000" pt_clust_7="13000.00000" pt_clust_8="13000.00000" pt_clust_9="37.77880"></scales>
<clustering>
<clus scale="   37.779">  2  9  1 -1</clus>
<clus scale="   91.113">  5  6 -1 -1</clus>
<clus scale="   95.135">  7  8 -1 -1</clus>
<clus scale="   97.751">  2  5  1 -1</clus>
<clus scale="   37.779">  2  5  1 -1</clus>
</clustering>
</event>
<event>
 9    1  0.1504846E-005  0.1130621E+03  0.7546771E-02  0.1260274E+00
         21   -1    0    0  501  502  0.00000000000E+00  0.00000000000E+00  0.63907665437E+02  0.63907665437E+02  0.00000000000E+00 0. -1.
          1   -1    0    0  502    0 -0.00000000000E+00 -0.00000000000E+00 -0.36325782098E+03  0.36325782098E+03  0.00000000000E+00 0. -1.
         23    2    1    2    0    0  0.33192072446E+02  0.46623681860E+01 -0.23303323431E+03  0.25788819460E+03  0.10525388957E+03 0.  0.
         23    2    1    2    0    0 -0.60478248466E+02  0.12560299359E+02 -0.76496629650E+02  0.13544266248E+03  0.93153640910E+02 0.  0.
        -11    1    3    3    0    0 -0.13412647174E+02  0.43413156992E+02 -0.65409092620E+02  0.79642643738E+02  0.00000000000E+00 0. -1.
         11    1    3    3    0    0  0.46604719620E+02 -0.38750788806E+02 -0.16762414169E+03  0.17824555086E+03  0.00000000000E+00 0.  1.
        -13    1    4    4    0    0 -0.11884787342E+02 -0.39053202642E+02 -0.25806098007E+02  0.48294466568E+02  0.00000000000E+00 0.  1.
         13    1    4    4    0    0 -0.48593461124E+02  0.51613502000E+02 -0.50690531643E+02  0.87148195914E+02  0.00000000000E+00 0. -1.
          1    1    1    2  501    0  0.27286176020E+02 -0.17222667545E+02  0.10179708413E+02  0.33834629340E+02  0.00000000000E+00 0. -1.
<scales pt_clust_5="13000.00000" pt_clust_6="13000.00000" pt_clust_7="13000.00000" pt_clust_8="13000.00000" pt_clust_9="32.26694"></scales>
<clustering>
<clus scale="   32.267">  1  9  2 -1</clus>
<clus scale="   93.154">  7  8 -1 -1</clus>
<clus scale="  101.893">  1  7  2 -1</clus>
<clus scale="  105.254">  5  6 -1 -1</clus>
<clus scale="   32.267">  1  5  2 -1</clus>
</clustering>
</event>
<event>
 9    1  0.1504846E-005  0.1948539E+03  0.7546771E-02  0.1173151E+00
          1   -1    0    0  502    0 -0.00000000000E+00  0.00000000000E+00  0.69088473160E+03  0.69088473160E+03  0.00000000000E+00 0. -1.
         21   -1    0    0  501  502  0.00000000000E+00 -0.00000000000E+00 -0.93417606508E+02  0.93417606508E+02  0.00000000000E+00 0. -1.
         23    2    1    2    0    0  0.62254619296E+02  0.60977788605E+02  0.19499078482E+03  0.23192354694E+03  0.90405736169E+02 0.  0.
         23    2    1    2    0    0 -0.19968901177E+03  0.14438839664E+02  0.20337260315E+03  0.29896573272E+03  0.89083736554E+02 0.  0.
        -13    1    3    3    0    0  0.41144932119E+02 -0.16871335882E+02  0.60235558552E+02  0.74872357567E+02  0.00000000000E+00 0.  1.
         13    1    3    3    0    0  0.21109687177E+02  0.77849124487E+02  0.13475522627E+03  0.15705118937E+03  0.00000000000E+00 0. -1.
        -13    1    4    4    0    0 -0.28832001361E+02 -0.12321617509E+02  0.81707083061E+02  0.87516592614E+02  0.00000000000E+00 0.  1.
         13    1    4    4    0    0 -0.17085701041E+03  0.26760457173E+02  0.12166552008E+03  0.21144914011E+03  0.00000000000E+00 0. -1.
          1    1    1    2  501    0  0.13743439248E+03 -0.75416628269E+02  0.19910373712E+03  0.25341305845E+03  0.00000000000E+00 0. -1.
<scales pt_clust_5="13000.00000" pt_clust_6="13000.00000" pt_clust_7="13000.00000" pt_clust_8="13000.00000" pt_clust_9="173.29789"></scales>
<clustering>
<clus scale="   89.084">  7  8 -1 -1</clus>
<clus scale="   90.406">  5  6 -1 -1</clus>
<clus scale="  125.567">  1  5  2 -1</clus>
<clus scale="  173.298">  2  9  1 -1</clus>
<clus scale="  173.298">  2  5  1 -1</clus>
</clustering>
</event>
<event>
 9    1  0.1504846E-005  0.2167069E+03  0.7546771E-02  0.1137163E+00
          1   -1    0    0  502    0 -0.00000000000E+00  0.00000000000E+00  0.43642906681E+03  0.43642906681E+03  0.00000000000E+00 0. -1.
         21   -1    0    0  501  502  0.00000000000E+00 -0.00000000000E+00 -0.45768310893E+03  0.45768310893E+03  0.00000000000E+00 0. -1.
         23    2    1    2    0    0 -0.13386663961E+03  0.10345248777E+03  0.15059029729E+03  0.24389807195E+03  0.90477275807E+02 0.  0.
         23    2    1    2    0    0  0.19308785244E+03 -0.11525200952E+03  0.17257700138E+03  0.30053933954E+03  0.99875566315E+02 0.  0.
        -13    1    3    3    0    0 -0.10475945406E+03  0.11124837669E+03  0.92956138168E+02  0.17886192483E+03  0.00000000000E+00 0.  1.
         13    1    3    3    0    0 -0.29107185551E+02 -0.77958889185E+01  0.57634159122E+02  0.65036147121E+02  0.00000000000E+00 0. -1.
        -13    1    4    4    0    0  0.62523359956E+02 -0.60916149822E+02  0.12269805139E+03  0.15058140544E+03  0.00000000000E+00 0.  1.
         13    1    4    4    0    0  0.13056449249E+03 -0.54335859695E+02  0.49878949990E+02  0.14995793410E+03  0.00000000000E+00 0. -1.
          1    1    1    2  501    0 -0.59221212830E+02  0.11799521746E+02 -0.34442134079E+03  0.34967476425E+03  0.00000000000E+00 0. -1.
<scales pt_clust_5="13000.00000" pt_clust_6="13000.00000" pt_clust_7="13000.00000" pt_clust_8="13000.00000" pt_clust_9="60.38527"></scales>
<clustering>
<clus scale="   60.385">  2  9  1 -1</clus>
<clus scale="   90.477">  5  6 -1 -1</clus>
<clus scale="   99.876">  7  8 -1 -1</clus>
<clus scale="  212.539">  1  5  2 -1</clus>
<clus scale="   60.385">  2  5  1 -1</clus>
</clustering>
</event>
<event>
 9    1  0.1504846E-005  0.9934666E+02  0.7546771E-02  0.1282094E+00
          2   -1    0    0  502    0 -0.00000000000E+00  0.00000000000E+00  0.11832217641E+03  0.11832217641E+03  0.00000000000E+00 0. -1.
         21   -1    0    0  501  502  0.00000000000E+00 -0.00000000000E+00 -0.22356486784E+03  0.22356486784E+03  0.00000000000E+00 0. -1.
         23    2    1    2    0    0  0.21731034820E+02  0.33855529135E+02 -0.33106113655E+01  0.97687218877E+02  0.88957281079E+02 0.  0.
         23    2    1    2    0    0  0.59999533707E+02 -0.47048821961E+02 -0.67004862620E+01  0.11801343440E+03  0.89826157043E+02 0.  0.
        -11    1    3    3    0    0  0.98352425593E+01  0.61983357117E+02  0.11405280504E+02  0.63786746108E+02  0.00000000000E+00 0. -1.
         11    1    3    3    0    0  0.11895792261E+02 -0.28127827982E+02 -0.14715891869E+02  0.33900472770E+02  0.00000000000E+00 0.  1.
        -13    1    4    4    0    0  0.60457655504E+02 -0.18480070349E+02  0.31240792860E+02  0.70516864988E+02  0.00000000000E+00 0. -1.
         13    1    4    4    0    0 -0.45812179697E+00 -0.28568751613E+02 -0.37941279122E+02  0.47496569410E+02  0.00000000000E+00 0.  1.
          2    1    1    2  501    0 -0.81730568528E+02  0.13193292827E+02 -0.95231593809E+02  0.12618639097E+03  0.00000000000E+00 0. -1.
<scales pt_clust_5="13000.00000" pt_clust_6="13000.00000" pt_clust_7="13000.00000" pt_clust_8="13000.00000" pt_clust_9="82.78858"></scales>
<clustering>
<clus scale="   82.789">  2  9  1 -1</clus>
<clus scale="   88.957">  5  6 -1 -1</clus>
<clus scale="   89.826">  7  8 -1 -1</clus>
<clus scale="   98.562">  1  5  2 -1</clus>
<clus scale="   82.789">  2  5  1 -1</clus>
</clustering>
</event>
<event>
 9    1  0.1504846E-005  0.1006691E+03  0.7546771E-02  0.1282269E+00
          2   -1    0    0  502    0 -0.00000000000E+00  0.00000000000E+00  0.21046837598E+03  0.21046837598E+03  0.00000000000E+00 0. -1.
         21   -1    0    0  501  502  0.00000000000E+00 -0.00000000000E+00 -0.18336485141E+03  0.18336485141E+03  0.00000000000E+00 0. -1.
         23    2    1    2    0    0  0.60904524626E+01  0.29988649748E+02  0.13018527500E+03  0.16427513002E+03  0.95402829050E+02 0.  0.
         23    2    1    2    0    0  0.49429078870E+02 -0.34699850717E+02  0.55014200972E+01  0.10751335684E+03  0.88778053579E+02 0.  0.
        -11    1    4    4    0    0 -0.72527514281E+01 -0.35844471019E+02 -0.23861863348E+02  0.43667116098E+02  0.00000000000E+00 0.  1.
         11    1    4    4    0    0  0.56681830298E+02  0.11446203021E+01  0.29363283445E+02  0.63846240737E+02  0.00000000000E+00 0. -1.
        -13    1    3    3    0    0 -0.17142148375E+02 -0.29280559753E+02  0.28521788192E+02  0.44324900813E+02  0.00000000000E+00 0.  1.
         13    1    3    3    0    0  0.23232600837E+02  0.59269209501E+02  0.10166348681E+03  0.11995022920E+03  0.00000000000E+00 0. -1.
          2    1    1    2  501    0 -0.55519531333E+02  0.47112009694E+01 -0.10858317052E+03  0.12204474055E+03  0.00000000000E+00 0. -1.
<scales pt_clust_5="13000.00000" pt_clust_6="13000.00000" pt_clust_7="13000.00000" pt_clust_8="13000.00000" pt_clust_9="55.71906"></scales>
<clustering>
<clus scale="   55.719">  2  9  1 -1</clus>
<clus scale="   88.778">  5  6 -1 -1</clus>
<clus scale="   94.415">  2  5  1 -1</clus>
<clus scale="   95.403">  7  8 -1 -1</clus>
<clus scale="   55.719">  2  5  1 -1</clus>
</clustering>
</event>
<event>
 9    1  0.1504846E-005  0.9827915E+02  0.7546771E-02  0.1287195E+00
          1   -1    0    0  502    0 -0.00000000000E+00  0.00000000000E+00  0.32176986270E+03  0.32176986270E+03  0.00000000000E+00 0. -1.
         21   -1    0    0  501  502  0.00000000000E+00 -0.00000000000E+00 -0.14108056223E+03  0.14108056223E+03  0.00000000000E+00 0. -1.
         23    2    1    2    0    0 -0.11630760267E+02 -0.15920926517E+02  0.13179686467E+03  0.15844371029E+03  0.85704406588E+02 0.  0.
         23    2    1    2    0    0 -0.38759591412E+02  0.61341943041E+02  0.14522873994E+03  0.18658082709E+03  0.91955849353E+02 0.  0.
        -11    1    3    3    0    0  0.35437953390E+02  0.57104170326E+01  0.59844947775E+02  0.69784490951E+02  0.00000000000E+00 0. -1.
         11    1    3    3    0    0 -0.47068713657E+02 -0.21631343550E+02  0.71951916895E+02  0.88659219340E+02  0.00000000000E+00 0.  1.
        -13    1    4    4    0    0 -0.27385680935E+02  0.11370560837E+02  0.12967659421E+03  0.13302362294E+03  0.00000000000E+00 0. -1.
         13    1    4    4    0    0 -0.11373910477E+02  0.49971382204E+02  0.15552145721E+02  0.53557204142E+02  0.00000000000E+00 0.  1.
          1    1    1    2  501    0  0.50390351679E+02 -0.45421016524E+02 -0.96336304136E+02  0.11782588756E+03  0.00000000000E+00 0. -1.
<scales pt_clust_5="13000.00000" pt_clust_6="13000.00000" pt_clust_7="13000.00000" pt_clust_8="13000.00000" pt_clust_9="67.83993"></scales>
<clustering>
<clus scale="   67.840">  2  9  1 -1</clus>
<clus scale="   85.704">  5  6 -1 -1</clus>
<clus scale="   91.956">  7  8 -1 -1</clus>
<clus scale="   92.456">  1  5  2 -1</clus>
<clus scale="   67.840">  2  5  1 -1</clus>
</clustering>
</event>
<event>
 9    1  0.1504846E-005  0.1127792E+03  0.7546771E-02  0.1257900E+00
         -1   -1    0    0    0  501 -0.00000000000E+00  0.00000000000E+00  0.65512790412E+03  0.65512790412E+03  0.00000000000E+00 0.  1.
         21   -1    0    0  501  502  0.00000000000E+00 -0.00000000000E+00 -0.53338183442E+02  0.53338183442E+02  0.00000000000E+00 0. -1.
         23    2    1    2    0    0  0.60459434836E+02  0.23052357770E+02  0.50703413344E+03  0.51945622717E+03  0.92544070633E+02 0.  0.
         23    2    1    2    0    0 -0.44925340152E+02 -0.54876753860E+02  0.30530139084E+02  0.11566813643E+03  0.86123655807E+02 0.  0.
        -11    1    4    4    0    0  0.11167831507E+02 -0.31235156141E+02  0.42211380608E+02  0.53685715908E+02  0.00000000000E+00 0.  1.
         11    1    4    4    0    0 -0.56093171660E+02 -0.23641597719E+02 -0.11681241525E+02  0.61982420517E+02  0.00000000000E+00 0. -1.
        -11    1    3    3    0    0 -0.22625808972E+02 -0.49592422965E+01  0.70631152682E+02  0.74332234226E+02  0.00000000000E+00 0. -1.
         11    1    3    3    0    0  0.83085243808E+02  0.28011600067E+02  0.43640298076E+03  0.44512399294E+03  0.00000000000E+00 0.  1.
         -1    1    1    2    0  502 -0.15534094684E+02  0.31824396090E+02  0.64225448149E+02  0.73341723964E+02  0.00000000000E+00 0.  1.
<scales pt_clust_5="13000.00000" pt_clust_6="13000.00000" pt_clust_7="13000.00000" pt_clust_8="13000.00000" pt_clust_9="35.41330"></scales>
<clustering>
<clus scale="   35.413">  2  9  1 -1</clus>
<clus scale="   86.124">  5  6 -1 -1</clus>
<clus scale="   92.544">  7  8 -1 -1</clus>
<clus scale="  107.573">  2  5  1 -1</clus>
<clus scale="   35.413">  2  5  1 -1</clus>
</clustering>
</event>
<event>
 9    1  0.1504846E-005  0.1036201E+03  0.7546771E-02  0.1272971E+00
          3   -1    0    0  502    0 -0.00000000000E+00  0.00000000000E+00  0.20081780186E+03  0.20081780186E+03  0.00000000000E+00 0. -1.
         21   -1    0    0  501  502  0.00000000000E+00 -0.00000000000E+00 -0.89824204336E+02  0.89824204336E+02  0.00000000000E+00 0.  1.
         23    2    1    2    0    0  0.13831520821E+02 -0.42605236678E+02  0.86286483516E+02  0.13172205544E+03  0.88875336806E+02 0.  0.
         23    2    1    2    0    0 -0.15460853430E+02  0.63298043969E+02  0.54091433854E+02  0.12294377458E+03  0.89126921486E+02 0.  0.
        -11    1    4    4    0    0  0.26829839919E+02  0.31023809739E+01  0.39647495151E+02  0.47972793848E+02  0.00000000000E+00 0. -1.
         11    1    4    4    0    0 -0.42290693349E+02  0.60195662995E+02  0.14443938703E+02  0.74970980736E+02  0.00000000000E+00 0.  1.
        -13    1    3    3    0    0 -0.31309269870E+02  0.16660162517E+01  0.10590489956E+02  0.33093873563E+02  0.00000000000E+00 0.  1.
         13    1    3    3    0    0  0.45140790690E+02 -0.44271252930E+02  0.75695993561E+02  0.98628181881E+02  0.00000000000E+00 0. -1.
          3    1    1    2  501    0  0.16293326096E+01 -0.20692807291E+02 -0.29384319849E+02  0.35976176163E+02  0.00000000000E+00 0. -1.
<scales pt_clust_5="13000.00000" pt_clust_6="13000.00000" pt_clust_7="13000.00000" pt_clust_8="13000.00000" pt_clust_9="20.75685"></scales>
<clustering>
<clus scale="   20.757">  2  9  1 -1</clus>
<clus scale="   88.875">  7  8 -1 -1</clus>
<clus scale="   89.127">  5  6 -1 -1</clus>
<clus scale="  103.404">  1  7  2 -1</clus>
<clus scale="   20.757">  2  5  1 -1</clus>
</clustering>
</event>
<event>
 9    1  0.1504846E-005  0.9125793E+02  0.7546771E-02  0.1303217E+00
         21   -1    0    0  501  502  0.00000000000E+00  0.00000000000E+00  0.14721651392E+03  0.14721651392E+03  0.00000000000E+00 0. -1.
          1   -1    0    0  502    0 -0.00000000000E+00 -0.00000000000E+00 -0.10926504022E+03  0.10926504022E+03  0.00000000000E+00 0. -1.
         23    2    1    2    0    0  0.77347818173E+01  0.10469103688E+01 -0.54858382171E+02  0.10636558299E+03  0.90792468187E+02 0.  0.
         23    2    1    2    0    0 -0.68804423537E+01  0.25927902001E+02  0.60081684916E+02  0.10769541514E+03  0.85257826570E+02 0.  0.
        -11    1    4    4    0    0  0.36494671606E+02  0.35955033420E+01  0.41774819427E+02  0.55587086972E+02  0.00000000000E+00 0.  1.
         11    1    4    4    0    0 -0.43375113959E+02  0.22332398659E+02  0.18306865489E+02  0.52108328172E+02  0.00000000000E+00 0. -1.
        -11    1    3    3    0    0 -0.20310270098E+02  0.37737337797E+02 -0.37769285494E+02  0.57123836200E+02  0.00000000000E+00 0. -1.
         11    1    3    3    0    0  0.28045051916E+02 -0.36690427428E+02 -0.17089096678E+02  0.49241746792E+02  0.00000000000E+00 0.  1.
          1    1    1    2  501    0 -0.85433946361E+00 -0.26974812369E+02  0.32728170947E+02  0.42420556006E+02  0.00000000000E+00 0. -1.
<scales pt_clust_5="13000.00000" pt_clust_6="13000.00000" pt_clust_7="13000.00000" pt_clust_8="13000.00000" pt_clust_9="26.98834"></scales>
<clustering>
<clus scale="   26.988">  1  9  2 -1</clus>
<clus scale="   85.258">  5  6 -1 -1</clus>
<clus scale="   85.753">  1  5  2 -1</clus>
<clus scale="   90.792">  7  8 -1 -1</clus>
<clus scale="   26.988">  1  5  2 -1</clus>
</clustering>
</event>
<event>
 9    1  0.1504846E-005  0.1166915E+03  0.7546771E-02  0.1248671E+00
         -4   -1    0    0    0  501 -0.00000000000E+00  0.00000000000E+00  0.80562356976E+02  0.80562356976E+02  0.00000000000E+00 0.  1.
         21   -1    0    0  501  502  0.00000000000E+00 -0.00000000000E+00 -0.92375475029E+03  0.92375475029E+03  0.00000000000E+00 0.  1.
         23    2    1    2    0    0  0.37021263891E+02 -0.25378738572E+02 -0.64343621103E+02  0.12045314555E+03  0.91401336674E+02 0.  0.
         23    2    1    2    0    0 -0.11866370411E+03 -0.32763557340E+02 -0.70982520424E+02  0.16893694093E+03  0.91359982724E+02 0.  0.
        -13    1    4    4    0    0 -0.88640137598E+02 -0.59574231973E+02 -0.71774879982E+02  0.12867710171E+03  0.00000000000E+00 0.  1.
         13    1    4    4    0    0 -0.30023566514E+02  0.26810674633E+02  0.79235955799E+00  0.40259839222E+02  0.00000000000E+00 0. -1.
        -13    1    3    3    0    0  0.63750363645E+01  0.30116204508E+02 -0.94688789421E+00  0.30798108047E+02  0.00000000000E+00 0. -1.
         13    1    3    3    0    0  0.30646227526E+02 -0.55494943080E+02 -0.63396733208E+02  0.89655037508E+02  0.00000000000E+00 0.  1.
         -4    1    1    2    0  502  0.81642440221E+02  0.58142295913E+02 -0.70786625179E+03  0.71492702078E+03  0.00000000000E+00 0.  1.
<scales pt_clust_5="13000.00000" pt_clust_6="13000.00000" pt_clust_7="13000.00000" pt_clust_8="13000.00000" pt_clust_9="100.22981"></scales>
<clustering>
<clus scale="   91.360">  5  6 -1 -1</clus>
<clus scale="   91.401">  7  8 -1 -1</clus>
<clus scale="  100.230">  2  9  1 -1</clus>
<clus scale="  116.659">  2  5  1 -1</clus>
<clus scale="  100.230">  2  5  1 -1</clus>
</clustering>
</event>
<event>
 9    1  0.1504846E-005  0.1035870E+03  0.7546771E-02  0.1278235E+00
         21   -1    0    0  501  502  0.00000000000E+00  0.00000000000E+00  0.26358410873E+02  0.26358410873E+02  0.00000000000E+00 0.  1.
          1   -1    0    0  502    0 -0.00000000000E+00 -0.00000000000E+00 -0.50035023544E+03  0.50035023544E+03  0.00000000000E+00 0. -1.
         23    2    1    2    0    0 -0.27456182352E+02  0.18652540190E+02 -0.22692812421E+03  0.24659069059E+03  0.90602626463E+02 0.  0.
         23    2    1    2    0    0  0.20773167325E+01 -0.16003504191E+02 -0.22179255490E+03  0.24420507497E+03  0.10091458684E+03 0.  0.
        -11    1    4    4    0    0  0.20569443814E+02 -0.52667779562E+02 -0.16270656689E+03  0.17225104914E+03  0.00000000000E+00 0. -1.
         11    1    4    4    0    0 -0.18492127081E+02  0.36664275371E+02 -0.59085988016E+02  0.71954025824E+02  0.00000000000E+00 0.  1.
        -13    1    3    3    0    0 -0.45591155642E+02  0.44525232245E+02 -0.16883528674E+03  0.18046164087E+03  0.00000000000E+00 0.  1.
         13    1    3    3    0    0  0.18134973290E+02 -0.25872692054E+02 -0.58092837473E+02  0.66129049714E+02  0.00000000000E+00 0. -1.
          1    1    1    2  501    0  0.25378865620E+02 -0.26490359995E+01 -0.25271145457E+02  0.35912880761E+02  0.00000000000E+00 0. -1.
<scales pt_clust_5="13000.00000" pt_clust_6="13000.00000" pt_clust_7="13000.00000" pt_clust_8="13000.00000" pt_clust_9="25.51674"></scales>
<clustering>
<clus scale="   25.517">  1  9  2 -1</clus>
<clus scale="   90.603">  7  8 -1 -1</clus>
<clus scale="   93.570">  2  7  1 -1</clus>
<clus scale="  100.915">  5  6 -1 -1</clus>
<clus scale="   25.517">  1  5  2 -1</clus>
</clustering>
</event>
<event>
 9    1  0.1504846E-005  0.1162605E+03  0.7546771E-02  0.1250261E+00
         21   -1    0    0  501  502  0.00000000000E+00  0.00000000000E+00  0.24071104664E+03  0.24071104664E+03  0.00000000000E+00 0. -1.
          1   -1    0    0  502    0 -0.00000000000E+00 -0.00000000000E+00 -0.22598924180E+03  0.22598924180E+03  0.00000000000E+00 0. -1.
         23    2    1    2    0    0 -0.23688715007E+02 -0.68615702751E+02 -0.16508967414E+03  0.20135083263E+03  0.89544890469E+02 0.  0.
         23    2    1    2    0    0 -0.14590220083E+02  0.70419307092E+02  0.44996091703E+02  0.12519340526E+03  0.92070555107E+02 0.  0.
        -11    1    4    4    0    0  0.39100518011E+01 -0.20572382425E+02 -0.21603074793E+01  0.21051801636E+02  0.00000000000E+00 0.  1.
         11    1    4    4    0    0 -0.18500271885E+02  0.90991689516E+02  0.47156399182E+02  0.10414160362E+03  0.00000000000E+00 0. -1.
        -11    1    3    3    0    0 -0.45110241296E+02 -0.32745070244E+02 -0.14428322659E+03  0.15467651073E+03  0.00000000000E+00 0. -1.
         11    1    3    3    0    0  0.21421526289E+02 -0.35870632507E+02 -0.20806447544E+02  0.46674321896E+02  0.00000000000E+00 0.  1.
          1    1    1    2  501    0  0.38278935090E+02 -0.18036043407E+01  0.13481538728E+03  0.14015605055E+03  0.00000000000E+00 0. -1.
<scales pt_clust_5="13000.00000" pt_clust_6="13000.00000" pt_clust_7="13000.00000" pt_clust_8="13000.00000" pt_clust_9="38.32140"></scales>
<clustering>
<clus scale="   38.321">  1  9  2 -1</clus>
<clus scale="   89.545">  7  8 -1 -1</clus>
<clus scale="   92.071">  5  6 -1 -1</clus>
<clus scale="  114.271">  2  7  1 -1</clus>
<clus scale="   38.321">  1  5  2 -1</clus>
</clustering>
</event>
<event>
 9    1  0.1504846E-005  0.1249746E+03  0.7546771E-02  0.1235694E+00
          1   -1    0    0  502    0 -0.00000000000E+00  0.00000000000E+00  0.39117271010E+03  0.39117271010E+03  0.00000000000E+00 0. -1.
         21   -1    0    0  501  502  0.00000000000E+00 -0.00000000000E+00 -0.96224009472E+02  0.96224009472E+02  0.00000000000E+00 0. -1.
         23    2    1    2    0    0 -0.10095933344E+03  0.13618640283E+02  0.24753099888E+03  0.28291302902E+03  0.91596573146E+02 0.  0.
         23    2    1    2    0    0  0.55241578979E+02  0.14369671366E+02  0.85252711047E+02  0.13887159875E+03  0.93590473311E+02 0.  0.
        -11    1    3    3    0    0 -0.23328711721E+02  0.45959009344E+02  0.75342193589E+02  0.91284749358E+02  0.00000000000E+00 0. -1.
         11    1    3    3    0    0 -0.77630621724E+02 -0.32340369061E+02  0.17218880529E+03  0.19162827966E+03  0.00000000000E+00 0.  1.
        -13    1    4    4    0    0  0.63495072815E+02  0.45039101683E+02  0.61617847471E+02  0.99281942362E+02  0.00000000000E+00 0. -1.
         13    1    4    4    0    0 -0.82534938362E+01 -0.30669430317E+02  0.23634863577E+02  0.39589656386E+02  0.00000000000E+00 0.  1.
          1    1    1    2  501    0  0.45717754465E+02 -0.27988311649E+02 -0.37835009297E+02  0.65612091803E+02  0.00000000000E+00 0. -1.
<scales pt_clust_5="13000.00000" pt_clust_6="13000.00000" pt_clust_7="13000.00000" pt_clust_8="13000.00000" pt_clust_9="53.60465"></scales>
<clustering>
<clus scale="   53.605">  2  9  1 -1</clus>
<clus scale="   91.597">  5  6 -1 -1</clus>
<clus scale="   93.590">  7  8 -1 -1</clus>
<clus scale="  123.488">  1  5  2 -1</clus>
<clus scale="   53.605">  2  5  1 -1</clus>
</clustering>
</event>
<event>
 9    1  0.1504846E-005  0.1024313E+03  0.7546771E-02  0.1277026E+00
         21   -1    0    0  501  502  0.00000000000E+00  0.00000000000E+00  0.29598686405E+03  0.29598686405E+03  0.00000000000E+00 0. -1.
          1   -1    0    0  502    0 -0.00000000000E+00 -0.00000000000E+00 -0.57866936501E+02  0.57866936501E+02  0.00000000000E+00 0. -1.
         23    2    1    2    0    0  0.41303314461E+01 -0.50599228111E+02  0.51212357481E+02  0.11724976729E+03  0.92452478854E+02 0.  0.
         23    2    1    2    0    0  0.34743573657E+02  0.29021795767E+02  0.14185231402E+03  0.17330520087E+03  0.88674873089E+02 0.  0.
        -11    1    4    4    0    0  0.26356210327E+02  0.57013598478E+02  0.61925288905E+02  0.88203977462E+02  0.00000000000E+00 0. -1.
         11    1    4    4    0    0  0.83873633296E+01 -0.27991802711E+02  0.79927025111E+02  0.85101223409E+02  0.00000000000E+00 0.  1.
        -13    1    3    3    0    0 -0.18990963067E+02  0.16207198223E+02 -0.67146537297E+01  0.25853752671E+02  0.00000000000E+00 0.  1.
         13    1    3    3    0    0  0.23121294513E+02 -0.66806426334E+02  0.57927011211E+02  0.91396014614E+02  0.00000000000E+00 0. -1.
          1    1    1    2  501    0 -0.38873905103E+02  0.21577432345E+02  0.45055256049E+02  0.63298832392E+02  0.00000000000E+00 0. -1.
<scales pt_clust_5="13000.00000" pt_clust_6="13000.00000" pt_clust_7="13000.00000" pt_clust_8="13000.00000" pt_clust_9="44.46084"></scales>
<clustering>
<clus scale="   44.461">  1  9  2 -1</clus>
<clus scale="   88.675">  5  6 -1 -1</clus>
<clus scale="   92.452">  7  8 -1 -1</clus>
<clus scale="   99.035">  1  5  2 -1</clus>
<clus scale="   44.461">  1  5  2 -1</clus>
</clustering>
</event>
<event>
 9    1  0.1504846E-005  0.9569611E+02  0.7546771E-02  0.1291656E+00
         21   -1    0    0  501  502  0.00000000000E+00  0.00000000000E+00  0.67624355177E+02  0.67624355177E+02  0.00000000000E+00 0.  1.
          1   -1    0    0  502    0 -0.00000000000E+00 -0.00000000000E+00 -0.16527237192E+03  0.16527237192E+03  0.00000000000E+00 0. -1.
         23    2    1    2    0    0 -0.15987826045E+02  0.22559843765E+02 -0.46294586349E+02  0.10539569625E+03  0.90556650394E+02 0.  0.
         23    2    1    2    0    0  0.19494598151E+01 -0.52545199470E+01 -0.40033215203E+02  0.10250708696E+03  0.94199969136E+02 0.  0.
        -11    1    4    4    0    0 -0.46061163884E+02 -0.16155409710E+01 -0.22255987636E+02  0.51181732841E+02  0.00000000000E+00 0. -1.
         11    1    4    4    0    0  0.48010623699E+02 -0.36389789760E+01 -0.17777227567E+02  0.51325354124E+02  0.00000000000E+00 0.  1.
        -11    1    3    3    0    0 -0.54708592047E+01  0.54966436138E+02 -0.10967685323E+02  0.56316334429E+02  0.00000000000E+00 0.  1.
         11    1    3    3    0    0 -0.10516966840E+02 -0.32406592373E+02 -0.35326901026E+02  0.49079361822E+02  0.00000000000E+00 0. -1.
          1    1    1    2  501    0  0.14038366230E+02 -0.17305323818E+02 -0.11320215194E+02  0.24993943884E+02  0.00000000000E+00 0. -1.
<scales pt_clust_5="13000.00000" pt_clust_6="13000.00000" pt_clust_7="13000.00000" pt_clust_8="13000.00000" pt_clust_9="22.28341"></scales>
<clustering>
<clus scale="   22.283">  1  9  2 -1</clus>
<clus scale="   90.557">  7  8 -1 -1</clus>
<clus scale="   92.112">  2  7  1 -1</clus>
<clus scale="   94.200">  5  6 -1 -1</clus>
<clus scale="   22.283">  1  5  2 -1</clus>
</clustering>
</event>
<event>
 9    1  0.1504846E-005  0.1065907E+03  0.7546771E-02  0.1267213E+00
         21   -1    0    0  501  502  0.00000000000E+00  0.00000000000E+00  0.38412215762E+03  0.38412215762E+03  0.00000000000E+00 0.  1.
          2   -1    0    0  502    0 -0.00000000000E+00 -0.00000000000E+00 -0.52788790482E+02  0.52788790482E+02  0.00000000000E+00 0. -1.
         23    2    1    2    0    0 -0.36853173935E+02  0.32445021767E+02  0.47823263444E+02  0.11374575901E+03  0.90775532496E+02 0.  0.
         23    2    1    2    0    0  0.53628062655E+02 -0.57467772033E+02  0.25492188170E+03  0.28163422041E+03  0.90300356661E+02 0.  0.
        -11    1    4    4    0    0 -0.24841611965E+02 -0.20717358316E+02  0.56223280751E+02  0.64864257639E+02  0.00000000000E+00 0. -1.
         11    1    4    4    0    0  0.78469674620E+02 -0.36750413717E+02  0.19869860095E+03  0.21676996277E+03  0.00000000000E+00 0.  1.
        -13    1    3    3    0    0  0.27527548069E+02  0.58171663389E+01  0.31409593652E+02  0.42168328165E+02  0.00000000000E+00 0.  1.
         13    1    3    3    0    0 -0.64380722004E+02  0.26627855428E+02  0.16413669792E+02  0.71577430845E+02  0.00000000000E+00 0. -1.
          2    1    1    2  501    0 -0.16774888720E+02  0.25022750266E+02  0.28588221999E+02  0.41530968680E+02  0.00000000000E+00 0. -1.
<scales pt_clust_5="13000.00000" pt_clust_6="13000.00000" pt_clust_7="13000.00000" pt_clust_8="13000.00000" pt_clust_9="30.12534"></scales>
<clustering>
<clus scale="   30.125">  1  9  2 -1</clus>
<clus scale="   90.300">  5  6 -1 -1</clus>
<clus scale="   90.776">  7  8 -1 -1</clus>
<clus scale="  106.186">  1  5  2 -1</clus>
<clus scale="   30.125">  1  5  2 -1</clus>
</clustering>
</event>
<event>
 9    1  0.1504846E-005  0.9946689E+02  0.7546771E-02  0.1282562E+00
         -3   -1    0    0    0  501 -0.00000000000E+00  0.00000000000E+00  0.49162167021E+03  0.49162167021E+03  0.00000000000E+00 0.  1.
         21   -1    0    0  501  502  0.00000000000E+00 -0.00000000000E+00 -0.54844950277E+02  0.54844950277E+02  0.00000000000E+00 0. -1.
         23    2    1    2    0    0 -0.54189617391E+02 -0.30666902331E+02  0.27628272843E+03  0.29797636501E+03  0.92632578201E+02 0.  0.
         23    2    1    2    0    0 -0.17447248979E+02 -0.37219344376E+01  0.13313790546E+03  0.16444985947E+03  0.94867249961E+02 0.  0.
        -11    1    3    3    0    0 -0.59398941183E+02  0.17440736546E+02  0.17734320489E+03  0.18783776464E+03  0.00000000000E+00 0. -1.
         11    1    3    3    0    0  0.52093237918E+01 -0.48107638877E+02  0.98939523536E+02  0.11013860036E+03  0.00000000000E+00 0.  1.
        -11    1    4    4    0    0  0.29385765473E+02  0.24361056520E+02  0.33303995536E+02  0.50657086433E+02  0.00000000000E+00 0.  1.
         11    1    4    4    0    0 -0.46833014452E+02 -0.28082990957E+02  0.99833909929E+02  0.11379277304E+03  0.00000000000E+00 0. -1.
         -3    1    1    2    0  502  0.71636866370E+02  0.34388836769E+02  0.27356086038E+02  0.84040396007E+02  0.00000000000E+00 0.  1.
<scales pt_clust_5="13000.00000" pt_clust_6="13000.00000" pt_clust_7="13000.00000" pt_clust_8="13000.00000" pt_clust_9="79.46340"></scales>
<clustering>
<clus scale="   79.463">  2  9  1 -1</clus>
<clus scale="   92.633">  5  6 -1 -1</clus>
<clus scale="   94.867">  7  8 -1 -1</clus>
<clus scale="   97.338">  1  5  2 -1</clus>
<clus scale="   79.463">  2  5  1 -1</clus>
</clustering>
</event>
<event>
 9    1  0.1504846E-005  0.1091304E+03  0.7546771E-02  0.1262451E+00
         21   -1    0    0  501  502  0.00000000000E+00  0.00000000000E+00  0.37960068893E+03  0.37960068893E+03  0.00000000000E+00 0.  1.
          1   -1    0    0  502    0 -0.00000000000E+00 -0.00000000000E+00 -0.53173810369E+02  0.53173810369E+02  0.00000000000E+00 0. -1.
         23    2    1    2    0    0 -0.16864006374E+02 -0.54245593904E+02  0.57493382214E+02  0.12180095898E+03  0.91120828793E+02 0.  0.
         23    2    1    2    0    0  0.12390166201E+01  0.67338287448E+02  0.13686128995E+03  0.17733736771E+03  0.90451916398E+02 0.  0.
        -13    1    3    3    0    0  0.45702714247E+01 -0.75264794179E+02  0.51156233408E+02  0.91118806183E+02  0.00000000000E+00 0.  1.
         13    1    3    3    0    0 -0.21434277799E+02  0.21019200275E+02  0.63371488058E+01  0.30682152792E+02  0.00000000000E+00 0. -1.
        -13    1    4    4    0    0  0.14529550048E+02  0.87229791078E+02  0.10117791357E+03  0.13437676314E+03  0.00000000000E+00 0. -1.
         13    1    4    4    0    0 -0.13290533428E+02 -0.19891503629E+02  0.35683376380E+02  0.42960604573E+02  0.00000000000E+00 0.  1.
          1    1    1    2  501    0  0.15624989754E+02 -0.13092693544E+02  0.13207220639E+03  0.13363617261E+03  0.00000000000E+00 0. -1.
<scales pt_clust_5="13000.00000" pt_clust_6="13000.00000" pt_clust_7="13000.00000" pt_clust_8="13000.00000" pt_clust_9="20.38526"></scales>
<clustering>
<clus scale="   20.385">  1  9  2 -1</clus>
<clus scale="   90.452">  7  8 -1 -1</clus>
<clus scale="   91.121">  5  6 -1 -1</clus>
<clus scale="  108.572">  1  7  2 -1</clus>
<clus scale="   20.385">  1  5  2 -1</clus>
</clustering>
</event>
<event>
 9    1  0.1504846E-005  0.1328493E+03  0.7546771E-02  0.1237048E+00
         21   -1    0    0  501  502  0.00000000000E+00  0.00000000000E+00  0.83548297854E+03  0.83548297854E+03  0.00000000000E+00 0.  1.
         -1   -1    0    0    0  501 -0.00000000000E+00 -0.00000000000E+00 -0.26683794824E+03  0.26683794824E+03  0.00000000000E+00 0.  1.
         23    2    1    2    0    0 -0.41503569102E+02  0.64212885537E+01 -0.23736628872E+03  0.25757055650E+03  0.90752726483E+02 0.  0.
         23    2    1    2    0    0 -0.67851208398E+02  0.54339770666E+01  0.20129195838E+03  0.23010858858E+03  0.88307391775E+02 0.  0.
        -13    1    4    4    0    0 -0.68748755080E+02 -0.19572821165E+02  0.84557998619E+02  0.11072281510E+03  0.00000000000E+00 0.  1.
         13    1    4    4    0    0  0.89754668147E+00  0.25006798232E+02  0.11673395976E+03  0.11938577348E+03  0.00000000000E+00 0. -1.
        -13    1    3    3    0    0 -0.37759112100E+02 -0.37901509614E+02 -0.10353318016E+03  0.11653923962E+03  0.00000000000E+00 0. -1.
         13    1    3    3    0    0 -0.37444570022E+01  0.44322798168E+02 -0.13383310856E+03  0.14103131689E+03  0.00000000000E+00 0.  1.
         -1    1    1    2    0  502  0.10935477750E+03 -0.11855265620E+02  0.60471936063E+03  0.61464178170E+03  0.00000000000E+00 0.  1.
<scales pt_clust_5="13000.00000" pt_clust_6="13000.00000" pt_clust_7="13000.00000" pt_clust_8="13000.00000" pt_clust_9="99.25088"></scales>
<clustering>
<clus scale="   88.307">  5  6 -1 -1</clus>
<clus scale="   90.753">  7  8 -1 -1</clus>
<clus scale="   99.999">  2  7  1 -1</clus>
<clus scale="   99.251">  1  9  2 -1</clus>
<clus scale="   99.251">  1  5  2 -1</clus>
</clustering>
</event>
<event>
 9    1  0.1504846E-005  0.1014103E+03  0.7546771E-02  0.1278247E+00
         21   -1    0    0  501  502  0.00000000000E+00  0.00000000000E+00  0.21590264083E+03  0.21590264083E+03  0.00000000000E+00 0. -1.
          2   -1    0    0  502    0 -0.00000000000E+00 -0.00000000000E+00 -0.95604714491E+02  0.95604714491E+02  0.00000000000E+00 0. -1.
         23    2    1    2    0    0  0.73774776306E+01  0.58601120501E+02 -0.14258636534E+02  0.10996539891E+03  0.91654578396E+02 0.  0.
         23    2    1    2    0    0 -0.89453580252E+01 -0.25315163296E+01  0.10390303225E+03  0.13762092935E+03  0.89762197384E+02 0.  0.
        -13    1    4    4    0    0 -0.26426428722E+02  0.13776545739E+02  0.10914969233E+03  0.11314506036E+03  0.00000000000E+00 0. -1.
         13    1    4    4    0    0  0.17481070696E+02 -0.16308062069E+02 -0.52466600759E+01  0.24475868996E+02  0.00000000000E+00 0.  1.
        -13    1    3    3    0    0  0.21071106710E+02 -0.20175253140E+01  0.27787884591E+02  0.34931768871E+02  0.00000000000E+00 0.  1.
         13    1    3    3    0    0 -0.13693629079E+02  0.60618645815E+02 -0.42046521126E+02  0.75033630037E+02  0.00000000000E+00 0. -1.
          2    1    1    2  501    0  0.15678803946E+01 -0.56069604171E+02  0.30653530616E+02  0.63921027057E+02  0.00000000000E+00 0. -1.
<scales pt_clust_5="13000.00000" pt_clust_6="13000.00000" pt_clust_7="13000.00000" pt_clust_8="13000.00000" pt_clust_9="56.09152"></scales>
<clustering>
<clus scale="   56.092">  1  9  2 -1</clus>
<clus scale="   89.762">  5  6 -1 -1</clus>
<clus scale="   91.655">  7  8 -1 -1</clus>
<clus scale="   99.703">  1  5  2 -1</clus>
<clus scale="   56.092">  1  5  2 -1</clus>
</clustering>
</event>
<event>
 9    1  0.1504846E-005  0.3148739E+03  0.7546771E-02  0.1078260E+00
         21   -1    0    0  501  502  0.00000000000E+00  0.00000000000E+00  0.56339493533E+03  0.56339493533E+03  0.00000000000E+00 0. -1.
          2   -1    0    0  502    0 -0.00000000000E+00 -0.00000000000E+00 -0.20542259236E+03  0.20542259236E+03  0.00000000000E+00 0. -1.
         23    2    1    2    0    0  0.29055117965E+03  0.91751776406E+02  0.65354697298E+02  0.32634566339E+03  0.96911707663E+02 0.  0.
         23    2    1    2    0    0 -0.27037795402E+03 -0.10777222822E+03  0.27956488992E+03  0.41359300800E+03  0.90463016705E+02 0.  0.
        -13    1    4    4    0    0 -0.19990090161E+03 -0.84202382810E+02  0.14832933016E+03  0.26277747605E+03  0.00000000000E+00 0. -1.
         13    1    4    4    0    0 -0.70477052411E+02 -0.23569845408E+02  0.13123555977E+03  0.15081553195E+03  0.00000000000E+00 0.  1.
        -13    1    3    3    0    0  0.11854334959E+03 -0.11427352840E+02  0.21266816223E+02  0.12097680603E+03  0.00000000000E+00 0.  1.
         13    1    3    3    0    0  0.17200783006E+03  0.10317912925E+03  0.44087881075E+02  0.20536885735E+03  0.00000000000E+00 0. -1.
          2    1    1    2  501    0 -0.20173225634E+02  0.16020451812E+02  0.13052755755E+02  0.28878856306E+02  0.00000000000E+00 0. -1.
<scales pt_clust_5="13000.00000" pt_clust_6="13000.00000" pt_clust_7="13000.00000" pt_clust_8="13000.00000" pt_clust_9="25.76072"></scales>
<clustering>
<clus scale="   25.761">  1  9  2 -1</clus>
<clus scale="   90.463">  5  6 -1 -1</clus>
<clus scale="   96.912">  7  8 -1 -1</clus>
<clus scale="  312.949">  1  5  2 -1</clus>
<clus scale="   25.761">  1  5  2 -1</clus>
</clustering>
</event>
<event>
 9    1  0.1504846E-005  0.1429431E+03  0.7546771E-02  0.1209587E+00
         21   -1    0    0  501  502  0.00000000000E+00  0.00000000000E+00  0.81820216698E+02  0.81820216698E+02  0.00000000000E+00 0.  1.
          1   -1    0    0  502    0 -0.00000000000E+00 -0.00000000000E+00 -0.50680973418E+03  0.50680973418E+03  0.00000000000E+00 0. -1.
         23    2    1    2    0    0  0.92170031683E+02  0.57493984012E+02 -0.35230714053E+03  0.37962963808E+03  0.90539869148E+02 0.  0.
         23    2    1    2    0    0 -0.78469379646E+02 -0.87575179781E+02 -0.87588516968E+02  0.17274042842E+03  0.91327168186E+02 0.  0.
        -11    1    3    3    0    0  0.50997816293E+02  0.34426704629E+02 -0.69130406204E+02  0.92547222110E+02  0.00000000000E+00 0.  1.
         11    1    3    3    0    0  0.41172215390E+02  0.23067279383E+02 -0.28317673432E+03  0.28708241597E+03  0.00000000000E+00 0. -1.
        -13    1    4    4    0    0 -0.64026326082E+02 -0.33367346808E+02 -0.43082418960E+01  0.72327803871E+02  0.00000000000E+00 0.  1.
         13    1    4    4    0    0 -0.14443053564E+02 -0.54207832973E+02 -0.83280275072E+02  0.10041262454E+03  0.00000000000E+00 0. -1.
          1    1    1    2  501    0 -0.13700652037E+02  0.30081195768E+02  0.14906140014E+02  0.36259884380E+02  0.00000000000E+00 0. -1.
<scales pt_clust_5="13000.00000" pt_clust_6="13000.00000" pt_clust_7="13000.00000" pt_clust_8="13000.00000" pt_clust_9="33.05429"></scales>
<clustering>
<clus scale="   33.054">  1  9  2 -1</clus>
<clus scale="   90.540">  5  6 -1 -1</clus>
<clus scale="   91.327">  7  8 -1 -1</clus>
<clus scale="  142.441">  2  5  1 -1</clus>
<clus scale="   33.054">  1  5  2 -1</clus>
</clustering>
</event>
<event>
 9    1  0.1504846E-005  0.9333039E+02  0.7546771E-02  0.1296514E+00
         21   -1    0    0  501  502  0.00000000000E+00  0.00000000000E+00  0.97949491001E+02  0.97949491001E+02  0.00000000000E+00 0. -1.
         -4   -1    0    0    0  501 -0.00000000000E+00 -0.00000000000E+00 -0.12840314951E+03  0.12840314951E+03  0.00000000000E+00 0.  1.
         23    2    1    2    0    0  0.66998043943E+01  0.73134033534E+01 -0.21687442036E+02  0.93126846542E+02  0.90021614945E+02 0.  0.
         23    2    1    2    0    0 -0.73395381540E+01  0.27870629476E+02 -0.12495479034E+02  0.97838892092E+02  0.92658895967E+02 0.  0.
        -11    1    3    3    0    0  0.16603638619E+01 -0.35974213077E+02 -0.32186739470E+02  0.48299969072E+02  0.00000000000E+00 0.  1.
         11    1    3    3    0    0  0.50394405324E+01  0.43287616430E+02  0.10499297434E+02  0.44826877470E+02  0.00000000000E+00 0. -1.
        -13    1    4    4    0    0  0.12186802765E+02 -0.25226128392E+02 -0.27554732206E+02  0.39295533871E+02  0.00000000000E+00 0.  1.
         13    1    4    4    0    0 -0.19526340919E+02  0.53096757868E+02  0.15059253172E+02  0.58543358221E+02  0.00000000000E+00 0. -1.
         -4    1    1    2    0  502  0.63973375966E+00 -0.35184032829E+02  0.37292625573E+01  0.35386901880E+02  0.00000000000E+00 0.  1.
<scales pt_clust_5="13000.00000" pt_clust_6="13000.00000" pt_clust_7="13000.00000" pt_clust_8="13000.00000" pt_clust_9="35.18985"></scales>
<clustering>
<clus scale="   35.190">  1  9  2 -1</clus>
<clus scale="   90.022">  5  6 -1 -1</clus>
<clus scale="   90.713">  2  5  1 -1</clus>
<clus scale="   92.659">  7  8 -1 -1</clus>
<clus scale="   35.190">  1  5  2 -1</clus>
</clustering>
</event>
<event>
 9    1  0.1504846E-005  0.9108676E+02  0.7546771E-02  0.1300612E+00
          2   -1    0    0  502    0 -0.00000000000E+00  0.00000000000E+00  0.67857288122E+03  0.67857288122E+03  0.00000000000E+00 0. -1.
         21   -1    0    0  501  502  0.00000000000E+00 -0.00000000000E+00 -0.26026078570E+02  0.26026078570E+02  0.00000000000E+00 0.  1.
         23    2    1    2    0    0 -0.14388179211E+02  0.68831880292E+01  0.44135346175E+03  0.45076104224E+03  0.90212199965E+02 0.  0.
         23    2    1    2    0    0 -0.18392927132E+02 -0.19757910402E+01  0.19711734064E+03  0.21782656848E+03  0.90834819527E+02 0.  0.
        -11    1    4    4    0    0 -0.43755697100E+02 -0.21975830132E+02  0.62541336210E+02  0.79428690494E+02  0.00000000000E+00 0.  1.
         11    1    4    4    0    0  0.25362769968E+02  0.20000039092E+02  0.13457600443E+03  0.13839787799E+03  0.00000000000E+00 0. -1.
        -13    1    3    3    0    0 -0.47402741428E+02  0.24305881135E+02  0.22577739750E+03  0.23197678543E+03  0.00000000000E+00 0.  1.
         13    1    3    3    0    0  0.33014562217E+02 -0.17422693105E+02  0.21557606425E+03  0.21878425682E+03  0.00000000000E+00 0. -1.
          2    1    1    2  501    0  0.32781106343E+02 -0.49073969890E+01  0.14076000262E+02  0.36011349067E+02  0.00000000000E+00 0. -1.
<scales pt_clust_5="13000.00000" pt_clust_6="13000.00000" pt_clust_7="13000.00000" pt_clust_8="13000.00000" pt_clust_9="33.14639"></scales>
<clustering>
<clus scale="   33.146">  2  9  1 -1</clus>
<clus scale="   90.212">  7  8 -1 -1</clus>
<clus scale="   90.466">  1  7  2 -1</clus>
<clus scale="   90.835">  5  6 -1 -1</clus>
<clus scale="   33.146">  2  5  1 -1</clus>
</clustering>
</event>
<event>
 9    1  0.1504846E-005  0.1277255E+03  0.7546771E-02  0.1231034E+00
         -3   -1    0    0    0  501 -0.00000000000E+00  0.00000000000E+00  0.62676433413E+03  0.62676433413E+03  0.00000000000E+00 0.  1.
         21   -1    0    0  501  502  0.00000000000E+00 -0.00000000000E+00 -0.87603365397E+02  0.87603365397E+02  0.00000000000E+00 0.  1.
         23    2    1    2    0    0  0.36862327968E+02  0.81308884208E+02  0.51385059015E+03  0.52947360386E+03  0.91268298527E+02 0.  0.
         23    2    1    2    0    0 -0.80015394706E+02 -0.60814800335E+02  0.20108377099E+02  0.13683938245E+03  0.90662927539E+02 0.  0.
        -13    1    3    3    0    0  0.41981395371E+02 -0.39853350268E+01  0.17705254238E+03  0.18200528348E+03  0.00000000000E+00 0.  1.
         13    1    3    3    0    0 -0.51190674039E+01  0.85294219235E+02  0.33679804777E+03  0.34746832038E+03  0.00000000000E+00 0. -1.
        -13    1    4    4    0    0 -0.21266563866E+02 -0.59781741680E+02 -0.19025006194E+02  0.66242540996E+02  0.00000000000E+00 0. -1.
         13    1    4    4    0    0 -0.58748830840E+02 -0.10330586547E+01  0.39133383293E+02  0.70596841453E+02  0.00000000000E+00 0.  1.
         -3    1    1    2    0  502  0.43153066738E+02 -0.20494083873E+02  0.52020014840E+01  0.48054713215E+02  0.00000000000E+00 0.  1.
<scales pt_clust_5="13000.00000" pt_clust_6="13000.00000" pt_clust_7="13000.00000" pt_clust_8="13000.00000" pt_clust_9="47.77232"></scales>
<clustering>
<clus scale="   47.772">  2  9  1 -1</clus>
<clus scale="   90.663">  7  8 -1 -1</clus>
<clus scale="   91.268">  5  6 -1 -1</clus>
<clus scale="  127.294">  2  7  1 -1</clus>
<clus scale="   47.772">  2  5  1 -1</clus>
</clustering>
</event>
<event>
 9    1  0.1504846E-005  0.9794418E+02  0.7546771E-02  0.1286060E+00
          1   -1    0    0  502    0 -0.00000000000E+00  0.00000000000E+00  0.29862851682E+03  0.29862851682E+03  0.00000000000E+00 0. -1.
         21   -1    0    0  501  502  0.00000000000E+00 -0.00000000000E+00 -0.12498768244E+03  0.12498768244E+03  0.00000000000E+00 0.  1.
         23    2    1    2    0    0  0.25428004856E+02  0.27263637428E+02  0.10150186786E+03  0.14161039497E+03  0.91438424241E+02 0.  0.
         23    2    1    2    0    0  0.38298628882E+02 -0.29739869306E+01 -0.70658580613E+02  0.12375849645E+03  0.94063281133E+02 0.  0.
        -13    1    3    3    0    0 -0.18336827765E+02 -0.16939568254E+02  0.30433815500E+01  0.25148566487E+02  0.00000000000E+00 0. -1.
         13    1    3    3    0    0  0.43764832620E+02  0.44203205682E+02  0.98458486314E+02  0.11646182848E+03  0.00000000000E+00 0.  1.
        -13    1    4    4    0    0  0.48714887478E+02  0.36441062239E+02 -0.42311045708E+02  0.74103413336E+02  0.00000000000E+00 0.  1.
         13    1    4    4    0    0 -0.10416258596E+02 -0.39415049170E+02 -0.28347534905E+02  0.49655083117E+02  0.00000000000E+00 0. -1.
          1    1    1    2  501    0 -0.63726633738E+02 -0.24289650498E+02  0.14279754713E+03  0.15824730783E+03  0.00000000000E+00 0. -1.
<scales pt_clust_5="13000.00000" pt_clust_6="13000.00000" pt_clust_7="13000.00000" pt_clust_8="13000.00000" pt_clust_9="68.19879"></scales>
<clustering>
<clus scale="   68.199">  2  9  1 -1</clus>
<clus scale="   91.438">  5  6 -1 -1</clus>
<clus scale="   94.063">  7  8 -1 -1</clus>
<clus scale="   95.426">  1  5  2 -1</clus>
<clus scale="   68.199">  2  5  1 -1</clus>
</clustering>
</event>
<event>
 9    1  0.1504846E-005  0.1182799E+03  0.7546771E-02  0.1246214E+00
         21   -1    0    0  501  502  0.00000000000E+00  0.00000000000E+00  0.48590834978E+02  0.48590834978E+02  0.00000000000E+00 0. -1.
          2   -1    0    0  502    0 -0.00000000000E+00 -0.00000000000E+00 -0.34188880603E+03  0.34188880603E+03  0.00000000000E+00 0. -1.
         23    2    1    2    0    0  0.58646794594E+02  0.55305007736E+02 -0.14654184580E+03  0.19082186963E+03  0.91871556859E+02 0.  0.
         23    2    1    2    0    0 -0.37990611737E+02 -0.58066540040E+02 -0.12522669302E+03  0.16969412002E+03  0.91100823663E+02 0.  0.
        -11    1    4    4    0    0 -0.55229158440E+01 -0.65782448563E+02 -0.11850603572E+03  0.13565217890E+03  0.00000000000E+00 0. -1.
         11    1    4    4    0    0 -0.32467695893E+02  0.77159085233E+01 -0.67206573079E+01  0.34041941125E+02  0.00000000000E+00 0.  1.
        -11    1    3    3    0    0  0.19599216866E+02 -0.68651814650E+01  0.59289695239E+01  0.21596589960E+02  0.00000000000E+00 0.  1.
         11    1    3    3    0    0  0.39047577728E+02  0.62170189201E+02 -0.15247081533E+03  0.16922527966E+03  0.00000000000E+00 0. -1.
          2    1    1    2  501    0 -0.20656182857E+02  0.27615323042E+01 -0.21529432230E+02  0.29963651363E+02  0.00000000000E+00 0. -1.
<scales pt_clust_5="13000.00000" pt_clust_6="13000.00000" pt_clust_7="13000.00000" pt_clust_8="13000.00000" pt_clust_9="20.83996"></scales>
<clustering>
<clus scale="   20.840">  1  9  2 -1</clus>
<clus scale="   91.101">  5  6 -1 -1</clus>
<clus scale="   91.872">  7  8 -1 -1</clus>
<clus scale="  117.682">  1  5  2 -1</clus>
<clus scale="   20.840">  1  5  2 -1</clus>
</clustering>
</event>
<event>
 9    1  0.1504846E-005  0.1371274E+03  0.7546771E-02  0.1217653E+00
         21   -1    0    0  501  502  0.00000000000E+00  0.00000000000E+00  0.56957775695E+02  0.56957775695E+02  0.00000000000E+00 0.  1.
          2   -1    0    0  502    0 -0.00000000000E+00 -0.00000000000E+00 -0.52427994936E+03  0.52427994936E+03  0.00000000000E+00 0.  1.
         23    2    1    2    0    0 -0.51505317075E+02  0.47971387725E+02 -0.13624949749E+03  0.17852573675E+03  0.91397272316E+02 0.  0.
         23    2    1    2    0    0  0.91680967231E+02 -0.95474490649E+02 -0.27430465292E+03  0.31849063640E+03  0.93126069092E+02 0.  0.
        -11    1    3    3    0    0  0.24258595764E+02  0.25806439707E+02 -0.31782845390E+02  0.47587824701E+02  0.00000000000E+00 0. -1.
         11    1    3    3    0    0 -0.75763912839E+02  0.22164948018E+02 -0.10446665210E+03  0.13093791204E+03  0.00000000000E+00 0.  1.
        -13    1    4    4    0    0  0.71706106027E+02 -0.58412480286E+02 -0.25670585753E+03  0.27285835297E+03  0.00000000000E+00 0.  1.
         13    1    4    4    0    0  0.19974861205E+02 -0.37062010363E+02 -0.17598795395E+02  0.45632283437E+02  0.00000000000E+00 0. -1.
          2    1    1    2  501    0 -0.40175650156E+02  0.47503102924E+02 -0.56768023250E+02  0.84221351905E+02  0.00000000000E+00 0.  1.
<scales pt_clust_5="13000.00000" pt_clust_6="13000.00000" pt_clust_7="13000.00000" pt_clust_8="13000.00000" pt_clust_9="62.21437"></scales>
<clustering>
<clus scale="   62.214">  1  9  2 -1</clus>
<clus scale="   91.397">  5  6 -1 -1</clus>
<clus scale="   93.126">  7  8 -1 -1</clus>
<clus scale="  135.959">  2  5  1 -1</clus>
<clus scale="   62.214">  1  5  2 -1</clus>
</clustering>
</event>
<event>
 9    1  0.1504846E-005  0.9457317E+02  0.7546771E-02  0.1293421E+00
         21   -1    0    0  501  502  0.00000000000E+00  0.00000000000E+00  0.20819226380E+03  0.20819226380E+03  0.00000000000E+00 0.  1.
          2   -1    0    0  502    0 -0.00000000000E+00 -0.00000000000E+00 -0.26613167427E+03  0.26613167427E+03  0.00000000000E+00 0.  1.
         23    2    1    2    0    0 -0.82793615021E+01  0.58447803598E+02 -0.12858798956E+03  0.16733205381E+03  0.89333373398E+02 0.  0.
         23    2    1    2    0    0 -0.31444591528E+02  0.23943348266E+02 -0.81914439207E+02  0.12911055050E+03  0.91637943220E+02 0.  0.
        -11    1    3    3    0    0  0.18545282128E+02  0.81679461439E+01 -0.10280466071E+03  0.10478282826E+03  0.00000000000E+00 0.  1.
         11    1    3    3    0    0 -0.26824643630E+02  0.50279857454E+02 -0.25783328847E+02  0.62549225558E+02  0.00000000000E+00 0. -1.
        -11    1    4    4    0    0 -0.36234171139E+02 -0.14313027215E+02 -0.42546763486E+00  0.38960992401E+02  0.00000000000E+00 0. -1.
         11    1    4    4    0    0  0.47895796114E+01  0.38256375481E+02 -0.81488971572E+02  0.90149558100E+02  0.00000000000E+00 0.  1.
          2    1    1    2  501    0  0.39723953030E+02 -0.82391151864E+02  0.15256301829E+03  0.17788133376E+03  0.00000000000E+00 0.  1.
<scales pt_clust_5="13000.00000" pt_clust_6="13000.00000" pt_clust_7="13000.00000" pt_clust_8="13000.00000" pt_clust_9="91.46745"></scales>
<clustering>
<clus scale="   89.333">  5  6 -1 -1</clus>
<clus scale="   91.467">  1  9  2 -1</clus>
<clus scale="   91.638">  7  8 -1 -1</clus>
<clus scale="   92.342">  2  5  1 -1</clus>
<clus scale="   91.467">  1  5  2 -1</clus>
</clustering>
</event>
<event>
 9    1  0.1504846E-005  0.1221271E+03  0.7546771E-02  0.1241869E+00
         21   -1    0    0  501  502  0.00000000000E+00  0.00000000000E+00  0.18637834607E+02  0.18637834607E+02  0.00000000000E+00 0. -1.
          1   -1    0    0  502    0 -0.00000000000E+00 -0.00000000000E+00 -0.12924379488E+04  0.12924379488E+04  0.00000000000E+00 0. -1.
         23    2    1    2    0    0 -0.20322284548E+02  0.67429841664E+02 -0.64903190050E+03  0.65948468193E+03  0.93369475935E+02 0.  0.
         23    2    1    2    0    0  0.70681621488E+02 -0.73144443868E+02 -0.42005283188E+03  0.44069513887E+03  0.86150000377E+02 0.  0.
        -13    1    4    4    0    0  0.70566474383E+02 -0.11792920826E+02 -0.24303184995E+03  0.25334399614E+03  0.00000000000E+00 0.  1.
         13    1    4    4    0    0  0.11514710409E+00 -0.61351523042E+02 -0.17702098193E+03  0.18735114273E+03  0.00000000000E+00 0. -1.
        -13    1    3    3    0    0  0.81712512345E+01 -0.21343097153E+02 -0.98717938062E+02  0.10132881346E+03  0.00000000000E+00 0. -1.
         13    1    3    3    0    0 -0.28493535783E+02  0.88772938818E+02 -0.55031396244E+03  0.55815586846E+03  0.00000000000E+00 0.  1.
          1    1    1    2  501    0 -0.50359336940E+02  0.57146022034E+01 -0.20471538180E+03  0.21089596260E+03  0.00000000000E+00 0. -1.
<scales pt_clust_5="13000.00000" pt_clust_6="13000.00000" pt_clust_7="13000.00000" pt_clust_8="13000.00000" pt_clust_9="50.68254"></scales>
<clustering>
<clus scale="   50.683">  1  9  2 -1</clus>
<clus scale="   86.150">  5  6 -1 -1</clus>
<clus scale="   93.369">  7  8 -1 -1</clus>
<clus scale="  116.700">  1  5  2 -1</clus>
<clus scale="   50.683">  1  5  2 -1</clus>
</clustering>
</event>
<event>
 9    1  0.1504846E-005  0.9525026E+02  0.7546771E-02  0.1291689E+00
         21   -1    0    0  501  502  0.00000000000E+00  0.00000000000E+00  0.82204264911E+02  0.82204264911E+02  0.00000000000E+00 0. -1.
         -1   -1    0    0    0  501 -0.00000000000E+00 -0.00000000000E+00 -0.21080320399E+03  0.21080320399E+03  0.00000000000E+00 0.  1.
         23    2    1    2    0    0  0.74258853954E+01  0.35385126719E+02 -0.13861182244E+03  0.16817646618E+03  0.88106954837E+02 0.  0.
         23    2    1    2    0    0  0.14222265056E+02 -0.17082547940E+02 -0.46201528983E+01  0.92928768348E+02  0.90112839854E+02 0.  0.
        -11    1    4    4    0    0 -0.29043588999E+02 -0.50315658205E+01  0.25397178426E+02  0.38908397404E+02  0.00000000000E+00 0.  1.
         11    1    4    4    0    0  0.43265854055E+02 -0.12050982119E+02 -0.30017331324E+02  0.54020370945E+02  0.00000000000E+00 0. -1.
        -13    1    3    3    0    0 -0.39099784520E+02  0.23688962919E+02 -0.52596648871E+02  0.69687642995E+02  0.00000000000E+00 0.  1.
         13    1    3    3    0    0  0.46525669916E+02  0.11696163799E+02 -0.86015173569E+02  0.98488823187E+02  0.00000000000E+00 0. -1.
         -1    1    1    2    0  502 -0.21648150452E+02 -0.18302578779E+02  0.14633036257E+02  0.31902234374E+02  0.00000000000E+00 0.  1.
<scales pt_clust_5="13000.00000" pt_clust_6="13000.00000" pt_clust_7="13000.00000" pt_clust_8="13000.00000" pt_clust_9="28.34831"></scales>
<clustering>
<clus scale="   28.348">  1  9  2 -1</clus>
<clus scale="   88.107">  7  8 -1 -1</clus>
<clus scale="   90.113">  5  6 -1 -1</clus>
<clus scale="   93.355">  2  7  1 -1</clus>
<clus scale="   28.348">  1  5  2 -1</clus>
</clustering>
</event>
<event>
 9    1  0.1504846E-005  0.3604096E+03  0.7546771E-02  0.1071110E+00
          2   -1    0    0  502    0 -0.00000000000E+00  0.00000000000E+00  0.10792503949E+04  0.10792503949E+04  0.00000000000E+00 0. -1.
         21   -1    0    0  501  502  0.00000000000E+00 -0.00000000000E+00 -0.25590744625E+03  0.25590744625E+03  0.00000000000E+00 0.  1.
         23    2    1    2    0    0  0.10221072045E+03  0.21316531037E+03  0.40667418830E+03  0.47921489709E+03  0.91523446436E+02 0.  0.
         23    2    1    2    0    0  0.45185848503E+02 -0.44711587808E+03  0.18382892183E+03  0.49445572841E+03  0.93482755175E+02 0.  0.
        -13    1    4    4    0    0  0.82961957884E+01 -0.84273453877E+02 -0.28791446250E+01  0.84729754908E+02  0.00000000000E+00 0.  1.
         13    1    4    4    0    0  0.36889652715E+02 -0.36284242421E+03  0.18670806646E+03  0.40972597350E+03  0.00000000000E+00 0. -1.
        -13    1    3    3    0    0  0.16400649229E+02  0.31358874080E+02  0.14485159867E+03  0.14911185706E+03  0.00000000000E+00 0. -1.
         13    1    3    3    0    0  0.85810071223E+02  0.18180643629E+03  0.26182258963E+03  0.33010304003E+03  0.00000000000E+00 0.  1.
          2    1    1    2  501    0 -0.14739656895E+03  0.23395056772E+03  0.23283983854E+03  0.36148721566E+03  0.00000000000E+00 0. -1.
<scales pt_clust_5="13000.00000" pt_clust_6="13000.00000" pt_clust_7="13000.00000" pt_clust_8="13000.00000" pt_clust_9="348.07476"></scales>
<clustering>
<clus scale="   91.523">  7  8 -1 -1</clus>
<clus scale="   93.483">  5  6 -1 -1</clus>
<clus scale="  253.502">  1  7  2 -1</clus>
<clus scale="  348.075">  2  9  1 -1</clus>
<clus scale="  348.075">  2  5  1 -1</clus>
</clustering>
</event>
<event>
 9    1  0.1504846E-005  0.1026494E+03  0.7546771E-02  0.1274889E+00
         21   -1    0    0  501  502  0.00000000000E+00  0.00000000000E+00  0.36338757025E+02  0.36338757025E+02  0.00000000000E+00 0. -1.
          2   -1    0    0  502    0 -0.00000000000E+00 -0.00000000000E+00 -0.51094222693E+03  0.51094222693E+03  0.00000000000E+00 0. -1.
         23    2    1    2    0    0  0.22407820568E+02 -0.94356111608E+01 -0.25371429186E+03  0.27231131080E+03  0.95871616847E+02 0.  0.
         23    2    1    2    0    0 -0.56320800747E+02  0.35602037217E+02 -0.13101276017E+03  0.17540792062E+03  0.95729084598E+02 0.  0.
        -11    1    3    3    0    0  0.47385629183E+02  0.34908041745E+01 -0.23190268402E+03  0.23672016902E+03  0.00000000000E+00 0.  1.
         11    1    3    3    0    0 -0.24977808615E+02 -0.12926415335E+02 -0.21811607841E+02  0.35591141780E+02  0.00000000000E+00 0. -1.
        -13    1    4    4    0    0  0.22466426495E+02  0.54369269494E+01 -0.62792912523E+02  0.66912258647E+02  0.00000000000E+00 0.  1.
         13    1    4    4    0    0 -0.78787227242E+02  0.30165110267E+02 -0.68219847650E+02  0.10849566197E+03  0.00000000000E+00 0. -1.
          2    1    1    2  501    0  0.33912980178E+02 -0.26166426056E+02 -0.89876417870E+02  0.99561752527E+02  0.00000000000E+00 0. -1.
<scales pt_clust_5="13000.00000" pt_clust_6="13000.00000" pt_clust_7="13000.00000" pt_clust_8="13000.00000" pt_clust_9="42.83426"></scales>
<clustering>
<clus scale="   42.834">  1  9  2 -1</clus>
<clus scale="   95.729">  7  8 -1 -1</clus>
<clus scale="   95.872">  5  6 -1 -1</clus>
<clus scale="  102.516">  1  7  2 -1</clus>
<clus scale="   42.834">  1  5  2 -1</clus>
</clustering>
</event>
<event>
 9    1  0.1504846E-005  0.1136661E+03  0.7546771E-02  0.1255356E+00
         21   -1    0    0  501  502  0.00000000000E+00  0.00000000000E+00  0.41545560980E+02  0.41545560980E+02  0.00000000000E+00 0.  1.
          1   -1    0    0  502    0 -0.00000000000E+00 -0.00000000000E+00 -0.72065313925E+03  0.72065313925E+03  0.00000000000E+00 0. -1.
         23    2    1    2    0    0 -0.55570203601E+02  0.52425068092E+01 -0.43757442740E+03  0.45013620639E+03  0.89642029111E+02 0.  0.
         23    2    1    2    0    0  0.96198441444E+02 -0.43610334963E+02 -0.16136895496E+03  0.21434329280E+03  0.93525964784E+02 0.  0.
        -11    1    3    3    0    0 -0.38499627001E+02 -0.40940713929E+02 -0.24565970155E+03  0.25200605608E+03  0.00000000000E+00 0. -1.
         11    1    3    3    0    0 -0.17070576599E+02  0.46183220738E+02 -0.19191472585E+03  0.19813015031E+03  0.00000000000E+00 0.  1.
        -13    1    4    4    0    0  0.66011236181E+02 -0.60456946860E+02 -0.61350766192E+02  0.10851931735E+03  0.00000000000E+00 0.  1.
         13    1    4    4    0    0  0.30187205263E+02  0.16846611897E+02 -0.10001818877E+03  0.10582397545E+03  0.00000000000E+00 0. -1.
          1    1    1    2  501    0 -0.40628237843E+02  0.38367828154E+02 -0.80164195914E+02  0.97719201051E+02  0.00000000000E+00 0. -1.
<scales pt_clust_5="13000.00000" pt_clust_6="13000.00000" pt_clust_7="13000.00000" pt_clust_8="13000.00000" pt_clust_9="55.88152"></scales>
<clustering>
<clus scale="   55.882">  1  9  2 -1</clus>
<clus scale="   89.642">  5  6 -1 -1</clus>
<clus scale="   93.526">  7  8 -1 -1</clus>
<clus scale="  110.492">  2  5  1 -1</clus>
<clus scale="   55.882">  1  5  2 -1</clus>
</clustering>
</event>
<event>
 9    1  0.1504846E-005  0.1039280E+03  0.7546771E-02  0.1274127E+00
         21   -1    0    0  501  502  0.00000000000E+00  0.00000000000E+00  0.37811172818E+03  0.37811172818E+03  0.00000000000E+00 0.  1.
          1   -1    0    0  502    0 -0.00000000000E+00 -0.00000000000E+00 -0.44537968176E+02  0.44537968176E+02  0.00000000000E+00 0. -1.
         23    2    1    2    0    0 -0.78087080002E+01 -0.33566806171E+02  0.58094076855E+02  0.11762891255E+03  0.96301261176E+02 0.  0.
         23    2    1    2    0    0 -0.16275693506E+01  0.53692936894E+02  0.24528829331E+03  0.26752912489E+03  0.92303333504E+02 0.  0.
        -11    1    4    4    0    0 -0.40524445726E+02  0.13124715099E+01  0.11238317230E+03  0.11947355649E+03  0.00000000000E+00 0. -1.
         11    1    4    4    0    0  0.38896876375E+02  0.52380465385E+02  0.13290512101E+03  0.14805556840E+03  0.00000000000E+00 0.  1.
        -13    1    3    3    0    0  0.23192939115E+02 -0.13616977163E+02  0.73050842104E+02  0.77844460457E+02  0.00000000000E+00 0.  1.
         13    1    3    3    0    0 -0.31001647115E+02 -0.19949829009E+02 -0.14956765249E+02  0.39784452089E+02  0.00000000000E+00 0. -1.
          1    1    1    2  501    0  0.94362773507E+01 -0.20126130723E+02  0.30191389848E+02  0.37491658926E+02  0.00000000000E+00 0. -1.
<scales pt_clust_5="13000.00000" pt_clust_6="13000.00000" pt_clust_7="13000.00000" pt_clust_8="13000.00000" pt_clust_9="22.22846"></scales>
<clustering>
<clus scale="   22.228">  1  9  2 -1</clus>
<clus scale="   92.303">  5  6 -1 -1</clus>
<clus scale="   96.301">  7  8 -1 -1</clus>
<clus scale="  100.235">  1  5  2 -1</clus>
<clus scale="   22.228">  1  5  2 -1</clus>
</clustering>
</event>
<event>
 9    1  0.1504846E-005  0.1059558E+03  0.7546771E-02  0.1273177E+00
          1   -1    0    0  502    0 -0.00000000000E+00  0.00000000000E+00  0.58992833829E+02  0.58992833829E+02  0.00000000000E+00 0. -1.
         21   -1    0    0  501  502  0.00000000000E+00 -0.00000000000E+00 -0.43963950225E+03  0.43963950225E+03  0.00000000000E+00 0.  1.
         23    2    1    2    0    0  0.35624505147E+01  0.15843345357E+02 -0.35164770855E+02  0.10134283105E+03  0.93648842228E+02 0.  0.
         23    2    1    2    0    0 -0.37600764106E+02 -0.44245455131E+02 -0.32939794112E+03  0.35013040955E+03  0.10352208612E+03 0.  0.
        -13    1    3    3    0    0 -0.79035511282E+01  0.54321632732E+02 -0.20668768385E+02  0.58655808661E+02  0.00000000000E+00 0. -1.
         13    1    3    3    0    0  0.11466001643E+02 -0.38478287375E+02 -0.14496002469E+02  0.42687022391E+02  0.00000000000E+00 0.  1.
        -13    1    4    4    0    0 -0.67171095200E+02 -0.40639563181E+02 -0.29171639002E+03  0.30209598199E+03  0.00000000000E+00 0. -1.
         13    1    4    4    0    0  0.29570331094E+02 -0.36058919498E+01 -0.37681551095E+02  0.48034427557E+02  0.00000000000E+00 0.  1.
          1    1    1    2  501    0  0.34038313591E+02  0.28402109774E+02 -0.16083956450E+02  0.47159095483E+02  0.00000000000E+00 0. -1.
<scales pt_clust_5="13000.00000" pt_clust_6="13000.00000" pt_clust_7="13000.00000" pt_clust_8="13000.00000" pt_clust_9="44.33158"></scales>
<clustering>
<clus scale="   44.332">  2  9  1 -1</clus>
<clus scale="   93.649">  5  6 -1 -1</clus>
<clus scale="   96.332">  1  5  2 -1</clus>
<clus scale="  103.522">  7  8 -1 -1</clus>
<clus scale="   44.332">  2  5  1 -1</clus>
</clustering>
</event>
<event>
 9    1  0.1504846E-005  0.9952845E+02  0.7546771E-02  0.1283003E+00
          2   -1    0    0  502    0 -0.00000000000E+00  0.00000000000E+00  0.41438928905E+03  0.41438928905E+03  0.00000000000E+00 0. -1.
         21   -1    0    0  501  502  0.00000000000E+00 -0.00000000000E+00 -0.36478920480E+02  0.36478920480E+02  0.00000000000E+00 0.  1.
         23    2    1    2    0    0 -0.25439877931E+02  0.37514769222E+02  0.25554667492E+03  0.27585835998E+03  0.93483615718E+02 0.  0.
         23    2    1    2    0    0  0.40503788985E-01 -0.16541981663E+02  0.97202483574E+02  0.13356021123E+03  0.90090889728E+02 0.  0.
        -13    1    3    3    0    0 -0.50776376318E+02 -0.71429998220E+01  0.10617258265E+03  0.11790623455E+03  0.00000000000E+00 0.  1.
         13    1    3    3    0    0  0.25336498387E+02  0.44657769044E+02  0.14937409227E+03  0.15795212543E+03  0.00000000000E+00 0. -1.
        -13    1    4    4    0    0 -0.39652716991E+02 -0.27252922905E+02  0.67265738805E+02  0.82702716936E+02  0.00000000000E+00 0.  1.
         13    1    4    4    0    0  0.39693220780E+02  0.10710941242E+02  0.29936744769E+02  0.50857494290E+02  0.00000000000E+00 0. -1.
          2    1    1    2  501    0  0.25399374142E+02 -0.20972787559E+02  0.25161210072E+02  0.41449638322E+02  0.00000000000E+00 0. -1.
<scales pt_clust_5="13000.00000" pt_clust_6="13000.00000" pt_clust_7="13000.00000" pt_clust_8="13000.00000" pt_clust_9="32.93913"></scales>
<clustering>
<clus scale="   32.939">  2  9  1 -1</clus>
<clus scale="   90.091">  7  8 -1 -1</clus>
<clus scale="   93.484">  5  6 -1 -1</clus>
<clus scale="   96.349">  2  7  1 -1</clus>
<clus scale="   32.939">  2  5  1 -1</clus>
</clustering>
</event>
<event>
 9    1  0.1504846E-005  0.1100973E+03  0.7546771E-02  0.1261156E+00
          2   -1    0    0  502    0 -0.00000000000E+00  0.00000000000E+00  0.45495840086E+02  0.45495840086E+02  0.00000000000E+00 0. -1.
         21   -1    0    0  501  502  0.00000000000E+00 -0.00000000000E+00 -0.36198663489E+03  0.36198663489E+03  0.00000000000E+00 0. -1.
         23    2    1    2    0    0 -0.55820935815E+02 -0.53624653504E+01 -0.99005083245E+02  0.14420996860E+03  0.88598959507E+02 0.  0.
         23    2    1    2    0    0  0.71693481731E+02 -0.18612210686E+02 -0.15264727997E+03  0.19234476134E+03  0.90603230752E+02 0.  0.
        -11    1    3    3    0    0 -0.38704856547E+02  0.40414816584E+02 -0.51337590616E+02  0.75940578943E+02  0.00000000000E+00 0.  1.
         11    1    3    3    0    0 -0.17116079268E+02 -0.45777281935E+02 -0.47667492629E+02  0.68269389659E+02  0.00000000000E+00 0. -1.
        -13    1    4    4    0    0  0.89462200979E+02 -0.29931688712E+02 -0.11100217059E+03  0.14567385925E+03  0.00000000000E+00 0. -1.
         13    1    4    4    0    0 -0.17768719248E+02  0.11319478025E+02 -0.41645109378E+02  0.46670902086E+02  0.00000000000E+00 0.  1.
          2    1    1    2  501    0 -0.15872545916E+02  0.23974676037E+02 -0.64838431584E+02  0.70927745031E+02  0.00000000000E+00 0. -1.
<scales pt_clust_5="13000.00000" pt_clust_6="13000.00000" pt_clust_7="13000.00000" pt_clust_8="13000.00000" pt_clust_9="28.75279"></scales>
<clustering>
<clus scale="   28.753">  2  9  1 -1</clus>
<clus scale="   88.599">  5  6 -1 -1</clus>
<clus scale="   90.603">  7  8 -1 -1</clus>
<clus scale="  108.454">  1  5  2 -1</clus>
<clus scale="   28.753">  2  5  1 -1</clus>
</clustering>
</event>
<event>
 9    1  0.1504846E-005  0.3792102E+03  0.7546771E-02  0.1051294E+00
          2   -1    0    0  502    0 -0.00000000000E+00  0.00000000000E+00  0.12617209182E+04  0.12617209182E+04  0.00000000000E+00 0. -1.
         21   -1    0    0  501  502  0.00000000000E+00 -0.00000000000E+00 -0.16839374145E+03  0.16839374145E+03  0.00000000000E+00 0.  1.
         23    2    1    2    0    0 -0.31626431443E+03  0.15628143252E+03  0.70908237551E+03  0.79726250177E+03  0.91556969910E+02 0.  0.
         23    2    1    2    0    0  0.34157913028E+03 -0.19892805053E+03  0.40970953220E+03  0.57710248120E+03  0.94534128727E+02 0.  0.
        -13    1    4    4    0    0  0.20826075014E+02  0.81762600929E+01  0.38852558560E+02  0.44834115763E+02  0.00000000000E+00 0. -1.
         13    1    4    4    0    0  0.32075305526E+03 -0.20710431062E+03  0.37085697364E+03  0.53226836543E+03  0.00000000000E+00 0.  1.
        -13    1    3    3    0    0 -0.30147153145E+03  0.13312169268E+03  0.68719375119E+03  0.76212972715E+03  0.00000000000E+00 0. -1.
         13    1    3    3    0    0 -0.14792782983E+02  0.23159739842E+02  0.21888624327E+02  0.35132774625E+02  0.00000000000E+00 0.  1.
          2    1    1    2  501    0 -0.25314815850E+02  0.42646618013E+02 -0.25464730954E+02  0.55749676699E+02  0.00000000000E+00 0. -1.
<scales pt_clust_5="13000.00000" pt_clust_6="13000.00000" pt_clust_7="13000.00000" pt_clust_8="13000.00000" pt_clust_9="49.59409"></scales>
<clustering>
<clus scale="   49.594">  2  9  1 -1</clus>
<clus scale="   91.557">  7  8 -1 -1</clus>
<clus scale="   94.534">  5  6 -1 -1</clus>
<clus scale="  378.479">  1  7  2 -1</clus>
<clus scale="   49.594">  2  5  1 -1</clus>
</clustering>
</event>
<event>
 9    1  0.1504846E-005  0.1348204E+03  0.7546771E-02  0.1220601E+00
         21   -1    0    0  501  502  0.00000000000E+00  0.00000000000E+00  0.46544614660E+02  0.46544614660E+02  0.00000000000E+00 0. -1.
          2   -1    0    0  502    0 -0.00000000000E+00 -0.00000000000E+00 -0.88249915809E+03  0.88249915809E+03  0.00000000000E+00 0. -1.
         23    2    1    2    0    0 -0.40945522530E+02 -0.13074944977E+03 -0.59389215361E+03  0.61618232117E+03  0.90558314785E+02 0.  0.
         23    2    1    2    0    0  0.24095124094E+02  0.44063558893E+02 -0.16805604519E+03  0.19764288255E+03  0.91091725572E+02 0.  0.
        -11    1    3    3    0    0  0.21302893440E+02 -0.66086123190E+02 -0.33650818323E+03  0.34359706973E+03  0.00000000000E+00 0.  1.
         11    1    3    3    0    0 -0.62248415969E+02 -0.64663326580E+02 -0.25738397038E+03  0.27258525144E+03  0.00000000000E+00 0. -1.
        -13    1    4    4    0    0  0.38988500475E+02 -0.57782123375E+01 -0.12184805093E+03  0.12806419649E+03  0.00000000000E+00 0.  1.
         13    1    4    4    0    0 -0.14893376381E+02  0.49841771231E+02 -0.46207994262E+02  0.69578686055E+02  0.00000000000E+00 0. -1.
          2    1    1    2  501    0  0.16850398436E+02  0.86685890877E+02 -0.74006344630E+02  0.11521856903E+03  0.00000000000E+00 0. -1.
<scales pt_clust_5="13000.00000" pt_clust_6="13000.00000" pt_clust_7="13000.00000" pt_clust_8="13000.00000" pt_clust_9="88.30843"></scales>
<clustering>
<clus scale="   88.308">  1  9  2 -1</clus>
<clus scale="   90.558">  5  6 -1 -1</clus>
<clus scale="   91.092">  7  8 -1 -1</clus>
<clus scale="  134.461">  2  5  1 -1</clus>
<clus scale="   88.308">  1  5  2 -1</clus>
</clustering>
</event>
<event>
 9    1  0.1504846E-005  0.1213666E+03  0.7546771E-02  0.1241029E+00
         -1   -1    0    0    0  501 -0.00000000000E+00  0.00000000000E+00  0.36525045067E+03  0.36525045067E+03  0.00000000000E+00 0.  1.
         21   -1    0    0  501  502  0.00000000000E+00 -0.00000000000E+00 -0.88993200282E+02  0.88993200282E+02  0.00000000000E+00 0.  1.
         23    2    1    2    0    0  0.75457078925E+02  0.54905704412E+02  0.21608137987E+03  0.25271256401E+03  0.92000381225E+02 0.  0.
         23    2    1    2    0    0 -0.32594381887E+02 -0.53618577911E+02  0.95200475120E+02  0.14616331276E+03  0.91450740318E+02 0.  0.
        -11    1    3    3    0    0  0.42493689385E+02  0.48789732482E+02  0.46068991025E+02  0.79426088707E+02  0.00000000000E+00 0. -1.
         11    1    3    3    0    0  0.32963389540E+02  0.61159719302E+01  0.17001238884E+03  0.17328647530E+03  0.00000000000E+00 0.  1.
        -13    1    4    4    0    0 -0.33705962972E+02 -0.78054638816E+02  0.83041975640E+02  0.11884691119E+03  0.00000000000E+00 0. -1.
         13    1    4    4    0    0  0.11115810844E+01  0.24436060905E+02  0.12158499480E+02  0.27316401568E+02  0.00000000000E+00 0.  1.
         -1    1    1    2    0  502 -0.42862697038E+02 -0.12871265010E+01 -0.35024604595E+02  0.55367774192E+02  0.00000000000E+00 0.  1.
<scales pt_clust_5="13000.00000" pt_clust_6="13000.00000" pt_clust_7="13000.00000" pt_clust_8="13000.00000" pt_clust_9="42.88202"></scales>
<clustering>
<clus scale="   42.882">  2  9  1 -1</clus>
<clus scale="   91.451">  7  8 -1 -1</clus>
<clus scale="   92.000">  5  6 -1 -1</clus>
<clus scale="  120.950">  2  7  1 -1</clus>
<clus scale="   42.882">  2  5  1 -1</clus>
</clustering>
</event>
<event>
 9    1  0.1504846E-005  0.1047363E+03  0.7546771E-02  0.1271184E+00
          1   -1    0    0  502    0 -0.00000000000E+00  0.00000000000E+00  0.33482739039E+03  0.33482739039E+03  0.00000000000E+00 0. -1.
         21   -1    0    0  501  502  0.00000000000E+00 -0.00000000000E+00 -0.61162127030E+02  0.61162127030E+02  0.00000000000E+00 0.  1.
         23    2    1    2    0    0  0.13953111218E+01  0.54176452683E+02  0.16811951937E+03  0.19922429007E+03  0.92136366544E+02 0.  0.
         23    2    1    2    0    0 -0.47003840748E+02 -0.33149297876E+02  0.98876099055E+02  0.14610199239E+03  0.90890440757E+02 0.  0.
        -11    1    3    3    0    0 -0.42774023032E+02  0.42283156514E+02  0.81775905035E+02  0.10151246729E+03  0.00000000000E+00 0.  1.
         11    1    3    3    0    0  0.44169334153E+02  0.11893296169E+02  0.86343614337E+02  0.97711822776E+02  0.00000000000E+00 0. -1.
        -13    1    4    4    0    0  0.19429172130E+02  0.15039086928E+02  0.15172967859E+02  0.28877081205E+02  0.00000000000E+00 0.  1.
         13    1    4    4    0    0 -0.66433012878E+02 -0.48188384804E+02  0.83703131196E+02  0.11722491118E+03  0.00000000000E+00 0. -1.
          1    1    1    2  501    0  0.45608529626E+02 -0.21027154807E+02  0.66696449357E+01  0.50663234969E+02  0.00000000000E+00 0. -1.
<scales pt_clust_5="13000.00000" pt_clust_6="13000.00000" pt_clust_7="13000.00000" pt_clust_8="13000.00000" pt_clust_9="50.22230"></scales>
<clustering>
<clus scale="   50.222">  2  9  1 -1</clus>
<clus scale="   90.890">  7  8 -1 -1</clus>
<clus scale="   92.136">  5  6 -1 -1</clus>
<clus scale="  103.642">  2  7  1 -1</clus>
<clus scale="   50.222">  2  5  1 -1</clus>
</clustering>
</event>
<event>
 9    1  0.1504846E-005  0.1487151E+03  0.7546771E-02  0.1202537E+00
         21   -1    0    0  501  502  0.00000000000E+00  0.00000000000E+00  0.34480396294E+03  0.34480396294E+03  0.00000000000E+00 0.  1.
          1   -1    0    0  502    0 -0.00000000000E+00 -0.00000000000E+00 -0.93420340312E+02  0.93420340312E+02  0.00000000000E+00 0. -1.
         23    2    1    2    0    0 -0.81036240751E+02 -0.80741279069E+02  0.46181997855E+02  0.15489087633E+03  0.93660985388E+02 0.  0.
         23    2    1    2    0    0  0.67514615353E+02  0.97111659467E+02  0.10924052804E+03  0.18505140520E+03  0.91222979062E+02 0.  0.
        -11    1    4    4    0    0  0.84577806148E+02  0.55808347767E+02  0.92891385113E+02  0.13746558261E+03  0.00000000000E+00 0.  1.
         11    1    4    4    0    0 -0.17063190795E+02  0.41303311700E+02  0.16349142932E+02  0.47585822596E+02  0.00000000000E+00 0. -1.
        -11    1    3    3    0    0 -0.20457728518E+02  0.20187237189E+02  0.17793685028E+02  0.33803231034E+02  0.00000000000E+00 0.  1.
         11    1    3    3    0    0 -0.60578512234E+02 -0.10092851626E+03  0.28388312827E+02  0.12108764530E+03  0.00000000000E+00 0. -1.
          1    1    1    2  501    0  0.13521625398E+02 -0.16370380399E+02  0.95961096731E+02  0.98282021721E+02  0.00000000000E+00 0. -1.
<scales pt_clust_5="13000.00000" pt_clust_6="13000.00000" pt_clust_7="13000.00000" pt_clust_8="13000.00000" pt_clust_9="21.23261"></scales>
<clustering>
<clus scale="   21.233">  1  9  2 -1</clus>
<clus scale="   91.223">  5  6 -1 -1</clus>
<clus scale="   93.661">  7  8 -1 -1</clus>
<clus scale="  147.192">  1  5  2 -1</clus>
<clus scale="   21.233">  1  5  2 -1</clus>
</clustering>
</event>
<event>
 9    1  0.1504846E-005  0.1492280E+03  0.7546771E-02  0.1222257E+00
          1   -1    0    0  502    0 -0.00000000000E+00  0.00000000000E+00  0.10081531461E+03  0.10081531461E+03  0.00000000000E+00 0. -1.
         21   -1    0    0  501  502  0.00000000000E+00 -0.00000000000E+00 -0.37729015885E+03  0.37729015885E+03  0.00000000000E+00 0. -1.
         23    2    1    2    0    0  0.18042821973E+02 -0.21400363399E+02 -0.11643580363E+03  0.15076404997E+03  0.91591393797E+02 0.  0.
         23    2    1    2    0    0 -0.11067466681E+03  0.82704317480E+02 -0.53857934911E+02  0.17367535479E+03  0.90407774575E+02 0.  0.
        -11    1    4    4    0    0 -0.10621010951E+03  0.55449051240E+02 -0.72789788451E+02  0.14019107656E+03  0.00000000000E+00 0. -1.
         11    1    4    4    0    0 -0.44645573051E+01  0.27255266240E+02  0.18931853540E+02  0.33484278224E+02  0.00000000000E+00 0.  1.
        -13    1    3    3    0    0 -0.25467158406E+02 -0.35067178463E+02 -0.28993058529E+02  0.52142886432E+02  0.00000000000E+00 0.  1.
         13    1    3    3    0    0  0.43509980379E+02  0.13666815064E+02 -0.87442745097E+02  0.98621163533E+02  0.00000000000E+00 0. -1.
          1    1    1    2  501    0  0.92631844839E+02 -0.61303954081E+02 -0.10618110571E+03  0.15366606871E+03  0.00000000000E+00 0. -1.
<scales pt_clust_5="13000.00000" pt_clust_6="13000.00000" pt_clust_7="13000.00000" pt_clust_8="13000.00000" pt_clust_9="118.72412"></scales>
<clustering>
<clus scale="   90.408">  5  6 -1 -1</clus>
<clus scale="   91.591">  7  8 -1 -1</clus>
<clus scale="   95.773">  1  7  2 -1</clus>
<clus scale="  118.724">  2  9  1 -1</clus>
<clus scale="  118.724">  2  5  1 -1</clus>
</clustering>
</event>
<event>
 9    1  0.1504846E-005  0.1065921E+03  0.7546771E-02  0.1268291E+00
          3   -1    0    0  502    0 -0.00000000000E+00  0.00000000000E+00  0.43706138558E+03  0.43706138558E+03  0.00000000000E+00 0. -1.
         21   -1    0    0  501  502  0.00000000000E+00 -0.00000000000E+00 -0.35590641077E+03  0.35590641077E+03  0.00000000000E+00 0. -1.
         23    2    1    2    0    0 -0.54073280697E+02  0.40988377725E+02  0.21714931982E+03  0.24506760850E+03  0.91106195414E+02 0.  0.
         23    2    1    2    0    0 -0.28270339573E+02 -0.66897116422E+02  0.18397023636E+03  0.21649549886E+03  0.88038723726E+02 0.  0.
        -13    1    3    3    0    0  0.20321280060E+02  0.83027305582E+01  0.10073171921E+03  0.10309592141E+03  0.00000000000E+00 0.  1.
         13    1    3    3    0    0 -0.74394560756E+02  0.32685647167E+02  0.11641760062E+03  0.14197168709E+03  0.00000000000E+00 0. -1.
        -13    1    4    4    0    0 -0.55962578492E+01 -0.39670901414E+02  0.13341205702E+02  0.42226606429E+02  0.00000000000E+00 0.  1.
         13    1    4    4    0    0 -0.22674081724E+02 -0.27226215008E+02  0.17062903066E+03  0.17426889244E+03  0.00000000000E+00 0. -1.
          3    1    1    2  501    0  0.82343620270E+02  0.25908738697E+02 -0.31996458138E+03  0.33140468898E+03  0.00000000000E+00 0. -1.
<scales pt_clust_5="13000.00000" pt_clust_6="13000.00000" pt_clust_7="13000.00000" pt_clust_8="13000.00000" pt_clust_9="86.32343"></scales>
<clustering>
<clus scale="   86.323">  2  9  1 -1</clus>
<clus scale="   88.039">  7  8 -1 -1</clus>
<clus scale="   91.106">  5  6 -1 -1</clus>
<clus scale="  103.982">  2  7  1 -1</clus>
<clus scale="   86.323">  2  5  1 -1</clus>
</clustering>
</event>
<event>
 9    1  0.1504846E-005  0.1054737E+03  0.7546771E-02  0.1270334E+00
         21   -1    0    0  501  502  0.00000000000E+00  0.00000000000E+00  0.21986201147E+03  0.21986201147E+03  0.00000000000E+00 0.  1.
         -3   -1    0    0    0  501 -0.00000000000E+00 -0.00000000000E+00 -0.12608926307E+03  0.12608926307E+03  0.00000000000E+00 0.  1.
         23    2    1    2    0    0  0.12210276980E+02  0.32642424006E+02 -0.33252441492E+02  0.10719455035E+03  0.95761829825E+02 0.  0.
         23    2    1    2    0    0 -0.34199483998E+02 -0.48469356586E+02  0.16619611226E+01  0.11049934176E+03  0.93211904718E+02 0.  0.
        -11    1    4    4    0    0 -0.32637094933E+02  0.63355924036E+01  0.33418438921E+02  0.47139280401E+02  0.00000000000E+00 0. -1.
         11    1    4    4    0    0 -0.15623890647E+01 -0.54804948990E+02 -0.31756477799E+02  0.63360061360E+02  0.00000000000E+00 0.  1.
        -13    1    3    3    0    0 -0.26738460968E+02  0.38700383911E+02 -0.45975037657E+02  0.65775140421E+02  0.00000000000E+00 0.  1.
         13    1    3    3    0    0  0.38948737948E+02 -0.60579599052E+01  0.12722596165E+02  0.41419409933E+02  0.00000000000E+00 0. -1.
         -3    1    1    2    0  502  0.21989207018E+02  0.15826932580E+02  0.12536322877E+03  0.12825738243E+03  0.00000000000E+00 0.  1.
<scales pt_clust_5="13000.00000" pt_clust_6="13000.00000" pt_clust_7="13000.00000" pt_clust_8="13000.00000" pt_clust_9="27.09275"></scales>
<clustering>
<clus scale="   27.093">  1  9  2 -1</clus>
<clus scale="   93.212">  5  6 -1 -1</clus>
<clus scale="   95.762">  7  8 -1 -1</clus>
<clus scale="  103.164">  1  5  2 -1</clus>
<clus scale="   27.093">  1  5  2 -1</clus>
</clustering>
</event>
<event>
 9    1  0.1504846E-005  0.1374254E+03  0.7546771E-02  0.1217469E+00
         21   -1    0    0  501  502  0.00000000000E+00  0.00000000000E+00  0.56192329699E+03  0.56192329699E+03  0.00000000000E+00 0.  1.
         -2   -1    0    0    0  501 -0.00000000000E+00 -0.00000000000E+00 -0.24878748460E+03  0.24878748460E+03  0.00000000000E+00 0.  1.
         23    2    1    2    0    0 -0.84558664283E+02 -0.61447523401E+02 -0.19505401250E+03  0.23903444993E+03  0.90362794459E+02 0.  0.
         23    2    1    2    0    0  0.10481189232E+03 -0.36985556040E+02  0.19653152526E+03  0.24421616598E+03  0.93077554636E+02 0.  0.
        -13    1    4    4    0    0  0.10702987541E+03 -0.19014862386E+00  0.13245579502E+03  0.17029376977E+03  0.00000000000E+00 0. -1.
         13    1    4    4    0    0 -0.22179830912E+01 -0.36795407416E+02  0.64075730240E+02  0.73922396212E+02  0.00000000000E+00 0.  1.
        -13    1    3    3    0    0 -0.23560481878E+02  0.15111375530E+02 -0.10068626597E+02  0.29746045423E+02  0.00000000000E+00 0. -1.
         13    1    3    3    0    0 -0.60998182404E+02 -0.76558898931E+02 -0.18498538591E+03  0.20928840451E+03  0.00000000000E+00 0.  1.
         -2    1    1    2    0  502 -0.20253228038E+02  0.98433079440E+02  0.31165829964E+03  0.32746016568E+03  0.00000000000E+00 0.  1.
<scales pt_clust_5="13000.00000" pt_clust_6="13000.00000" pt_clust_7="13000.00000" pt_clust_8="13000.00000" pt_clust_9="100.49510"></scales>
<clustering>
<clus scale="   90.363">  7  8 -1 -1</clus>
<clus scale="   93.078">  5  6 -1 -1</clus>
<clus scale="  100.495">  1  9  2 -1</clus>
<clus scale="  135.601">  2  7  1 -1</clus>
<clus scale="  100.495">  1  5  2 -1</clus>
</clustering>
</event>
<event>
 9    1  0.1504846E-005  0.3815213E+03  0.7546771E-02  0.1050394E+00
         21   -1    0    0  501  502  0.00000000000E+00  0.00000000000E+00  0.42615753699E+03  0.42615753699E+03  0.00000000000E+00 0. -1.
          1   -1    0    0  502    0 -0.00000000000E+00 -0.00000000000E+00 -0.10086851473E+04  0.10086851473E+04  0.00000000000E+00 0. -1.
         23    2    1    2    0    0  0.38435030024E+03  0.13944376054E+03 -0.82527641350E+03  0.92563603736E+03  0.92472694997E+02 0.  0.
         23    2    1    2    0    0 -0.23444883039E+03 -0.29985446853E+02  0.90477114947E+02  0.26912699319E+03  0.91530590723E+02 0.  0.
        -11    1    4    4    0    0 -0.13653654715E+03  0.28347893244E+02  0.52229927643E+02  0.14890868712E+03  0.00000000000E+00 0.  1.
         11    1    4    4    0    0 -0.97912283244E+02 -0.58333340097E+02  0.38247187304E+02  0.12021830607E+03  0.00000000000E+00 0. -1.
        -13    1    3    3    0    0  0.26245725875E+03  0.48072593077E+02 -0.53066529202E+03  0.59397006576E+03  0.00000000000E+00 0. -1.
         13    1    3    3    0    0  0.12189304150E+03  0.91371167463E+02 -0.29461112149E+03  0.33166597159E+03  0.00000000000E+00 0.  1.
          1    1    1    2  501    0 -0.14990146985E+03 -0.10945831369E+03  0.15227168825E+03  0.24007965374E+03  0.00000000000E+00 0. -1.
<scales pt_clust_5="13000.00000" pt_clust_6="13000.00000" pt_clust_7="13000.00000" pt_clust_8="13000.00000" pt_clust_9="185.61135"></scales>
<clustering>
<clus scale="   91.531">  5  6 -1 -1</clus>
<clus scale="   92.473">  7  8 -1 -1</clus>
<clus scale="  185.611">  1  9  2 -1</clus>
<clus scale="  381.294">  1  5  2 -1</clus>
<clus scale="  185.611">  1  5  2 -1</clus>
</clustering>
</event>
<event>
 9    1  0.1504846E-005  0.1068419E+03  0.7546771E-02  0.1267332E+00
         21   -1    0    0  501  502  0.00000000000E+00  0.00000000000E+00  0.13771698062E+03  0.13771698062E+03  0.00000000000E+00 0.  1.
          2   -1    0    0  502    0 -0.00000000000E+00 -0.00000000000E+00 -0.20558753784E+03  0.20558753784E+03  0.00000000000E+00 0. -1.
         23    2    1    2    0    0 -0.30421100155E+02 -0.30117522700E+02 -0.98551266198E+02  0.14211945765E+03  0.93021931103E+02 0.  0.
         23    2    1    2    0    0  0.79486071916E+02  0.55249607691E+02  0.51058550264E+02  0.14241219661E+03  0.91124658632E+02 0.  0.
        -11    1    3    3    0    0  0.76941415143E+00 -0.38938491625E+02 -0.60684267292E+00  0.38950820097E+02  0.00000000000E+00 0.  1.
         11    1    3    3    0    0 -0.31190514307E+02  0.88209689256E+01 -0.97944423525E+02  0.10316863756E+03  0.00000000000E+00 0. -1.
        -13    1    4    4    0    0  0.35599871157E+02  0.66043835468E+02  0.10874640857E+01  0.75035468999E+02  0.00000000000E+00 0.  1.
         13    1    4    4    0    0  0.43886200758E+02 -0.10794227777E+02  0.49971086178E+02  0.67376727615E+02  0.00000000000E+00 0. -1.
          2    1    1    2  501    0 -0.49064971760E+02 -0.25132084991E+02 -0.20377841282E+02  0.58772864191E+02  0.00000000000E+00 0. -1.
<scales pt_clust_5="13000.00000" pt_clust_6="13000.00000" pt_clust_7="13000.00000" pt_clust_8="13000.00000" pt_clust_9="55.12709"></scales>
<clustering>
<clus scale="   55.127">  1  9  2 -1</clus>
<clus scale="   91.125">  7  8 -1 -1</clus>
<clus scale="   93.022">  5  6 -1 -1</clus>
<clus scale="  105.194">  1  7  2 -1</clus>
<clus scale="   55.127">  1  5  2 -1</clus>
</clustering>
</event>
<event>
 9    1  0.1504846E-005  0.3456647E+03  0.7546771E-02  0.1064536E+00
          1   -1    0    0  502    0 -0.00000000000E+00  0.00000000000E+00  0.13089812032E+04  0.13089812032E+04  0.00000000000E+00 0. -1.
         21   -1    0    0  501  502  0.00000000000E+00 -0.00000000000E+00 -0.27524887633E+03  0.27524887633E+03  0.00000000000E+00 0. -1.
         23    2    1    2    0    0  0.11689954004E+03 -0.31207282323E+03  0.94230659076E+03  0.10035739844E+04  0.90355307788E+02 0.  0.
         23    2    1    2    0    0 -0.13729280397E+03  0.30063918861E+03  0.24697505751E+03  0.42335954519E+03  0.94886193536E+02 0.  0.
        -11    1    4    4    0    0 -0.59463569243E+02  0.22272872308E+03  0.19331781733E+03  0.30085840299E+03  0.00000000000E+00 0.  1.
         11    1    4    4    0    0 -0.77829234729E+02  0.77910465523E+02  0.53657240185E+02  0.12250114220E+03  0.00000000000E+00 0. -1.
        -11    1    3    3    0    0  0.72884606561E+02 -0.17154053618E+03  0.39440084013E+03  0.43622281477E+03  0.00000000000E+00 0. -1.
         11    1    3    3    0    0  0.44014933475E+02 -0.14053228704E+03  0.54790575063E+03  0.56735116960E+03  0.00000000000E+00 0.  1.
          1    1    1    2  501    0  0.20393263936E+02  0.11433634622E+02 -0.15554932145E+03  0.15729654992E+03  0.00000000000E+00 0. -1.
<scales pt_clust_5="13000.00000" pt_clust_6="13000.00000" pt_clust_7="13000.00000" pt_clust_8="13000.00000" pt_clust_9="23.37976"></scales>
<clustering>
<clus scale="   23.380">  2  9  1 -1</clus>
<clus scale="   90.355">  7  8 -1 -1</clus>
<clus scale="   94.886">  5  6 -1 -1</clus>
<clus scale="  344.449">  1  7  2 -1</clus>
<clus scale="   23.380">  2  5  1 -1</clus>
</clustering>
</event>
<event>
 9    1  0.1504846E-005  0.1062530E+03  0.7546771E-02  0.1268259E+00
         -2   -1    0    0    0  501 -0.00000000000E+00  0.00000000000E+00  0.13738668992E+03  0.13738668992E+03  0.00000000000E+00 0.  1.
         21   -1    0    0  501  502  0.00000000000E+00 -0.00000000000E+00 -0.17518118576E+03  0.17518118576E+03  0.00000000000E+00 0. -1.
         23    2    1    2    0    0  0.42304211172E+02  0.47716825868E+02 -0.26392748122E+02  0.11441924496E+03  0.91261408654E+02 0.  0.
         23    2    1    2    0    0  0.23388267632E+01 -0.50904885173E+02 -0.69727951249E+02  0.12462917360E+03  0.89853582462E+02 0.  0.
        -11    1    4    4    0    0  0.37748426930E+02 -0.50146168282E+02 -0.24964198953E+02  0.67548450452E+02  0.00000000000E+00 0. -1.
         11    1    4    4    0    0 -0.35409600167E+02 -0.75871689066E+00 -0.44763752296E+02  0.57080723146E+02  0.00000000000E+00 0.  1.
        -13    1    3    3    0    0  0.18608329348E+02  0.20122627207E+02  0.34151624725E+02  0.43789536629E+02  0.00000000000E+00 0.  1.
         13    1    3    3    0    0  0.23695881825E+02  0.27594198661E+02 -0.60544372847E+02  0.70629708329E+02  0.00000000000E+00 0. -1.
         -2    1    1    2    0  502 -0.44643037935E+02  0.31880593047E+01  0.58326203529E+02  0.73519457128E+02  0.00000000000E+00 0.  1.
<scales pt_clust_5="13000.00000" pt_clust_6="13000.00000" pt_clust_7="13000.00000" pt_clust_8="13000.00000" pt_clust_9="44.75675"></scales>
<clustering>
<clus scale="   44.757">  2  9  1 -1</clus>
<clus scale="   89.854">  5  6 -1 -1</clus>
<clus scale="   91.261">  7  8 -1 -1</clus>
<clus scale="  105.046">  2  5  1 -1</clus>
<clus scale="   44.757">  2  5  1 -1</clus>
</clustering>
</event>
<event>
 9    1  0.1504846E-005  0.1336376E+03  0.7546771E-02  0.1222479E+00
         -1   -1    0    0    0  501 -0.00000000000E+00  0.00000000000E+00  0.43788966539E+03  0.43788966539E+03  0.00000000000E+00 0.  1.
         21   -1    0    0  501  502  0.00000000000E+00 -0.00000000000E+00 -0.14503006754E+03  0.14503006754E+03  0.00000000000E+00 0.  1.
         23    2    1    2    0    0 -0.81198584768E+02 -0.33627062995E+02  0.17283598849E+03  0.21466199390E+03  0.92105934505E+02 0.  0.
         23    2    1    2    0    0  0.79297856167E+02  0.74780937739E+02  0.21906683727E+03  0.26098791490E+03  0.90796882605E+02 0.  0.
        -11    1    3    3    0    0 -0.77392169073E+02  0.14159153397E+02  0.11803337533E+03  0.14185170831E+03  0.00000000000E+00 0.  1.
         11    1    3    3    0    0 -0.38064156952E+01 -0.47786216393E+02  0.54802613160E+02  0.72810285583E+02  0.00000000000E+00 0. -1.
        -11    1    4    4    0    0  0.19313454840E+02  0.42049004830E+02  0.17174267431E+03  0.17786701359E+03  0.00000000000E+00 0.  1.
         11    1    4    4    0    0  0.59984401327E+02  0.32731932909E+02  0.47324162962E+02  0.83120901310E+02  0.00000000000E+00 0. -1.
         -1    1    1    2    0  502  0.19007286010E+01 -0.41153874743E+02 -0.99043227913E+02  0.10726982414E+03  0.00000000000E+00 0.  1.
<scales pt_clust_5="13000.00000" pt_clust_6="13000.00000" pt_clust_7="13000.00000" pt_clust_8="13000.00000" pt_clust_9="41.19774"></scales>
<clustering>
<clus scale="   41.198">  2  9  1 -1</clus>
<clus scale="   90.797">  7  8 -1 -1</clus>
<clus scale="   92.106">  5  6 -1 -1</clus>
<clus scale="  132.739">  2  7  1 -1</clus>
<clus scale="   41.198">  2  5  1 -1</clus>
</clustering>
</event>
<event>
 9    1  0.1504846E-005  0.1458488E+03  0.7546771E-02  0.1209781E+00
         21   -1    0    0  501  502  0.00000000000E+00  0.00000000000E+00  0.86954737767E+02  0.86954737767E+02  0.00000000000E+00 0.  1.
          1   -1    0    0  502    0 -0.00000000000E+00 -0.00000000000E+00 -0.49427100084E+03  0.49427100084E+03  0.00000000000E+00 0. -1.
         23    2    1    2    0    0 -0.10474535026E+02  0.10347118026E+03 -0.23518908471E+03  0.26700650992E+03  0.71851024652E+02 0.  0.
         23    2    1    2    0    0  0.78777514441E+02 -0.13231724269E+03 -0.82191470821E+02  0.19766098657E+03  0.92739841723E+02 0.  0.
        -13    1    4    4    0    0  0.10012537566E+03 -0.11054783953E+03 -0.65475239131E+02  0.16288929558E+03  0.00000000000E+00 0.  1.
         13    1    4    4    0    0 -0.21347861218E+02 -0.21769403160E+02 -0.16716231690E+02  0.34771690992E+02  0.00000000000E+00 0. -1.
        -13    1    3    3    0    0  0.53439189965E+01  0.30961631968E+02 -0.15330884713E+02  0.34960208101E+02  0.00000000000E+00 0.  1.
         13    1    3    3    0    0 -0.15818454023E+02  0.72509548290E+02 -0.21985820000E+03  0.23204630182E+03  0.00000000000E+00 0. -1.
          1    1    1    2  501    0 -0.68302979414E+02  0.28846062430E+02 -0.89935707542E+02  0.11655824212E+03  0.00000000000E+00 0. -1.
<scales pt_clust_5="13000.00000" pt_clust_6="13000.00000" pt_clust_7="13000.00000" pt_clust_8="13000.00000" pt_clust_9="74.14444"></scales>
<clustering>
<clus scale="   71.851">  7  8 -1 -1</clus>
<clus scale="   74.144">  1  9  2 -1</clus>
<clus scale="   92.740">  5  6 -1 -1</clus>
<clus scale="  133.543">  2  7  1 -1</clus>
<clus scale="   74.144">  1  5  2 -1</clus>
</clustering>
</event>
<event>
 9    1  0.1504846E-005  0.9458847E+02  0.7546771E-02  0.1293499E+00
          1   -1    0    0  502    0 -0.00000000000E+00  0.00000000000E+00  0.58768969564E+03  0.58768969564E+03  0.00000000000E+00 0. -1.
         21   -1    0    0  501  502  0.00000000000E+00 -0.00000000000E+00 -0.53760240871E+02  0.53760240871E+02  0.00000000000E+00 0.  1.
         23    2    1    2    0    0  0.85649434171E+01 -0.10598898408E+02  0.37149359580E+03  0.38295466883E+03  0.91984192960E+02 0.  0.
         23    2    1    2    0    0  0.36400646757E+02 -0.35574088714E+02  0.30264905519E+02  0.11144762243E+03  0.94414433038E+02 0.  0.
        -11    1    3    3    0    0  0.35085035991E+02 -0.39404593865E+02  0.18392109565E+03  0.19133910001E+03  0.00000000000E+00 0. -1.
         11    1    3    3    0    0 -0.26520092574E+02  0.28805695456E+02  0.18757250015E+03  0.19161556882E+03  0.00000000000E+00 0.  1.
        -11    1    4    4    0    0  0.62363308242E+02 -0.41337077080E+01  0.33477337199E+01  0.62589752160E+02  0.00000000000E+00 0. -1.
         11    1    4    4    0    0 -0.25962661485E+02 -0.31440381006E+02  0.26917171800E+02  0.48857870266E+02  0.00000000000E+00 0.  1.
          1    1    1    2  501    0 -0.44965590174E+02  0.46172987123E+02  0.13217095345E+03  0.14704764526E+03  0.00000000000E+00 0. -1.
<scales pt_clust_5="13000.00000" pt_clust_6="13000.00000" pt_clust_7="13000.00000" pt_clust_8="13000.00000" pt_clust_9="64.45039"></scales>
<clustering>
<clus scale="   64.450">  2  9  1 -1</clus>
<clus scale="   91.984">  5  6 -1 -1</clus>
<clus scale="   92.163">  1  5  2 -1</clus>
<clus scale="   94.414">  7  8 -1 -1</clus>
<clus scale="   64.450">  2  5  1 -1</clus>
</clustering>
</event>
<event>
 9    1  0.1504846E-005  0.9512277E+02  0.7546771E-02  0.1291867E+00
         21   -1    0    0  501  502  0.00000000000E+00  0.00000000000E+00  0.48684796962E+02  0.48684796962E+02  0.00000000000E+00 0.  1.
          1   -1    0    0  502    0 -0.00000000000E+00 -0.00000000000E+00 -0.29972468526E+03  0.29972468526E+03  0.00000000000E+00 0. -1.
         23    2    1    2    0    0  0.15280758173E+02 -0.29296740066E+02 -0.96502938686E+02  0.13711667066E+03  0.91631673827E+02 0.  0.
         23    2    1    2    0    0  0.23604979043E+02  0.57035979623E+01 -0.87260573796E+02  0.13008414419E+03  0.93368896138E+02 0.  0.
        -13    1    4    4    0    0  0.44086963990E+02 -0.24035953426E+02 -0.20606850929E+02  0.54277341094E+02  0.00000000000E+00 0.  1.
         13    1    4    4    0    0 -0.20481984948E+02  0.29739551388E+02 -0.66653722867E+02  0.75806803099E+02  0.00000000000E+00 0. -1.
        -13    1    3    3    0    0 -0.16742893049E+02 -0.38512784915E+02 -0.94874821629E+02  0.10375351006E+03  0.00000000000E+00 0. -1.
         13    1    3    3    0    0  0.32023651222E+02  0.92160448492E+01 -0.16281170570E+01  0.33363160603E+02  0.00000000000E+00 0.  1.
          1    1    1    2  501    0 -0.38885737216E+02  0.23593142103E+02 -0.67276375811E+02  0.81208667366E+02  0.00000000000E+00 0. -1.
<scales pt_clust_5="13000.00000" pt_clust_6="13000.00000" pt_clust_7="13000.00000" pt_clust_8="13000.00000" pt_clust_9="45.48339"></scales>
<clustering>
<clus scale="   45.483">  1  9  2 -1</clus>
<clus scale="   91.632">  7  8 -1 -1</clus>
<clus scale="   93.369">  5  6 -1 -1</clus>
<clus scale="   93.418">  2  7  1 -1</clus>
<clus scale="   45.483">  1  5  2 -1</clus>
</clustering>
</event>
<event>
 9    1  0.1504846E-005  0.1272295E+03  0.7546771E-02  0.1241789E+00
         21   -1    0    0  501  502  0.00000000000E+00  0.00000000000E+00  0.21864821868E+03  0.21864821868E+03  0.00000000000E+00 0.  1.
          4   -1    0    0  502    0 -0.00000000000E+00 -0.00000000000E+00 -0.17539837507E+03  0.17539837507E+03  0.00000000000E+00 0. -1.
         23    2    1    2    0    0  0.63766962655E+02  0.36535782627E+01 -0.72316570131E+02  0.15070805278E+03  0.11577416247E+03 0.  0.
         23    2    1    2    0    0 -0.41901438705E+02 -0.95466720578E+00 -0.24704635821E+02  0.10134786310E+03  0.88906852208E+02 0.  0.
        -13    1    3    3    0    0  0.30109488499E+02  0.40560062342E+02  0.12716065256E+02  0.52090289598E+02  0.00000000000E+00 0.  1.
         13    1    3    3    0    0  0.33657474156E+02 -0.36906484079E+02 -0.85032635387E+02  0.98617763179E+02  0.00000000000E+00 0. -1.
        -13    1    4    4    0    0 -0.58423785892E+02  0.17095335843E+02 -0.39675074122E+02  0.72661549475E+02  0.00000000000E+00 0. -1.
         13    1    4    4    0    0  0.16522347187E+02 -0.18050003049E+02  0.14970438301E+02  0.28686313628E+02  0.00000000000E+00 0.  1.
          4    1    1    2  501    0 -0.21865523950E+02 -0.26989110569E+01  0.14027104956E+03  0.14199067788E+03  0.00000000000E+00 0. -1.
<scales pt_clust_5="13000.00000" pt_clust_6="13000.00000" pt_clust_7="13000.00000" pt_clust_8="13000.00000" pt_clust_9="22.03146"></scales>
<clustering>
<clus scale="   22.031">  1  9  2 -1</clus>
<clus scale="   88.907">  7  8 -1 -1</clus>
<clus scale="  103.383">  1  7  2 -1</clus>
<clus scale="  115.774">  5  6 -1 -1</clus>
<clus scale="   22.031">  1  5  2 -1</clus>
</clustering>
</event>
<event>
 9    1  0.1504846E-005  0.9885774E+02  0.7546771E-02  0.1286789E+00
         21   -1    0    0  501  502  0.00000000000E+00  0.00000000000E+00  0.38483725972E+03  0.38483725972E+03  0.00000000000E+00 0. -1.
          1   -1    0    0  502    0 -0.00000000000E+00 -0.00000000000E+00 -0.90123544236E+02  0.90123544236E+02  0.00000000000E+00 0. -1.
         23    2    1    2    0    0  0.51757344406E+01 -0.23720354818E+02 -0.41978050821E+02  0.10211048468E+03  0.89860730422E+02 0.  0.
         23    2    1    2    0    0  0.16105323277E+02 -0.29059037280E+02  0.20316118094E+03  0.22769879542E+03  0.97306047656E+02 0.  0.
        -11    1    4    4    0    0 -0.16808609520E+02 -0.54675257079E+02  0.85548710430E+02  0.10291013044E+03  0.00000000000E+00 0. -1.
         11    1    4    4    0    0  0.32913932797E+02  0.25616219799E+02  0.11761247051E+03  0.12478866499E+03  0.00000000000E+00 0.  1.
        -13    1    3    3    0    0  0.48169140008E+01  0.32478533599E+02 -0.15321956218E+01  0.32869521272E+02  0.00000000000E+00 0.  1.
         13    1    3    3    0    0  0.35882043981E+00 -0.56198888417E+02 -0.40445855199E+02  0.69240963412E+02  0.00000000000E+00 0. -1.
          1    1    1    2  501    0 -0.21281057718E+02  0.52779392098E+02  0.13353058536E+03  0.14515152385E+03  0.00000000000E+00 0. -1.
<scales pt_clust_5="13000.00000" pt_clust_6="13000.00000" pt_clust_7="13000.00000" pt_clust_8="13000.00000" pt_clust_9="56.90824"></scales>
<clustering>
<clus scale="   56.908">  1  9  2 -1</clus>
<clus scale="   89.861">  7  8 -1 -1</clus>
<clus scale="   91.539">  2  7  1 -1</clus>
<clus scale="   97.306">  5  6 -1 -1</clus>
<clus scale="   56.908">  1  5  2 -1</clus>
</clustering>
</event>
<event>
 9    1  0.1504846E-005  0.1384957E+03  0.7546771E-02  0.1215372E+00
          4   -1    0    0  502    0 -0.00000000000E+00  0.00000000000E+00  0.22458435166E+03  0.22458435166E+03  0.00000000000E+00 0. -1.
         21   -1    0    0  501  502  0.00000000000E+00 -0.00000000000E+00 -0.16122940815E+03  0.16122940815E+03  0.00000000000E+00 0. -1.
         23    2    1    2    0    0  0.61981030723E+02  0.72921687852E+02  0.89729797641E+02  0.15972153353E+03  0.91106042390E+02 0.  0.
         23    2    1    2    0    0 -0.71491891922E+02 -0.94436720826E+02  0.40823741919E+02  0.15489528508E+03  0.91085600316E+02 0.  0.
        -11    1    4    4    0    0 -0.44777292393E+02 -0.97259780825E+02  0.12676592571E+01  0.10707977325E+03  0.00000000000E+00 0.  1.
         11    1    4    4    0    0 -0.26714599528E+02  0.28230599980E+01  0.39556082662E+02  0.47815511827E+02  0.00000000000E+00 0. -1.
        -13    1    3    3    0    0  0.16423922422E+01 -0.20572892399E+02  0.17507625660E+02  0.27063967008E+02  0.00000000000E+00 0.  1.
         13    1    3    3    0    0  0.60338638481E+02  0.93494580251E+02  0.72222171981E+02  0.13265756652E+03  0.00000000000E+00 0. -1.
          4    1    1    2  501    0  0.95108611984E+01  0.21515032974E+02 -0.67198596047E+02  0.71196941193E+02  0.00000000000E+00 0. -1.
<scales pt_clust_5="13000.00000" pt_clust_6="13000.00000" pt_clust_7="13000.00000" pt_clust_8="13000.00000" pt_clust_9="23.52346"></scales>
<clustering>
<clus scale="   23.523">  2  9  1 -1</clus>
<clus scale="   91.086">  5  6 -1 -1</clus>
<clus scale="   91.106">  7  8 -1 -1</clus>
<clus scale="  138.482">  2  5  1 -1</clus>
<clus scale="   23.523">  2  5  1 -1</clus>
</clustering>
</event>
<event>
 9    1  0.1504846E-005  0.1617375E+03  0.7546771E-02  0.1187986E+00
         21   -1    0    0  501  502  0.00000000000E+00  0.00000000000E+00  0.68746986581E+02  0.68746986581E+02  0.00000000000E+00 0. -1.
          1   -1    0    0  502    0 -0.00000000000E+00 -0.00000000000E+00 -0.74972189156E+03  0.74972189156E+03  0.00000000000E+00 0. -1.
         23    2    1    2    0    0  0.13720651415E+03  0.39324294070E+02 -0.50492805275E+03  0.53430494640E+03  0.10078397521E+03 0.  0.
         23    2    1    2    0    0 -0.92045831234E+02 -0.45467499861E+02 -0.19101730984E+03  0.23619163912E+03  0.93590326116E+02 0.  0.
        -13    1    4    4    0    0 -0.67276679660E+02 -0.56432712689E+02 -0.70335756147E+02  0.11250742767E+03  0.00000000000E+00 0. -1.
         13    1    4    4    0    0 -0.24769151574E+02  0.10965212828E+02 -0.12068155369E+03  0.12368421146E+03  0.00000000000E+00 0.  1.
        -13    1    3    3    0    0 -0.53611888732E+01  0.26921252240E+02 -0.45849065032E+02  0.53438122465E+02  0.00000000000E+00 0.  1.
         13    1    3    3    0    0  0.14256770302E+03  0.12403041829E+02 -0.45907898772E+03  0.48086682393E+03  0.00000000000E+00 0. -1.
          1    1    1    2  501    0 -0.45160682911E+02  0.61432057913E+01  0.14970457611E+02  0.47972292623E+02  0.00000000000E+00 0. -1.
<scales pt_clust_5="13000.00000" pt_clust_6="13000.00000" pt_clust_7="13000.00000" pt_clust_8="13000.00000" pt_clust_9="45.57660"></scales>
<clustering>
<clus scale="   45.577">  1  9  2 -1</clus>
<clus scale="   93.590">  5  6 -1 -1</clus>
<clus scale="  100.784">  7  8 -1 -1</clus>
<clus scale="  157.356">  1  5  2 -1</clus>
<clus scale="   45.577">  1  5  2 -1</clus>
</clustering>
</event>
<event>
 9    1  0.1504846E-005  0.1574599E+03  0.7546771E-02  0.1209908E+00
         -1   -1    0    0    0  501 -0.00000000000E+00  0.00000000000E+00  0.95458188382E+02  0.95458188382E+02  0.00000000000E+00 0.  1.
         21   -1    0    0  501  502  0.00000000000E+00 -0.00000000000E+00 -0.50450154918E+03  0.50450154918E+03  0.00000000000E+00 0.  1.
         23    2    1    2    0    0 -0.22299818709E+02 -0.43872846749E+02 -0.64665644134E+02  0.12403005784E+03  0.93700059344E+02 0.  0.
         23    2    1    2    0    0 -0.75966531538E+02 -0.26328458968E+02 -0.29662108337E+02  0.13883857476E+03  0.10923464426E+03 0.  0.
        -13    1    3    3    0    0 -0.26437147541E+02  0.25222569631E+02 -0.20058255246E+02  0.41682543017E+02  0.00000000000E+00 0.  1.
         13    1    3    3    0    0  0.41373288318E+01 -0.69095416380E+02 -0.44607388888E+02  0.82347514826E+02  0.00000000000E+00 0. -1.
        -13    1    4    4    0    0 -0.16395549731E+02 -0.39683881611E+02 -0.57482626672E+02  0.71748706468E+02  0.00000000000E+00 0.  1.
         13    1    4    4    0    0 -0.59570981808E+02  0.13355422642E+02  0.27820518335E+02  0.67089868296E+02  0.00000000000E+00 0. -1.
         -1    1    1    2    0  502  0.98266350247E+02  0.70201305717E+02 -0.31471560833E+03  0.33709110495E+03  0.00000000000E+00 0.  1.
<scales pt_clust_5="13000.00000" pt_clust_6="13000.00000" pt_clust_7="13000.00000" pt_clust_8="13000.00000" pt_clust_9="113.40816"></scales>
<clustering>
<clus scale="   93.700">  5  6 -1 -1</clus>
<clus scale="  105.839">  1  5  2 -1</clus>
<clus scale="  109.235">  7  8 -1 -1</clus>
<clus scale="  113.408">  2  9  1 -1</clus>
<clus scale="  113.408">  2  5  1 -1</clus>
</clustering>
</event>
<event>
 9    1  0.1504846E-005  0.1185358E+03  0.7546771E-02  0.1250068E+00
         -2   -1    0    0    0  501 -0.00000000000E+00  0.00000000000E+00  0.37659337870E+03  0.37659337870E+03  0.00000000000E+00 0.  1.
         21   -1    0    0  501  502  0.00000000000E+00 -0.00000000000E+00 -0.52451192157E+02  0.52451192157E+02  0.00000000000E+00 0. -1.
         23    2    1    2    0    0  0.39080055896E+02  0.29383779974E+02  0.18175320076E+03  0.20877347197E+03  0.90340906101E+02 0.  0.
         23    2    1    2    0    0 -0.71336114435E+02 -0.44354367881E+02  0.11314320778E+03  0.17422886452E+03  0.10246053188E+03 0.  0.
        -11    1    3    3    0    0  0.16220915358E+02  0.43174860829E+02  0.30759188899E+02  0.55437481945E+02  0.00000000000E+00 0. -1.
         11    1    3    3    0    0  0.22859140538E+02 -0.13791080855E+02  0.15099401186E+03  0.15333599002E+03  0.00000000000E+00 0.  1.
        -13    1    4    4    0    0 -0.50725028159E+02 -0.70910574173E+02  0.44701851324E+02  0.97977515395E+02  0.00000000000E+00 0.  1.
         13    1    4    4    0    0 -0.20611086276E+02  0.26556206292E+02  0.68441356456E+02  0.76251349127E+02  0.00000000000E+00 0. -1.
         -2    1    1    2    0  502  0.32256058539E+02  0.14970587907E+02  0.29245778000E+02  0.46042234368E+02  0.00000000000E+00 0.  1.
<scales pt_clust_5="13000.00000" pt_clust_6="13000.00000" pt_clust_7="13000.00000" pt_clust_8="13000.00000" pt_clust_9="35.56082"></scales>
<clustering>
<clus scale="   35.561">  2  9  1 -1</clus>
<clus scale="   90.341">  5  6 -1 -1</clus>
<clus scale="  102.461">  7  8 -1 -1</clus>
<clus scale="  108.232">  1  5  2 -1</clus>
<clus scale="   35.561">  2  5  1 -1</clus>
</clustering>
</event>
<event>
 9    1  0.1504846E-005  0.2098522E+03  0.7546771E-02  0.1141764E+00
          1   -1    0    0  502    0 -0.00000000000E+00  0.00000000000E+00  0.34820905833E+03  0.34820905833E+03  0.00000000000E+00 0. -1.
         21   -1    0    0  501  502  0.00000000000E+00 -0.00000000000E+00 -0.67269069946E+03  0.67269069946E+03  0.00000000000E+00 0.  1.
         23    2    1    2    0    0 -0.95576190200E+02 -0.16037143107E+03  0.24931000103E+03  0.32425561445E+03  0.90179947067E+02 0.  0.
         23    2    1    2    0    0  0.19171524168E+03  0.15355569361E+03 -0.52969853530E+03  0.59065653289E+03  0.89221727269E+02 0.  0.
        -11    1    4    4    0    0  0.13171506641E+03  0.64579587714E+02 -0.23501728577E+03  0.27704242722E+03  0.00000000000E+00 0.  1.
         11    1    4    4    0    0  0.60000175269E+02  0.88976105895E+02 -0.29468124953E+03  0.31361410567E+03  0.00000000000E+00 0. -1.
        -13    1    3    3    0    0 -0.22849654204E+02  0.70446383411E+01  0.20033244421E+02  0.31193981930E+02  0.00000000000E+00 0.  1.
         13    1    3    3    0    0 -0.72726535996E+02 -0.16741606941E+03  0.22927675660E+03  0.29306163252E+03  0.00000000000E+00 0. -1.
          1    1    1    2  501    0 -0.96139051479E+02  0.68157374626E+01 -0.44093106857E+02  0.10598761045E+03  0.00000000000E+00 0. -1.
<scales pt_clust_5="13000.00000" pt_clust_6="13000.00000" pt_clust_7="13000.00000" pt_clust_8="13000.00000" pt_clust_9="96.38035"></scales>
<clustering>
<clus scale="   89.222">  5  6 -1 -1</clus>
<clus scale="   90.180">  7  8 -1 -1</clus>
<clus scale="   96.380">  2  9  1 -1</clus>
<clus scale="  209.442">  2  5  1 -1</clus>
<clus scale="   96.380">  2  5  1 -1</clus>
</clustering>
</event>
<event>
 9    1  0.1504846E-005  0.1926638E+03  0.7546771E-02  0.1156176E+00
         21   -1    0    0  501  502  0.00000000000E+00  0.00000000000E+00  0.10939402107E+03  0.10939402107E+03  0.00000000000E+00 0. -1.
          1   -1    0    0  502    0 -0.00000000000E+00 -0.00000000000E+00 -0.81284618704E+03  0.81284618704E+03  0.00000000000E+00 0. -1.
         23    2    1    2    0    0  0.20298787987E+03  0.26747118164E+02 -0.54248379867E+03  0.58707578376E+03  0.91922882581E+02 0.  0.
         23    2    1    2    0    0 -0.12503705004E+03  0.98733048665E+01 -0.18853961101E+03  0.24473455797E+03  0.92822803835E+02 0.  0.
        -13    1    4    4    0    0 -0.65716401054E+02 -0.40149167166E+02 -0.11045430003E+03  0.13465048603E+03  0.00000000000E+00 0.  1.
         13    1    4    4    0    0 -0.59320648989E+02  0.50022472033E+02 -0.78085310977E+02  0.11008407194E+03  0.00000000000E+00 0. -1.
        -13    1    3    3    0    0  0.19148567640E+03  0.44370370432E+02 -0.43213225294E+03  0.47473548221E+03  0.00000000000E+00 0. -1.
         13    1    3    3    0    0  0.11502203474E+02 -0.17623252268E+02 -0.11035154573E+03  0.11234030154E+03  0.00000000000E+00 0.  1.
          1    1    1    2  501    0 -0.77950829829E+02 -0.36620423031E+02  0.27571243713E+02  0.90429866382E+02  0.00000000000E+00 0. -1.
<scales pt_clust_5="13000.00000" pt_clust_6="13000.00000" pt_clust_7="13000.00000" pt_clust_8="13000.00000" pt_clust_9="86.12425"></scales>
<clustering>
<clus scale="   86.124">  1  9  2 -1</clus>
<clus scale="   91.923">  7  8 -1 -1</clus>
<clus scale="   92.823">  5  6 -1 -1</clus>
<clus scale="  192.232">  2  7  1 -1</clus>
<clus scale="   86.124">  1  5  2 -1</clus>
</clustering>
</event>
<event>
 9    1  0.1504846E-005  0.1131791E+03  0.7546771E-02  0.1255694E+00
         -1   -1    0    0    0  501 -0.00000000000E+00  0.00000000000E+00  0.50239215264E+02  0.50239215264E+02  0.00000000000E+00 0.  1.
         21   -1    0    0  501  502  0.00000000000E+00 -0.00000000000E+00 -0.45491522303E+03  0.45491522303E+03  0.00000000000E+00 0.  1.
         23    2    1    2    0    0  0.55445276441E+02 -0.19467678436E+02 -0.96250021353E+02  0.14319770208E+03  0.88251606713E+02 0.  0.
         23    2    1    2    0    0 -0.59342933228E+02  0.57162209898E+02 -0.12659190783E+03  0.17621578336E+03  0.90760063984E+02 0.  0.
        -13    1    4    4    0    0 -0.18721577999E+01  0.20114734264E+02  0.10684218807E+02  0.22853009448E+02  0.00000000000E+00 0. -1.
         13    1    4    4    0    0 -0.57470775428E+02  0.37047475634E+02 -0.13727612663E+03  0.15336277392E+03  0.00000000000E+00 0.  1.
        -13    1    3    3    0    0  0.77651487844E+02 -0.10996280488E+02 -0.55691605650E+02  0.96188495616E+02  0.00000000000E+00 0.  1.
         13    1    3    3    0    0 -0.22206211404E+02 -0.84713979474E+01 -0.40558415703E+02  0.47009206464E+02  0.00000000000E+00 0. -1.
         -1    1    1    2    0  502  0.38976567868E+01 -0.37694531462E+02 -0.18183407858E+03  0.18574095285E+03  0.00000000000E+00 0.  1.
<scales pt_clust_5="13000.00000" pt_clust_6="13000.00000" pt_clust_7="13000.00000" pt_clust_8="13000.00000" pt_clust_9="37.89551"></scales>
<clustering>
<clus scale="   37.896">  2  9  1 -1</clus>
<clus scale="   88.252">  7  8 -1 -1</clus>
<clus scale="   90.760">  5  6 -1 -1</clus>
<clus scale="  111.178">  1  7  2 -1</clus>
<clus scale="   37.896">  2  5  1 -1</clus>
</clustering>
</event>
<event>
 9    1  0.1504846E-005  0.9560030E+02  0.7546771E-02  0.1290326E+00
         -1   -1    0    0    0  501 -0.00000000000E+00  0.00000000000E+00  0.43920591806E+02  0.43920591806E+02  0.00000000000E+00 0.  1.
         21   -1    0    0  501  502  0.00000000000E+00 -0.00000000000E+00 -0.43299986715E+03  0.43299986715E+03  0.00000000000E+00 0. -1.
         23    2    1    2    0    0 -0.59039961066E+01  0.17998593440E+02 -0.40313937803E+02  0.10228355001E+03  0.92075536845E+02 0.  0.
         23    2    1    2    0    0  0.32229100579E+02 -0.26213974594E+02 -0.31492498198E+03  0.33098289106E+03  0.92984098174E+02 0.  0.
        -11    1    3    3    0    0 -0.32387212300E+02  0.10493836733E+01  0.17236977901E+02  0.36703489396E+02  0.00000000000E+00 0.  1.
         11    1    3    3    0    0  0.26483216194E+02  0.16949209767E+02 -0.57550915703E+02  0.65580060613E+02  0.00000000000E+00 0. -1.
        -13    1    4    4    0    0  0.54820556879E+02 -0.40899297789E+02 -0.16431592844E+03  0.17798250013E+03  0.00000000000E+00 0. -1.
         13    1    4    4    0    0 -0.22591456300E+02  0.14685323195E+02 -0.15060905354E+03  0.15300039093E+03  0.00000000000E+00 0.  1.
         -1    1    1    2    0  502 -0.26325104472E+02  0.82153811535E+01 -0.33840355564E+02  0.43654017887E+02  0.00000000000E+00 0.  1.
<scales pt_clust_5="13000.00000" pt_clust_6="13000.00000" pt_clust_7="13000.00000" pt_clust_8="13000.00000" pt_clust_9="27.57724"></scales>
<clustering>
<clus scale="   27.577">  2  9  1 -1</clus>
<clus scale="   92.076">  5  6 -1 -1</clus>
<clus scale="   92.984">  7  8 -1 -1</clus>
<clus scale="   94.717">  1  5  2 -1</clus>
<clus scale="   27.577">  2  5  1 -1</clus>
</clustering>
</event>
<event>
 9    1  0.1504846E-005  0.1042715E+03  0.7546771E-02  0.1276422E+00
          3   -1    0    0  502    0 -0.00000000000E+00  0.00000000000E+00  0.17068230646E+03  0.17068230646E+03  0.00000000000E+00 0. -1.
         21   -1    0    0  501  502  0.00000000000E+00 -0.00000000000E+00 -0.79483177116E+02  0.79483177116E+02  0.00000000000E+00 0.  1.
         23    2    1    2    0    0 -0.17207063748E+02 -0.28117016056E+02  0.82429409879E+02  0.13352591419E+03  0.99739222544E+02 0.  0.
         23    2    1    2    0    0  0.28426036343E+02  0.10774725356E+02  0.12026317305E+02  0.95729623841E+02  0.89974409274E+02 0.  0.
        -11    1    4    4    0    0  0.42007709048E+02  0.42270685934E+02  0.66636911459E+00  0.59597840200E+02  0.00000000000E+00 0.  1.
         11    1    4    4    0    0 -0.13581672705E+02 -0.31495960578E+02  0.11359948191E+02  0.36131783641E+02  0.00000000000E+00 0. -1.
        -13    1    3    3    0    0  0.34517776768E+02  0.12590963658E+02  0.16215147002E+02  0.40161427653E+02  0.00000000000E+00 0.  1.
         13    1    3    3    0    0 -0.51724840515E+02 -0.40707979715E+02  0.66214262877E+02  0.93364486541E+02  0.00000000000E+00 0. -1.
          3    1    1    2  501    0 -0.11218972595E+02  0.17342290700E+02 -0.32565978448E+01  0.20909945536E+02  0.00000000000E+00 0. -1.
<scales pt_clust_5="13000.00000" pt_clust_6="13000.00000" pt_clust_7="13000.00000" pt_clust_8="13000.00000" pt_clust_9="20.65479"></scales>
<clustering>
<clus scale="   20.655">  2  9  1 -1</clus>
<clus scale="   89.974">  5  6 -1 -1</clus>
<clus scale="   94.974">  2  5  1 -1</clus>
<clus scale="   99.739">  7  8 -1 -1</clus>
<clus scale="   20.655">  2  5  1 -1</clus>
</clustering>
</event>
<event>
 9    1  0.1504846E-005  0.1720488E+03  0.7546771E-02  0.1175776E+00
         21   -1    0    0  501  502  0.00000000000E+00  0.00000000000E+00  0.10957912488E+04  0.10957912488E+04  0.00000000000E+00 0.  1.
          1   -1    0    0  502    0 -0.00000000000E+00 -0.00000000000E+00 -0.41450386034E+02  0.41450386034E+02  0.00000000000E+00 0. -1.
         23    2    1    2    0    0 -0.49397017141E+02 -0.13274181701E+03  0.29255600522E+03  0.33755409317E+03  0.91067526247E+02 0.  0.
         23    2    1    2    0    0  0.29382802293E+02  0.15510296292E+03  0.74135300823E+03  0.76338258184E+03  0.90710557607E+02 0.  0.
        -11    1    3    3    0    0 -0.28928331185E+02 -0.16007160682E+02  0.14279050705E+03  0.14656809490E+03  0.00000000000E+00 0.  1.
         11    1    3    3    0    0 -0.20468685956E+02 -0.11673465632E+03  0.14976549817E+03  0.19098599827E+03  0.00000000000E+00 0. -1.
        -11    1    4    4    0    0  0.27378379852E+02  0.27801922834E+02  0.70710912819E+02  0.80762341400E+02  0.00000000000E+00 0. -1.
         11    1    4    4    0    0  0.20044224409E+01  0.12730104009E+03  0.67064209541E+03  0.68262024044E+03  0.00000000000E+00 0.  1.
          1    1    1    2  501    0  0.20014214848E+02 -0.22361145916E+02  0.20431849331E+02  0.36304959851E+02  0.00000000000E+00 0. -1.
<scales pt_clust_5="13000.00000" pt_clust_6="13000.00000" pt_clust_7="13000.00000" pt_clust_8="13000.00000" pt_clust_9="30.00984"></scales>
<clustering>
<clus scale="   30.010">  1  9  2 -1</clus>
<clus scale="   90.711">  7  8 -1 -1</clus>
<clus scale="   91.068">  5  6 -1 -1</clus>
<clus scale="  171.860">  1  7  2 -1</clus>
<clus scale="   30.010">  1  5  2 -1</clus>
</clustering>
</event>
<event>
 9    1  0.1504846E-005  0.2272307E+03  0.7546771E-02  0.1129268E+00
          1   -1    0    0  502    0 -0.00000000000E+00  0.00000000000E+00  0.99665485456E+03  0.99665485456E+03  0.00000000000E+00 0. -1.
         21   -1    0    0  501  502  0.00000000000E+00 -0.00000000000E+00 -0.14249949739E+03  0.14249949739E+03  0.00000000000E+00 0. -1.
         23    2    1    2    0    0  0.19027555770E+03  0.27431472148E+02  0.56667949208E+03  0.60520579616E+03  0.90504891806E+02 0.  0.
         23    2    1    2    0    0 -0.25464295309E+03  0.10440476301E+03  0.24392425147E+03  0.38091033331E+03  0.99248443149E+02 0.  0.
        -11    1    3    3    0    0  0.18510096536E+02  0.29742037553E+02  0.52710341731E+02  0.63289751121E+02  0.00000000000E+00 0.  1.
         11    1    3    3    0    0  0.17176546117E+03 -0.23105654055E+01  0.51396915034E+03  0.54191604504E+03  0.00000000000E+00 0. -1.
        -11    1    4    4    0    0 -0.28195737220E+02  0.48803341523E+02  0.27243677336E+02  0.62601786684E+02  0.00000000000E+00 0.  1.
         11    1    4    4    0    0 -0.22644721587E+03  0.55601421489E+02  0.21668057413E+03  0.31830854663E+03  0.00000000000E+00 0. -1.
          1    1    1    2  501    0  0.64367395390E+02 -0.13183623516E+03  0.43551613627E+02  0.15303822248E+03  0.00000000000E+00 0. -1.
<scales pt_clust_5="13000.00000" pt_clust_6="13000.00000" pt_clust_7="13000.00000" pt_clust_8="13000.00000" pt_clust_9="146.71044"></scales>
<clustering>
<clus scale="   90.505">  5  6 -1 -1</clus>
<clus scale="   99.248">  7  8 -1 -1</clus>
<clus scale="  146.710">  2  9  1 -1</clus>
<clus scale="  223.550">  1  5  2 -1</clus>
<clus scale="  146.710">  2  5  1 -1</clus>
</clustering>
</event>
<event>
 9    1  0.1504846E-005  0.9573891E+02  0.7546771E-02  0.1290512E+00
         -1   -1    0    0    0  501 -0.00000000000E+00  0.00000000000E+00  0.13561848850E+03  0.13561848850E+03  0.00000000000E+00 0.  1.
         21   -1    0    0  501  502  0.00000000000E+00 -0.00000000000E+00 -0.26429237308E+03  0.26429237308E+03  0.00000000000E+00 0.  1.
         23    2    1    2    0    0 -0.34290902970E+02  0.10448564837E+02  0.50582291384E+02  0.11143112181E+03  0.92592052422E+02 0.  0.
         23    2    1    2    0    0 -0.10479489540E+01 -0.20918266109E+02  0.11802125285E+02  0.93898847663E+02  0.90769110259E+02 0.  0.
        -11    1    3    3    0    0 -0.29259149003E+02  0.39275529951E+02  0.62868360584E+02  0.79693762716E+02  0.00000000000E+00 0.  1.
         11    1    3    3    0    0 -0.50317539660E+01 -0.28826965114E+02 -0.12286069199E+02  0.31737359090E+02  0.00000000000E+00 0. -1.
        -11    1    4    4    0    0  0.17969437135E+02 -0.50516950400E+02 -0.68922006418E+01  0.54058906558E+02  0.00000000000E+00 0. -1.
         11    1    4    4    0    0 -0.19017386089E+02  0.29598684291E+02  0.18694325927E+02  0.39839941105E+02  0.00000000000E+00 0.  1.
         -1    1    1    2    0  502  0.35338851924E+02  0.10469701272E+02 -0.19105830125E+03  0.19458089211E+03  0.00000000000E+00 0.  1.
<scales pt_clust_5="13000.00000" pt_clust_6="13000.00000" pt_clust_7="13000.00000" pt_clust_8="13000.00000" pt_clust_9="36.85714"></scales>
<clustering>
<clus scale="   36.857">  2  9  1 -1</clus>
<clus scale="   90.769">  7  8 -1 -1</clus>
<clus scale="   92.592">  5  6 -1 -1</clus>
<clus scale="   93.977">  2  7  1 -1</clus>
<clus scale="   36.857">  2  5  1 -1</clus>
</clustering>
</event>
<event>
 9    1  0.1504846E-005  0.2292735E+03  0.7546771E-02  0.1127759E+00
         21   -1    0    0  501  502  0.00000000000E+00  0.00000000000E+00  0.73010088648E+02  0.73010088648E+02  0.00000000000E+00 0.  1.
         -4   -1    0    0    0  501 -0.00000000000E+00 -0.00000000000E+00 -0.17210474830E+04  0.17210474830E+04  0.00000000000E+00 0.  1.
         23    2    1    2    0    0 -0.21731538843E+03  0.37088363741E+02 -0.84248415129E+03  0.87561302973E+03  0.91198179141E+02 0.  0.
         23    2    1    2    0    0  0.18181494800E+03  0.14600115603E+03 -0.49724499822E+03  0.55811687527E+03  0.99342062205E+02 0.  0.
        -11    1    3    3    0    0 -0.16637702368E+03  0.64809700313E+02 -0.58313354244E+03  0.60985763878E+03  0.00000000000E+00 0.  1.
         11    1    3    3    0    0 -0.50938364750E+02 -0.27721336572E+02 -0.25935060885E+03  0.26575539095E+03  0.00000000000E+00 0. -1.
        -13    1    4    4    0    0  0.90476845186E+02  0.10034853576E+03 -0.18149397770E+03  0.22626522509E+03  0.00000000000E+00 0. -1.
         13    1    4    4    0    0  0.91338102817E+02  0.45652620262E+02 -0.31575102052E+03  0.33185165018E+03  0.00000000000E+00 0.  1.
         -4    1    1    2    0  502  0.35500440428E+02 -0.18308951977E+03 -0.30830824483E+03  0.36032766664E+03  0.00000000000E+00 0.  1.
<scales pt_clust_5="13000.00000" pt_clust_6="13000.00000" pt_clust_7="13000.00000" pt_clust_8="13000.00000" pt_clust_9="186.49947"></scales>
<clustering>
<clus scale="   91.198">  5  6 -1 -1</clus>
<clus scale="   99.342">  7  8 -1 -1</clus>
<clus scale="  186.499">  1  9  2 -1</clus>
<clus scale="  225.864">  2  5  1 -1</clus>
<clus scale="  186.499">  1  5  2 -1</clus>
</clustering>
</event>
<event>
 9    1  0.1504846E-005  0.1318991E+03  0.7546771E-02  0.1226791E+00
         -3   -1    0    0    0  501 -0.00000000000E+00  0.00000000000E+00  0.57316925154E+03  0.57316925154E+03  0.00000000000E+00 0.  1.
         21   -1    0    0  501  502  0.00000000000E+00 -0.00000000000E+00 -0.15600529423E+03  0.15600529423E+03  0.00000000000E+00 0.  1.
         23    2    1    2    0    0  0.95738852709E+02  0.40885480569E+02  0.49142161256E+03  0.50913561403E+03  0.82983864310E+02 0.  0.
         23    2    1    2    0    0 -0.55189755431E+02  0.20043263007E+02  0.91879721369E+01  0.10904472553E+03  0.91425881656E+02 0.  0.
        -13    1    3    3    0    0  0.43496547615E+02 -0.19715148572E+02  0.25798363311E+03  0.26236652166E+03  0.00000000000E+00 0. -1.
         13    1    3    3    0    0  0.52242305093E+02  0.60600629140E+02  0.23343797946E+03  0.24676909237E+03  0.00000000000E+00 0.  1.
        -13    1    4    4    0    0 -0.62402836809E+02 -0.16997695817E+02 -0.11979823732E+02  0.65776529868E+02  0.00000000000E+00 0. -1.
         13    1    4    4    0    0  0.72130813782E+01  0.37040958824E+02  0.21167795869E+02  0.43268195658E+02  0.00000000000E+00 0.  1.
         -3    1    1    2    0  502 -0.40549097278E+02 -0.60928743575E+02 -0.83445627391E+02  0.11099420622E+03  0.00000000000E+00 0.  1.
<scales pt_clust_5="13000.00000" pt_clust_6="13000.00000" pt_clust_7="13000.00000" pt_clust_8="13000.00000" pt_clust_9="73.18839"></scales>
<clustering>
<clus scale="   73.188">  2  9  1 -1</clus>
<clus scale="   82.984">  5  6 -1 -1</clus>
<clus scale="   91.426">  7  8 -1 -1</clus>
<clus scale="  126.194">  1  5  2 -1</clus>
<clus scale="   73.188">  2  5  1 -1</clus>
</clustering>
</event>
<event>
 9    1  0.1504846E-005  0.9202700E+02  0.7546771E-02  0.1298520E+00
         21   -1    0    0  501  502  0.00000000000E+00  0.00000000000E+00  0.22965909743E+03  0.22965909743E+03  0.00000000000E+00 0.  1.
         -3   -1    0    0    0  501 -0.00000000000E+00 -0.00000000000E+00 -0.75792815122E+02  0.75792815122E+02  0.00000000000E+00 0.  1.
         23    2    1    2    0    0 -0.95868642644E+01  0.26604348599E+01  0.20666179869E+02  0.93478949564E+02  0.90621394500E+02 0.  0.
         23    2    1    2    0    0  0.34636126696E+02  0.86197446904E+01  0.15099098820E+03  0.17924341036E+03  0.89755001918E+02 0.  0.
        -11    1    3    3    0    0 -0.30662580942E+02  0.37412364507E+02  0.21243532850E+02  0.52831492274E+02  0.00000000000E+00 0.  1.
         11    1    3    3    0    0  0.21075716677E+02 -0.34751929647E+02 -0.57735298046E+00  0.40647457290E+02  0.00000000000E+00 0. -1.
        -11    1    4    4    0    0  0.52180609062E+02  0.31212394999E+02  0.13076564098E+03  0.14421054893E+03  0.00000000000E+00 0.  1.
         11    1    4    4    0    0 -0.17544482366E+02 -0.22592650309E+02  0.20225347220E+02  0.35032861425E+02  0.00000000000E+00 0. -1.
         -3    1    1    2    0  502 -0.25049262432E+02 -0.11280179550E+02 -0.17790885759E+02  0.32729552627E+02  0.00000000000E+00 0.  1.
<scales pt_clust_5="13000.00000" pt_clust_6="13000.00000" pt_clust_7="13000.00000" pt_clust_8="13000.00000" pt_clust_9="27.47196"></scales>
<clustering>
<clus scale="   27.472">  1  9  2 -1</clus>
<clus scale="   89.755">  7  8 -1 -1</clus>
<clus scale="   90.621">  5  6 -1 -1</clus>
<clus scale="   91.174">  1  7  2 -1</clus>
<clus scale="   27.472">  1  5  2 -1</clus>
</clustering>
</event>
<event>
 9    1  0.1504846E-005  0.1282431E+03  0.7546771E-02  0.1230213E+00
          2   -1    0    0  502    0 -0.00000000000E+00  0.00000000000E+00  0.40277649319E+03  0.40277649319E+03  0.00000000000E+00 0. -1.
         21   -1    0    0  501  502  0.00000000000E+00 -0.00000000000E+00 -0.16812296026E+03  0.16812296026E+03  0.00000000000E+00 0. -1.
         23    2    1    2    0    0 -0.24799011898E+02  0.87107298151E+02  0.20355384273E+03  0.24124752681E+03  0.92539342554E+02 0.  0.
         23    2    1    2    0    0  0.45356052854E+02 -0.75772271180E+02  0.15659130872E+03  0.20198352379E+03  0.92075497841E+02 0.  0.
        -13    1    4    4    0    0  0.35378285316E+02 -0.38218514244E+02  0.15453257166E+03  0.16307235696E+03  0.00000000000E+00 0. -1.
         13    1    4    4    0    0  0.99777675380E+01 -0.37553756936E+02  0.20587370665E+01  0.38911166821E+02  0.00000000000E+00 0.  1.
        -13    1    3    3    0    0  0.18085566859E+02  0.84210590616E+02  0.12698863438E+03  0.15344257741E+03  0.00000000000E+00 0. -1.
         13    1    3    3    0    0 -0.42884578757E+02  0.28967075351E+01  0.76565208350E+02  0.87804949402E+02  0.00000000000E+00 0.  1.
          2    1    1    2  501    0 -0.20557040956E+02 -0.11335026971E+02 -0.12549161852E+03  0.12766840286E+03  0.00000000000E+00 0. -1.
<scales pt_clust_5="13000.00000" pt_clust_6="13000.00000" pt_clust_7="13000.00000" pt_clust_8="13000.00000" pt_clust_9="23.47498"></scales>
<clustering>
<clus scale="   23.475">  2  9  1 -1</clus>
<clus scale="   92.075">  5  6 -1 -1</clus>
<clus scale="   92.539">  7  8 -1 -1</clus>
<clus scale="  127.909">  2  5  1 -1</clus>
<clus scale="   23.475">  2  5  1 -1</clus>
</clustering>
</event>
<event>
 9    1  0.1504846E-005  0.9495001E+02  0.7546771E-02  0.1291591E+00
         21   -1    0    0  501  502  0.00000000000E+00  0.00000000000E+00  0.69784467199E+02  0.69784467199E+02  0.00000000000E+00 0.  1.
         -3   -1    0    0    0  501 -0.00000000000E+00 -0.00000000000E+00 -0.35920955495E+03  0.35920955495E+03  0.00000000000E+00 0.  1.
         23    2    1    2    0    0  0.29833370726E+02 -0.14608278226E+02 -0.28655847854E+03  0.30220951599E+03  0.90063300683E+02 0.  0.
         23    2    1    2    0    0 -0.80614279210E+01 -0.10927112950E+02 -0.10894394623E+02  0.92280607322E+02  0.90623585429E+02 0.  0.
        -13    1    4    4    0    0 -0.10822151137E+02  0.18967851492E+02  0.32716285503E+02  0.39335145641E+02  0.00000000000E+00 0. -1.
         13    1    4    4    0    0  0.27607232157E+01 -0.29894964442E+02 -0.43610680126E+02  0.52945461682E+02  0.00000000000E+00 0.  1.
        -13    1    3    3    0    0  0.10947840526E+02 -0.49818800978E+02 -0.20686516601E+03  0.21306094210E+03  0.00000000000E+00 0. -1.
         13    1    3    3    0    0  0.18885530200E+02  0.35210522752E+02 -0.79693312535E+02  0.89148573888E+02  0.00000000000E+00 0.  1.
         -3    1    1    2    0  502 -0.21771942805E+02  0.25535391176E+02  0.80277854158E+01  0.34503898833E+02  0.00000000000E+00 0.  1.
<scales pt_clust_5="13000.00000" pt_clust_6="13000.00000" pt_clust_7="13000.00000" pt_clust_8="13000.00000" pt_clust_9="33.55702"></scales>
<clustering>
<clus scale="   33.557">  1  9  2 -1</clus>
<clus scale="   90.063">  7  8 -1 -1</clus>
<clus scale="   90.624">  5  6 -1 -1</clus>
<clus scale="   94.415">  2  7  1 -1</clus>
<clus scale="   33.557">  1  5  2 -1</clus>
</clustering>
</event>
<event>
 9    1  0.1504846E-005  0.2366611E+03  0.7546771E-02  0.1122188E+00
          1   -1    0    0  502    0 -0.00000000000E+00  0.00000000000E+00  0.36383782448E+03  0.36383782448E+03  0.00000000000E+00 0. -1.
         21   -1    0    0  501  502  0.00000000000E+00 -0.00000000000E+00 -0.19886334872E+03  0.19886334872E+03  0.00000000000E+00 0.  1.
         23    2    1    2    0    0  0.30839530350E+02 -0.21469986932E+03  0.14058476556E+03  0.27389330609E+03  0.90588941366E+02 0.  0.
         23    2    1    2    0    0 -0.60566513632E+02  0.21146646133E+03  0.56048492745E+02  0.24525988237E+03  0.92868775800E+02 0.  0.
        -11    1    3    3    0    0  0.94034625994E+01 -0.15127289986E+03  0.14089976717E+03  0.20694119872E+03  0.00000000000E+00 0. -1.
         11    1    3    3    0    0  0.21436067751E+02 -0.63426969460E+02 -0.31500160826E+00  0.66952107372E+02  0.00000000000E+00 0.  1.
        -13    1    4    4    0    0 -0.54537849920E+02  0.18090616790E+03  0.94184075099E+01  0.18918278214E+03  0.00000000000E+00 0.  1.
         13    1    4    4    0    0 -0.60286637117E+01  0.30560293428E+02  0.46630085235E+02  0.56077100225E+02  0.00000000000E+00 0. -1.
          1    1    1    2  501    0  0.29726983281E+02  0.32334079870E+01 -0.31658782549E+02  0.43547984738E+02  0.00000000000E+00 0. -1.
<scales pt_clust_5="13000.00000" pt_clust_6="13000.00000" pt_clust_7="13000.00000" pt_clust_8="13000.00000" pt_clust_9="29.90232"></scales>
<clustering>
<clus scale="   29.902">  2  9  1 -1</clus>
<clus scale="   90.589">  5  6 -1 -1</clus>
<clus scale="   92.869">  7  8 -1 -1</clus>
<clus scale="  235.776">  1  5  2 -1</clus>
<clus scale="   29.902">  2  5  1 -1</clus>
</clustering>
</event>
<event>
 9    1  0.1504846E-005  0.9577073E+02  0.7546771E-02  0.1290584E+00
         21   -1    0    0  501  502  0.00000000000E+00  0.00000000000E+00  0.29625921524E+03  0.29625921524E+03  0.00000000000E+00 0.  1.
          2   -1    0    0  502    0 -0.00000000000E+00 -0.00000000000E+00 -0.39708537068E+02  0.39708537068E+02  0.00000000000E+00 0. -1.
         23    2    1    2    0    0  0.79990800954E+01  0.10281434011E+02  0.98940400320E+02  0.13525414099E+03  0.91295052828E+02 0.  0.
         23    2    1    2    0    0 -0.10212101036E+02 -0.31852987207E+02  0.14486970801E+03  0.17556303501E+03  0.93360843828E+02 0.  0.
        -11    1    3    3    0    0 -0.80938207451E+01  0.34797494751E+02  0.40734975448E+01  0.35957877543E+02  0.00000000000E+00 0. -1.
         11    1    3    3    0    0  0.16092900841E+02 -0.24516060740E+02  0.94866902775E+02  0.99296263443E+02  0.00000000000E+00 0.  1.
        -11    1    4    4    0    0  0.18272785335E+02 -0.36634788644E+02  0.16758648066E+02  0.44236350527E+02  0.00000000000E+00 0.  1.
         11    1    4    4    0    0 -0.28484886371E+02  0.47818014376E+01  0.12811105994E+03  0.13132668448E+03  0.00000000000E+00 0. -1.
          2    1    1    2  501    0  0.22130209401E+01  0.21571553196E+02  0.12740569838E+02  0.25150576310E+02  0.00000000000E+00 0. -1.
<scales pt_clust_5="13000.00000" pt_clust_6="13000.00000" pt_clust_7="13000.00000" pt_clust_8="13000.00000" pt_clust_9="21.68478"></scales>
<clustering>
<clus scale="   21.685">  1  9  2 -1</clus>
<clus scale="   91.295">  5  6 -1 -1</clus>
<clus scale="   93.361">  7  8 -1 -1</clus>
<clus scale="   93.758">  2  5  1 -1</clus>
<clus scale="   21.685">  1  5  2 -1</clus>
</clustering>
</event>
<event>
 9    1  0.1504846E-005  0.9599096E+02  0.7546771E-02  0.1289680E+00
          3   -1    0    0  502    0 -0.00000000000E+00  0.00000000000E+00  0.37889812194E+03  0.37889812194E+03  0.00000000000E+00 0. -1.
         21   -1    0    0  501  502  0.00000000000E+00 -0.00000000000E+00 -0.39219976214E+02  0.39219976214E+02  0.00000000000E+00 0.  1.
         23    2    1    2    0    0  0.41466680996E+01  0.20649304017E+02  0.21721782245E+03  0.23621705534E+03  0.90395388326E+02 0.  0.
         23    2    1    2    0    0 -0.14811141620E+02 -0.39311893206E+02  0.12456202836E+03  0.16030381163E+03  0.91743219100E+02 0.  0.
        -11    1    3    3    0    0  0.26563941802E+02  0.47877420798E+02  0.10259873114E+03  0.11629441112E+03  0.00000000000E+00 0. -1.
         11    1    3    3    0    0 -0.22417273702E+02 -0.27228116782E+02  0.11461909131E+03  0.11992264422E+03  0.00000000000E+00 0.  1.
        -13    1    4    4    0    0  0.28409532362E+02 -0.48140336173E+02  0.80056508219E+02  0.97640350287E+02  0.00000000000E+00 0.  1.
         13    1    4    4    0    0 -0.43220673982E+02  0.88284429675E+01  0.44505520139E+02  0.62663461343E+02  0.00000000000E+00 0. -1.
          3    1    1    2  501    0  0.10664473520E+02  0.18662589189E+02 -0.21017050793E+01  0.21597231187E+02  0.00000000000E+00 0. -1.
<scales pt_clust_5="13000.00000" pt_clust_6="13000.00000" pt_clust_7="13000.00000" pt_clust_8="13000.00000" pt_clust_9="21.49473"></scales>
<clustering>
<clus scale="   21.495">  2  9  1 -1</clus>
<clus scale="   90.395">  5  6 -1 -1</clus>
<clus scale="   91.743">  7  8 -1 -1</clus>
<clus scale="   94.704">  1  5  2 -1</clus>
<clus scale="   21.495">  2  5  1 -1</clus>
</clustering>
</event>
<event>
 9    1  0.1504846E-005  0.1086715E+03  0.7546771E-02  0.1263319E+00
         21   -1    0    0  501  502  0.00000000000E+00  0.00000000000E+00  0.30755252522E+03  0.30755252522E+03  0.00000000000E+00 0. -1.
          2   -1    0    0  502    0 -0.00000000000E+00 -0.00000000000E+00 -0.18109063976E+03  0.18109063976E+03  0.00000000000E+00 0. -1.
         23    2    1    2    0    0 -0.54816072552E+02 -0.84009740506E+01 -0.14105610739E+03  0.17731784100E+03  0.92029414487E+02 0.  0.
         23    2    1    2    0    0  0.80476707399E+02  0.23467418132E+02  0.17749847668E+03  0.21651509663E+03  0.91355665942E+02 0.  0.
        -11    1    3    3    0    0 -0.45658610750E+02  0.30693427908E+02 -0.11992933109E+03  0.13194635163E+03  0.00000000000E+00 0. -1.
         11    1    3    3    0    0 -0.91574618024E+01 -0.39094401958E+02 -0.21126776298E+02  0.45371489373E+02  0.00000000000E+00 0.  1.
        -13    1    4    4    0    0 -0.51245306213E+01 -0.21967523481E+02  0.14291515771E+02  0.26703563901E+02  0.00000000000E+00 0. -1.
         13    1    4    4    0    0  0.85601238021E+02  0.45434941612E+02  0.16320696091E+03  0.18981153273E+03  0.00000000000E+00 0.  1.
          2    1    1    2  501    0 -0.25660634847E+02 -0.15066444081E+02  0.90019516173E+02  0.94810227350E+02  0.00000000000E+00 0. -1.
<scales pt_clust_5="13000.00000" pt_clust_6="13000.00000" pt_clust_7="13000.00000" pt_clust_8="13000.00000" pt_clust_9="29.75678"></scales>
<clustering>
<clus scale="   29.757">  1  9  2 -1</clus>
<clus scale="   91.356">  7  8 -1 -1</clus>
<clus scale="   92.029">  5  6 -1 -1</clus>
<clus scale="  108.102">  1  7  2 -1</clus>
<clus scale="   29.757">  1  5  2 -1</clus>
</clustering>
</event>
<event>
 9    1  0.1504846E-005  0.1302768E+03  0.7546771E-02  0.1227803E+00
          1   -1    0    0  502    0 -0.00000000000E+00  0.00000000000E+00  0.15636136347E+03  0.15636136347E+03  0.00000000000E+00 0. -1.
         21   -1    0    0  501  502  0.00000000000E+00 -0.00000000000E+00 -0.18411006774E+03  0.18411006774E+03  0.00000000000E+00 0. -1.
         23    2    1    2    0    0 -0.71991481988E+02 -0.76723415391E+02 -0.20834062549E+02  0.14268649580E+03  0.94106970905E+02 0.  0.
         23    2    1    2    0    0  0.77909600348E+02  0.21573990790E+02 -0.45581827795E+02  0.13017107264E+03  0.91276843850E+02 0.  0.
        -13    1    4    4    0    0  0.98359424268E+02  0.11193022011E+02 -0.37256161932E+02  0.10577278329E+03  0.00000000000E+00 0. -1.
         13    1    4    4    0    0 -0.20449823919E+02  0.10380968780E+02 -0.83256658625E+01  0.24398289350E+02  0.00000000000E+00 0.  1.
        -13    1    3    3    0    0 -0.20653422714E+02  0.11191524649E+02 -0.32621854819E+02  0.40199496335E+02  0.00000000000E+00 0.  1.
         13    1    3    3    0    0 -0.51338059274E+02 -0.87914940041E+02  0.11787792270E+02  0.10248699946E+03  0.00000000000E+00 0. -1.
          1    1    1    2  501    0 -0.59181183601E+01  0.55149424601E+02  0.38667186073E+02  0.67613862761E+02  0.00000000000E+00 0. -1.
<scales pt_clust_5="13000.00000" pt_clust_6="13000.00000" pt_clust_7="13000.00000" pt_clust_8="13000.00000" pt_clust_9="55.46608"></scales>
<clustering>
<clus scale="   55.466">  2  9  1 -1</clus>
<clus scale="   91.277">  5  6 -1 -1</clus>
<clus scale="   94.107">  7  8 -1 -1</clus>
<clus scale="  128.247">  2  5  1 -1</clus>
<clus scale="   55.466">  2  5  1 -1</clus>
</clustering>
</event>
<event>
 9    1  0.1504846E-005  0.1552234E+03  0.7546771E-02  0.1195064E+00
         21   -1    0    0  501  502  0.00000000000E+00  0.00000000000E+00  0.34167725381E+03  0.34167725381E+03  0.00000000000E+00 0. -1.
         -1   -1    0    0    0  501 -0.00000000000E+00 -0.00000000000E+00 -0.13834418543E+03  0.13834418543E+03  0.00000000000E+00 0.  1.
         23    2    1    2    0    0 -0.41291784865E+02 -0.10028142566E+03 -0.18700541130E+01  0.14092186691E+03  0.89967214249E+02 0.  0.
         23    2    1    2    0    0  0.22855123750E+02  0.15072265839E+03  0.68381998602E+02  0.19211573521E+03  0.94829750330E+02 0.  0.
        -13    1    4    4    0    0 -0.13477427354E+02  0.51687870589E+02 -0.17370296099E+02  0.56169424073E+02  0.00000000000E+00 0.  1.
         13    1    4    4    0    0  0.36332551104E+02  0.99034787799E+02  0.85752294701E+02  0.13594631113E+03  0.00000000000E+00 0. -1.
        -13    1    3    3    0    0 -0.40154602593E+01 -0.70789619002E+02 -0.38712369013E+02  0.80783300218E+02  0.00000000000E+00 0. -1.
         13    1    3    3    0    0 -0.37276324605E+02 -0.29491806661E+02  0.36842314900E+02  0.60138566689E+02  0.00000000000E+00 0.  1.
         -1    1    1    2    0  502  0.18436661115E+02 -0.50441232726E+02  0.13682112389E+03  0.14698383712E+03  0.00000000000E+00 0.  1.
<scales pt_clust_5="13000.00000" pt_clust_6="13000.00000" pt_clust_7="13000.00000" pt_clust_8="13000.00000" pt_clust_9="53.70501"></scales>
<clustering>
<clus scale="   53.705">  1  9  2 -1</clus>
<clus scale="   89.967">  7  8 -1 -1</clus>
<clus scale="   94.830">  5  6 -1 -1</clus>
<clus scale="  152.301">  2  7  1 -1</clus>
<clus scale="   53.705">  1  5  2 -1</clus>
</clustering>
</event>
<event>
 9    1  0.1504846E-005  0.1706767E+03  0.7546771E-02  0.1177448E+00
         21   -1    0    0  501  502  0.00000000000E+00  0.00000000000E+00  0.46342349715E+03  0.46342349715E+03  0.00000000000E+00 0. -1.
         -4   -1    0    0    0  501 -0.00000000000E+00 -0.00000000000E+00 -0.11445486780E+03  0.11445486780E+03  0.00000000000E+00 0.  1.
         23    2    1    2    0    0 -0.12026858452E+03 -0.90753145492E+02 -0.20988329685E+01  0.17496301859E+03  0.88921240058E+02 0.  0.
         23    2    1    2    0    0  0.11608048579E+03  0.50090267621E+02  0.26068839327E+03  0.30372166749E+03  0.91130120292E+02 0.  0.
        -13    1    3    3    0    0 -0.84152926603E+02 -0.10626023536E+03  0.83695829115E+00  0.13554944918E+03  0.00000000000E+00 0.  1.
         13    1    3    3    0    0 -0.36115657919E+02  0.15507089865E+02 -0.29357912597E+01  0.39413569406E+02  0.00000000000E+00 0. -1.
        -13    1    4    4    0    0  0.11541558774E+03  0.18650569816E+02  0.15950075427E+03  0.19776018876E+03  0.00000000000E+00 0.  1.
         13    1    4    4    0    0  0.66489805704E+00  0.31439697806E+02  0.10118763900E+03  0.10596147872E+03  0.00000000000E+00 0. -1.
         -4    1    1    2    0  502  0.41880987295E+01  0.40662877871E+02  0.90379069044E+02  0.99193678876E+02  0.00000000000E+00 0.  1.
<scales pt_clust_5="13000.00000" pt_clust_6="13000.00000" pt_clust_7="13000.00000" pt_clust_8="13000.00000" pt_clust_9="40.87799"></scales>
<clustering>
<clus scale="   40.878">  1  9  2 -1</clus>
<clus scale="   88.921">  5  6 -1 -1</clus>
<clus scale="   91.130">  7  8 -1 -1</clus>
<clus scale="  169.508">  2  5  1 -1</clus>
<clus scale="   40.878">  1  5  2 -1</clus>
</clustering>
</event>
<event>
 9    1  0.1504846E-005  0.1137406E+03  0.7546771E-02  0.1254254E+00
         21   -1    0    0  501  502  0.00000000000E+00  0.00000000000E+00  0.74448176617E+02  0.74448176617E+02  0.00000000000E+00 0. -1.
         -1   -1    0    0    0  501 -0.00000000000E+00 -0.00000000000E+00 -0.36910529335E+03  0.36910529335E+03  0.00000000000E+00 0.  1.
         23    2    1    2    0    0  0.46770912319E+02 -0.55810436613E+02 -0.29041651450E+03  0.31315159411E+03  0.91759718422E+02 0.  0.
         23    2    1    2    0    0 -0.29917077307E+02  0.33465424346E+02 -0.11028673118E+02  0.10160206277E+03  0.90478623922E+02 0.  0.
        -11    1    4    4    0    0 -0.28275388259E+01 -0.21195830086E+02 -0.30779803760E+02  0.37478720741E+02  0.00000000000E+00 0. -1.
         11    1    4    4    0    0 -0.27089538481E+02  0.54661254432E+02  0.19751130642E+02  0.64123342028E+02  0.00000000000E+00 0.  1.
        -13    1    3    3    0    0 -0.20579167071E+02  0.67591709697E+01 -0.91359301450E+02  0.93892014948E+02  0.00000000000E+00 0.  1.
         13    1    3    3    0    0  0.67350079390E+02 -0.62569607583E+02 -0.19905721305E+03  0.21925957916E+03  0.00000000000E+00 0. -1.
         -1    1    1    2    0  502 -0.16853835012E+02  0.22345012267E+02  0.67880708813E+01  0.28799813092E+02  0.00000000000E+00 0.  1.
<scales pt_clust_5="13000.00000" pt_clust_6="13000.00000" pt_clust_7="13000.00000" pt_clust_8="13000.00000" pt_clust_9="27.98841"></scales>
<clustering>
<clus scale="   27.988">  1  9  2 -1</clus>
<clus scale="   90.479">  5  6 -1 -1</clus>
<clus scale="   91.760">  7  8 -1 -1</clus>
<clus scale="  112.710">  1  5  2 -1</clus>
<clus scale="   27.988">  1  5  2 -1</clus>
</clustering>
</event>
<event>
 9    1  0.1504846E-005  0.1055521E+03  0.7546771E-02  0.1269331E+00
         21   -1    0    0  501  502  0.00000000000E+00  0.00000000000E+00  0.17848596649E+03  0.17848596649E+03  0.00000000000E+00 0. -1.
          1   -1    0    0  502    0 -0.00000000000E+00 -0.00000000000E+00 -0.31584765084E+03  0.31584765084E+03  0.00000000000E+00 0. -1.
         23    2    1    2    0    0  0.35112994341E+02  0.30735336777E+02 -0.21434691845E+03  0.23771068634E+03  0.91565198931E+02 0.  0.
         23    2    1    2    0    0  0.30841330680E+00 -0.10348667867E+03 -0.85213613704E+01  0.13889947650E+03  0.92254339695E+02 0.  0.
        -11    1    4    4    0    0 -0.10275610230E+02 -0.21927438365E+02  0.37512452996E+02  0.44649578370E+02  0.00000000000E+00 0.  1.
         11    1    4    4    0    0  0.10584023537E+02 -0.81559240300E+02 -0.46033814366E+02  0.94249898131E+02  0.00000000000E+00 0. -1.
        -13    1    3    3    0    0 -0.28036408513E+02 -0.19889186843E+01 -0.35775035823E+02  0.45495595259E+02  0.00000000000E+00 0.  1.
         13    1    3    3    0    0  0.63149402854E+02  0.32724255461E+02 -0.17857188263E+03  0.19221509109E+03  0.00000000000E+00 0. -1.
          1    1    1    2  501    0 -0.35421407648E+02  0.72751341888E+02  0.85506595474E+02  0.11772345449E+03  0.00000000000E+00 0. -1.
<scales pt_clust_5="13000.00000" pt_clust_6="13000.00000" pt_clust_7="13000.00000" pt_clust_8="13000.00000" pt_clust_9="80.91622"></scales>
<clustering>
<clus scale="   80.916">  1  9  2 -1</clus>
<clus scale="   91.565">  7  8 -1 -1</clus>
<clus scale="   92.254">  5  6 -1 -1</clus>
<clus scale="  104.950">  2  7  1 -1</clus>
<clus scale="   80.916">  1  5  2 -1</clus>
</clustering>
</event>
<event>
 9    1  0.1504846E-005  0.1115327E+03  0.7546771E-02  0.1259721E+00
         -1   -1    0    0    0  501 -0.00000000000E+00  0.00000000000E+00  0.10113578861E+03  0.10113578861E+03  0.00000000000E+00 0.  1.
         21   -1    0    0  501  502  0.00000000000E+00 -0.00000000000E+00 -0.25949206596E+03  0.25949206596E+03  0.00000000000E+00 0.  1.
         23    2    1    2    0    0  0.69128239606E+01 -0.60941429356E+02  0.42246317242E+02  0.11750275531E+03  0.90887299657E+02 0.  0.
         23    2    1    2    0    0  0.59517561063E+01  0.41835486462E+02 -0.11994834172E+03  0.15924635952E+03  0.95844493891E+02 0.  0.
        -11    1    4    4    0    0 -0.43805278545E+02  0.31039422098E+02 -0.65732336387E+02  0.84871009181E+02  0.00000000000E+00 0. -1.
         11    1    4    4    0    0  0.49757034651E+02  0.10796064364E+02 -0.54216005336E+02  0.74375350336E+02  0.00000000000E+00 0.  1.
        -11    1    3    3    0    0 -0.21750441310E+02 -0.56092373866E+02 -0.67419387070E+01  0.60538333646E+02  0.00000000000E+00 0. -1.
         11    1    3    3    0    0  0.28663265270E+02 -0.48490554898E+01  0.48988255949E+02  0.56964421668E+02  0.00000000000E+00 0.  1.
         -1    1    1    2    0  502 -0.12864580067E+02  0.19105942894E+02 -0.80654252864E+02  0.83878739734E+02  0.00000000000E+00 0.  1.
<scales pt_clust_5="13000.00000" pt_clust_6="13000.00000" pt_clust_7="13000.00000" pt_clust_8="13000.00000" pt_clust_9="23.03333"></scales>
<clustering>
<clus scale="   23.033">  2  9  1 -1</clus>
<clus scale="   90.887">  7  8 -1 -1</clus>
<clus scale="   95.844">  5  6 -1 -1</clus>
<clus scale="  107.303">  1  7  2 -1</clus>
<clus scale="   23.033">  2  5  1 -1</clus>
</clustering>
</event>
<event>
 9    1  0.1504846E-005  0.1159117E+03  0.7546771E-02  0.1250474E+00
          1   -1    0    0  502    0 -0.00000000000E+00  0.00000000000E+00  0.41029130428E+03  0.41029130428E+03  0.00000000000E+00 0. -1.
         21   -1    0    0  501  502  0.00000000000E+00 -0.00000000000E+00 -0.18442709677E+03  0.18442709677E+03  0.00000000000E+00 0. -1.
         23    2    1    2    0    0 -0.60394078094E+02  0.69199882286E+01  0.20424485035E+03  0.23142528332E+03  0.90257254343E+02 0.  0.
         23    2    1    2    0    0  0.87606157902E+02  0.18647128753E+02  0.16852689620E+03  0.21171475587E+03  0.91647524790E+02 0.  0.
        -11    1    4    4    0    0  0.67113304811E+02  0.38028238261E+02  0.16642206742E+03  0.18343022410E+03  0.00000000000E+00 0. -1.
         11    1    4    4    0    0  0.20492853091E+02 -0.19381109508E+02  0.21048287747E+01  0.28284531775E+02  0.00000000000E+00 0.  1.
        -11    1    3    3    0    0 -0.24230963087E+00 -0.34541015987E+02  0.50215705921E+02  0.60948811478E+02  0.00000000000E+00 0. -1.
         11    1    3    3    0    0 -0.60151768463E+02  0.41461004216E+02  0.15402914443E+03  0.17047647185E+03  0.00000000000E+00 0.  1.
          1    1    1    2  501    0 -0.27212079808E+02 -0.25567116981E+02 -0.14690753903E+03  0.15157836185E+03  0.00000000000E+00 0. -1.
<scales pt_clust_5="13000.00000" pt_clust_6="13000.00000" pt_clust_7="13000.00000" pt_clust_8="13000.00000" pt_clust_9="37.33865"></scales>
<clustering>
<clus scale="   37.339">  2  9  1 -1</clus>
<clus scale="   90.257">  7  8 -1 -1</clus>
<clus scale="   91.648">  5  6 -1 -1</clus>
<clus scale="  114.816">  1  7  2 -1</clus>
<clus scale="   37.339">  2  5  1 -1</clus>
</clustering>
</event>
<event>
 9    1  0.1504846E-005  0.1126399E+03  0.7546771E-02  0.1256207E+00
         -3   -1    0    0    0  501 -0.00000000000E+00  0.00000000000E+00  0.22861310633E+03  0.22861310633E+03  0.00000000000E+00 0.  1.
         21   -1    0    0  501  502  0.00000000000E+00 -0.00000000000E+00 -0.23019133812E+03  0.23019133812E+03  0.00000000000E+00 0.  1.
         23    2    1    2    0    0  0.64206242230E+02 -0.21323607533E+01  0.17006654534E+03  0.20339299373E+03  0.91209054099E+02 0.  0.
         23    2    1    2    0    0 -0.74306839297E+02  0.30722920055E+02 -0.50982720702E+02  0.13099772961E+03  0.89976458973E+02 0.  0.
        -11    1    4    4    0    0 -0.62065227377E+02 -0.19758376420E+02 -0.43959565731E+02  0.78580718419E+02  0.00000000000E+00 0. -1.
         11    1    4    4    0    0 -0.12241611920E+02  0.50481296475E+02 -0.70231549710E+01  0.52417011189E+02  0.00000000000E+00 0.  1.
        -13    1    3    3    0    0  0.64737856667E+02 -0.33789622565E+02  0.14726062379E+03  0.16437280796E+03  0.00000000000E+00 0.  1.
         13    1    3    3    0    0 -0.53161443725E+00  0.31657261812E+02  0.22805921554E+02  0.39020185767E+02  0.00000000000E+00 0. -1.
         -3    1    1    2    0  502  0.10100597067E+02 -0.28590559302E+02 -0.12066205643E+03  0.12441372112E+03  0.00000000000E+00 0.  1.
<scales pt_clust_5="13000.00000" pt_clust_6="13000.00000" pt_clust_7="13000.00000" pt_clust_8="13000.00000" pt_clust_9="30.32230"></scales>
<clustering>
<clus scale="   30.322">  2  9  1 -1</clus>
<clus scale="   89.976">  5  6 -1 -1</clus>
<clus scale="   91.209">  7  8 -1 -1</clus>
<clus scale="  111.644">  2  5  1 -1</clus>
<clus scale="   30.322">  2  5  1 -1</clus>
</clustering>
</event>
<event>
 9    1  0.1504846E-005  0.9896534E+02  0.7546771E-02  0.1285330E+00
          1   -1    0    0  502    0 -0.00000000000E+00  0.00000000000E+00  0.41901302345E+03  0.41901302345E+03  0.00000000000E+00 0. -1.
         21   -1    0    0  501  502  0.00000000000E+00 -0.00000000000E+00 -0.33246026949E+02  0.33246026949E+02  0.00000000000E+00 0.  1.
         23    2    1    2    0    0  0.13361362521E+02  0.25139425120E+01  0.18758860722E+03  0.20881246749E+03  0.90710060654E+02 0.  0.
         23    2    1    2    0    0 -0.24335398238E+02 -0.36128601459E+02  0.15741893045E+03  0.18948633606E+03  0.96056568951E+02 0.  0.
        -11    1    4    4    0    0 -0.27820520941E+02  0.28832090346E+02  0.52609138541E+02  0.66128604077E+02  0.00000000000E+00 0. -1.
         11    1    4    4    0    0  0.34851227029E+01 -0.64960691805E+02  0.10480979191E+03  0.12335773199E+03  0.00000000000E+00 0.  1.
        -11    1    3    3    0    0  0.94670635979E+01 -0.34623771521E+02  0.29761455786E+02  0.46628050549E+02  0.00000000000E+00 0.  1.
         11    1    3    3    0    0  0.38942989230E+01  0.37137714033E+02  0.15782715144E+03  0.16218441694E+03  0.00000000000E+00 0. -1.
          1    1    1    2  501    0  0.10974035717E+02  0.33614658947E+02  0.40759458824E+02  0.53960246846E+02  0.00000000000E+00 0. -1.
<scales pt_clust_5="13000.00000" pt_clust_6="13000.00000" pt_clust_7="13000.00000" pt_clust_8="13000.00000" pt_clust_9="35.36064"></scales>
<clustering>
<clus scale="   35.361">  2  9  1 -1</clus>
<clus scale="   90.710">  7  8 -1 -1</clus>
<clus scale="   93.785">  1  7  2 -1</clus>
<clus scale="   96.057">  5  6 -1 -1</clus>
<clus scale="   35.361">  2  5  1 -1</clus>
</clustering>
</event>
<event>
 9    1  0.1504846E-005  0.2696372E+03  0.7546771E-02  0.1122119E+00
         21   -1    0    0  501  502  0.00000000000E+00  0.00000000000E+00  0.20420238560E+03  0.20420238560E+03  0.00000000000E+00 0. -1.
          3   -1    0    0  502    0 -0.00000000000E+00 -0.00000000000E+00 -0.69467311152E+03  0.69467311152E+03  0.00000000000E+00 0. -1.
         23    2    1    2    0    0 -0.97254362397E+02 -0.88057033592E+02 -0.15871074641E+03  0.22514472967E+03  0.91041727253E+02 0.  0.
         23    2    1    2    0    0  0.28428423242E+03  0.19743934434E+03 -0.26979113857E+03  0.44837593738E+03  0.91945110131E+02 0.  0.
        -11    1    3    3    0    0 -0.40611272091E+02  0.78988300118E+01 -0.16648180961E+02  0.44596287578E+02  0.00000000000E+00 0.  1.
         11    1    3    3    0    0 -0.56643090306E+02 -0.95955863604E+02 -0.14206256545E+03  0.18054844209E+03  0.00000000000E+00 0. -1.
        -13    1    4    4    0    0  0.81000624925E+02  0.20061892034E+02 -0.34144790109E+02  0.90163448480E+02  0.00000000000E+00 0.  1.
         13    1    4    4    0    0  0.20328360749E+03  0.17737745231E+03 -0.23564634846E+03  0.35821248890E+03  0.00000000000E+00 0. -1.
          3    1    1    2  501    0 -0.18702987002E+03 -0.10938231075E+03 -0.61968840943E+02  0.22535483006E+03  0.00000000000E+00 0. -1.
<scales pt_clust_5="13000.00000" pt_clust_6="13000.00000" pt_clust_7="13000.00000" pt_clust_8="13000.00000" pt_clust_9="253.47647"></scales>
<clustering>
<clus scale="   91.042">  5  6 -1 -1</clus>
<clus scale="   91.945">  7  8 -1 -1</clus>
<clus scale="  159.690">  2  5  1 -1</clus>
<clus scale="  253.476">  1  9  2 -1</clus>
<clus scale="  253.476">  1  5  2 -1</clus>
</clustering>
</event>
<event>
 9    1  0.1504846E-005  0.3156624E+03  0.7546771E-02  0.1078250E+00
         21   -1    0    0  501  502  0.00000000000E+00  0.00000000000E+00  0.39061230298E+03  0.39061230298E+03  0.00000000000E+00 0.  1.
          3   -1    0    0  502    0 -0.00000000000E+00 -0.00000000000E+00 -0.81785662339E+03  0.81785662339E+03  0.00000000000E+00 0. -1.
         23    2    1    2    0    0 -0.28707253662E+03 -0.11448239380E+03 -0.70157330925E+03  0.77198475833E+03  0.90766178083E+02 0.  0.
         23    2    1    2    0    0  0.19542121877E+03  0.98167869717E+02  0.17067629134E+03  0.29716435804E+03  0.10653579621E+03 0.  0.
        -13    1    4    4    0    0  0.13022360449E+03  0.15301457698E+02  0.12854241389E+03  0.18361773864E+03  0.00000000000E+00 0.  1.
         13    1    4    4    0    0  0.65197614280E+02  0.82866412018E+02  0.42133877448E+02  0.11354661940E+03  0.00000000000E+00 0. -1.
        -13    1    3    3    0    0 -0.17111138982E+03 -0.47439159159E+02 -0.49401941606E+03  0.52496167954E+03  0.00000000000E+00 0. -1.
         13    1    3    3    0    0 -0.11596114680E+03 -0.67043234637E+02 -0.20755389319E+03  0.24702307879E+03  0.00000000000E+00 0.  1.
          3    1    1    2  501    0  0.91651317844E+02  0.16314524080E+02  0.10365269751E+03  0.13931981000E+03  0.00000000000E+00 0. -1.
<scales pt_clust_5="13000.00000" pt_clust_6="13000.00000" pt_clust_7="13000.00000" pt_clust_8="13000.00000" pt_clust_9="93.09204"></scales>
<clustering>
<clus scale="   90.766">  7  8 -1 -1</clus>
<clus scale="   93.092">  1  9  2 -1</clus>
<clus scale="  106.536">  5  6 -1 -1</clus>
<clus scale="  310.695">  2  7  1 -1</clus>
<clus scale="   93.092">  1  5  2 -1</clus>
</clustering>
</event>
<event>
 9    1  0.1504846E-005  0.3461745E+03  0.7546771E-02  0.1064229E+00
         21   -1    0    0  501  502  0.00000000000E+00  0.00000000000E+00  0.57721072927E+03  0.57721072927E+03  0.00000000000E+00 0. -1.
         -3   -1    0    0    0  501 -0.00000000000E+00 -0.00000000000E+00 -0.25107632933E+03  0.25107632933E+03  0.00000000000E+00 0.  1.
         23    2    1    2    0    0 -0.32180970203E+02 -0.33491476577E+03  0.11064223715E+03  0.36584941213E+03  0.91654637317E+02 0.  0.
         23    2    1    2    0    0  0.58829621678E+02  0.32644310970E+03  0.12195058738E+03  0.36480596149E+03  0.90473286210E+02 0.  0.
        -11    1    4    4    0    0  0.23833459678E+02  0.67492046962E+02 -0.96646368544E+01  0.72226140759E+02  0.00000000000E+00 0.  1.
         11    1    4    4    0    0  0.34996162000E+02  0.25895106274E+03  0.13161522424E+03  0.29257982073E+03  0.00000000000E+00 0. -1.
        -13    1    3    3    0    0 -0.40018863126E+02 -0.18664993745E+03  0.10364173610E+03  0.21721261017E+03  0.00000000000E+00 0. -1.
         13    1    3    3    0    0  0.78378929233E+01 -0.14826482831E+03  0.70005010525E+01  0.14863680195E+03  0.00000000000E+00 0.  1.
         -3    1    1    2    0  502 -0.26648651476E+02  0.84716560646E+01  0.93541575407E+02  0.97631684978E+02  0.00000000000E+00 0.  1.
<scales pt_clust_5="13000.00000" pt_clust_6="13000.00000" pt_clust_7="13000.00000" pt_clust_8="13000.00000" pt_clust_9="27.96282"></scales>
<clustering>
<clus scale="   27.963">  1  9  2 -1</clus>
<clus scale="   90.473">  5  6 -1 -1</clus>
<clus scale="   91.655">  7  8 -1 -1</clus>
<clus scale="  345.864">  1  5  2 -1</clus>
<clus scale="   27.963">  1  5  2 -1</clus>
</clustering>
</event>
<event>
 9    1  0.1504846E-005  0.3148541E+03  0.7546771E-02  0.1078099E+00
         21   -1    0    0  501  502  0.00000000000E+00  0.00000000000E+00  0.10362555842E+04  0.10362555842E+04  0.00000000000E+00 0. -1.
          2   -1    0    0  502    0 -0.00000000000E+00 -0.00000000000E+00 -0.35338980392E+03  0.35338980392E+03  0.00000000000E+00 0. -1.
         23    2    1    2    0    0 -0.27559206014E+03 -0.17522915454E+03 -0.18790892301E+03  0.38711069538E+03  0.88818280323E+02 0.  0.
         23    2    1    2    0    0  0.19522496179E+03  0.13797002200E+03  0.19389984058E+03  0.31988786369E+03  0.87078036742E+02 0.  0.
        -11    1    3    3    0    0 -0.15425103140E+03 -0.94265590293E+02 -0.52915935296E+02  0.18835997030E+03  0.00000000000E+00 0.  1.
         11    1    3    3    0    0 -0.12134102874E+03 -0.80963564247E+02 -0.13499298771E+03  0.19875072509E+03  0.00000000000E+00 0. -1.
        -11    1    4    4    0    0  0.11439429491E+03  0.12954942931E+03  0.12421728045E+03  0.21283571623E+03  0.00000000000E+00 0.  1.
         11    1    4    4    0    0  0.80830666875E+02  0.84205926950E+01  0.69682560125E+02  0.10705214745E+03  0.00000000000E+00 0. -1.
          2    1    1    2  501    0  0.80367098356E+02  0.37259132540E+02  0.67687486267E+03  0.68264682902E+03  0.00000000000E+00 0. -1.
<scales pt_clust_5="13000.00000" pt_clust_6="13000.00000" pt_clust_7="13000.00000" pt_clust_8="13000.00000" pt_clust_9="88.58393"></scales>
<clustering>
<clus scale="   87.078">  7  8 -1 -1</clus>
<clus scale="   88.584">  1  9  2 -1</clus>
<clus scale="   88.818">  5  6 -1 -1</clus>
<clus scale="  314.368">  1  7  2 -1</clus>
<clus scale="   88.584">  1  5  2 -1</clus>
</clustering>
</event>
<event>
 9    1  0.1504846E-005  0.9296652E+02  0.7546771E-02  0.1298823E+00
         21   -1    0    0  501  502  0.00000000000E+00  0.00000000000E+00  0.15617271359E+03  0.15617271359E+03  0.00000000000E+00 0.  1.
          2   -1    0    0  502    0 -0.00000000000E+00 -0.00000000000E+00 -0.13841205432E+03  0.13841205432E+03  0.00000000000E+00 0. -1.
         23    2    1    2    0    0 -0.20383937897E+02  0.24857151670E+02 -0.85368930884E+02  0.12403560510E+03  0.84045190578E+02 0.  0.
         23    2    1    2    0    0 -0.20577632567E+02 -0.96331971517E+01  0.69381137098E+02  0.11533524128E+03  0.89287391308E+02 0.  0.
        -13    1    4    4    0    0  0.11992259925E+02 -0.42965809581E+02  0.25812184036E+02  0.51537791336E+02  0.00000000000E+00 0. -1.
         13    1    4    4    0    0 -0.32569892492E+02  0.33332612430E+02  0.43568953062E+02  0.63797449943E+02  0.00000000000E+00 0.  1.
        -13    1    3    3    0    0 -0.45210564230E+02  0.39431333003E+02 -0.47800714208E+02  0.76705497972E+02  0.00000000000E+00 0. -1.
         13    1    3    3    0    0  0.24826626333E+02 -0.14574181334E+02 -0.37568216676E+02  0.47330107129E+02  0.00000000000E+00 0.  1.
          2    1    1    2  501    0  0.40961570464E+02 -0.15223954518E+02  0.33748453057E+02  0.55213921521E+02  0.00000000000E+00 0. -1.
<scales pt_clust_5="13000.00000" pt_clust_6="13000.00000" pt_clust_7="13000.00000" pt_clust_8="13000.00000" pt_clust_9="43.69919"></scales>
<clustering>
<clus scale="   43.699">  1  9  2 -1</clus>
<clus scale="   84.045">  7  8 -1 -1</clus>
<clus scale="   87.944">  2  7  1 -1</clus>
<clus scale="   89.287">  5  6 -1 -1</clus>
<clus scale="   43.699">  1  5  2 -1</clus>
</clustering>
</event>
<event>
 9    1  0.1504846E-005  0.1146085E+03  0.7546771E-02  0.1253409E+00
         -4   -1    0    0    0  501 -0.00000000000E+00  0.00000000000E+00  0.50242068546E+02  0.50242068546E+02  0.00000000000E+00 0.  1.
         21   -1    0    0  501  502  0.00000000000E+00 -0.00000000000E+00 -0.40689114876E+03  0.40689114876E+03  0.00000000000E+00 0. -1.
         23    2    1    2    0    0 -0.19717774897E+02  0.73022600621E+02 -0.96471439954E+02  0.15004769250E+03  0.86524450014E+02 0.  0.
         23    2    1    2    0    0 -0.19361918561E+02 -0.66529732104E+02 -0.23266871531E+03  0.25885565093E+03  0.89835559705E+02 0.  0.
        -11    1    3    3    0    0  0.22355209617E+02  0.39248525758E+02 -0.82913027243E+02  0.94418071669E+02  0.00000000000E+00 0.  1.
         11    1    3    3    0    0 -0.42072984514E+02  0.33774074863E+02 -0.13558412711E+02  0.55629620833E+02  0.00000000000E+00 0. -1.
        -13    1    4    4    0    0  0.27878475220E+02 -0.12646335627E+02 -0.13062410726E+03  0.13416332056E+03  0.00000000000E+00 0. -1.
         13    1    4    4    0    0 -0.47240393781E+02 -0.53883396477E+02 -0.10204460805E+03  0.12469233037E+03  0.00000000000E+00 0.  1.
         -4    1    1    2    0  502  0.39079693458E+02 -0.64928685169E+01 -0.27508924946E+02  0.48229873875E+02  0.00000000000E+00 0.  1.
<scales pt_clust_5="13000.00000" pt_clust_6="13000.00000" pt_clust_7="13000.00000" pt_clust_8="13000.00000" pt_clust_9="39.61542"></scales>
<clustering>
<clus scale="   39.615">  2  9  1 -1</clus>
<clus scale="   86.524">  5  6 -1 -1</clus>
<clus scale="   89.836">  7  8 -1 -1</clus>
<clus scale="  112.032">  1  5  2 -1</clus>
<clus scale="   39.615">  2  5  1 -1</clus>
</clustering>
</event>
<event>
 9    1  0.1504846E-005  0.9967445E+02  0.7546771E-02  0.1283974E+00
         21   -1    0    0  501  502  0.00000000000E+00  0.00000000000E+00  0.13521979155E+03  0.13521979155E+03  0.00000000000E+00 0. -1.
         -1   -1    0    0    0  501 -0.00000000000E+00 -0.00000000000E+00 -0.17363983304E+03  0.17363983304E+03  0.00000000000E+00 0.  1.
         23    2    1    2    0    0  0.25507749377E+02 -0.21520506098E+02 -0.72778078317E+02  0.11665136616E+03  0.84835812496E+02 0.  0.
         23    2    1    2    0    0 -0.10250994813E+02  0.62608900866E+02 -0.29544939570E+02  0.11471880666E+03  0.90898535660E+02 0.  0.
        -11    1    4    4    0    0 -0.35537477782E+02  0.21667751772E+02 -0.47682866755E+02  0.63293440229E+02  0.00000000000E+00 0.  1.
         11    1    4    4    0    0  0.25286482969E+02  0.40941149094E+02  0.18137927185E+02  0.51425366432E+02  0.00000000000E+00 0. -1.
        -11    1    3    3    0    0 -0.88297396131E+01 -0.43746499075E+02 -0.57950853014E+02  0.73143843542E+02  0.00000000000E+00 0.  1.
         11    1    3    3    0    0  0.34337488990E+02  0.22225992977E+02 -0.14827225303E+02  0.43507522615E+02  0.00000000000E+00 0. -1.
         -1    1    1    2    0  502 -0.15256754564E+02 -0.41088394768E+02  0.63902976397E+02  0.77489451778E+02  0.00000000000E+00 0.  1.
<scales pt_clust_5="13000.00000" pt_clust_6="13000.00000" pt_clust_7="13000.00000" pt_clust_8="13000.00000" pt_clust_9="43.82950"></scales>
<clustering>
<clus scale="   43.829">  1  9  2 -1</clus>
<clus scale="   84.836">  7  8 -1 -1</clus>
<clus scale="   90.899">  5  6 -1 -1</clus>
<clus scale="   94.178">  2  7  1 -1</clus>
<clus scale="   43.829">  1  5  2 -1</clus>
</clustering>
</event>
<event>
 9    1  0.1504846E-005  0.1329685E+03  0.7546771E-02  0.1228688E+00
         -1   -1    0    0    0  501 -0.00000000000E+00  0.00000000000E+00  0.14166170644E+03  0.14166170644E+03  0.00000000000E+00 0.  1.
         21   -1    0    0  501  502  0.00000000000E+00 -0.00000000000E+00 -0.17901723845E+03  0.17901723845E+03  0.00000000000E+00 0. -1.
         23    2    1    2    0    0 -0.81475755978E+02  0.12063074325E+02  0.32973568678E+02  0.12811558423E+03  0.92425808721E+02 0.  0.
         23    2    1    2    0    0  0.46889645287E+02 -0.40229415781E+02 -0.75966408205E+02  0.14760425614E+03  0.11044942972E+03 0.  0.
        -11    1    4    4    0    0  0.68796375940E+02 -0.20304638624E+00 -0.13275068495E+02  0.70065754930E+02  0.00000000000E+00 0.  1.
         11    1    4    4    0    0 -0.21906730653E+02 -0.40026369395E+02 -0.62691339710E+02  0.77538501207E+02  0.00000000000E+00 0. -1.
        -11    1    3    3    0    0 -0.91720078918E+02  0.32655868137E+02  0.38102654817E+02  0.10455042279E+03  0.00000000000E+00 0. -1.
         11    1    3    3    0    0  0.10244322939E+02 -0.20592793812E+02 -0.51290861396E+01  0.23565161449E+02  0.00000000000E+00 0.  1.
         -1    1    1    2    0  502  0.34586110692E+02  0.28166341457E+02  0.56373075184E+01  0.44959104527E+02  0.00000000000E+00 0.  1.
<scales pt_clust_5="13000.00000" pt_clust_6="13000.00000" pt_clust_7="13000.00000" pt_clust_8="13000.00000" pt_clust_9="44.60430"></scales>
<clustering>
<clus scale="   44.604">  2  9  1 -1</clus>
<clus scale="   92.426">  7  8 -1 -1</clus>
<clus scale="  110.449">  5  6 -1 -1</clus>
<clus scale="  118.423">  1  7  2 -1</clus>
<clus scale="   44.604">  2  5  1 -1</clus>
</clustering>
</event>
<event>
 9    1  0.1504846E-005  0.1201619E+03  0.7546771E-02  0.1246093E+00
         -3   -1    0    0    0  501 -0.00000000000E+00  0.00000000000E+00  0.70323472621E+02  0.70323472621E+02  0.00000000000E+00 0.  1.
         21   -1    0    0  501  502  0.00000000000E+00 -0.00000000000E+00 -0.94914262586E+03  0.94914262586E+03  0.00000000000E+00 0.  1.
         23    2    1    2    0    0  0.22125880755E+02 -0.34798976252E+02 -0.40263624001E+02  0.11660173566E+03  0.10136213294E+03 0.  0.
         23    2    1    2    0    0 -0.83562046259E+02  0.98744823752E+02 -0.18721045086E+03  0.24551066428E+03  0.92166032644E+02 0.  0.
        -11    1    4    4    0    0 -0.20330665284E+02 -0.56132138982E+01  0.11038489077E+01  0.21120194213E+02  0.00000000000E+00 0. -1.
         11    1    4    4    0    0 -0.63231380975E+02  0.10435803765E+03 -0.18831429977E+03  0.22439047007E+03  0.00000000000E+00 0.  1.
        -13    1    3    3    0    0  0.14411516544E+02  0.30930020338E+02  0.75605599118E+01  0.34950250835E+02  0.00000000000E+00 0. -1.
         13    1    3    3    0    0  0.77143642109E+01 -0.65728996591E+02 -0.47824183912E+02  0.81651484830E+02  0.00000000000E+00 0.  1.
         -3    1    1    2    0  502  0.61436165504E+02 -0.63945847500E+02 -0.65134507838E+03  0.65735369853E+03  0.00000000000E+00 0.  1.
<scales pt_clust_5="13000.00000" pt_clust_6="13000.00000" pt_clust_7="13000.00000" pt_clust_8="13000.00000" pt_clust_9="88.67623"></scales>
<clustering>
<clus scale="   88.676">  2  9  1 -1</clus>
<clus scale="   92.166">  5  6 -1 -1</clus>
<clus scale="  101.362">  7  8 -1 -1</clus>
<clus scale="  112.513">  2  5  1 -1</clus>
<clus scale="   88.676">  2  5  1 -1</clus>
</clustering>
</event>
<event>
 9    1  0.1504846E-005  0.9729664E+02  0.7546771E-02  0.1287060E+00
          1   -1    0    0  502    0 -0.00000000000E+00  0.00000000000E+00  0.27329351090E+03  0.27329351090E+03  0.00000000000E+00 0. -1.
         21   -1    0    0  501  502  0.00000000000E+00 -0.00000000000E+00 -0.93188307319E+02  0.93188307319E+02  0.00000000000E+00 0. -1.
         23    2    1    2    0    0 -0.11870514766E+02 -0.47505492964E+02  0.15471164475E+03  0.18645473522E+03  0.91825891127E+02 0.  0.
         23    2    1    2    0    0  0.76327084742E+01 -0.16517364702E+02  0.54155116063E+02  0.10971269983E+03  0.93664392024E+02 0.  0.
        -13    1    4    4    0    0  0.20469726912E+02  0.27580379249E+02  0.53745151089E+02  0.63782664612E+02  0.00000000000E+00 0.  1.
         13    1    4    4    0    0 -0.12837018438E+02 -0.44097743951E+02  0.40996497312E+00  0.45930035219E+02  0.00000000000E+00 0. -1.
        -13    1    3    3    0    0  0.22285083944E+01 -0.73573711520E+02  0.12037932273E+03  0.14110010141E+03  0.00000000000E+00 0. -1.
         13    1    3    3    0    0 -0.14099023161E+02  0.26068218556E+02  0.34332322025E+02  0.45354633814E+02  0.00000000000E+00 0.  1.
          1    1    1    2  501    0  0.42378062920E+01  0.64022857665E+02 -0.28761557235E+02  0.70314383168E+02  0.00000000000E+00 0. -1.
<scales pt_clust_5="13000.00000" pt_clust_6="13000.00000" pt_clust_7="13000.00000" pt_clust_8="13000.00000" pt_clust_9="64.16296"></scales>
<clustering>
<clus scale="   64.163">  2  9  1 -1</clus>
<clus scale="   91.826">  7  8 -1 -1</clus>
<clus scale="   93.664">  5  6 -1 -1</clus>
<clus scale="   95.528">  1  7  2 -1</clus>
<clus scale="   64.163">  2  5  1 -1</clus>
</clustering>
</event>
<event>
 9    1  0.1504846E-005  0.1029962E+03  0.7546771E-02  0.1277525E+00
         21   -1    0    0  501  502  0.00000000000E+00  0.00000000000E+00  0.18952531852E+03  0.18952531852E+03  0.00000000000E+00 0. -1.
          1   -1    0    0  502    0 -0.00000000000E+00 -0.00000000000E+00 -0.15137826143E+03  0.15137826143E+03  0.00000000000E+00 0. -1.
         23    2    1    2    0    0  0.15814631424E+01 -0.36404832130E+02 -0.95336414485E+02  0.14206367234E+03  0.98819240253E+02 0.  0.
         23    2    1    2    0    0 -0.12521717027E+02  0.47727215207E+01  0.43163592117E+02  0.10251773880E+03  0.92017491905E+02 0.  0.
        -11    1    3    3    0    0 -0.23208327129E+02  0.27154163865E+02 -0.22247731232E+02  0.42082497648E+02  0.00000000000E+00 0.  1.
         11    1    3    3    0    0  0.24789790271E+02 -0.63558995995E+02 -0.73088683252E+02  0.99981174694E+02  0.00000000000E+00 0. -1.
        -13    1    4    4    0    0 -0.51694441368E+02  0.24718380205E+01  0.13960533045E+02  0.53603374282E+02  0.00000000000E+00 0. -1.
         13    1    4    4    0    0  0.39172724341E+02  0.23008835002E+01  0.29203059072E+02  0.48914364519E+02  0.00000000000E+00 0.  1.
          1    1    1    2  501    0  0.10940253885E+02  0.31632110610E+02  0.90319879464E+02  0.96322168803E+02  0.00000000000E+00 0. -1.
<scales pt_clust_5="13000.00000" pt_clust_6="13000.00000" pt_clust_7="13000.00000" pt_clust_8="13000.00000" pt_clust_9="33.47058"></scales>
<clustering>
<clus scale="   33.471">  1  9  2 -1</clus>
<clus scale="   92.017">  7  8 -1 -1</clus>
<clus scale="   96.489">  1  7  2 -1</clus>
<clus scale="   98.819">  5  6 -1 -1</clus>
<clus scale="   33.471">  1  5  2 -1</clus>
</clustering>
</event>
<event>
 9    1  0.1504846E-005  0.1371852E+03  0.7546771E-02  0.1217372E+00
         21   -1    0    0  501  502  0.00000000000E+00  0.00000000000E+00  0.18952629123E+03  0.18952629123E+03  0.00000000000E+00 0. -1.
          1   -1    0    0  502    0 -0.00000000000E+00 -0.00000000000E+00 -0.47107559361E+03  0.47107559361E+03  0.00000000000E+00 0. -1.
         23    2    1    2    0    0 -0.68307548585E+01  0.11331113784E+03 -0.39966744722E+03  0.42500802524E+03  0.89507988344E+02 0.  0.
         23    2    1    2    0    0  0.33749933519E+02 -0.50718826952E+02  0.12260947260E+02  0.10970428162E+03  0.90405979658E+02 0.  0.
        -11    1    4    4    0    0 -0.25051088532E+02 -0.10928336197E+00 -0.12857025032E+02  0.28157984164E+02  0.00000000000E+00 0. -1.
         11    1    4    4    0    0  0.58801022051E+02 -0.50609543590E+02  0.25117972292E+02  0.81546297455E+02  0.00000000000E+00 0.  1.
        -13    1    3    3    0    0  0.12084637729E+02  0.90232316661E+02 -0.37616328152E+03  0.38702289829E+03  0.00000000000E+00 0.  1.
         13    1    3    3    0    0 -0.18915392588E+02  0.23078821182E+02 -0.23504165706E+02  0.37985126950E+02  0.00000000000E+00 0. -1.
          1    1    1    2  501    0 -0.26919178660E+02 -0.62592310890E+02  0.10585719758E+03  0.12588957797E+03  0.00000000000E+00 0. -1.
<scales pt_clust_5="13000.00000" pt_clust_6="13000.00000" pt_clust_7="13000.00000" pt_clust_8="13000.00000" pt_clust_9="68.13545"></scales>
<clustering>
<clus scale="   68.135">  1  9  2 -1</clus>
<clus scale="   89.508">  7  8 -1 -1</clus>
<clus scale="   90.406">  5  6 -1 -1</clus>
<clus scale="  136.595">  2  7  1 -1</clus>
<clus scale="   68.135">  1  5  2 -1</clus>
</clustering>
</event>
<event>
 9    1  0.1504846E-005  0.1306028E+03  0.7546771E-02  0.1226663E+00
         21   -1    0    0  501  502  0.00000000000E+00  0.00000000000E+00  0.34487044480E+03  0.34487044480E+03  0.00000000000E+00 0.  1.
          1   -1    0    0  502    0 -0.00000000000E+00 -0.00000000000E+00 -0.65075196898E+02  0.65075196898E+02  0.00000000000E+00 0. -1.
         23    2    1    2    0    0  0.95720665622E+02  0.34256818029E+02  0.66396488263E+02  0.15191424741E+03  0.91287838743E+02 0.  0.
         23    2    1    2    0    0 -0.76333198798E+02 -0.22394355147E+02  0.16430818301E+03  0.20393447563E+03  0.90905593687E+02 0.  0.
        -13    1    3    3    0    0 -0.11748689880E+02  0.22895082207E+02  0.25891255640E+02  0.36504432906E+02  0.00000000000E+00 0.  1.
         13    1    3    3    0    0  0.10746935550E+03  0.11361735822E+02  0.40505232623E+02  0.11540981450E+03  0.00000000000E+00 0. -1.
        -13    1    4    4    0    0 -0.99648554704E+01  0.27822769831E+02  0.15347415237E+02  0.33300871161E+02  0.00000000000E+00 0. -1.
         13    1    4    4    0    0 -0.66368343327E+02 -0.50217124978E+02  0.14896076778E+03  0.17063360447E+03  0.00000000000E+00 0.  1.
          1    1    1    2  501    0 -0.19387466825E+02 -0.11862462882E+02  0.49090576629E+02  0.54096918668E+02  0.00000000000E+00 0. -1.
<scales pt_clust_5="13000.00000" pt_clust_6="13000.00000" pt_clust_7="13000.00000" pt_clust_8="13000.00000" pt_clust_9="22.72866"></scales>
<clustering>
<clus scale="   22.729">  1  9  2 -1</clus>
<clus scale="   90.906">  7  8 -1 -1</clus>
<clus scale="   91.288">  5  6 -1 -1</clus>
<clus scale="  130.336">  1  7  2 -1</clus>
<clus scale="   22.729">  1  5  2 -1</clus>
</clustering>
</event>
<event>
 9    1  0.1504846E-005  0.1523402E+03  0.7546771E-02  0.1198260E+00
         21   -1    0    0  501  502  0.00000000000E+00  0.00000000000E+00  0.24835235209E+03  0.24835235209E+03  0.00000000000E+00 0. -1.
          2   -1    0    0  502    0 -0.00000000000E+00 -0.00000000000E+00 -0.47081590962E+03  0.47081590962E+03  0.00000000000E+00 0. -1.
         23    2    1    2    0    0 -0.11994341238E+03  0.32117488766E+02 -0.42322000576E+03  0.45002212034E+03  0.89368787980E+02 0.  0.
         23    2    1    2    0    0  0.66299409883E+02 -0.37462436635E+02  0.16647360368E+03  0.20525904641E+03  0.92837328171E+02 0.  0.
        -11    1    3    3    0    0 -0.57852993702E+02  0.51136278018E+02 -0.14448310758E+03  0.16382080510E+03  0.00000000000E+00 0.  1.
         11    1    3    3    0    0 -0.62090418676E+02 -0.19018789251E+02 -0.27873689818E+03  0.28620131524E+03  0.00000000000E+00 0. -1.
        -11    1    4    4    0    0  0.89324640217E+02 -0.23205630072E+02  0.13748542632E+03  0.16558875284E+03  0.00000000000E+00 0.  1.
         11    1    4    4    0    0 -0.23025230334E+02 -0.14256806563E+02  0.28988177356E+02  0.39670293567E+02  0.00000000000E+00 0. -1.
          2    1    1    2  501    0  0.53644002495E+02  0.53449478682E+01  0.34282844547E+02  0.63887094954E+02  0.00000000000E+00 0. -1.
<scales pt_clust_5="13000.00000" pt_clust_6="13000.00000" pt_clust_7="13000.00000" pt_clust_8="13000.00000" pt_clust_9="53.90962"></scales>
<clustering>
<clus scale="   53.910">  1  9  2 -1</clus>
<clus scale="   89.369">  5  6 -1 -1</clus>
<clus scale="   92.837">  7  8 -1 -1</clus>
<clus scale="  150.252">  2  5  1 -1</clus>
<clus scale="   53.910">  1  5  2 -1</clus>
</clustering>
</event>
<event>
 9    1  0.1504846E-005  0.9043281E+02  0.7546771E-02  0.1302003E+00
         21   -1    0    0  501  502  0.00000000000E+00  0.00000000000E+00  0.29510827317E+03  0.29510827317E+03  0.00000000000E+00 0. -1.
          1   -1    0    0  502    0 -0.00000000000E+00 -0.00000000000E+00 -0.82437043828E+02  0.82437043828E+02  0.00000000000E+00 0. -1.
         23    2    1    2    0    0  0.98552156495E+01 -0.26703890674E+02  0.18043687390E+02  0.96504011198E+02  0.90428018169E+02 0.  0.
         23    2    1    2    0    0  0.79850120715E+01 -0.26516837706E+02  0.18336239073E+02  0.96029567997E+02  0.90103036389E+02 0.  0.
        -11    1    3    3    0    0  0.13898061843E+01 -0.48298903833E+02 -0.19718158961E+02  0.52187368832E+02  0.00000000000E+00 0. -1.
         11    1    3    3    0    0  0.84654094652E+01  0.21595013159E+02  0.37761846351E+02  0.44316642366E+02  0.00000000000E+00 0.  1.
        -11    1    4    4    0    0  0.32488471234E+02 -0.50075903850E+02  0.16765302100E+02  0.62001389210E+02  0.00000000000E+00 0. -1.
         11    1    4    4    0    0 -0.24503459162E+02  0.23559066145E+02  0.15709369733E+01  0.34028178786E+02  0.00000000000E+00 0.  1.
          1    1    1    2  501    0 -0.17840227721E+02  0.53220728380E+02  0.17629130288E+03  0.18501173780E+03  0.00000000000E+00 0. -1.
<scales pt_clust_5="13000.00000" pt_clust_6="13000.00000" pt_clust_7="13000.00000" pt_clust_8="13000.00000" pt_clust_9="56.13127"></scales>
<clustering>
<clus scale="   56.131">  1  9  2 -1</clus>
<clus scale="   90.103">  7  8 -1 -1</clus>
<clus scale="   90.108">  1  7  2 -1</clus>
<clus scale="   90.428">  5  6 -1 -1</clus>
<clus scale="   56.131">  1  5  2 -1</clus>
</clustering>
</event>
<event>
 9    1  0.1504846E-005  0.9059042E+02  0.7546771E-02  0.1304225E+00
         21   -1    0    0  501  502  0.00000000000E+00  0.00000000000E+00  0.13455343154E+03  0.13455343154E+03  0.00000000000E+00 0.  1.
         -4   -1    0    0    0  501 -0.00000000000E+00 -0.00000000000E+00 -0.81112116930E+02  0.81112116930E+02  0.00000000000E+00 0.  1.
         23    2    1    2    0    0 -0.55324964821E+01 -0.11591595636E+01  0.60273862218E+01  0.90796287118E+02  0.90419490164E+02 0.  0.
         23    2    1    2    0    0 -0.21180538456E+02  0.37128632589E+00  0.40389332119E+02  0.97236817873E+02  0.85877514742E+02 0.  0.
        -11    1    3    3    0    0 -0.34326396000E+02  0.11913401698E+02 -0.26850189065E+02  0.45179234779E+02  0.00000000000E+00 0. -1.
         11    1    3    3    0    0  0.28793899518E+02 -0.13072561261E+02  0.32877575287E+02  0.45617052339E+02  0.00000000000E+00 0.  1.
        -11    1    4    4    0    0  0.12809035048E+02  0.36288193456E+02  0.22923966493E+02  0.44792997253E+02  0.00000000000E+00 0.  1.
         11    1    4    4    0    0 -0.33989573504E+02 -0.35916907130E+02  0.17465365626E+02  0.52443820620E+02  0.00000000000E+00 0. -1.
         -4    1    1    2    0  502  0.26713034938E+02  0.78787323773E+00  0.70245962682E+01  0.27632443478E+02  0.00000000000E+00 0.  1.
<scales pt_clust_5="13000.00000" pt_clust_6="13000.00000" pt_clust_7="13000.00000" pt_clust_8="13000.00000" pt_clust_9="26.72465"></scales>
<clustering>
<clus scale="   26.725">  1  9  2 -1</clus>
<clus scale="   85.878">  7  8 -1 -1</clus>
<clus scale="   86.057">  1  7  2 -1</clus>
<clus scale="   90.419">  5  6 -1 -1</clus>
<clus scale="   26.725">  1  5  2 -1</clus>
</clustering>
</event>
<event>
 9    1  0.1504846E-005  0.1036374E+03  0.7546771E-02  0.1273411E+00
         21   -1    0    0  501  502  0.00000000000E+00  0.00000000000E+00  0.55416075370E+02  0.55416075370E+02  0.00000000000E+00 0.  1.
          1   -1    0    0  502    0 -0.00000000000E+00 -0.00000000000E+00 -0.34867250983E+03  0.34867250983E+03  0.00000000000E+00 0. -1.
         23    2    1    2    0    0 -0.34914798057E+02 -0.45086765161E+02 -0.18826105650E+03  0.21656550019E+03  0.90589905418E+02 0.  0.
         23    2    1    2    0    0  0.22063949260E+02  0.29469046540E+02 -0.12474648544E+03  0.15925360153E+03  0.91895491791E+02 0.  0.
        -11    1    3    3    0    0  0.15139244566E+02 -0.45692701342E+02 -0.13568661775E+03  0.14397179557E+03  0.00000000000E+00 0.  1.
         11    1    3    3    0    0 -0.50054042623E+02  0.60593618118E+00 -0.52574438744E+02  0.72593704622E+02  0.00000000000E+00 0. -1.
        -13    1    4    4    0    0 -0.30798788126E+02  0.26547092317E+02 -0.29338542018E+02  0.50140437855E+02  0.00000000000E+00 0. -1.
         13    1    4    4    0    0  0.52862737387E+02  0.29219542228E+01 -0.95407943417E+02  0.10911316368E+03  0.00000000000E+00 0.  1.
          1    1    1    2  501    0  0.12850848797E+02  0.15617718621E+02  0.19751107471E+02  0.28269483477E+02  0.00000000000E+00 0. -1.
<scales pt_clust_5="13000.00000" pt_clust_6="13000.00000" pt_clust_7="13000.00000" pt_clust_8="13000.00000" pt_clust_9="20.22517"></scales>
<clustering>
<clus scale="   20.225">  1  9  2 -1</clus>
<clus scale="   90.590">  5  6 -1 -1</clus>
<clus scale="   91.895">  7  8 -1 -1</clus>
<clus scale="  102.482">  2  5  1 -1</clus>
<clus scale="   20.225">  1  5  2 -1</clus>
</clustering>
</event>
<event>
 9    1  0.1504846E-005  0.1450712E+03  0.7546771E-02  0.1212713E+00
          3   -1    0    0  502    0 -0.00000000000E+00  0.00000000000E+00  0.98905917252E+03  0.98905917252E+03  0.00000000000E+00 0. -1.
         21   -1    0    0  501  502  0.00000000000E+00 -0.00000000000E+00 -0.26705049093E+02  0.26705049093E+02  0.00000000000E+00 0.  1.
         23    2    1    2    0    0  0.89690654855E+01  0.94419517620E+02  0.41197203170E+03  0.43203813466E+03  0.89109513826E+02 0.  0.
         23    2    1    2    0    0 -0.45854469859E+01 -0.13850790495E+03  0.44362572959E+03  0.46814095441E+03  0.56095447054E+02 0.  0.
        -11    1    4    4    0    0 -0.19299626835E+02 -0.11858132830E+03  0.40330469529E+03  0.42081906357E+03  0.00000000000E+00 0.  1.
         11    1    4    4    0    0  0.14714179850E+02 -0.19926576656E+02  0.40321034303E+02  0.47321890844E+02  0.00000000000E+00 0. -1.
        -13    1    3    3    0    0  0.45084162790E+02  0.78725441643E+02  0.28232065602E+03  0.29653874909E+03  0.00000000000E+00 0.  1.
         13    1    3    3    0    0 -0.36115097305E+02  0.15694075977E+02  0.12965137568E+03  0.13549938557E+03  0.00000000000E+00 0. -1.
          3    1    1    2  501    0 -0.43836184995E+01  0.44088387335E+02  0.10675636214E+03  0.11558513255E+03  0.00000000000E+00 0. -1.
<scales pt_clust_5="13000.00000" pt_clust_6="13000.00000" pt_clust_7="13000.00000" pt_clust_8="13000.00000" pt_clust_9="44.30578"></scales>
<clustering>
<clus scale="   44.306">  2  9  1 -1</clus>
<clus scale="   56.095">  5  6 -1 -1</clus>
<clus scale="   89.110">  7  8 -1 -1</clus>
<clus scale="  127.483">  2  5  1 -1</clus>
<clus scale="   44.306">  2  5  1 -1</clus>
</clustering>
</event>
<event>
 9    1  0.1504846E-005  0.2830303E+03  0.7546771E-02  0.1094241E+00
          4   -1    0    0  502    0 -0.00000000000E+00  0.00000000000E+00  0.10093705555E+04  0.10093705555E+04  0.00000000000E+00 0. -1.
         21   -1    0    0  501  502  0.00000000000E+00 -0.00000000000E+00 -0.10595670727E+03  0.10595670727E+03  0.00000000000E+00 0.  1.
         23    2    1    2    0    0  0.66359509077E+02 -0.25865382706E+03  0.65944197977E+03  0.71695006093E+03  0.88590510109E+02 0.  0.
         23    2    1    2    0    0 -0.39707317248E+02  0.26599724488E+03  0.20565061471E+03  0.35112486218E+03  0.93087529680E+02 0.  0.
        -11    1    4    4    0    0  0.27759857121E+02  0.55091811189E+02  0.30637693349E+02  0.68879500442E+02  0.00000000000E+00 0.  1.
         11    1    4    4    0    0 -0.67467174368E+02  0.21090543369E+03  0.17501292136E+03  0.28224536174E+03  0.00000000000E+00 0. -1.
        -11    1    3    3    0    0  0.72781453213E+02 -0.22640042041E+03  0.62771993686E+03  0.67125748370E+03  0.00000000000E+00 0.  1.
         11    1    3    3    0    0 -0.64219441359E+01 -0.32253406652E+02  0.31722042910E+02  0.45692577226E+02  0.00000000000E+00 0. -1.
          4    1    1    2  501    0 -0.26652191830E+02 -0.73434178195E+01  0.38321253768E+02  0.47252339677E+02  0.00000000000E+00 0. -1.
<scales pt_clust_5="13000.00000" pt_clust_6="13000.00000" pt_clust_7="13000.00000" pt_clust_8="13000.00000" pt_clust_9="27.64536"></scales>
<clustering>
<clus scale="   27.645">  2  9  1 -1</clus>
<clus scale="   88.591">  7  8 -1 -1</clus>
<clus scale="   93.088">  5  6 -1 -1</clus>
<clus scale="  281.583">  1  7  2 -1</clus>
<clus scale="   27.645">  2  5  1 -1</clus>
</clustering>
</event>
<event>
 9    1  0.1504846E-005  0.1089922E+03  0.7546771E-02  0.1262741E+00
         21   -1    0    0  501  502  0.00000000000E+00  0.00000000000E+00  0.19181234213E+03  0.19181234213E+03  0.00000000000E+00 0.  1.
         -3   -1    0    0    0  501 -0.00000000000E+00 -0.00000000000E+00 -0.15935229403E+03  0.15935229403E+03  0.00000000000E+00 0.  1.
         23    2    1    2    0    0 -0.17921493501E+02 -0.62901963797E+02 -0.10392630046E+03  0.15316776977E+03  0.91552459230E+02 0.  0.
         23    2    1    2    0    0  0.55118364378E+01  0.31219348267E+02  0.60462027668E+02  0.11479656459E+03  0.92290662611E+02 0.  0.
        -11    1    4    4    0    0 -0.23727307856E+02 -0.19799085149E+02  0.63524115183E+00  0.30909423193E+02  0.00000000000E+00 0.  1.
         11    1    4    4    0    0  0.29239144294E+02  0.51018433416E+02  0.59826786516E+02  0.83887141399E+02  0.00000000000E+00 0. -1.
        -13    1    3    3    0    0 -0.40605543382E+02 -0.74538877902E+02 -0.66244849155E+02  0.10767188357E+03  0.00000000000E+00 0.  1.
         13    1    3    3    0    0  0.22684049880E+02  0.11636914105E+02 -0.37681451306E+02  0.45495886202E+02  0.00000000000E+00 0. -1.
         -3    1    1    2    0  502  0.12409657063E+02  0.31682615530E+02  0.75924320889E+02  0.83200301789E+02  0.00000000000E+00 0.  1.
<scales pt_clust_5="13000.00000" pt_clust_6="13000.00000" pt_clust_7="13000.00000" pt_clust_8="13000.00000" pt_clust_9="34.02628"></scales>
<clustering>
<clus scale="   34.026">  1  9  2 -1</clus>
<clus scale="   91.552">  7  8 -1 -1</clus>
<clus scale="   92.291">  5  6 -1 -1</clus>
<clus scale="  108.368">  2  7  1 -1</clus>
<clus scale="   34.026">  1  5  2 -1</clus>
</clustering>
</event>
<event>
 9    1  0.1504846E-005  0.1064345E+03  0.7546771E-02  0.1288563E+00
         21   -1    0    0  501  502  0.00000000000E+00  0.00000000000E+00  0.21651654776E+02  0.21651654776E+02  0.00000000000E+00 0. -1.
         -2   -1    0    0    0  501 -0.00000000000E+00 -0.00000000000E+00 -0.56080248174E+03  0.56080248174E+03  0.00000000000E+00 0.  1.
         23    2    1    2    0    0  0.11250957580E+01 -0.23034901450E+02 -0.37283548645E+03  0.38762655127E+03  0.10351893914E+03 0.  0.
         23    2    1    2    0    0  0.24375988437E+02  0.21953216845E+02 -0.13836392032E+03  0.15697580554E+03  0.66488318796E+02 0.  0.
        -11    1    4    4    0    0  0.35480224600E+02 -0.10607623022E+02 -0.50546598130E+02  0.62660406848E+02  0.00000000000E+00 0.  1.
         11    1    4    4    0    0 -0.11104236164E+02  0.32560839867E+02 -0.87817322193E+02  0.94315398694E+02  0.00000000000E+00 0. -1.
        -13    1    3    3    0    0  0.21841956534E+02 -0.50319342213E+02 -0.31992410045E+03  0.32459287933E+03  0.00000000000E+00 0.  1.
         13    1    3    3    0    0 -0.20716860776E+02  0.27284440762E+02 -0.52911386005E+02  0.63033671931E+02  0.00000000000E+00 0. -1.
         -2    1    1    2    0  502 -0.25501084195E+02  0.10816846056E+01 -0.27951420182E+02  0.37851779706E+02  0.00000000000E+00 0.  1.
<scales pt_clust_5="13000.00000" pt_clust_6="13000.00000" pt_clust_7="13000.00000" pt_clust_8="13000.00000" pt_clust_9="25.52401"></scales>
<clustering>
<clus scale="   25.524">  1  9  2 -1</clus>
<clus scale="   66.488">  5  6 -1 -1</clus>
<clus scale="   70.942">  1  5  2 -1</clus>
<clus scale="  103.519">  7  8 -1 -1</clus>
<clus scale="   25.524">  1  5  2 -1</clus>
</clustering>
</event>
<event>
 9    1  0.1504846E-005  0.9262828E+02  0.7546771E-02  0.1297437E+00
         21   -1    0    0  501  502  0.00000000000E+00  0.00000000000E+00  0.11423671907E+03  0.11423671907E+03  0.00000000000E+00 0.  1.
          1   -1    0    0  502    0 -0.00000000000E+00 -0.00000000000E+00 -0.13466409048E+03  0.13466409048E+03  0.00000000000E+00 0. -1.
         23    2    1    2    0    0 -0.66247484879E+01 -0.11353348171E+02 -0.77230984001E+02  0.11924933102E+03  0.89905462858E+02 0.  0.
         23    2    1    2    0    0  0.27182251541E+02  0.82701525008E+01  0.44521890097E+02  0.10550696084E+03  0.91335917722E+02 0.  0.
        -13    1    4    4    0    0  0.50258492824E+01  0.23001276923E+02  0.66785698637E+02  0.70814175442E+02  0.00000000000E+00 0.  1.
         13    1    4    4    0    0  0.22156402258E+02 -0.14731124422E+02 -0.22263808540E+02  0.34692785395E+02  0.00000000000E+00 0. -1.
        -13    1    3    3    0    0  0.29373766602E+02  0.28583310957E+01 -0.74868144811E+02  0.80475010584E+02  0.00000000000E+00 0.  1.
         13    1    3    3    0    0 -0.35998515090E+02 -0.14211679267E+02 -0.23628391897E+01  0.38774320436E+02  0.00000000000E+00 0. -1.
          1    1    1    2  501    0 -0.20557503053E+02  0.30831956700E+01  0.12281722496E+02  0.24144517696E+02  0.00000000000E+00 0. -1.
<scales pt_clust_5="13000.00000" pt_clust_6="13000.00000" pt_clust_7="13000.00000" pt_clust_8="13000.00000" pt_clust_9="20.78742"></scales>
<clustering>
<clus scale="   20.787">  1  9  2 -1</clus>
<clus scale="   89.905">  7  8 -1 -1</clus>
<clus scale="   91.218">  2  7  1 -1</clus>
<clus scale="   91.336">  5  6 -1 -1</clus>
<clus scale="   20.787">  1  5  2 -1</clus>
</clustering>
</event>
<event>
 9    1  0.1504846E-005  0.1120921E+03  0.7546771E-02  0.1257258E+00
         -1   -1    0    0    0  501 -0.00000000000E+00  0.00000000000E+00  0.25201697264E+03  0.25201697264E+03  0.00000000000E+00 0.  1.
         21   -1    0    0  501  502  0.00000000000E+00 -0.00000000000E+00 -0.13842322157E+03  0.13842322157E+03  0.00000000000E+00 0.  1.
         23    2    1    2    0    0 -0.29504071972E+02 -0.33664921627E+02  0.74683392589E+02  0.12590099172E+03  0.90937524577E+02 0.  0.
         23    2    1    2    0    0  0.31644280777E+02  0.79139603134E+02  0.11858931905E+03  0.17277175777E+03  0.92315851287E+02 0.  0.
        -11    1    4    4    0    0  0.16581061557E+02  0.40672456886E+02 -0.33252068037E+01  0.44048125406E+02  0.00000000000E+00 0. -1.
         11    1    4    4    0    0  0.15063219220E+02  0.38467146247E+02  0.12191452586E+03  0.12872363236E+03  0.00000000000E+00 0.  1.
        -11    1    3    3    0    0 -0.19629030811E+02  0.25464136978E+02  0.27594732560E+01  0.32269735284E+02  0.00000000000E+00 0. -1.
         11    1    3    3    0    0 -0.98750411610E+01 -0.59129058605E+02  0.71923919333E+02  0.93631256435E+02  0.00000000000E+00 0.  1.
         -1    1    1    2    0  502 -0.21402088048E+01 -0.45474681507E+02 -0.79678960577E+02  0.91767444721E+02  0.00000000000E+00 0.  1.
<scales pt_clust_5="13000.00000" pt_clust_6="13000.00000" pt_clust_7="13000.00000" pt_clust_8="13000.00000" pt_clust_9="45.52502"></scales>
<clustering>
<clus scale="   45.525">  2  9  1 -1</clus>
<clus scale="   90.938">  7  8 -1 -1</clus>
<clus scale="   92.316">  5  6 -1 -1</clus>
<clus scale="  110.960">  1  7  2 -1</clus>
<clus scale="   45.525">  2  5  1 -1</clus>
</clustering>
</event>
<event>
 9    1  0.1504846E-005  0.1707646E+03  0.7546771E-02  0.1194739E+00
          1   -1    0    0  502    0 -0.00000000000E+00  0.00000000000E+00  0.42754187679E+03  0.42754187679E+03  0.00000000000E+00 0. -1.
         21   -1    0    0  501  502  0.00000000000E+00 -0.00000000000E+00 -0.12697296490E+03  0.12697296490E+03  0.00000000000E+00 0.  1.
         23    2    1    2    0    0  0.32272182935E+02 -0.53876844786E+02  0.17441639099E+03  0.20903110637E+03  0.96585287647E+02 0.  0.
         23    2    1    2    0    0 -0.38017750527E+02  0.17288985120E+03  0.53874387700E+02  0.20612364138E+03  0.90819909056E+02 0.  0.
        -11    1    4    4    0    0  0.38144270554E+01  0.14770314933E+03  0.26389890127E+02  0.15009062754E+03  0.00000000000E+00 0.  1.
         11    1    4    4    0    0 -0.41832177583E+02  0.25186701872E+02  0.27484497572E+02  0.56033013834E+02  0.00000000000E+00 0. -1.
        -13    1    3    3    0    0  0.55252141057E+02 -0.56118907638E+02  0.81675762783E+02  0.11345951310E+03  0.00000000000E+00 0. -1.
         13    1    3    3    0    0 -0.22979958121E+02  0.22420628524E+01  0.92740628208E+02  0.95571593277E+02  0.00000000000E+00 0.  1.
          1    1    1    2  501    0  0.57455675919E+01 -0.11901300641E+03  0.72278133202E+02  0.13936009394E+03  0.00000000000E+00 0. -1.
<scales pt_clust_5="13000.00000" pt_clust_6="13000.00000" pt_clust_7="13000.00000" pt_clust_8="13000.00000" pt_clust_9="144.61086"></scales>
<clustering>
<clus scale="   90.820">  5  6 -1 -1</clus>
<clus scale="   96.585">  7  8 -1 -1</clus>
<clus scale="  115.208">  1  7  2 -1</clus>
<clus scale="  144.611">  2  9  1 -1</clus>
<clus scale="  144.611">  2  5  1 -1</clus>
</clustering>
</event>
<event>
 9    1  0.1504846E-005  0.1004598E+03  0.7546771E-02  0.1281245E+00
         21   -1    0    0  501  502  0.00000000000E+00  0.00000000000E+00  0.17557875626E+03  0.17557875626E+03  0.00000000000E+00 0. -1.
          3   -1    0    0  502    0 -0.00000000000E+00 -0.00000000000E+00 -0.18730674561E+03  0.18730674561E+03  0.00000000000E+00 0. -1.
         23    2    1    2    0    0  0.36284163032E+01 -0.19862788011E+02 -0.13323751499E+03  0.16701561912E+03  0.98662484649E+02 0.  0.
         23    2    1    2    0    0  0.30219832181E+02  0.13747015738E+02  0.41647653217E+02  0.10891572666E+03  0.95004683027E+02 0.  0.
        -11    1    3    3    0    0  0.81849740274E+00 -0.47988706137E+02 -0.23018797035E+02  0.53230168811E+02  0.00000000000E+00 0. -1.
         11    1    3    3    0    0  0.28099189005E+01  0.28125918126E+02 -0.11021871795E+03  0.11378545031E+03  0.00000000000E+00 0.  1.
        -13    1    4    4    0    0  0.43487119794E+02 -0.18122912636E+02 -0.86612067731E+01  0.47901837680E+02  0.00000000000E+00 0. -1.
         13    1    4    4    0    0 -0.13267287613E+02  0.31869928375E+02  0.50308859990E+02  0.61013888982E+02  0.00000000000E+00 0.  1.
          3    1    1    2  501    0 -0.33848248484E+02  0.61157722728E+01  0.79861872419E+02  0.86954156095E+02  0.00000000000E+00 0. -1.
<scales pt_clust_5="13000.00000" pt_clust_6="13000.00000" pt_clust_7="13000.00000" pt_clust_8="13000.00000" pt_clust_9="34.39632"></scales>
<clustering>
<clus scale="   34.396">  1  9  2 -1</clus>
<clus scale="   95.005">  7  8 -1 -1</clus>
<clus scale="   96.870">  1  7  2 -1</clus>
<clus scale="   98.662">  5  6 -1 -1</clus>
<clus scale="   34.396">  1  5  2 -1</clus>
</clustering>
</event>
<event>
 9    1  0.1504846E-005  0.1052554E+03  0.7546771E-02  0.1273158E+00
         21   -1    0    0  501  502  0.00000000000E+00  0.00000000000E+00  0.12873451704E+03  0.12873451704E+03  0.00000000000E+00 0.  1.
         -2   -1    0    0    0  501 -0.00000000000E+00 -0.00000000000E+00 -0.22724837640E+03  0.22724837640E+03  0.00000000000E+00 0.  1.
         23    2    1    2    0    0  0.26216558039E+02 -0.37832557418E+02 -0.12399563987E+03  0.16261576810E+03  0.94606337063E+02 0.  0.
         23    2    1    2    0    0 -0.58331321638E+01  0.49464621538E+02 -0.51735940058E+02  0.11266170212E+03  0.86805975698E+02 0.  0.
        -11    1    4    4    0    0 -0.28273376873E+02 -0.14030245058E+02 -0.24760633547E+02  0.40116338191E+02  0.00000000000E+00 0.  1.
         11    1    4    4    0    0  0.22440244709E+02  0.63494866596E+02 -0.26975306511E+02  0.72545363932E+02  0.00000000000E+00 0. -1.
        -11    1    3    3    0    0 -0.16099898665E+02 -0.29882416571E+02 -0.11326522379E+03  0.11824202500E+03  0.00000000000E+00 0.  1.
         11    1    3    3    0    0  0.42316456704E+02 -0.79501408466E+01 -0.10730416084E+02  0.44373743101E+02  0.00000000000E+00 0. -1.
         -2    1    1    2    0  502 -0.20383425875E+02 -0.11632064121E+02  0.77217720572E+02  0.80705423216E+02  0.00000000000E+00 0.  1.
<scales pt_clust_5="13000.00000" pt_clust_6="13000.00000" pt_clust_7="13000.00000" pt_clust_8="13000.00000" pt_clust_9="23.46889"></scales>
<clustering>
<clus scale="   23.469">  1  9  2 -1</clus>
<clus scale="   86.806">  5  6 -1 -1</clus>
<clus scale="   94.606">  7  8 -1 -1</clus>
<clus scale="   98.304">  1  5  2 -1</clus>
<clus scale="   23.469">  1  5  2 -1</clus>
</clustering>
</event>
<event>
 9    1  0.1504846E-005  0.1207900E+03  0.7546771E-02  0.1242166E+00
          2   -1    0    0  502    0 -0.00000000000E+00  0.00000000000E+00  0.49000206637E+03  0.49000206637E+03  0.00000000000E+00 0. -1.
         21   -1    0    0  501  502  0.00000000000E+00 -0.00000000000E+00 -0.67774029924E+02  0.67774029924E+02  0.00000000000E+00 0.  1.
         23    2    1    2    0    0  0.12298164616E+02 -0.71037937274E+02  0.32808289781E+03  0.34832955434E+03  0.92181653331E+02 0.  0.
         23    2    1    2    0    0 -0.52505268757E+02  0.93562998273E+02  0.76103386175E+02  0.15995417458E+03  0.91009750488E+02 0.  0.
        -11    1    4    4    0    0 -0.28323431239E+02  0.90629688783E+02  0.90903699176E+02  0.13145128288E+03  0.00000000000E+00 0. -1.
         11    1    4    4    0    0 -0.24181837518E+02  0.29333094904E+01 -0.14800313001E+02  0.28502891700E+02  0.00000000000E+00 0.  1.
        -13    1    3    3    0    0 -0.33022190404E+02 -0.20171914208E+01  0.71388120460E+02  0.78681623414E+02  0.00000000000E+00 0.  1.
         13    1    3    3    0    0  0.45320355020E+02 -0.69020745853E+02  0.25669477735E+03  0.26964793093E+03  0.00000000000E+00 0. -1.
          2    1    1    2  501    0  0.40207104141E+02 -0.22525061000E+02  0.18041752466E+02  0.49492367376E+02  0.00000000000E+00 0. -1.
<scales pt_clust_5="13000.00000" pt_clust_6="13000.00000" pt_clust_7="13000.00000" pt_clust_8="13000.00000" pt_clust_9="46.08676"></scales>
<clustering>
<clus scale="   46.087">  2  9  1 -1</clus>
<clus scale="   91.010">  5  6 -1 -1</clus>
<clus scale="   92.182">  7  8 -1 -1</clus>
<clus scale="  119.898">  2  5  1 -1</clus>
<clus scale="   46.087">  2  5  1 -1</clus>
</clustering>
</event>
<event>
 9    1  0.1504846E-005  0.9436497E+02  0.7546771E-02  0.1294221E+00
         21   -1    0    0  501  502  0.00000000000E+00  0.00000000000E+00  0.10999627312E+03  0.10999627312E+03  0.00000000000E+00 0. -1.
         -1   -1    0    0    0  501 -0.00000000000E+00 -0.00000000000E+00 -0.20418532482E+03  0.20418532482E+03  0.00000000000E+00 0.  1.
         23    2    1    2    0    0  0.49847830630E+02  0.15456618598E+02 -0.87804388718E+02  0.13493209360E+03  0.88166580569E+02 0.  0.
         23    2    1    2    0    0  0.19257982662E+02  0.26449329787E+02 -0.15230673089E+02  0.97947758750E+02  0.91056867390E+02 0.  0.
        -11    1    3    3    0    0 -0.25192351984E+02  0.74249245488E+01 -0.29982436022E+02  0.39858883236E+02  0.00000000000E+00 0. -1.
         11    1    3    3    0    0  0.75040182614E+02  0.80316940487E+01 -0.57821952697E+02  0.95073210368E+02  0.00000000000E+00 0.  1.
        -11    1    4    4    0    0  0.47341281122E+02 -0.11833301584E+02 -0.12589376571E+02  0.50395598291E+02  0.00000000000E+00 0. -1.
         11    1    4    4    0    0 -0.28083298459E+02  0.38282631371E+02 -0.26412965174E+01  0.47552160459E+02  0.00000000000E+00 0.  1.
         -1    1    1    2    0  502 -0.69105813293E+02 -0.41905948384E+02  0.88460101067E+01  0.81301745588E+02  0.00000000000E+00 0.  1.
<scales pt_clust_5="13000.00000" pt_clust_6="13000.00000" pt_clust_7="13000.00000" pt_clust_8="13000.00000" pt_clust_9="80.81907"></scales>
<clustering>
<clus scale="   80.819">  1  9  2 -1</clus>
<clus scale="   88.167">  5  6 -1 -1</clus>
<clus scale="   91.057">  7  8 -1 -1</clus>
<clus scale="   91.579">  2  5  1 -1</clus>
<clus scale="   80.819">  1  5  2 -1</clus>
</clustering>
</event>
<event>
 9    1  0.1504846E-005  0.9926595E+02  0.7546771E-02  0.1284927E+00
         -1   -1    0    0    0  501 -0.00000000000E+00  0.00000000000E+00  0.19229418180E+03  0.19229418180E+03  0.00000000000E+00 0.  1.
         21   -1    0    0  501  502  0.00000000000E+00 -0.00000000000E+00 -0.15098458567E+03  0.15098458567E+03  0.00000000000E+00 0.  1.
         23    2    1    2    0    0 -0.69236566490E+01 -0.28126053279E+02  0.93482616636E+02  0.13767241681E+03  0.96828109771E+02 0.  0.
         23    2    1    2    0    0  0.19709663279E+02  0.46341337883E+01  0.45892712108E+02  0.10395872324E+03  0.91056735553E+02 0.  0.
        -11    1    3    3    0    0  0.30613980577E+01 -0.58083768954E+02  0.88205539799E+02  0.10565658344E+03  0.00000000000E+00 0.  1.
         11    1    3    3    0    0 -0.99850547067E+01  0.29957715675E+02  0.52770768369E+01  0.32015833362E+02  0.00000000000E+00 0. -1.
        -11    1    4    4    0    0 -0.28519122282E+02  0.13846488000E+02  0.44753577809E+02  0.54844765405E+02  0.00000000000E+00 0.  1.
         11    1    4    4    0    0  0.48228785560E+02 -0.92123542115E+01  0.11391342992E+01  0.49113957830E+02  0.00000000000E+00 0. -1.
         -1    1    1    2    0  502 -0.12786006630E+02  0.23491919490E+02 -0.98065732617E+02  0.10164762742E+03  0.00000000000E+00 0.  1.
<scales pt_clust_5="13000.00000" pt_clust_6="13000.00000" pt_clust_7="13000.00000" pt_clust_8="13000.00000" pt_clust_9="26.74607"></scales>
<clustering>
<clus scale="   26.746">  2  9  1 -1</clus>
<clus scale="   91.057">  7  8 -1 -1</clus>
<clus scale="   93.645">  2  7  1 -1</clus>
<clus scale="   96.828">  5  6 -1 -1</clus>
<clus scale="   26.746">  2  5  1 -1</clus>
</clustering>
</event>
<event>
 9    1  0.1504846E-005  0.1073768E+03  0.7546771E-02  0.1267901E+00
         21   -1    0    0  501  502  0.00000000000E+00  0.00000000000E+00  0.58822222712E+02  0.58822222712E+02  0.00000000000E+00 0.  1.
          1   -1    0    0  502    0 -0.00000000000E+00 -0.00000000000E+00 -0.27848191823E+03  0.27848191823E+03  0.00000000000E+00 0. -1.
         23    2    1    2    0    0  0.19851912129E+02 -0.28438119756E+02 -0.13079463626E+03  0.16733449881E+03  0.98441721576E+02 0.  0.
         23    2    1    2    0    0 -0.14907282373E+02  0.53294947037E+02 -0.94814383055E+02  0.14393686127E+03  0.93088529635E+02 0.  0.
        -11    1    4    4    0    0  0.13280753225E+02  0.25907384216E+02 -0.10013051555E+03  0.10427699222E+03  0.00000000000E+00 0. -1.
         11    1    4    4    0    0 -0.28188035598E+02  0.27387562821E+02  0.53161324899E+01  0.39659869046E+02  0.00000000000E+00 0.  1.
        -13    1    3    3    0    0 -0.38823336354E+02 -0.34556302151E+01 -0.35824899835E+02  0.52939741915E+02  0.00000000000E+00 0.  1.
         13    1    3    3    0    0  0.58675248483E+02 -0.24982489541E+02 -0.94969736426E+02  0.11439475689E+03  0.00000000000E+00 0. -1.
          1    1    1    2  501    0 -0.49446297562E+01 -0.24856827281E+02  0.59493237981E+01  0.26032780865E+02  0.00000000000E+00 0. -1.
<scales pt_clust_5="13000.00000" pt_clust_6="13000.00000" pt_clust_7="13000.00000" pt_clust_8="13000.00000" pt_clust_9="25.34386"></scales>
<clustering>
<clus scale="   25.344">  1  9  2 -1</clus>
<clus scale="   93.089">  5  6 -1 -1</clus>
<clus scale="   98.442">  7  8 -1 -1</clus>
<clus scale="  102.491">  1  5  2 -1</clus>
<clus scale="   25.344">  1  5  2 -1</clus>
</clustering>
</event>
<event>
 9    1  0.1504846E-005  0.1110487E+03  0.7546771E-02  0.1264161E+00
         21   -1    0    0  501  502  0.00000000000E+00  0.00000000000E+00  0.71199777712E+02  0.71199777712E+02  0.00000000000E+00 0. -1.
         -3   -1    0    0    0  501 -0.00000000000E+00 -0.00000000000E+00 -0.31904865688E+03  0.31904865688E+03  0.00000000000E+00 0.  1.
         23    2    1    2    0    0 -0.39675928572E+02  0.40878628829E+02 -0.23077523152E+03  0.25528700800E+03  0.93107504362E+02 0.  0.
         23    2    1    2    0    0  0.60904101683E+02 -0.41788955358E+02 -0.26875576030E+02  0.11156181489E+03  0.79171431476E+02 0.  0.
        -11    1    4    4    0    0  0.21031767307E+02 -0.17138850946E+02 -0.51796953113E+02  0.58472213910E+02  0.00000000000E+00 0.  1.
         11    1    4    4    0    0  0.39872334376E+02 -0.24650104411E+02  0.24921377082E+02  0.53089600975E+02  0.00000000000E+00 0. -1.
        -13    1    3    3    0    0  0.27656541308E+02 -0.34803781435E+01 -0.47802999564E+02  0.55336462450E+02  0.00000000000E+00 0. -1.
         13    1    3    3    0    0 -0.67332469880E+02  0.44359006972E+02 -0.18297223195E+03  0.19995054555E+03  0.00000000000E+00 0.  1.
         -3    1    1    2    0  502 -0.21228173111E+02  0.91032652875E+00  0.98019283801E+01  0.23399611706E+02  0.00000000000E+00 0.  1.
<scales pt_clust_5="13000.00000" pt_clust_6="13000.00000" pt_clust_7="13000.00000" pt_clust_8="13000.00000" pt_clust_9="21.24768"></scales>
<clustering>
<clus scale="   21.248">  1  9  2 -1</clus>
<clus scale="   79.171">  5  6 -1 -1</clus>
<clus scale="   93.108">  7  8 -1 -1</clus>
<clus scale="   99.654">  1  5  2 -1</clus>
<clus scale="   21.248">  1  5  2 -1</clus>
</clustering>
</event>
<event>
 9    1  0.1504846E-005  0.2124223E+03  0.7546771E-02  0.1139720E+00
         21   -1    0    0  501  502  0.00000000000E+00  0.00000000000E+00  0.86400974117E+02  0.86400974117E+02  0.00000000000E+00 0.  1.
          2   -1    0    0  502    0 -0.00000000000E+00 -0.00000000000E+00 -0.82248163810E+03  0.82248163810E+03  0.00000000000E+00 0. -1.
         23    2    1    2    0    0 -0.63372786169E+02 -0.17507664002E+03 -0.39914854825E+03  0.44996471101E+03  0.92090920721E+02 0.  0.
         23    2    1    2    0    0  0.10910788116E+03  0.16858466638E+03 -0.34741176128E+03  0.41155053263E+03  0.91397973499E+02 0.  0.
        -11    1    3    3    0    0  0.76257792080E+01 -0.11342650488E+03 -0.21619305663E+03  0.24426043940E+03  0.00000000000E+00 0.  1.
         11    1    3    3    0    0 -0.70998565377E+02 -0.61650135138E+02 -0.18295549161E+03  0.20570427161E+03  0.00000000000E+00 0. -1.
        -11    1    4    4    0    0  0.77269249053E+01  0.27202507196E+02 -0.68065662998E+01  0.29086270147E+02  0.00000000000E+00 0.  1.
         11    1    4    4    0    0  0.10138095625E+03  0.14138215918E+03 -0.34060519498E+03  0.38246426248E+03  0.00000000000E+00 0. -1.
          2    1    1    2  501    0 -0.45735094990E+02  0.64919736368E+01  0.10479645547E+02  0.47367368580E+02  0.00000000000E+00 0. -1.
<scales pt_clust_5="13000.00000" pt_clust_6="13000.00000" pt_clust_7="13000.00000" pt_clust_8="13000.00000" pt_clust_9="46.19356"></scales>
<clustering>
<clus scale="   46.194">  1  9  2 -1</clus>
<clus scale="   91.398">  7  8 -1 -1</clus>
<clus scale="   92.091">  5  6 -1 -1</clus>
<clus scale="  212.123">  1  7  2 -1</clus>
<clus scale="   46.194">  1  5  2 -1</clus>
</clustering>
</event>
<event>
 9    1  0.1504846E-005  0.1211349E+03  0.7546771E-02  0.1241733E+00
          1   -1    0    0  502    0 -0.00000000000E+00  0.00000000000E+00  0.23980105255E+03  0.23980105255E+03  0.00000000000E+00 0. -1.
         21   -1    0    0  501  502  0.00000000000E+00 -0.00000000000E+00 -0.20207629163E+03  0.20207629163E+03  0.00000000000E+00 0. -1.
         23    2    1    2    0    0 -0.91629643193E+02  0.57073963590E+01  0.16960403617E+03  0.21514213121E+03  0.95352197947E+02 0.  0.
         23    2    1    2    0    0  0.15657001831E+01 -0.62255648513E+00 -0.74760391673E+02  0.11996472881E+03  0.93806081900E+02 0.  0.
        -11    1    4    4    0    0  0.22279666054E+02 -0.18660910444E+02  0.10101994049E+02  0.30767895311E+02  0.00000000000E+00 0.  1.
         11    1    4    4    0    0 -0.20713965871E+02  0.18038353959E+02 -0.84862385722E+02  0.89196833498E+02  0.00000000000E+00 0. -1.
        -13    1    3    3    0    0 -0.51687361150E+02 -0.59143976831E+01  0.13720376467E+02  0.53803458374E+02  0.00000000000E+00 0.  1.
         13    1    3    3    0    0 -0.39942282043E+02  0.11621794042E+02  0.15588365970E+03  0.16133867284E+03  0.00000000000E+00 0. -1.
          1    1    1    2  501    0  0.90063943009E+02 -0.50848398739E+01 -0.57118883570E+02  0.10677048416E+03  0.00000000000E+00 0. -1.
<scales pt_clust_5="13000.00000" pt_clust_6="13000.00000" pt_clust_7="13000.00000" pt_clust_8="13000.00000" pt_clust_9="90.20737"></scales>
<clustering>
<clus scale="   90.207">  2  9  1 -1</clus>
<clus scale="   93.806">  5  6 -1 -1</clus>
<clus scale="   95.352">  7  8 -1 -1</clus>
<clus scale="  119.922">  2  5  1 -1</clus>
<clus scale="   90.207">  2  5  1 -1</clus>
</clustering>
</event>
<event>
 9    1  0.1504846E-005  0.1243117E+03  0.7546771E-02  0.1236417E+00
         21   -1    0    0  501  502  0.00000000000E+00  0.00000000000E+00  0.39827944053E+03  0.39827944053E+03  0.00000000000E+00 0.  1.
          1   -1    0    0  502    0 -0.00000000000E+00 -0.00000000000E+00 -0.54438756093E+02  0.54438756093E+02  0.00000000000E+00 0. -1.
         23    2    1    2    0    0  0.86900474803E+02 -0.40332059257E+02  0.10209954859E+03  0.16797757545E+03  0.92810454736E+02 0.  0.
         23    2    1    2    0    0 -0.59578672311E+02  0.29558166775E+02  0.14779947100E+03  0.18631504500E+03  0.91898362041E+02 0.  0.
        -11    1    3    3    0    0  0.52700764335E+02 -0.52894773457E+02  0.10776565304E+03  0.13110554372E+03  0.00000000000E+00 0. -1.
         11    1    3    3    0    0  0.34199710468E+02  0.12562714200E+02 -0.56661044498E+01  0.36872031729E+02  0.00000000000E+00 0.  1.
        -13    1    4    4    0    0 -0.45391009496E+02  0.60757754919E+02  0.12101668586E+03  0.14281766971E+03  0.00000000000E+00 0.  1.
         13    1    4    4    0    0 -0.14187662815E+02 -0.31199588144E+02  0.26782785142E+02  0.43497375283E+02  0.00000000000E+00 0. -1.
          1    1    1    2  501    0 -0.27321802492E+02  0.10773892482E+02  0.93941664847E+02  0.98425576172E+02  0.00000000000E+00 0. -1.
<scales pt_clust_5="13000.00000" pt_clust_6="13000.00000" pt_clust_7="13000.00000" pt_clust_8="13000.00000" pt_clust_9="29.36933"></scales>
<clustering>
<clus scale="   29.369">  1  9  2 -1</clus>
<clus scale="   91.898">  7  8 -1 -1</clus>
<clus scale="   92.810">  5  6 -1 -1</clus>
<clus scale="  123.632">  1  7  2 -1</clus>
<clus scale="   29.369">  1  5  2 -1</clus>
</clustering>
</event>
<event>
 9    1  0.1504846E-005  0.1089543E+03  0.7546771E-02  0.1266656E+00
         21   -1    0    0  501  502  0.00000000000E+00  0.00000000000E+00  0.81411383107E+02  0.81411383107E+02  0.00000000000E+00 0.  1.
          3   -1    0    0  502    0 -0.00000000000E+00 -0.00000000000E+00 -0.19423377240E+03  0.19423377240E+03  0.00000000000E+00 0. -1.
         23    2    1    2    0    0  0.87557355843E+01 -0.30052783980E+02 -0.88141008320E+02  0.13179754179E+03  0.92854304934E+02 0.  0.
         23    2    1    2    0    0 -0.37066339453E+01  0.53569845307E+02 -0.30324154649E+02  0.11914161250E+03  0.10193969792E+03 0.  0.
        -11    1    3    3    0    0  0.70521684017E+01  0.25942559255E+02 -0.66522872633E+02  0.71749857444E+02  0.00000000000E+00 0. -1.
         11    1    3    3    0    0  0.17035671826E+01 -0.55995343236E+02 -0.21618135687E+02  0.60047684350E+02  0.00000000000E+00 0.  1.
        -13    1    4    4    0    0  0.37307159859E+02  0.62721072362E+02 -0.22754500283E+02  0.76442948518E+02  0.00000000000E+00 0.  1.
         13    1    4    4    0    0 -0.41013793804E+02 -0.91512270548E+01 -0.75696543659E+01  0.42698663984E+02  0.00000000000E+00 0. -1.
          3    1    1    2  501    0 -0.50491016391E+01 -0.23517061327E+02  0.56427736804E+01  0.24706001206E+02  0.00000000000E+00 0. -1.
<scales pt_clust_5="13000.00000" pt_clust_6="13000.00000" pt_clust_7="13000.00000" pt_clust_8="13000.00000" pt_clust_9="24.05297"></scales>
<clustering>
<clus scale="   24.053">  1  9  2 -1</clus>
<clus scale="   92.854">  5  6 -1 -1</clus>
<clus scale="  100.505">  2  5  1 -1</clus>
<clus scale="  101.940">  7  8 -1 -1</clus>
<clus scale="   24.053">  1  5  2 -1</clus>
</clustering>
</event>
<event>
 9    1  0.1504846E-005  0.1589911E+03  0.7546771E-02  0.1190262E+00
          2   -1    0    0  502    0 -0.00000000000E+00  0.00000000000E+00  0.56158636700E+03  0.56158636700E+03  0.00000000000E+00 0. -1.
         21   -1    0    0  501  502  0.00000000000E+00 -0.00000000000E+00 -0.94168401110E+02  0.94168401110E+02  0.00000000000E+00 0. -1.
         23    2    1    2    0    0  0.69738760369E+02 -0.93541782310E+02  0.30297844662E+03  0.33742168878E+03  0.91890680742E+02 0.  0.
         23    2    1    2    0    0 -0.11152603518E+03  0.14081424818E+03  0.87583946941E+02  0.21889645950E+03  0.89319668639E+02 0.  0.
        -11    1    4    4    0    0 -0.20716849832E+02  0.86144691445E+02  0.66607480223E+02  0.11084517199E+03  0.00000000000E+00 0.  1.
         11    1    4    4    0    0 -0.90809185346E+02  0.54669556737E+02  0.20976466718E+02  0.10805128751E+03  0.00000000000E+00 0. -1.
        -13    1    3    3    0    0  0.51687964869E+02 -0.11015873835E+03  0.22667231187E+03  0.25726820697E+03  0.00000000000E+00 0. -1.
         13    1    3    3    0    0  0.18050795499E+02  0.16616956042E+02  0.76306134746E+02  0.80153481809E+02  0.00000000000E+00 0.  1.
          2    1    1    2  501    0  0.41787274809E+02 -0.47272465872E+02  0.76855572329E+02  0.99436619832E+02  0.00000000000E+00 0. -1.
<scales pt_clust_5="13000.00000" pt_clust_6="13000.00000" pt_clust_7="13000.00000" pt_clust_8="13000.00000" pt_clust_9="63.09411"></scales>
<clustering>
<clus scale="   63.094">  2  9  1 -1</clus>
<clus scale="   89.320">  5  6 -1 -1</clus>
<clus scale="   91.891">  7  8 -1 -1</clus>
<clus scale="  157.519">  2  5  1 -1</clus>
<clus scale="   63.094">  2  5  1 -1</clus>
</clustering>
</event>
<event>
 9    1  0.1504846E-005  0.1038025E+03  0.7546771E-02  0.1275842E+00
          1   -1    0    0  502    0 -0.00000000000E+00  0.00000000000E+00  0.17533145986E+03  0.17533145986E+03  0.00000000000E+00 0. -1.
         21   -1    0    0  501  502  0.00000000000E+00 -0.00000000000E+00 -0.15617547237E+03  0.15617547237E+03  0.00000000000E+00 0. -1.
         23    2    1    2    0    0 -0.26734782386E+02 -0.18788078268E+02  0.85094671155E+02  0.13128051103E+03  0.94476076572E+02 0.  0.
         23    2    1    2    0    0  0.67653430045E+02  0.11640535454E+02  0.12185322382E+02  0.11174600858E+03  0.87328115118E+02 0.  0.
        -11    1    4    4    0    0 -0.48492156766E+01 -0.25065258926E+02  0.16447833136E+02  0.30369611663E+02  0.00000000000E+00 0.  1.
         11    1    4    4    0    0  0.72502645722E+02  0.36705794380E+02 -0.42625107540E+01  0.81376396920E+02  0.00000000000E+00 0. -1.
        -13    1    3    3    0    0 -0.53730468053E+02 -0.35941453875E+02  0.40081441348E+02  0.76060983719E+02  0.00000000000E+00 0.  1.
         13    1    3    3    0    0  0.26995685667E+02  0.17153375607E+02  0.45013229807E+02  0.55219527316E+02  0.00000000000E+00 0. -1.
          1    1    1    2  501    0 -0.40918647659E+02  0.71475428141E+01 -0.78124006052E+02  0.88480412613E+02  0.00000000000E+00 0. -1.
<scales pt_clust_5="13000.00000" pt_clust_6="13000.00000" pt_clust_7="13000.00000" pt_clust_8="13000.00000" pt_clust_9="41.53821"></scales>
<clustering>
<clus scale="   41.538">  2  9  1 -1</clus>
<clus scale="   87.328">  5  6 -1 -1</clus>
<clus scale="   94.476">  7  8 -1 -1</clus>
<clus scale="   97.342">  2  5  1 -1</clus>
<clus scale="   41.538">  2  5  1 -1</clus>
</clustering>
</event>
<event>
 9    1  0.1504846E-005  0.1165622E+03  0.7546771E-02  0.1249983E+00
          1   -1    0    0  502    0 -0.00000000000E+00  0.00000000000E+00  0.61865089640E+02  0.61865089640E+02  0.00000000000E+00 0. -1.
         21   -1    0    0  501  502  0.00000000000E+00 -0.00000000000E+00 -0.35022064370E+03  0.35022064370E+03  0.00000000000E+00 0.  1.
         23    2    1    2    0    0 -0.93041643305E+01 -0.62600145136E+02 -0.61916251837E+02  0.12671671415E+03  0.90654055385E+02 0.  0.
         23    2    1    2    0    0 -0.31783611764E+02  0.81525589578E+02 -0.16254799453E+03  0.20708442945E+03  0.93837575970E+02 0.  0.
        -11    1    3    3    0    0  0.35030915582E+02 -0.93566105510E+01 -0.40135158033E+02  0.54088280781E+02  0.00000000000E+00 0. -1.
         11    1    3    3    0    0 -0.44335079912E+02 -0.53243534585E+02 -0.21781093804E+02  0.72628433366E+02  0.00000000000E+00 0.  1.
        -11    1    4    4    0    0  0.21687859005E+02  0.70075452733E+02 -0.99672605414E+02  0.12375605268E+03  0.00000000000E+00 0. -1.
         11    1    4    4    0    0 -0.53471470770E+02  0.11450136845E+02 -0.62875389113E+02  0.83328376776E+02  0.00000000000E+00 0.  1.
          1    1    1    2  501    0  0.41087776095E+02 -0.18925444443E+02 -0.63891307694E+02  0.78284589739E+02  0.00000000000E+00 0. -1.
<scales pt_clust_5="13000.00000" pt_clust_6="13000.00000" pt_clust_7="13000.00000" pt_clust_8="13000.00000" pt_clust_9="45.23691"></scales>
<clustering>
<clus scale="   45.237">  2  9  1 -1</clus>
<clus scale="   90.654">  5  6 -1 -1</clus>
<clus scale="   93.838">  7  8 -1 -1</clus>
<clus scale="  114.015">  1  5  2 -1</clus>
<clus scale="   45.237">  2  5  1 -1</clus>
</clustering>
</event>
<event>
 9    1  0.1504846E-005  0.1093217E+03  0.7546771E-02  0.1264447E+00
         -1   -1    0    0    0  501 -0.00000000000E+00  0.00000000000E+00  0.29054429353E+03  0.29054429353E+03  0.00000000000E+00 0.  1.
         21   -1    0    0  501  502  0.00000000000E+00 -0.00000000000E+00 -0.16227579486E+03  0.16227579486E+03  0.00000000000E+00 0. -1.
         23    2    1    2    0    0 -0.26339633717E+02 -0.39841815804E+02  0.24100132276E+03  0.26214934658E+03  0.91430278069E+02 0.  0.
         23    2    1    2    0    0  0.59200053296E+02  0.39925197281E+02 -0.88746948655E+02  0.14998737484E+03  0.97578296904E+02 0.  0.
        -11    1    3    3    0    0 -0.35174873561E+02 -0.29386220408E+01  0.26036943305E+02  0.43861482490E+02  0.00000000000E+00 0. -1.
         11    1    3    3    0    0  0.88352398442E+01 -0.36903193763E+02  0.21496437946E+03  0.21828786409E+03  0.00000000000E+00 0.  1.
        -13    1    4    4    0    0  0.54246723388E+02 -0.86463259093E+01 -0.84757142560E+02  0.10100118398E+03  0.00000000000E+00 0. -1.
         13    1    4    4    0    0  0.49533299087E+01  0.48571523190E+02 -0.39898060951E+01  0.48986190859E+02  0.00000000000E+00 0.  1.
         -1    1    1    2    0  502 -0.32860419579E+02 -0.83381476919E-01 -0.23985875444E+02  0.40683366972E+02  0.00000000000E+00 0.  1.
<scales pt_clust_5="13000.00000" pt_clust_6="13000.00000" pt_clust_7="13000.00000" pt_clust_8="13000.00000" pt_clust_9="32.86053"></scales>
<clustering>
<clus scale="   32.861">  2  9  1 -1</clus>
<clus scale="   91.430">  5  6 -1 -1</clus>
<clus scale="   97.578">  7  8 -1 -1</clus>
<clus scale="  103.871">  1  5  2 -1</clus>
<clus scale="   32.861">  2  5  1 -1</clus>
</clustering>
</event>
<event>
 9    1  0.1504846E-005  0.1139381E+03  0.7546771E-02  0.1259062E+00
         -3   -1    0    0    0  501 -0.00000000000E+00  0.00000000000E+00  0.11056089973E+03  0.11056089973E+03  0.00000000000E+00 0.  1.
         21   -1    0    0  501  502  0.00000000000E+00 -0.00000000000E+00 -0.21366613535E+03  0.21366613535E+03  0.00000000000E+00 0. -1.
         23    2    1    2    0    0 -0.23670376574E+02  0.27257807625E+02  0.18868000289E+02  0.10235694752E+03  0.93902441220E+02 0.  0.
         23    2    1    2    0    0  0.51525876757E+02 -0.10194730259E+02 -0.27823295346E+02  0.12221423571E+03  0.10678639963E+03 0.  0.
        -11    1    4    4    0    0  0.66722127277E+02  0.32112861753E+02 -0.16877762865E+02  0.75946935670E+02  0.00000000000E+00 0. -1.
         11    1    4    4    0    0 -0.15196250520E+02 -0.42307592012E+02 -0.10945532481E+02  0.46267300040E+02  0.00000000000E+00 0.  1.
        -13    1    3    3    0    0  0.13445784565E+02  0.26849803815E+02 -0.29025588704E+02  0.41763451570E+02  0.00000000000E+00 0. -1.
         13    1    3    3    0    0 -0.37116161139E+02  0.40800380971E+00  0.47893588993E+02  0.60593495950E+02  0.00000000000E+00 0.  1.
         -3    1    1    2    0  502 -0.27855500183E+02 -0.17063077366E+02 -0.94149940567E+02  0.99655851852E+02  0.00000000000E+00 0.  1.
<scales pt_clust_5="13000.00000" pt_clust_6="13000.00000" pt_clust_7="13000.00000" pt_clust_8="13000.00000" pt_clust_9="32.66615"></scales>
<clustering>
<clus scale="   32.666">  2  9  1 -1</clus>
<clus scale="   93.902">  7  8 -1 -1</clus>
<clus scale="  101.962">  1  7  2 -1</clus>
<clus scale="  106.786">  5  6 -1 -1</clus>
<clus scale="   32.666">  2  5  1 -1</clus>
</clustering>
</event>
<event>
 9    1  0.1504846E-005  0.1180504E+03  0.7546771E-02  0.1246564E+00
         21   -1    0    0  501  502  0.00000000000E+00  0.00000000000E+00  0.71444646970E+03  0.71444646970E+03  0.00000000000E+00 0.  1.
          1   -1    0    0  502    0 -0.00000000000E+00 -0.00000000000E+00 -0.62045661098E+02  0.62045661098E+02  0.00000000000E+00 0. -1.
         23    2    1    2    0    0 -0.24424601169E+02  0.79502542198E+02  0.61855320911E+02  0.13798478874E+03  0.91085157074E+02 0.  0.
         23    2    1    2    0    0 -0.78737461035E+02 -0.53193072808E+02  0.38498781838E+03  0.40701532347E+03  0.91742915134E+02 0.  0.
        -13    1    4    4    0    0 -0.83287846531E+02 -0.13685896974E+02  0.31893557484E+03  0.32991524677E+03  0.00000000000E+00 0.  1.
         13    1    4    4    0    0  0.45503854966E+01 -0.39507175834E+02  0.66052243542E+02  0.77100076702E+02  0.00000000000E+00 0. -1.
        -13    1    3    3    0    0  0.23681861627E+02  0.25879583063E+00 -0.43354623590E+01  0.24076830756E+02  0.00000000000E+00 0. -1.
         13    1    3    3    0    0 -0.48106462796E+02  0.79243746367E+02  0.66190783270E+02  0.11390795798E+03  0.00000000000E+00 0.  1.
          1    1    1    2  501    0  0.10316206220E+03 -0.26309469390E+02  0.20555766931E+03  0.23149201859E+03  0.00000000000E+00 0. -1.
<scales pt_clust_5="13000.00000" pt_clust_6="13000.00000" pt_clust_7="13000.00000" pt_clust_8="13000.00000" pt_clust_9="106.46407"></scales>
<clustering>
<clus scale="   91.085">  7  8 -1 -1</clus>
<clus scale="   91.743">  5  6 -1 -1</clus>
<clus scale="  106.464">  1  9  2 -1</clus>
<clus scale="  117.540">  2  7  1 -1</clus>
<clus scale="  106.464">  1  5  2 -1</clus>
</clustering>
</event>
<event>
 9    1  0.1504846E-005  0.9867207E+02  0.7546771E-02  0.1284491E+00
          1   -1    0    0  502    0 -0.00000000000E+00  0.00000000000E+00  0.52769330135E+03  0.52769330135E+03  0.00000000000E+00 0. -1.
         21   -1    0    0  501  502  0.00000000000E+00 -0.00000000000E+00 -0.47441130934E+02  0.47441130934E+02  0.00000000000E+00 0. -1.
         23    2    1    2    0    0 -0.30308309374E+02  0.19284154253E+02  0.40536480469E+03  0.41729142616E+03  0.92309464530E+02 0.  0.
         23    2    1    2    0    0  0.13167659906E+02 -0.34335422539E+02  0.88573544598E+02  0.13124123864E+03  0.89591748556E+02 0.  0.
        -11    1    4    4    0    0 -0.14433281596E+01 -0.63789084875E+02  0.54819253941E+02  0.84120634496E+02  0.00000000000E+00 0. -1.
         11    1    4    4    0    0  0.14610988066E+02  0.29453662337E+02  0.33754290656E+02  0.47120604145E+02  0.00000000000E+00 0.  1.
        -13    1    3    3    0    0 -0.56322292954E+02  0.27648261099E+02  0.34966883329E+03  0.35525331807E+03  0.00000000000E+00 0.  1.
         13    1    3    3    0    0  0.26013983580E+02 -0.83641068466E+01  0.55695971400E+02  0.62038108088E+02  0.00000000000E+00 0. -1.
          1    1    1    2  501    0  0.17140649468E+02  0.15051268286E+02 -0.13686178871E+02  0.26601767484E+02  0.00000000000E+00 0. -1.
<scales pt_clust_5="13000.00000" pt_clust_6="13000.00000" pt_clust_7="13000.00000" pt_clust_8="13000.00000" pt_clust_9="22.81102"></scales>
<clustering>
<clus scale="   22.811">  2  9  1 -1</clus>
<clus scale="   89.592">  5  6 -1 -1</clus>
<clus scale="   92.309">  7  8 -1 -1</clus>
<clus scale="   96.134">  2  5  1 -1</clus>
<clus scale="   22.811">  2  5  1 -1</clus>
</clustering>
</event>
<event>
 9    1  0.1504846E-005  0.1190383E+03  0.7546771E-02  0.1246188E+00
          2   -1    0    0  502    0 -0.00000000000E+00  0.00000000000E+00  0.16597928001E+03  0.16597928001E+03  0.00000000000E+00 0. -1.
         21   -1    0    0  501  502  0.00000000000E+00 -0.00000000000E+00 -0.14809471874E+03  0.14809471874E+03  0.00000000000E+00 0. -1.
         23    2    1    2    0    0 -0.57107720504E+02  0.17733691675E+02  0.51937742097E+02  0.12360988426E+03  0.94900468237E+02 0.  0.
         23    2    1    2    0    0  0.79628690508E+02 -0.48316105057E+02  0.12459389297E+02  0.13041499062E+03  0.90430409906E+02 0.  0.
        -11    1    4    4    0    0  0.41546098484E+01 -0.44492313972E+02  0.28713544811E+02  0.53115858660E+02  0.00000000000E+00 0.  1.
         11    1    4    4    0    0  0.75474080659E+02 -0.38237910856E+01 -0.16254155514E+02  0.77299131956E+02  0.00000000000E+00 0. -1.
        -13    1    3    3    0    0 -0.18259930340E+02  0.25148190704E+02 -0.23143763121E+02  0.38749068674E+02  0.00000000000E+00 0.  1.
         13    1    3    3    0    0 -0.38847790164E+02 -0.74144990291E+01  0.75081505218E+02  0.84860815588E+02  0.00000000000E+00 0. -1.
          2    1    1    2  501    0 -0.22520970004E+02  0.30582413383E+02 -0.46512570129E+02  0.60049123875E+02  0.00000000000E+00 0. -1.
<scales pt_clust_5="13000.00000" pt_clust_6="13000.00000" pt_clust_7="13000.00000" pt_clust_8="13000.00000" pt_clust_9="37.97997"></scales>
<clustering>
<clus scale="   37.980">  2  9  1 -1</clus>
<clus scale="   90.430">  5  6 -1 -1</clus>
<clus scale="   94.900">  7  8 -1 -1</clus>
<clus scale="  115.506">  2  5  1 -1</clus>
<clus scale="   37.980">  2  5  1 -1</clus>
</clustering>
</event>
<event>
 9    1  0.1504846E-005  0.1007874E+03  0.7546771E-02  0.1279649E+00
         21   -1    0    0  501  502  0.00000000000E+00  0.00000000000E+00  0.14185713252E+03  0.14185713252E+03  0.00000000000E+00 0.  1.
          1   -1    0    0  502    0 -0.00000000000E+00 -0.00000000000E+00 -0.19912116359E+03  0.19912116359E+03  0.00000000000E+00 0. -1.
         23    2    1    2    0    0  0.27521514011E+01  0.38090660135E+02 -0.73599506158E+02  0.12066081416E+03  0.87656557310E+02 0.  0.
         23    2    1    2    0    0  0.21783107753E+02 -0.53387415866E+02 -0.71095054784E+02  0.12823020144E+03  0.89798428670E+02 0.  0.
        -13    1    3    3    0    0 -0.89154365853E+01 -0.20099731013E+02  0.46261293927E+01  0.22469652188E+02  0.00000000000E+00 0.  1.
         13    1    3    3    0    0  0.11667587986E+02  0.58190391148E+02 -0.78225635550E+02  0.98191161968E+02  0.00000000000E+00 0. -1.
        -13    1    4    4    0    0  0.58757818792E+01 -0.70635982449E+02 -0.76356204101E+02  0.10418366827E+03  0.00000000000E+00 0.  1.
         13    1    4    4    0    0  0.15907325874E+02  0.17248566583E+02  0.52611493168E+01  0.24046533176E+02  0.00000000000E+00 0. -1.
          1    1    1    2  501    0 -0.24535259154E+02  0.15296755731E+02  0.87430529871E+02  0.92087280507E+02  0.00000000000E+00 0. -1.
<scales pt_clust_5="13000.00000" pt_clust_6="13000.00000" pt_clust_7="13000.00000" pt_clust_8="13000.00000" pt_clust_9="28.91314"></scales>
<clustering>
<clus scale="   28.913">  1  9  2 -1</clus>
<clus scale="   87.657">  5  6 -1 -1</clus>
<clus scale="   89.798">  7  8 -1 -1</clus>
<clus scale="   98.884">  2  5  1 -1</clus>
<clus scale="   28.913">  1  5  2 -1</clus>
</clustering>
</event>
<event>
 9    1  0.1504846E-005  0.1067842E+03  0.7546771E-02  0.1271311E+00
         21   -1    0    0  501  502  0.00000000000E+00  0.00000000000E+00  0.10116564445E+03  0.10116564445E+03  0.00000000000E+00 0.  1.
          1   -1    0    0  502    0 -0.00000000000E+00 -0.00000000000E+00 -0.33784002998E+03  0.33784002998E+03  0.00000000000E+00 0. -1.
         23    2    1    2    0    0 -0.40111253641E+02 -0.11175556005E+02 -0.25124444516E+03  0.27026949982E+03  0.90487709600E+02 0.  0.
         23    2    1    2    0    0 -0.76128523795E+00 -0.19056433863E+02  0.42589282309E+02  0.11068779405E+03  0.10037038187E+03 0.  0.
        -11    1    4    4    0    0 -0.25978053720E+02 -0.50646569608E+02  0.79844895352E+01  0.57477703166E+02  0.00000000000E+00 0.  1.
         11    1    4    4    0    0  0.25216768482E+02  0.31590135745E+02  0.34604792773E+02  0.53210090885E+02  0.00000000000E+00 0. -1.
        -13    1    3    3    0    0  0.24893151541E+01 -0.25570984512E+02 -0.14930220545E+02  0.29715037008E+02  0.00000000000E+00 0.  1.
         13    1    3    3    0    0 -0.42600568795E+02  0.14395428507E+02 -0.23631422461E+03  0.24055446281E+03  0.00000000000E+00 0. -1.
          1    1    1    2  501    0  0.40872538879E+02  0.30231989868E+02 -0.28019222683E+02  0.58048380559E+02  0.00000000000E+00 0. -1.
<scales pt_clust_5="13000.00000" pt_clust_6="13000.00000" pt_clust_7="13000.00000" pt_clust_8="13000.00000" pt_clust_9="50.83835"></scales>
<clustering>
<clus scale="   50.838">  1  9  2 -1</clus>
<clus scale="   90.488">  7  8 -1 -1</clus>
<clus scale="   97.554">  2  7  1 -1</clus>
<clus scale="  100.370">  5  6 -1 -1</clus>
<clus scale="   50.838">  1  5  2 -1</clus>
</clustering>
</event>
<event>
 9    1  0.1504846E-005  0.1009929E+03  0.7546771E-02  0.1278931E+00
          2   -1    0    0  502    0 -0.00000000000E+00  0.00000000000E+00  0.10328298546E+03  0.10328298546E+03  0.00000000000E+00 0. -1.
         21   -1    0    0  501  502  0.00000000000E+00 -0.00000000000E+00 -0.29678612379E+03  0.29678612379E+03  0.00000000000E+00 0. -1.
         23    2    1    2    0    0  0.21826889372E+02 -0.43863703233E+02  0.96829278605E+01  0.10332619082E+03  0.90454989115E+02 0.  0.
         23    2    1    2    0    0  0.20334113902E+02  0.38914151634E+02 -0.13997399194E+02  0.10285016462E+03  0.91948038550E+02 0.  0.
        -11    1    4    4    0    0  0.33878921738E+02  0.56940125266E+02 -0.32392097865E+02  0.73750981062E+02  0.00000000000E+00 0.  1.
         11    1    4    4    0    0 -0.13544807837E+02 -0.18025973633E+02  0.18394698671E+02  0.29099183561E+02  0.00000000000E+00 0. -1.
        -13    1    3    3    0    0  0.30848031941E+02 -0.61729182486E+02 -0.15928436528E+02  0.70822370303E+02  0.00000000000E+00 0. -1.
         13    1    3    3    0    0 -0.90211425697E+01  0.17865479253E+02  0.25611364388E+02  0.32503820514E+02  0.00000000000E+00 0.  1.
          2    1    1    2  501    0 -0.42161003273E+02  0.49495515996E+01 -0.18918866700E+03  0.19389275381E+03  0.00000000000E+00 0. -1.
<scales pt_clust_5="13000.00000" pt_clust_6="13000.00000" pt_clust_7="13000.00000" pt_clust_8="13000.00000" pt_clust_9="42.45054"></scales>
<clustering>
<clus scale="   42.451">  2  9  1 -1</clus>
<clus scale="   90.455">  7  8 -1 -1</clus>
<clus scale="   91.948">  5  6 -1 -1</clus>
<clus scale="   99.635">  1  7  2 -1</clus>
<clus scale="   42.451">  2  5  1 -1</clus>
</clustering>
</event>
<event>
 9    1  0.1504846E-005  0.1471529E+03  0.7546771E-02  0.1206883E+00
         21   -1    0    0  501  502  0.00000000000E+00  0.00000000000E+00  0.56628780077E+03  0.56628780077E+03  0.00000000000E+00 0. -1.
          1   -1    0    0  502    0 -0.00000000000E+00 -0.00000000000E+00 -0.56619888065E+02  0.56619888065E+02  0.00000000000E+00 0. -1.
         23    2    1    2    0    0  0.41048703609E+02 -0.10832469660E+03  0.12804334152E+03  0.20179938518E+03  0.10444452398E+03 0.  0.
         23    2    1    2    0    0 -0.60768944035E+02  0.65115761572E+02  0.24259710653E+03  0.27419153852E+03  0.91622686804E+02 0.  0.
        -11    1    4    4    0    0 -0.63677584186E+00 -0.21112594832E+02  0.26560170555E+02  0.33935082201E+02  0.00000000000E+00 0.  1.
         11    1    4    4    0    0 -0.60132168193E+02  0.86228356405E+02  0.21603693597E+03  0.24025645632E+03  0.00000000000E+00 0. -1.
        -13    1    3    3    0    0 -0.12580906930E+02 -0.18633100255E+02  0.86447133838E+02  0.89322889525E+02  0.00000000000E+00 0.  1.
         13    1    3    3    0    0  0.53629610540E+02 -0.89691596342E+02  0.41596207680E+02  0.11247649565E+03  0.00000000000E+00 0. -1.
          1    1    1    2  501    0  0.19720240425E+02  0.43208935025E+02  0.13902746466E+03  0.14691676514E+03  0.00000000000E+00 0. -1.
<scales pt_clust_5="13000.00000" pt_clust_6="13000.00000" pt_clust_7="13000.00000" pt_clust_8="13000.00000" pt_clust_9="47.49632"></scales>
<clustering>
<clus scale="   47.496">  1  9  2 -1</clus>
<clus scale="   91.623">  5  6 -1 -1</clus>
<clus scale="  104.445">  7  8 -1 -1</clus>
<clus scale="  138.348">  1  5  2 -1</clus>
<clus scale="   47.496">  1  5  2 -1</clus>
</clustering>
</event>
<event>
 9    1  0.1504846E-005  0.1398316E+03  0.7546771E-02  0.1214879E+00
          1   -1    0    0  502    0 -0.00000000000E+00  0.00000000000E+00  0.17133295531E+03  0.17133295531E+03  0.00000000000E+00 0. -1.
         21   -1    0    0  501  502  0.00000000000E+00 -0.00000000000E+00 -0.16018271479E+03  0.16018271479E+03  0.00000000000E+00 0.  1.
         23    2    1    2    0    0 -0.83021110326E+02  0.75330380193E+02  0.82966907625E+02  0.16589786828E+03  0.89841104176E+02 0.  0.
         23    2    1    2    0    0  0.61043488916E+02 -0.73516013520E+02 -0.63852971645E+02  0.14217151822E+03  0.83693648637E+02 0.  0.
        -11    1    4    4    0    0  0.10132215930E+01 -0.46850146335E+02  0.48603410036E+01  0.47112479709E+02  0.00000000000E+00 0. -1.
         11    1    4    4    0    0  0.60030267323E+02 -0.26665867185E+02 -0.68713312648E+02  0.95059038511E+02  0.00000000000E+00 0.  1.
        -13    1    3    3    0    0 -0.32292085989E+02 -0.17990987207E+01 -0.11008327040E+02  0.34164291855E+02  0.00000000000E+00 0.  1.
         13    1    3    3    0    0 -0.50729024338E+02  0.77129478914E+02  0.93975234665E+02  0.13173357643E+03  0.00000000000E+00 0. -1.
          1    1    1    2  501    0  0.21977621410E+02 -0.18143666729E+01 -0.79636954520E+01  0.23446283598E+02  0.00000000000E+00 0. -1.
<scales pt_clust_5="13000.00000" pt_clust_6="13000.00000" pt_clust_7="13000.00000" pt_clust_8="13000.00000" pt_clust_9="22.05239"></scales>
<clustering>
<clus scale="   22.052">  2  9  1 -1</clus>
<clus scale="   83.694">  5  6 -1 -1</clus>
<clus scale="   89.841">  7  8 -1 -1</clus>
<clus scale="  135.963">  2  5  1 -1</clus>
<clus scale="   22.052">  2  5  1 -1</clus>
</clustering>
</event>
<event>
 9    1  0.1504846E-005  0.1187277E+03  0.7546771E-02  0.1246130E+00
         -1   -1    0    0    0  501 -0.00000000000E+00  0.00000000000E+00  0.29695162020E+03  0.29695162020E+03  0.00000000000E+00 0.  1.
         21   -1    0    0  501  502  0.00000000000E+00 -0.00000000000E+00 -0.12376558943E+03  0.12376558943E+03  0.00000000000E+00 0.  1.
         23    2    1    2    0    0 -0.74026109109E+02 -0.19893415454E+02  0.22125108915E+03  0.25064272040E+03  0.89409820664E+02 0.  0.
         23    2    1    2    0    0  0.75595602798E+02  0.42344082866E+02 -0.62574559564E+01  0.12259426811E+03  0.86501342782E+02 0.  0.
        -11    1    3    3    0    0  0.71251393334E+01 -0.32663674473E+02  0.87604785848E+02  0.93767167730E+02  0.00000000000E+00 0.  1.
         11    1    3    3    0    0 -0.81151248443E+02  0.12770259019E+02  0.13364630330E+03  0.15687555267E+03  0.00000000000E+00 0. -1.
        -11    1    4    4    0    0  0.71684863096E+02  0.23131033784E+01  0.20125040453E+02  0.74492196219E+02  0.00000000000E+00 0.  1.
         11    1    4    4    0    0  0.39107397024E+01  0.40030979488E+02 -0.26382496409E+02  0.48102071895E+02  0.00000000000E+00 0. -1.
         -1    1    1    2    0  502 -0.15694936890E+01 -0.22450667412E+02 -0.41807602419E+02  0.47480221121E+02  0.00000000000E+00 0.  1.
<scales pt_clust_5="13000.00000" pt_clust_6="13000.00000" pt_clust_7="13000.00000" pt_clust_8="13000.00000" pt_clust_9="22.50546"></scales>
<clustering>
<clus scale="   22.505">  2  9  1 -1</clus>
<clus scale="   86.501">  7  8 -1 -1</clus>
<clus scale="   89.410">  5  6 -1 -1</clus>
<clus scale="  116.553">  2  7  1 -1</clus>
<clus scale="   22.505">  2  5  1 -1</clus>
</clustering>
</event>
<event>
 9    1  0.1504846E-005  0.9330480E+02  0.7546771E-02  0.1297687E+00
         -3   -1    0    0    0  501 -0.00000000000E+00  0.00000000000E+00  0.13227850880E+03  0.13227850880E+03  0.00000000000E+00 0.  1.
         21   -1    0    0  501  502  0.00000000000E+00 -0.00000000000E+00 -0.18995882164E+03  0.18995882164E+03  0.00000000000E+00 0.  1.
         23    2    1    2    0    0 -0.68422792987E+00 -0.10628132195E+02  0.50734849379E+02  0.10607187533E+03  0.92540760930E+02 0.  0.
         23    2    1    2    0    0 -0.33761009292E+02 -0.26613216444E+02 -0.16742482868E+01  0.97983328188E+02  0.88033291757E+02 0.  0.
        -11    1    3    3    0    0 -0.39174764791E+02 -0.28139913129E+02  0.39430835753E+02  0.62300142179E+02  0.00000000000E+00 0.  1.
         11    1    3    3    0    0  0.38490536861E+02  0.17511780933E+02  0.11304013626E+02  0.43771733155E+02  0.00000000000E+00 0. -1.
        -13    1    4    4    0    0 -0.24058795381E+02  0.39141025588E+00 -0.42051154941E+02  0.48448719994E+02  0.00000000000E+00 0. -1.
         13    1    4    4    0    0 -0.97022139104E+01 -0.27004626700E+02  0.40376906654E+02  0.49534608194E+02  0.00000000000E+00 0.  1.
         -3    1    1    2    0  502  0.34445237221E+02  0.37241348639E+02 -0.10674091393E+03  0.11818212692E+03  0.00000000000E+00 0.  1.
<scales pt_clust_5="13000.00000" pt_clust_6="13000.00000" pt_clust_7="13000.00000" pt_clust_8="13000.00000" pt_clust_9="50.72862"></scales>
<clustering>
<clus scale="   50.729">  2  9  1 -1</clus>
<clus scale="   88.033">  7  8 -1 -1</clus>
<clus scale="   88.836">  2  7  1 -1</clus>
<clus scale="   92.541">  5  6 -1 -1</clus>
<clus scale="   50.729">  2  5  1 -1</clus>
</clustering>
</event>
<event>
 9    1  0.1504846E-005  0.1099718E+03  0.7546771E-02  0.1265457E+00
         -1   -1    0    0    0  501 -0.00000000000E+00  0.00000000000E+00  0.17448703103E+03  0.17448703103E+03  0.00000000000E+00 0.  1.
         21   -1    0    0  501  502  0.00000000000E+00 -0.00000000000E+00 -0.16568990345E+03  0.16568990345E+03  0.00000000000E+00 0.  1.
         23    2    1    2    0    0  0.50878336871E+02  0.13218839349E+02  0.11350291889E+03  0.16093913768E+03  0.10126771727E+03 0.  0.
         23    2    1    2    0    0 -0.14791573398E+02 -0.90920568412E+01 -0.31103175942E+02  0.97160821833E+02  0.90395583987E+02 0.  0.
        -11    1    4    4    0    0  0.28450505164E+02 -0.30164104622E+02 -0.32878669499E+01  0.41594645338E+02  0.00000000000E+00 0.  1.
         11    1    4    4    0    0 -0.43242078561E+02  0.21072047780E+02 -0.27815308992E+02  0.55566176495E+02  0.00000000000E+00 0. -1.
        -13    1    3    3    0    0  0.80837824488E+02  0.71726085186E+00  0.89231384409E+02  0.12040559910E+03  0.00000000000E+00 0.  1.
         13    1    3    3    0    0 -0.29959487617E+02  0.12501578497E+02  0.24271534485E+02  0.40533538575E+02  0.00000000000E+00 0. -1.
         -1    1    1    2    0  502 -0.36086763474E+02 -0.41267825077E+01 -0.73602615368E+02  0.82076974974E+02  0.00000000000E+00 0.  1.
<scales pt_clust_5="13000.00000" pt_clust_6="13000.00000" pt_clust_7="13000.00000" pt_clust_8="13000.00000" pt_clust_9="36.32196"></scales>
<clustering>
<clus scale="   36.322">  2  9  1 -1</clus>
<clus scale="   90.396">  5  6 -1 -1</clus>
<clus scale="  100.050">  2  5  1 -1</clus>
<clus scale="  101.268">  7  8 -1 -1</clus>
<clus scale="   36.322">  2  5  1 -1</clus>
</clustering>
</event>
<event>
 9    1  0.1504846E-005  0.2822492E+03  0.7546771E-02  0.1094733E+00
         21   -1    0    0  501  502  0.00000000000E+00  0.00000000000E+00  0.11885990046E+04  0.11885990046E+04  0.00000000000E+00 0. -1.
          2   -1    0    0  502    0 -0.00000000000E+00 -0.00000000000E+00 -0.18145600678E+03  0.18145600678E+03  0.00000000000E+00 0. -1.
         23    2    1    2    0    0 -0.27514007636E+03 -0.12887494346E+03  0.11156048096E+03  0.33618148807E+03  0.90892460289E+02 0.  0.
         23    2    1    2    0    0  0.17158901376E+03  0.15258546316E+03  0.17258202374E+03  0.30311041234E+03  0.96779408664E+02 0.  0.
        -11    1    4    4    0    0  0.50824609683E+02 -0.45051167129E+01  0.34126475154E+02  0.61384471428E+02  0.00000000000E+00 0.  1.
         11    1    4    4    0    0  0.12076440407E+03  0.15709057987E+03  0.13845554858E+03  0.24172594091E+03  0.00000000000E+00 0. -1.
        -13    1    3    3    0    0 -0.70758047615E+02 -0.69452364669E+02  0.64237987752E+02  0.11813911855E+03  0.00000000000E+00 0.  1.
         13    1    3    3    0    0 -0.20438202875E+03 -0.59422578794E+02  0.47322493209E+02  0.21804236953E+03  0.00000000000E+00 0. -1.
          2    1    1    2  501    0  0.10355106260E+03 -0.23710519696E+02  0.72300049308E+03  0.73076311093E+03  0.00000000000E+00 0. -1.
<scales pt_clust_5="13000.00000" pt_clust_6="13000.00000" pt_clust_7="13000.00000" pt_clust_8="13000.00000" pt_clust_9="106.23093"></scales>
<clustering>
<clus scale="   90.892">  7  8 -1 -1</clus>
<clus scale="   96.779">  5  6 -1 -1</clus>
<clus scale="  106.231">  1  9  2 -1</clus>
<clus scale="  280.285">  2  7  1 -1</clus>
<clus scale="  106.231">  1  5  2 -1</clus>
</clustering>
</event>
<event>
 9    1  0.1504846E-005  0.2326000E+03  0.7546771E-02  0.1144344E+00
          1   -1    0    0  502    0 -0.00000000000E+00  0.00000000000E+00  0.18326555793E+04  0.18326555793E+04  0.00000000000E+00 0. -1.
         21   -1    0    0  501  502  0.00000000000E+00 -0.00000000000E+00 -0.56324394930E+02  0.56324394930E+02  0.00000000000E+00 0. -1.
         23    2    1    2    0    0 -0.10124726673E+03  0.48806290343E+02  0.75719229529E+03  0.77087165908E+03  0.90938879050E+02 0.  0.
         23    2    1    2    0    0  0.15176980424E+03  0.16280215511E+03  0.50352761306E+03  0.55847839374E+03  0.93911894743E+02 0.  0.
        -13    1    3    3    0    0 -0.41254774144E+02 -0.25932151920E+02  0.25999422914E+03  0.26452113730E+03  0.00000000000E+00 0. -1.
         13    1    3    3    0    0 -0.59992492586E+02  0.74738442264E+02  0.49719806615E+03  0.50635052178E+03  0.00000000000E+00 0.  1.
        -13    1    4    4    0    0  0.41033181949E+02  0.52352308799E+02  0.65446737648E+02  0.93315388475E+02  0.00000000000E+00 0.  1.
         13    1    4    4    0    0  0.11073662229E+03  0.11044984631E+03  0.43808087541E+03  0.46516300526E+03  0.00000000000E+00 0. -1.
          1    1    1    2  501    0 -0.50522537507E+02 -0.21160844545E+03  0.51561127602E+03  0.55962992142E+03  0.00000000000E+00 0. -1.
<scales pt_clust_5="13000.00000" pt_clust_6="13000.00000" pt_clust_7="13000.00000" pt_clust_8="13000.00000" pt_clust_9="212.79891"></scales>
<clustering>
<clus scale="   90.939">  5  6 -1 -1</clus>
<clus scale="   93.912">  7  8 -1 -1</clus>
<clus scale="  144.579">  1  5  2 -1</clus>
<clus scale="  212.799">  2  9  1 -1</clus>
<clus scale="  212.799">  2  5  1 -1</clus>
</clustering>
</event>
<event>
 9    1  0.1504846E-005  0.1110127E+03  0.7546771E-02  0.1264230E+00
         21   -1    0    0  501  502  0.00000000000E+00  0.00000000000E+00  0.51961589131E+02  0.51961589131E+02  0.00000000000E+00 0.  1.
          1   -1    0    0  502    0 -0.00000000000E+00 -0.00000000000E+00 -0.45599300069E+03  0.45599300069E+03  0.00000000000E+00 0. -1.
         23    2    1    2    0    0  0.29546427222E+02  0.24721823671E+02 -0.34490777826E+03  0.36192631474E+03  0.10268944378E+03 0.  0.
         23    2    1    2    0    0 -0.50275237801E+02 -0.24836967224E+02 -0.64906139991E+02  0.12450772142E+03  0.90249051012E+02 0.  0.
        -13    1    3    3    0    0  0.46087984780E+02  0.55597560197E+02 -0.26529815981E+03  0.27495145870E+03  0.00000000000E+00 0. -1.
         13    1    3    3    0    0 -0.16541557558E+02 -0.30875736527E+02 -0.79609618449E+02  0.86974856034E+02  0.00000000000E+00 0.  1.
        -13    1    4    4    0    0 -0.76164284707E+02 -0.20160044003E+02 -0.40344222934E+02  0.88515998346E+02  0.00000000000E+00 0.  1.
         13    1    4    4    0    0  0.25889046906E+02 -0.46769232209E+01 -0.24561917057E+02  0.35991723077E+02  0.00000000000E+00 0. -1.
          1    1    1    2  501    0  0.20728810579E+02  0.11514355323E+00  0.57825067003E+01  0.21520553659E+02  0.00000000000E+00 0. -1.
<scales pt_clust_5="13000.00000" pt_clust_6="13000.00000" pt_clust_7="13000.00000" pt_clust_8="13000.00000" pt_clust_9="20.72913"></scales>
<clustering>
<clus scale="   20.729">  1  9  2 -1</clus>
<clus scale="   90.249">  7  8 -1 -1</clus>
<clus scale="   99.617">  1  7  2 -1</clus>
<clus scale="  102.689">  5  6 -1 -1</clus>
<clus scale="   20.729">  1  5  2 -1</clus>
</clustering>
</event>
<event>
 9    1  0.1504846E-005  0.1366352E+03  0.7546771E-02  0.1218436E+00
          2   -1    0    0  502    0 -0.00000000000E+00  0.00000000000E+00  0.34021893788E+03  0.34021893788E+03  0.00000000000E+00 0. -1.
         21   -1    0    0  501  502  0.00000000000E+00 -0.00000000000E+00 -0.12373761596E+03  0.12373761596E+03  0.00000000000E+00 0.  1.
         23    2    1    2    0    0 -0.77142012562E+02 -0.79195633325E+02  0.23368196640E+03  0.27453702096E+03  0.92414695893E+02 0.  0.
         23    2    1    2    0    0  0.57384138975E+02  0.54735916753E+02  0.37895136929E+02  0.12598297849E+03  0.90259124066E+02 0.  0.
        -13    1    3    3    0    0 -0.41775551391E+02  0.11431874520E+02  0.46259973079E+02  0.63370888887E+02  0.00000000000E+00 0.  1.
         13    1    3    3    0    0 -0.35366461171E+02 -0.90627507845E+02  0.18742199332E+03  0.21116613208E+03  0.00000000000E+00 0. -1.
        -13    1    4    4    0    0  0.48198482346E+02  0.30111332114E+02  0.66273472013E+02  0.87303832188E+02  0.00000000000E+00 0. -1.
         13    1    4    4    0    0  0.91856566284E+01  0.24624584639E+02 -0.28378335084E+02  0.38679146300E+02  0.00000000000E+00 0.  1.
          2    1    1    2  501    0  0.19757873587E+02  0.24459716573E+02 -0.55095781413E+02  0.63436554391E+02  0.00000000000E+00 0. -1.
<scales pt_clust_5="13000.00000" pt_clust_6="13000.00000" pt_clust_7="13000.00000" pt_clust_8="13000.00000" pt_clust_9="31.44283"></scales>
<clustering>
<clus scale="   31.443">  2  9  1 -1</clus>
<clus scale="   90.259">  7  8 -1 -1</clus>
<clus scale="   92.415">  5  6 -1 -1</clus>
<clus scale="  135.187">  2  7  1 -1</clus>
<clus scale="   31.443">  2  5  1 -1</clus>
</clustering>
</event>
<event>
 9    1  0.1504846E-005  0.1742085E+03  0.7546771E-02  0.1176655E+00
         21   -1    0    0  501  502  0.00000000000E+00  0.00000000000E+00  0.13857395871E+03  0.13857395871E+03  0.00000000000E+00 0. -1.
          2   -1    0    0  502    0 -0.00000000000E+00 -0.00000000000E+00 -0.51835833356E+03  0.51835833356E+03  0.00000000000E+00 0. -1.
         23    2    1    2    0    0 -0.13388031593E+03  0.33371745369E+02 -0.36475672900E+03  0.40525205797E+03  0.11020048440E+03 0.  0.
         23    2    1    2    0    0  0.12873875599E+03 -0.97800282962E+01 -0.84081070522E+02  0.17852710579E+03  0.90183062888E+02 0.  0.
        -11    1    4    4    0    0  0.14666372154E+02 -0.37087897443E+02 -0.16545201489E+02  0.43178215586E+02  0.00000000000E+00 0. -1.
         11    1    4    4    0    0  0.11407238384E+03  0.27307869147E+02 -0.67535869034E+02  0.13534889020E+03  0.00000000000E+00 0.  1.
        -11    1    3    3    0    0 -0.14827149283E+03  0.14974703201E+02 -0.33994735654E+03  0.37117769672E+03  0.00000000000E+00 0. -1.
         11    1    3    3    0    0  0.14391176904E+02  0.18397042167E+02 -0.24809372451E+02  0.34074361250E+02  0.00000000000E+00 0.  1.
          2    1    1    2  501    0  0.51415599336E+01 -0.23591717072E+02  0.69053424672E+02  0.73153128517E+02  0.00000000000E+00 0. -1.
<scales pt_clust_5="13000.00000" pt_clust_6="13000.00000" pt_clust_7="13000.00000" pt_clust_8="13000.00000" pt_clust_9="24.14549"></scales>
<clustering>
<clus scale="   24.145">  1  9  2 -1</clus>
<clus scale="   90.183">  5  6 -1 -1</clus>
<clus scale="  110.200">  7  8 -1 -1</clus>
<clus scale="  162.288">  1  5  2 -1</clus>
<clus scale="   24.145">  1  5  2 -1</clus>
</clustering>
</event>
<event>
 9    1  0.1504846E-005  0.1035384E+03  0.7546771E-02  0.1274837E+00
         21   -1    0    0  501  502  0.00000000000E+00  0.00000000000E+00  0.22091416152E+03  0.22091416152E+03  0.00000000000E+00 0.  1.
         -1   -1    0    0    0  501 -0.00000000000E+00 -0.00000000000E+00 -0.75408101344E+02  0.75408101344E+02  0.00000000000E+00 0.  1.
         23    2    1    2    0    0  0.20759127968E+01 -0.12409011697E+02  0.19107612194E+02  0.10121598428E+03  0.98596560007E+02 0.  0.
         23    2    1    2    0    0 -0.34044524356E+02  0.23233492251E+01  0.66901556569E+02  0.12681577558E+03  0.10218608063E+03 0.  0.
        -11    1    4    4    0    0  0.28812066245E+02 -0.21623273663E+02  0.41404094732E+02  0.54881692629E+02  0.00000000000E+00 0. -1.
         11    1    4    4    0    0 -0.62856590602E+02  0.23946622888E+02  0.25497461838E+02  0.71934082951E+02  0.00000000000E+00 0.  1.
        -13    1    3    3    0    0  0.26863280807E+02 -0.41933218383E+02  0.33552890960E+02  0.60048539961E+02  0.00000000000E+00 0.  1.
         13    1    3    3    0    0 -0.24787368010E+02  0.29524206686E+02 -0.14445278767E+02  0.41167444321E+02  0.00000000000E+00 0. -1.
         -1    1    1    2    0  502  0.31968611560E+02  0.10085662472E+02  0.59496891410E+02  0.68290503000E+02  0.00000000000E+00 0.  1.
<scales pt_clust_5="13000.00000" pt_clust_6="13000.00000" pt_clust_7="13000.00000" pt_clust_8="13000.00000" pt_clust_9="33.52182"></scales>
<clustering>
<clus scale="   33.522">  1  9  2 -1</clus>
<clus scale="   98.597">  7  8 -1 -1</clus>
<clus scale="   99.997">  2  7  1 -1</clus>
<clus scale="  102.186">  5  6 -1 -1</clus>
<clus scale="   33.522">  1  5  2 -1</clus>
</clustering>
</event>
<event>
 9    1  0.1504846E-005  0.1310948E+03  0.7546771E-02  0.1226199E+00
         21   -1    0    0  501  502  0.00000000000E+00  0.00000000000E+00  0.21118817458E+03  0.21118817458E+03  0.00000000000E+00 0. -1.
          1   -1    0    0  502    0 -0.00000000000E+00 -0.00000000000E+00 -0.54816379417E+03  0.54816379417E+03  0.00000000000E+00 0. -1.
         23    2    1    2    0    0  0.86569406778E+02 -0.33546039340E+02 -0.46392733242E+03  0.48197199352E+03  0.91917538187E+02 0.  0.
         23    2    1    2    0    0 -0.46668245174E+02  0.10489722936E+03  0.30682035516E+02  0.15108292148E+03  0.93291521725E+02 0.  0.
        -11    1    4    4    0    0  0.13437382241E+02  0.64016005589E+02  0.41684330635E+02  0.77564138837E+02  0.00000000000E+00 0. -1.
         11    1    4    4    0    0 -0.60105627416E+02  0.40881223772E+02 -0.11002295119E+02  0.73518782648E+02  0.00000000000E+00 0.  1.
        -13    1    3    3    0    0  0.66313908876E+02 -0.39919755112E+02 -0.44992943443E+03  0.45653873584E+03  0.00000000000E+00 0. -1.
         13    1    3    3    0    0  0.20255497902E+02  0.63737157718E+01 -0.13997897992E+02  0.25433257679E+02  0.00000000000E+00 0.  1.
          1    1    1    2  501    0 -0.39901161604E+02 -0.71351190020E+02  0.96269677309E+02  0.12629705374E+03  0.00000000000E+00 0. -1.
<scales pt_clust_5="13000.00000" pt_clust_6="13000.00000" pt_clust_7="13000.00000" pt_clust_8="13000.00000" pt_clust_9="81.75020"></scales>
<clustering>
<clus scale="   81.750">  1  9  2 -1</clus>
<clus scale="   91.918">  7  8 -1 -1</clus>
<clus scale="   93.292">  5  6 -1 -1</clus>
<clus scale="  130.121">  2  7  1 -1</clus>
<clus scale="   81.750">  1  5  2 -1</clus>
</clustering>
</event>
<event>
 9    1  0.1504846E-005  0.1114119E+03  0.7546771E-02  0.1258316E+00
         21   -1    0    0  501  502  0.00000000000E+00  0.00000000000E+00  0.26487039616E+02  0.26487039616E+02  0.00000000000E+00 0. -1.
          1   -1    0    0  502    0 -0.00000000000E+00 -0.00000000000E+00 -0.63577179783E+03  0.63577179783E+03  0.00000000000E+00 0. -1.
         23    2    1    2    0    0  0.39031581491E+02  0.39443385467E+02 -0.34455182195E+03  0.36093684583E+03  0.92088021255E+02 0.  0.
         23    2    1    2    0    0 -0.38903820840E+02 -0.60202455156E+02 -0.24895251589E+03  0.27524562368E+03  0.92978251805E+02 0.  0.
        -11    1    4    4    0    0 -0.56956909001E+02 -0.30306394798E+02 -0.22184365175E+03  0.23103500356E+03  0.00000000000E+00 0. -1.
         11    1    4    4    0    0  0.18053088161E+02 -0.29896060358E+02 -0.27108864139E+02  0.44210620126E+02  0.00000000000E+00 0.  1.
        -11    1    3    3    0    0 -0.23391904631E+02 -0.77898239014E+01 -0.13518212159E+03  0.13741203934E+03  0.00000000000E+00 0. -1.
         11    1    3    3    0    0  0.62423486122E+02  0.47233209368E+02 -0.20936970036E+03  0.22352480649E+03  0.00000000000E+00 0.  1.
          1    1    1    2  501    0 -0.12776065041E+00  0.20759069689E+02 -0.15780420380E+02  0.26076367931E+02  0.00000000000E+00 0. -1.
<scales pt_clust_5="13000.00000" pt_clust_6="13000.00000" pt_clust_7="13000.00000" pt_clust_8="13000.00000" pt_clust_9="20.75946"></scales>
<clustering>
<clus scale="   20.759">  1  9  2 -1</clus>
<clus scale="   92.088">  7  8 -1 -1</clus>
<clus scale="   92.978">  5  6 -1 -1</clus>
<clus scale="  110.670">  2  7  1 -1</clus>
<clus scale="   20.759">  1  5  2 -1</clus>
</clustering>
</event>
<event>
 9    1  0.1504846E-005  0.2479765E+03  0.7546771E-02  0.1114905E+00
         21   -1    0    0  501  502  0.00000000000E+00  0.00000000000E+00  0.19372447343E+04  0.19372447343E+04  0.00000000000E+00 0. -1.
         -1   -1    0    0    0  501 -0.00000000000E+00 -0.00000000000E+00 -0.11352769960E+03  0.11352769960E+03  0.00000000000E+00 0.  1.
         23    2    1    2    0    0  0.44285818010E+02  0.21866654658E+03  0.62553033016E+02  0.24714055439E+03  0.85960917936E+02 0.  0.
         23    2    1    2    0    0 -0.70878459160E+02 -0.29038963048E+03  0.14098126811E+04  0.14440500115E+04  0.91426180381E+02 0.  0.
        -11    1    3    3    0    0  0.61751994723E+02  0.92540630010E+02  0.21118647107E+02  0.11323901408E+03  0.00000000000E+00 0.  1.
         11    1    3    3    0    0 -0.17466176713E+02  0.12612591657E+03  0.41434385909E+02  0.13390154030E+03  0.00000000000E+00 0. -1.
        -13    1    4    4    0    0 -0.47700601837E+02 -0.64603823398E+02  0.26279288414E+03  0.27478919442E+03  0.00000000000E+00 0.  1.
         13    1    4    4    0    0 -0.23177857324E+02 -0.22578580708E+03  0.11470197969E+04  0.11692608170E+04  0.00000000000E+00 0. -1.
         -1    1    1    2    0  502  0.26592641150E+02  0.71723083898E+02  0.35135132065E+03  0.35958186808E+03  0.00000000000E+00 0.  1.
<scales pt_clust_5="13000.00000" pt_clust_6="13000.00000" pt_clust_7="13000.00000" pt_clust_8="13000.00000" pt_clust_9="76.49424"></scales>
<clustering>
<clus scale="   76.494">  1  9  2 -1</clus>
<clus scale="   85.961">  5  6 -1 -1</clus>
<clus scale="   91.426">  7  8 -1 -1</clus>
<clus scale="  246.014">  2  5  1 -1</clus>
<clus scale="   76.494">  1  5  2 -1</clus>
</clustering>
</event>
<event>
 9    1  0.1504846E-005  0.9172706E+02  0.7546771E-02  0.1300036E+00
         -1   -1    0    0    0  501 -0.00000000000E+00  0.00000000000E+00  0.48400358734E+03  0.48400358734E+03  0.00000000000E+00 0.  1.
         21   -1    0    0  501  502  0.00000000000E+00 -0.00000000000E+00 -0.43949444316E+02  0.43949444316E+02  0.00000000000E+00 0. -1.
         23    2    1    2    0    0 -0.10022837739E+02  0.12597626134E+02  0.22993565552E+03  0.24679502866E+03  0.88194234671E+02 0.  0.
         23    2    1    2    0    0 -0.62358240335E+02  0.15738477198E+01  0.15046468830E+03  0.18629796456E+03  0.90422796004E+02 0.  0.
        -11    1    3    3    0    0 -0.49120610692E+02  0.52193819126E+01  0.13972527953E+03  0.14819996654E+03  0.00000000000E+00 0.  1.
         11    1    3    3    0    0  0.39097772952E+02  0.73782442212E+01  0.90210375989E+02  0.98595062116E+02  0.00000000000E+00 0. -1.
        -13    1    4    4    0    0  0.16166689864E+02  0.19412671583E+02  0.17093824031E+02  0.30502663804E+02  0.00000000000E+00 0. -1.
         13    1    4    4    0    0 -0.78524930199E+02 -0.17838823863E+02  0.13337086427E+03  0.15579530075E+03  0.00000000000E+00 0.  1.
         -1    1    1    2    0  502  0.72381078074E+02 -0.14171473854E+02  0.59653799197E+02  0.94860038441E+02  0.00000000000E+00 0.  1.
<scales pt_clust_5="13000.00000" pt_clust_6="13000.00000" pt_clust_7="13000.00000" pt_clust_8="13000.00000" pt_clust_9="73.75535"></scales>
<clustering>
<clus scale="   73.755">  2  9  1 -1</clus>
<clus scale="   88.194">  5  6 -1 -1</clus>
<clus scale="   89.531">  1  5  2 -1</clus>
<clus scale="   90.423">  7  8 -1 -1</clus>
<clus scale="   73.755">  2  5  1 -1</clus>
</clustering>
</event>
<event>
 9    1  0.1504846E-005  0.2859678E+03  0.7546771E-02  0.1104502E+00
         -1   -1    0    0    0  501 -0.00000000000E+00  0.00000000000E+00  0.79367734799E+03  0.79367734799E+03  0.00000000000E+00 0.  1.
         21   -1    0    0  501  502  0.00000000000E+00 -0.00000000000E+00 -0.22551406723E+03  0.22551406723E+03  0.00000000000E+00 0. -1.
         23    2    1    2    0    0 -0.15977077697E+03  0.96692323893E+02  0.18387333160E+03  0.27845727510E+03  0.94090091434E+02 0.  0.
         23    2    1    2    0    0  0.32331340153E+03  0.10262931621E+03  0.31976047870E+03  0.47495348090E+03  0.90937963082E+02 0.  0.
        -11    1    4    4    0    0  0.24305581336E+03  0.53422447256E+02  0.18289853351E+03  0.30883969926E+03  0.00000000000E+00 0. -1.
         11    1    4    4    0    0  0.80257588171E+02  0.49206868955E+02  0.13686194518E+03  0.16611378164E+03  0.00000000000E+00 0.  1.
        -11    1    3    3    0    0 -0.14473826841E+02  0.55982881791E+02  0.43398637319E+02  0.72298108123E+02  0.00000000000E+00 0. -1.
         11    1    3    3    0    0 -0.14529695013E+03  0.40709442102E+02  0.14047469429E+03  0.20615916697E+03  0.00000000000E+00 0.  1.
         -1    1    1    2    0  502 -0.16354262456E+03 -0.19932164010E+03  0.64529470460E+02  0.26578065923E+03  0.00000000000E+00 0.  1.
<scales pt_clust_5="13000.00000" pt_clust_6="13000.00000" pt_clust_7="13000.00000" pt_clust_8="13000.00000" pt_clust_9="271.12334"></scales>
<clustering>
<clus scale="   90.938">  5  6 -1 -1</clus>
<clus scale="   94.090">  7  8 -1 -1</clus>
<clus scale="  209.115">  1  7  2 -1</clus>
<clus scale="  271.123">  2  9  1 -1</clus>
<clus scale="  271.123">  2  5  1 -1</clus>
</clustering>
</event>
<event>
 9    1  0.1504846E-005  0.1153152E+03  0.7546771E-02  0.1254192E+00
         21   -1    0    0  501  502  0.00000000000E+00  0.00000000000E+00  0.15932113599E+03  0.15932113599E+03  0.00000000000E+00 0.  1.
         -1   -1    0    0    0  501 -0.00000000000E+00 -0.00000000000E+00 -0.20123550988E+03  0.20123550988E+03  0.00000000000E+00 0.  1.
         23    2    1    2    0    0  0.25870882539E+02 -0.41623415837E+02 -0.65633053396E+02  0.12802539245E+03  0.98392032728E+02 0.  0.
         23    2    1    2    0    0 -0.48458025814E+02  0.53508186869E+02 -0.70278101251E+02  0.13513093712E+03  0.90055828928E+02 0.  0.
        -11    1    3    3    0    0 -0.38959367277E+01  0.30357564180E+02 -0.96163532855E+01  0.32081681322E+02  0.00000000000E+00 0. -1.
         11    1    3    3    0    0  0.29766819267E+02 -0.71980980018E+02 -0.56016700111E+02  0.95943711127E+02  0.00000000000E+00 0.  1.
        -13    1    4    4    0    0 -0.39893509455E+02  0.20160069688E+02  0.11710245308E+02  0.46206605066E+02  0.00000000000E+00 0. -1.
         13    1    4    4    0    0 -0.85645163582E+01  0.33348117181E+02 -0.81988346559E+02  0.88924332055E+02  0.00000000000E+00 0.  1.
         -1    1    1    2    0  502  0.22587143274E+02 -0.11884771032E+02  0.93996780753E+02  0.97400316302E+02  0.00000000000E+00 0.  1.
<scales pt_clust_5="13000.00000" pt_clust_6="13000.00000" pt_clust_7="13000.00000" pt_clust_8="13000.00000" pt_clust_9="25.52306"></scales>
<clustering>
<clus scale="   25.523">  1  9  2 -1</clus>
<clus scale="   90.056">  7  8 -1 -1</clus>
<clus scale="   98.392">  5  6 -1 -1</clus>
<clus scale="  108.290">  1  7  2 -1</clus>
<clus scale="   25.523">  1  5  2 -1</clus>
</clustering>
</event>
<event>
 9    1  0.1504846E-005  0.1626773E+03  0.7546771E-02  0.1188587E+00
         21   -1    0    0  501  502  0.00000000000E+00  0.00000000000E+00  0.14968799648E+03  0.14968799648E+03  0.00000000000E+00 0.  1.
          1   -1    0    0  502    0 -0.00000000000E+00 -0.00000000000E+00 -0.37580832104E+03  0.37580832104E+03  0.00000000000E+00 0. -1.
         23    2    1    2    0    0 -0.89786533076E+02 -0.78007097089E+02 -0.26690263099E+03  0.31090365744E+03  0.10619482595E+03 0.  0.
         23    2    1    2    0    0  0.94710031843E+02  0.10340890318E+03  0.39086710637E+00  0.16662432715E+03  0.90000679057E+02 0.  0.
        -11    1    4    4    0    0 -0.11211089687E+02  0.40235946998E+02 -0.97089450912E+01  0.42882205839E+02  0.00000000000E+00 0. -1.
         11    1    4    4    0    0  0.10592112153E+03  0.63172956185E+02  0.10099812198E+02  0.12374212131E+03  0.00000000000E+00 0.  1.
        -13    1    3    3    0    0  0.53117913211E+01  0.21145623484E+02 -0.42990732552E+02  0.48203273798E+02  0.00000000000E+00 0.  1.
         13    1    3    3    0    0 -0.95098324397E+02 -0.99152720573E+02 -0.22391189844E+03  0.26270038364E+03  0.00000000000E+00 0. -1.
          1    1    1    2  501    0 -0.49234987677E+01 -0.25401806094E+02  0.40391439331E+02  0.47968332931E+02  0.00000000000E+00 0. -1.
<scales pt_clust_5="13000.00000" pt_clust_6="13000.00000" pt_clust_7="13000.00000" pt_clust_8="13000.00000" pt_clust_9="25.87455"></scales>
<clustering>
<clus scale="   25.875">  1  9  2 -1</clus>
<clus scale="   90.001">  5  6 -1 -1</clus>
<clus scale="  106.195">  7  8 -1 -1</clus>
<clus scale="  152.600">  1  5  2 -1</clus>
<clus scale="   25.875">  1  5  2 -1</clus>
</clustering>
</event>
<event>
 9    1  0.1504846E-005  0.1139005E+03  0.7546771E-02  0.1256707E+00
          2   -1    0    0  502    0 -0.00000000000E+00  0.00000000000E+00  0.19475731821E+03  0.19475731821E+03  0.00000000000E+00 0. -1.
         21   -1    0    0  501  502  0.00000000000E+00 -0.00000000000E+00 -0.93148325029E+02  0.93148325029E+02  0.00000000000E+00 0.  1.
         23    2    1    2    0    0  0.10926643110E+02  0.52466624305E+02  0.60715159621E+02  0.12796847116E+03  0.99083100517E+02 0.  0.
         23    2    1    2    0    0  0.20600277655E+02 -0.59512410364E+02  0.56306845622E+02  0.12414400548E+03  0.90967987815E+02 0.  0.
        -11    1    3    3    0    0 -0.27712205348E+02 -0.14718605080E+02  0.33310725430E+02  0.45762518391E+02  0.00000000000E+00 0. -1.
         11    1    3    3    0    0  0.38638848458E+02  0.67185229385E+02  0.27404434191E+02  0.82205952772E+02  0.00000000000E+00 0.  1.
        -13    1    4    4    0    0 -0.35376954918E+01 -0.43125577713E+02 -0.16030869264E+02  0.46144550186E+02  0.00000000000E+00 0. -1.
         13    1    4    4    0    0  0.24137973147E+02 -0.16386832651E+02  0.72337714886E+02  0.77999455299E+02  0.00000000000E+00 0.  1.
          2    1    1    2  501    0 -0.31526920766E+02  0.70457860586E+01 -0.15413012060E+02  0.35793166595E+02  0.00000000000E+00 0. -1.
<scales pt_clust_5="13000.00000" pt_clust_6="13000.00000" pt_clust_7="13000.00000" pt_clust_8="13000.00000" pt_clust_9="32.30464"></scales>
<clustering>
<clus scale="   32.305">  2  9  1 -1</clus>
<clus scale="   90.968">  7  8 -1 -1</clus>
<clus scale="   99.083">  5  6 -1 -1</clus>
<clus scale="  106.916">  2  7  1 -1</clus>
<clus scale="   32.305">  2  5  1 -1</clus>
</clustering>
</event>
<event>
 9    1  0.1504846E-005  0.1293778E+03  0.7546771E-02  0.1236610E+00
         21   -1    0    0  501  502  0.00000000000E+00  0.00000000000E+00  0.42285270668E+03  0.42285270668E+03  0.00000000000E+00 0.  1.
          3   -1    0    0  502    0 -0.00000000000E+00 -0.00000000000E+00 -0.13741091270E+03  0.13741091270E+03  0.00000000000E+00 0. -1.
         23    2    1    2    0    0 -0.29779724315E+02 -0.58041036636E+02 -0.86920554731E+02  0.15598667632E+03  0.11189757120E+03 0.  0.
         23    2    1    2    0    0  0.63318413367E+02  0.36132831731E+02  0.30792515130E+03  0.32840227327E+03  0.87837072381E+02 0.  0.
        -13    1    4    4    0    0  0.32180209199E+02 -0.18301660100E+02  0.20151907892E+03  0.20489132679E+03  0.00000000000E+00 0.  1.
         13    1    4    4    0    0  0.31138204168E+02  0.54434491831E+02  0.10640607238E+03  0.12351094647E+03  0.00000000000E+00 0. -1.
        -13    1    3    3    0    0 -0.48768532743E+02  0.12455631388E+02 -0.59653940597E+02  0.78051938912E+02  0.00000000000E+00 0. -1.
         13    1    3    3    0    0  0.18988808428E+02 -0.70496668024E+02 -0.27266614134E+02  0.77934737404E+02  0.00000000000E+00 0.  1.
          3    1    1    2  501    0 -0.33538689052E+02  0.21908204905E+02  0.64437197418E+02  0.75874669795E+02  0.00000000000E+00 0. -1.
<scales pt_clust_5="13000.00000" pt_clust_6="13000.00000" pt_clust_7="13000.00000" pt_clust_8="13000.00000" pt_clust_9="40.06012"></scales>
<clustering>
<clus scale="   40.060">  1  9  2 -1</clus>
<clus scale="   87.837">  5  6 -1 -1</clus>
<clus scale="  109.238">  1  5  2 -1</clus>
<clus scale="  111.898">  7  8 -1 -1</clus>
<clus scale="   40.060">  1  5  2 -1</clus>
</clustering>
</event>
<event>
 9    1  0.1504846E-005  0.9676273E+02  0.7546771E-02  0.1287807E+00
         21   -1    0    0  501  502  0.00000000000E+00  0.00000000000E+00  0.89093079169E+02  0.89093079169E+02  0.00000000000E+00 0. -1.
          1   -1    0    0  502    0 -0.00000000000E+00 -0.00000000000E+00 -0.26009901096E+03  0.26009901096E+03  0.00000000000E+00 0. -1.
         23    2    1    2    0    0 -0.77986486231E+01 -0.71410796312E+01 -0.68057863006E+02  0.11438117398E+03  0.91320130888E+02 0.  0.
         23    2    1    2    0    0 -0.10263256862E+02 -0.66612099684E+02 -0.10985562555E+03  0.15856474753E+03  0.92368904014E+02 0.  0.
        -11    1    4    4    0    0  0.68988217768E+01 -0.33819727576E+02 -0.11601785579E+03  0.12104342435E+03  0.00000000000E+00 0. -1.
         11    1    4    4    0    0 -0.17162078639E+02 -0.32792372108E+02  0.61622302449E+01  0.37521323181E+02  0.00000000000E+00 0.  1.
        -13    1    3    3    0    0  0.30074131932E+02 -0.15394474243E-01 -0.69593136593E+02  0.75813312217E+02  0.00000000000E+00 0. -1.
         13    1    3    3    0    0 -0.37872780555E+02 -0.71256851570E+01  0.15352735873E+01  0.38567861763E+02  0.00000000000E+00 0.  1.
          1    1    1    2  501    0  0.18061905485E+02  0.73753179315E+02  0.69075567617E+01  0.76246168620E+02  0.00000000000E+00 0. -1.
<scales pt_clust_5="13000.00000" pt_clust_6="13000.00000" pt_clust_7="13000.00000" pt_clust_8="13000.00000" pt_clust_9="75.93263"></scales>
<clustering>
<clus scale="   75.933">  1  9  2 -1</clus>
<clus scale="   91.320">  7  8 -1 -1</clus>
<clus scale="   92.369">  5  6 -1 -1</clus>
<clus scale="   95.762">  2  7  1 -1</clus>
<clus scale="   75.933">  1  5  2 -1</clus>
</clustering>
</event>
<event>
 9    1  0.1504846E-005  0.2034283E+03  0.7546771E-02  0.1146884E+00
          1   -1    0    0  502    0 -0.00000000000E+00  0.00000000000E+00  0.51136976390E+03  0.51136976390E+03  0.00000000000E+00 0. -1.
         21   -1    0    0  501  502  0.00000000000E+00 -0.00000000000E+00 -0.13058385862E+03  0.13058385862E+03  0.00000000000E+00 0. -1.
         23    2    1    2    0    0  0.43781298329E+02 -0.20362738685E+03  0.31701458906E+03  0.39013130182E+03  0.91231947410E+02 0.  0.
         23    2    1    2    0    0 -0.94158330174E+01  0.13185597048E+03  0.22620423402E+02  0.16223706861E+03  0.91293636216E+02 0.  0.
        -13    1    3    3    0    0 -0.56908713004E+01 -0.15978570418E+03  0.24313998337E+03  0.29099984328E+03  0.00000000000E+00 0.  1.
         13    1    3    3    0    0  0.49472169630E+02 -0.43841682671E+02  0.73874605686E+02  0.99131458541E+02  0.00000000000E+00 0. -1.
        -13    1    4    4    0    0 -0.14838414752E+02  0.11255705109E+03  0.53433767596E+02  0.12547683381E+03  0.00000000000E+00 0.  1.
         13    1    4    4    0    0  0.54225817348E+01  0.19298919387E+02 -0.30813344195E+02  0.36760234801E+02  0.00000000000E+00 0. -1.
          1    1    1    2  501    0 -0.34365465312E+02  0.71771416369E+02  0.41150892821E+02  0.89585252099E+02  0.00000000000E+00 0. -1.
<scales pt_clust_5="13000.00000" pt_clust_6="13000.00000" pt_clust_7="13000.00000" pt_clust_8="13000.00000" pt_clust_9="79.57463"></scales>
<clustering>
<clus scale="   79.575">  2  9  1 -1</clus>
<clus scale="   91.232">  5  6 -1 -1</clus>
<clus scale="   91.294">  7  8 -1 -1</clus>
<clus scale="  203.401">  1  5  2 -1</clus>
<clus scale="   79.575">  2  5  1 -1</clus>
</clustering>
</event>
<event>
 9    1  0.1504846E-005  0.9594065E+02  0.7546771E-02  0.1290682E+00
         -3   -1    0    0    0  501 -0.00000000000E+00  0.00000000000E+00  0.22605450849E+03  0.22605450849E+03  0.00000000000E+00 0.  1.
         21   -1    0    0  501  502  0.00000000000E+00 -0.00000000000E+00 -0.65490595163E+02  0.65490595163E+02  0.00000000000E+00 0. -1.
         23    2    1    2    0    0  0.23496276449E+02  0.72076181746E+01  0.13685144940E+03  0.16646112064E+03  0.91525737994E+02 0.  0.
         23    2    1    2    0    0 -0.35338806419E+02 -0.24418710444E+02  0.75913316268E+01  0.98695384721E+02  0.88532739653E+02 0.  0.
        -11    1    3    3    0    0 -0.34231355464E+02 -0.78263995641E+01  0.50890328189E+02  0.61829311255E+02  0.00000000000E+00 0.  1.
         11    1    3    3    0    0  0.57727631912E+02  0.15034017739E+02  0.85961121207E+02  0.10463180938E+03  0.00000000000E+00 0. -1.
        -13    1    4    4    0    0 -0.22634700079E+02  0.32216013652E+02 -0.37668810894E+01  0.39552377633E+02  0.00000000000E+00 0.  1.
         13    1    4    4    0    0 -0.12704106340E+02 -0.56634724096E+02  0.11358212716E+02  0.59143007088E+02  0.00000000000E+00 0. -1.
         -3    1    1    2    0  502  0.11842529970E+02  0.17211092270E+02  0.16121132307E+02  0.26388598296E+02  0.00000000000E+00 0.  1.
<scales pt_clust_5="13000.00000" pt_clust_6="13000.00000" pt_clust_7="13000.00000" pt_clust_8="13000.00000" pt_clust_9="20.89181"></scales>
<clustering>
<clus scale="   20.892">  2  9  1 -1</clus>
<clus scale="   88.533">  7  8 -1 -1</clus>
<clus scale="   91.526">  5  6 -1 -1</clus>
<clus scale="   93.090">  2  7  1 -1</clus>
<clus scale="   20.892">  2  5  1 -1</clus>
</clustering>
</event>
<event>
 9    1  0.1504846E-005  0.1022870E+03  0.7546771E-02  0.1276618E+00
         21   -1    0    0  501  502  0.00000000000E+00  0.00000000000E+00  0.13664843203E+03  0.13664843203E+03  0.00000000000E+00 0. -1.
          2   -1    0    0  502    0 -0.00000000000E+00 -0.00000000000E+00 -0.31510546702E+03  0.31510546702E+03  0.00000000000E+00 0. -1.
         23    2    1    2    0    0  0.41273441540E+02 -0.95782258100E+01 -0.11580995388E+03  0.15297345542E+03  0.90519021530E+02 0.  0.
         23    2    1    2    0    0 -0.28885621030E+02 -0.60885882001E+02 -0.14811420912E+03  0.18732068159E+03  0.92788733586E+02 0.  0.
        -13    1    3    3    0    0  0.65346357824E+02 -0.25231506511E+02 -0.70892571885E+02  0.99662089834E+02  0.00000000000E+00 0. -1.
         13    1    3    3    0    0 -0.24072916285E+02  0.15653280701E+02 -0.44917381994E+02  0.53311365583E+02  0.00000000000E+00 0.  1.
        -13    1    4    4    0    0  0.13932607299E+02 -0.17789278658E+02 -0.11681562201E+03  0.11898094607E+03  0.00000000000E+00 0.  1.
         13    1    4    4    0    0 -0.42818228328E+02 -0.43096603343E+02 -0.31298587108E+02  0.68339735526E+02  0.00000000000E+00 0. -1.
          2    1    1    2  501    0 -0.12387820510E+02  0.70464107811E+02  0.85467128004E+02  0.11145976205E+03  0.00000000000E+00 0. -1.
<scales pt_clust_5="13000.00000" pt_clust_6="13000.00000" pt_clust_7="13000.00000" pt_clust_8="13000.00000" pt_clust_9="71.54473"></scales>
<clustering>
<clus scale="   71.545">  1  9  2 -1</clus>
<clus scale="   90.519">  5  6 -1 -1</clus>
<clus scale="   92.789">  7  8 -1 -1</clus>
<clus scale="  100.233">  2  5  1 -1</clus>
<clus scale="   71.545">  1  5  2 -1</clus>
</clustering>
</event>
<event>
 9    1  0.1504846E-005  0.1379682E+03  0.7546771E-02  0.1216248E+00
         21   -1    0    0  501  502  0.00000000000E+00  0.00000000000E+00  0.83257276508E+03  0.83257276508E+03  0.00000000000E+00 0. -1.
          1   -1    0    0  502    0 -0.00000000000E+00 -0.00000000000E+00 -0.45547812175E+02  0.45547812175E+02  0.00000000000E+00 0. -1.
         23    2    1    2    0    0 -0.65672465659E+02  0.63861587336E+02  0.23835583687E+03  0.27134052085E+03  0.91765996997E+02 0.  0.
         23    2    1    2    0    0  0.24177372183E+02 -0.13414277643E+03  0.44716625595E+03  0.47653367861E+03  0.92454619106E+02 0.  0.
        -13    1    3    3    0    0 -0.37463168281E+02 -0.16199430458E+02  0.11120457741E+03  0.11845829883E+03  0.00000000000E+00 0.  1.
         13    1    3    3    0    0 -0.28209297378E+02  0.80061017794E+02  0.12715125945E+03  0.15288222202E+03  0.00000000000E+00 0. -1.
        -13    1    4    4    0    0  0.51187196690E+02 -0.35159011390E+02  0.16833949524E+03  0.17942817740E+03  0.00000000000E+00 0.  1.
         13    1    4    4    0    0 -0.27009824507E+02 -0.98983765038E+02  0.27882676071E+03  0.29710550121E+03  0.00000000000E+00 0. -1.
          1    1    1    2  501    0  0.41495093476E+02  0.70281189091E+02  0.10150286009E+03  0.13024637779E+03  0.00000000000E+00 0. -1.
<scales pt_clust_5="13000.00000" pt_clust_6="13000.00000" pt_clust_7="13000.00000" pt_clust_8="13000.00000" pt_clust_9="81.61676"></scales>
<clustering>
<clus scale="   81.617">  1  9  2 -1</clus>
<clus scale="   91.766">  5  6 -1 -1</clus>
<clus scale="   92.455">  7  8 -1 -1</clus>
<clus scale="  137.508">  2  5  1 -1</clus>
<clus scale="   81.617">  1  5  2 -1</clus>
</clustering>
</event>
<event>
 9    1  0.1504846E-005  0.1634081E+03  0.7546771E-02  0.1185025E+00
         21   -1    0    0  501  502  0.00000000000E+00  0.00000000000E+00  0.75047343499E+02  0.75047343499E+02  0.00000000000E+00 0. -1.
          4   -1    0    0  502    0 -0.00000000000E+00 -0.00000000000E+00 -0.50599654751E+03  0.50599654751E+03  0.00000000000E+00 0. -1.
         23    2    1    2    0    0  0.13074791064E+03  0.17898638608E+02 -0.29060287469E+03  0.33180761920E+03  0.90724241415E+02 0.  0.
         23    2    1    2    0    0 -0.14383654346E+03 -0.24184596871E+01 -0.15030286195E+03  0.22665130356E+03  0.89916977892E+02 0.  0.
        -11    1    4    4    0    0 -0.84511362546E+02  0.35246422845E+02 -0.50435292582E+02  0.10453802878E+03  0.00000000000E+00 0.  1.
         11    1    4    4    0    0 -0.59325180916E+02 -0.37664882532E+02 -0.99867569371E+02  0.12211327479E+03  0.00000000000E+00 0. -1.
        -13    1    3    3    0    0  0.33252374465E+02 -0.34938691422E+02 -0.71616629391E+02  0.86344508634E+02  0.00000000000E+00 0.  1.
         13    1    3    3    0    0  0.97495536176E+02  0.52837330030E+02 -0.21898624530E+03  0.24546311056E+03  0.00000000000E+00 0. -1.
          4    1    1    2  501    0  0.13088632822E+02 -0.15480178921E+02  0.99565326326E+01  0.22584968245E+02  0.00000000000E+00 0. -1.
<scales pt_clust_5="13000.00000" pt_clust_6="13000.00000" pt_clust_7="13000.00000" pt_clust_8="13000.00000" pt_clust_9="20.27186"></scales>
<clustering>
<clus scale="   20.272">  1  9  2 -1</clus>
<clus scale="   89.917">  5  6 -1 -1</clus>
<clus scale="   90.724">  7  8 -1 -1</clus>
<clus scale="  162.961">  1  5  2 -1</clus>
<clus scale="   20.272">  1  5  2 -1</clus>
</clustering>
</event>
<event>
 9    1  0.1504846E-005  0.1018518E+03  0.7546771E-02  0.1276470E+00
         21   -1    0    0  501  502  0.00000000000E+00  0.00000000000E+00  0.53383473470E+02  0.53383473470E+02  0.00000000000E+00 0. -1.
         -1   -1    0    0    0  501 -0.00000000000E+00 -0.00000000000E+00 -0.27965085653E+03  0.27965085653E+03  0.00000000000E+00 0.  1.
         23    2    1    2    0    0  0.41153164384E+02  0.22418196328E+02 -0.79438726020E+02  0.12957164825E+03  0.91006276558E+02 0.  0.
         23    2    1    2    0    0 -0.48460683630E+02  0.49132191483E+01 -0.79141015426E+02  0.13010040986E+03  0.91050748173E+02 0.  0.
        -11    1    4    4    0    0 -0.92588446841E+01  0.45191475517E+02 -0.27099602813E+02  0.53501253602E+02  0.00000000000E+00 0.  1.
         11    1    4    4    0    0 -0.39201838946E+02 -0.40278256369E+02 -0.52041412612E+02  0.76599156259E+02  0.00000000000E+00 0. -1.
        -13    1    3    3    0    0 -0.10534631029E+02  0.26452393472E+02 -0.71707259566E+02  0.77153345007E+02  0.00000000000E+00 0.  1.
         13    1    3    3    0    0  0.51687795413E+02 -0.40341971442E+01 -0.77314664543E+01  0.52418303243E+02  0.00000000000E+00 0. -1.
         -1    1    1    2    0  502  0.73075192454E+01 -0.27331415476E+02 -0.67687641612E+02  0.73362271888E+02  0.00000000000E+00 0.  1.
<scales pt_clust_5="13000.00000" pt_clust_6="13000.00000" pt_clust_7="13000.00000" pt_clust_8="13000.00000" pt_clust_9="28.29146"></scales>
<clustering>
<clus scale="   28.291">  1  9  2 -1</clus>
<clus scale="   91.006">  7  8 -1 -1</clus>
<clus scale="   91.051">  5  6 -1 -1</clus>
<clus scale="  101.812">  2  7  1 -1</clus>
<clus scale="   28.291">  1  5  2 -1</clus>
</clustering>
</event>
<event>
 9    1  0.1504846E-005  0.9457486E+02  0.7546771E-02  0.1292493E+00
         21   -1    0    0  501  502  0.00000000000E+00  0.00000000000E+00  0.44146559486E+02  0.44146559486E+02  0.00000000000E+00 0.  1.
          1   -1    0    0  502    0 -0.00000000000E+00 -0.00000000000E+00 -0.27171544967E+03  0.27171544967E+03  0.00000000000E+00 0. -1.
         23    2    1    2    0    0  0.69641219721E+01  0.96156364152E+01 -0.10239773816E+03  0.13741447925E+03  0.90865190632E+02 0.  0.
         23    2    1    2    0    0 -0.92721406283E+01 -0.36854282497E+02 -0.10571270296E+03  0.14489306626E+03  0.91512919051E+02 0.  0.
        -11    1    3    3    0    0  0.16948227869E+02 -0.32605102700E+02 -0.14711756999E+02  0.39582457528E+02  0.00000000000E+00 0.  1.
         11    1    3    3    0    0 -0.99841058964E+01  0.42220739115E+02 -0.87685981159E+02  0.97832021720E+02  0.00000000000E+00 0. -1.
        -13    1    4    4    0    0  0.31522154698E+02  0.67372066588E+01 -0.13294592818E+02  0.34868071191E+02  0.00000000000E+00 0.  1.
         13    1    4    4    0    0 -0.40794295326E+02 -0.43591489155E+02 -0.92418110146E+02  0.11002499507E+03  0.00000000000E+00 0. -1.
          1    1    1    2  501    0  0.23080186562E+01  0.27238646081E+02 -0.19458449058E+02  0.33554463641E+02  0.00000000000E+00 0. -1.
<scales pt_clust_5="13000.00000" pt_clust_6="13000.00000" pt_clust_7="13000.00000" pt_clust_8="13000.00000" pt_clust_9="27.33625"></scales>
<clustering>
<clus scale="   27.336">  1  9  2 -1</clus>
<clus scale="   90.865">  5  6 -1 -1</clus>
<clus scale="   91.513">  7  8 -1 -1</clus>
<clus scale="   93.948">  2  5  1 -1</clus>
<clus scale="   27.336">  1  5  2 -1</clus>
</clustering>
</event>
<event>
 9    1  0.1504846E-005  0.9724429E+02  0.7546771E-02  0.1286622E+00
         21   -1    0    0  501  502  0.00000000000E+00  0.00000000000E+00  0.34976746489E+02  0.34976746489E+02  0.00000000000E+00 0.  1.
         -1   -1    0    0    0  501 -0.00000000000E+00 -0.00000000000E+00 -0.65097600886E+03  0.65097600886E+03  0.00000000000E+00 0.  1.
         23    2    1    2    0    0  0.21639549846E+02 -0.12758787301E+02 -0.30874648796E+03  0.32294691821E+03  0.91319556402E+02 0.  0.
         23    2    1    2    0    0 -0.20511379575E+02  0.40514253304E+02 -0.31761004781E+03  0.33335939091E+03  0.90499832186E+02 0.  0.
        -11    1    4    4    0    0  0.21323754310E+02  0.38606915478E+01 -0.16717905903E+02  0.27369614810E+02  0.00000000000E+00 0. -1.
         11    1    4    4    0    0 -0.41835133885E+02  0.36653561756E+02 -0.30089214191E+03  0.30598977610E+03  0.00000000000E+00 0.  1.
        -13    1    3    3    0    0  0.29767140698E+02  0.32841078978E+02 -0.10444998012E+03  0.11346549026E+03  0.00000000000E+00 0.  1.
         13    1    3    3    0    0 -0.81275908520E+01 -0.45599866279E+02 -0.20429650784E+03  0.20948142795E+03  0.00000000000E+00 0. -1.
         -1    1    1    2    0  502 -0.11281702712E+01 -0.27755466003E+02  0.10357273408E+02  0.29646446222E+02  0.00000000000E+00 0.  1.
<scales pt_clust_5="13000.00000" pt_clust_6="13000.00000" pt_clust_7="13000.00000" pt_clust_8="13000.00000" pt_clust_9="27.77838"></scales>
<clustering>
<clus scale="   27.778">  1  9  2 -1</clus>
<clus scale="   90.500">  5  6 -1 -1</clus>
<clus scale="   91.320">  7  8 -1 -1</clus>
<clus scale="   96.475">  1  5  2 -1</clus>
<clus scale="   27.778">  1  5  2 -1</clus>
</clustering>
</event>
<event>
 9    1  0.1504846E-005  0.9617836E+02  0.7546771E-02  0.1289229E+00
          1   -1    0    0  502    0 -0.00000000000E+00  0.00000000000E+00  0.25175392065E+03  0.25175392065E+03  0.00000000000E+00 0. -1.
         21   -1    0    0  501  502  0.00000000000E+00 -0.00000000000E+00 -0.75974797410E+02  0.75974797410E+02  0.00000000000E+00 0. -1.
         23    2    1    2    0    0 -0.93460300063E+01  0.26726455705E+02  0.17746746640E+03  0.20126648867E+03  0.90619237035E+02 0.  0.
         23    2    1    2    0    0  0.28016868447E+02 -0.18649303493E+02  0.16402868491E+02  0.99238479917E+02  0.91904735260E+02 0.  0.
        -11    1    3    3    0    0 -0.15712342840E+02  0.46723394346E+02  0.17289937756E+03  0.17978917669E+03  0.00000000000E+00 0. -1.
         11    1    3    3    0    0  0.63663128332E+01 -0.19996938641E+02  0.45680888410E+01  0.21477311977E+02  0.00000000000E+00 0.  1.
        -13    1    4    4    0    0  0.47400746730E+02 -0.44260303829E+02  0.17252608306E+02  0.67107807138E+02  0.00000000000E+00 0. -1.
         13    1    4    4    0    0 -0.19383878283E+02  0.25611000335E+02 -0.84973981579E+00  0.32130672779E+02  0.00000000000E+00 0.  1.
          1    1    1    2  501    0 -0.18670838440E+02 -0.80771522120E+01 -0.18091211654E+02  0.27223749467E+02  0.00000000000E+00 0. -1.
<scales pt_clust_5="13000.00000" pt_clust_6="13000.00000" pt_clust_7="13000.00000" pt_clust_8="13000.00000" pt_clust_9="20.34307"></scales>
<clustering>
<clus scale="   20.343">  2  9  1 -1</clus>
<clus scale="   90.619">  5  6 -1 -1</clus>
<clus scale="   91.905">  7  8 -1 -1</clus>
<clus scale="   94.951">  1  5  2 -1</clus>
<clus scale="   20.343">  2  5  1 -1</clus>
</clustering>
</event>
<event>
 9    1  0.1504846E-005  0.1457614E+03  0.7546771E-02  0.1205949E+00
         -1   -1    0    0    0  501 -0.00000000000E+00  0.00000000000E+00  0.50007446236E+03  0.50007446236E+03  0.00000000000E+00 0.  1.
         21   -1    0    0  501  502  0.00000000000E+00 -0.00000000000E+00 -0.67358361314E+02  0.67358361314E+02  0.00000000000E+00 0.  1.
         23    2    1    2    0    0 -0.20954513657E+02 -0.11029441812E+03  0.26418621308E+03  0.30126934590E+03  0.91459899896E+02 0.  0.
         23    2    1    2    0    0  0.72007904052E+02  0.98222289969E+02  0.11532976679E+03  0.19144776428E+03  0.92295909164E+02 0.  0.
        -11    1    4    4    0    0  0.17403997795E+02 -0.17457429289E+02  0.22718564942E+02  0.33523039386E+02  0.00000000000E+00 0. -1.
         11    1    4    4    0    0  0.54603906256E+02  0.11567971926E+03  0.92611201851E+02  0.15792472490E+03  0.00000000000E+00 0.  1.
        -13    1    3    3    0    0 -0.46852544804E+02 -0.25050184264E+02  0.72420657245E+02  0.89818841465E+02  0.00000000000E+00 0. -1.
         13    1    3    3    0    0  0.25898031147E+02 -0.85244233856E+02  0.19176555584E+03  0.21145050444E+03  0.00000000000E+00 0.  1.
         -1    1    1    2    0  502 -0.51053390394E+02  0.12072128150E+02  0.53200121176E+02  0.74715713487E+02  0.00000000000E+00 0.  1.
<scales pt_clust_5="13000.00000" pt_clust_6="13000.00000" pt_clust_7="13000.00000" pt_clust_8="13000.00000" pt_clust_9="52.46127"></scales>
<clustering>
<clus scale="   52.461">  2  9  1 -1</clus>
<clus scale="   91.460">  7  8 -1 -1</clus>
<clus scale="   92.296">  5  6 -1 -1</clus>
<clus scale="  145.233">  1  7  2 -1</clus>
<clus scale="   52.461">  2  5  1 -1</clus>
</clustering>
</event>
<event>
 9    1  0.1504846E-005  0.1047894E+03  0.7546771E-02  0.1273765E+00
         21   -1    0    0  501  502  0.00000000000E+00  0.00000000000E+00  0.62155904335E+02  0.62155904335E+02  0.00000000000E+00 0. -1.
          1   -1    0    0  502    0 -0.00000000000E+00 -0.00000000000E+00 -0.36060320219E+03  0.36060320219E+03  0.00000000000E+00 0. -1.
         23    2    1    2    0    0  0.45385034652E+02  0.41163971638E+00 -0.24603633977E+03  0.26575584317E+03  0.89623193838E+02 0.  0.
         23    2    1    2    0    0 -0.27976177993E+02  0.15264270177E+02 -0.73532494592E+02  0.12546088319E+03  0.96528446435E+02 0.  0.
        -11    1    3    3    0    0  0.14458912431E+02  0.39831264634E+02 -0.62550683077E+02  0.75552483377E+02  0.00000000000E+00 0. -1.
         11    1    3    3    0    0  0.30926122221E+02 -0.39419624917E+02 -0.18348565670E+03  0.19020335980E+03  0.00000000000E+00 0.  1.
        -13    1    4    4    0    0 -0.44618871183E+02  0.43221243126E+02 -0.68611472384E+02  0.92555138516E+02  0.00000000000E+00 0. -1.
         13    1    4    4    0    0  0.16642693191E+02 -0.27956972949E+02 -0.49210222087E+01  0.32905744676E+02  0.00000000000E+00 0.  1.
          1    1    1    2  501    0 -0.17408856659E+02 -0.15675909893E+02  0.21121536515E+02  0.31542380156E+02  0.00000000000E+00 0. -1.
<scales pt_clust_5="13000.00000" pt_clust_6="13000.00000" pt_clust_7="13000.00000" pt_clust_8="13000.00000" pt_clust_9="23.42653"></scales>
<clustering>
<clus scale="   23.427">  1  9  2 -1</clus>
<clus scale="   89.623">  5  6 -1 -1</clus>
<clus scale="   96.528">  7  8 -1 -1</clus>
<clus scale="   98.465">  2  5  1 -1</clus>
<clus scale="   23.427">  1  5  2 -1</clus>
</clustering>
</event>
<event>
 9    1  0.1504846E-005  0.1955594E+03  0.7546771E-02  0.1177630E+00
         21   -1    0    0  501  502  0.00000000000E+00  0.00000000000E+00  0.16482386139E+03  0.16482386139E+03  0.00000000000E+00 0.  1.
         -3   -1    0    0    0  501 -0.00000000000E+00 -0.00000000000E+00 -0.45006774983E+03  0.45006774983E+03  0.00000000000E+00 0.  1.
         23    2    1    2    0    0  0.47395488318E+02  0.41884323330E+02 -0.19265378377E+03  0.22295821515E+03  0.92705212627E+02 0.  0.
         23    2    1    2    0    0  0.13543647320E+03 -0.90972213367E+02 -0.18799820440E+02  0.18875329579E+03  0.93034356807E+02 0.  0.
        -11    1    3    3    0    0  0.58205176044E+02  0.65230463970E+01 -0.16949212129E+03  0.17932643930E+03  0.00000000000E+00 0.  1.
         11    1    3    3    0    0 -0.10809687726E+02  0.35361276933E+02 -0.23161662482E+02  0.43631775852E+02  0.00000000000E+00 0. -1.
        -13    1    4    4    0    0  0.13905465904E+03 -0.53045175135E+02 -0.75166985655E+01  0.14901842022E+03  0.00000000000E+00 0.  1.
         13    1    4    4    0    0 -0.36181858422E+01 -0.37927038232E+02 -0.11283121874E+02  0.39734875577E+02  0.00000000000E+00 0. -1.
         -3    1    1    2    0  502 -0.18283196152E+03  0.49087890037E+02 -0.73790284236E+02  0.20318010028E+03  0.00000000000E+00 0.  1.
<scales pt_clust_5="13000.00000" pt_clust_6="13000.00000" pt_clust_7="13000.00000" pt_clust_8="13000.00000" pt_clust_9="172.01200"></scales>
<clustering>
<clus scale="   92.705">  5  6 -1 -1</clus>
<clus scale="   93.034">  7  8 -1 -1</clus>
<clus scale="  112.227">  2  5  1 -1</clus>
<clus scale="  172.012">  1  9  2 -1</clus>
<clus scale="  172.012">  1  5  2 -1</clus>
</clustering>
</event>
<event>
 9    1  0.1504846E-005  0.9430721E+02  0.7546771E-02  0.1294221E+00
         -2   -1    0    0    0  501 -0.00000000000E+00  0.00000000000E+00  0.36911648941E+03  0.36911648941E+03  0.00000000000E+00 0.  1.
         21   -1    0    0  501  502  0.00000000000E+00 -0.00000000000E+00 -0.76561505287E+02  0.76561505287E+02  0.00000000000E+00 0.  1.
         23    2    1    2    0    0  0.13204883759E+02  0.20201106364E+02  0.20352850499E+03  0.22416796850E+03  0.90801828738E+02 0.  0.
         23    2    1    2    0    0 -0.14370569354E+01  0.37519443021E+01  0.13744827238E+03  0.16622078270E+03  0.93387251826E+02 0.  0.
        -13    1    3    3    0    0 -0.16208781265E+02 -0.24079512792E+02  0.26407761122E+02  0.39241780973E+02  0.00000000000E+00 0. -1.
         13    1    3    3    0    0  0.29413665024E+02  0.44280619157E+02  0.17712074387E+03  0.18492618753E+03  0.00000000000E+00 0.  1.
        -13    1    4    4    0    0  0.24406338467E+02 -0.16501528427E+02  0.51488967240E+01  0.29907874135E+02  0.00000000000E+00 0. -1.
         13    1    4    4    0    0 -0.25843395402E+02  0.20253472729E+02  0.13229937566E+03  0.13631290857E+03  0.00000000000E+00 0.  1.
         -2    1    1    2    0  502 -0.11767826824E+02 -0.23953050667E+02 -0.48421793252E+02  0.55289243494E+02  0.00000000000E+00 0.  1.
<scales pt_clust_5="13000.00000" pt_clust_6="13000.00000" pt_clust_7="13000.00000" pt_clust_8="13000.00000" pt_clust_9="26.68764"></scales>
<clustering>
<clus scale="   26.688">  2  9  1 -1</clus>
<clus scale="   90.802">  5  6 -1 -1</clus>
<clus scale="   91.748">  1  5  2 -1</clus>
<clus scale="   93.387">  7  8 -1 -1</clus>
<clus scale="   26.688">  2  5  1 -1</clus>
</clustering>
</event>
<event>
 9    1  0.1504846E-005  0.1144740E+03  0.7546771E-02  0.1254592E+00
          1   -1    0    0  502    0 -0.00000000000E+00  0.00000000000E+00  0.35952166928E+03  0.35952166928E+03  0.00000000000E+00 0. -1.
         21   -1    0    0  501  502  0.00000000000E+00 -0.00000000000E+00 -0.18061261958E+03  0.18061261958E+03  0.00000000000E+00 0. -1.
         23    2    1    2    0    0  0.63416893021E+01 -0.56218828940E+02  0.22688691742E+03  0.25127979159E+03  0.91995035812E+02 0.  0.
         23    2    1    2    0    0 -0.88233956299E+02  0.51665424756E+02  0.59797550373E+02  0.15341957699E+03  0.97505243001E+02 0.  0.
        -13    1    3    3    0    0  0.29051331193E+02 -0.12553507146E+02  0.17454365846E+02  0.36141738653E+02  0.00000000000E+00 0.  1.
         13    1    3    3    0    0 -0.22709641891E+02 -0.43665321794E+02  0.20943255158E+03  0.21513805294E+03  0.00000000000E+00 0. -1.
        -13    1    4    4    0    0 -0.18870648602E+02  0.35082215248E+02 -0.21505232625E+02  0.45269617136E+02  0.00000000000E+00 0. -1.
         13    1    4    4    0    0 -0.69363307698E+02  0.16583209508E+02  0.81302782998E+02  0.10814995985E+03  0.00000000000E+00 0.  1.
          1    1    1    2  501    0  0.81892266997E+02  0.45534041839E+01 -0.10777541810E+03  0.13543492027E+03  0.00000000000E+00 0. -1.
<scales pt_clust_5="13000.00000" pt_clust_6="13000.00000" pt_clust_7="13000.00000" pt_clust_8="13000.00000" pt_clust_9="82.01876"></scales>
<clustering>
<clus scale="   82.019">  2  9  1 -1</clus>
<clus scale="   91.995">  5  6 -1 -1</clus>
<clus scale="   97.505">  7  8 -1 -1</clus>
<clus scale="  109.819">  1  5  2 -1</clus>
<clus scale="   82.019">  2  5  1 -1</clus>
</clustering>
</event>
<event>
 9    1  0.1504846E-005  0.1315283E+03  0.7546771E-02  0.1229270E+00
         -3   -1    0    0    0  501 -0.00000000000E+00  0.00000000000E+00  0.44995495801E+03  0.44995495801E+03  0.00000000000E+00 0.  1.
         21   -1    0    0  501  502  0.00000000000E+00 -0.00000000000E+00 -0.14923577939E+03  0.14923577939E+03  0.00000000000E+00 0.  1.
         23    2    1    2    0    0 -0.86276514304E+02 -0.45154994351E+01  0.21538181894E+03  0.25621262693E+03  0.10858892952E+03 0.  0.
         23    2    1    2    0    0  0.18330891421E+02  0.10450731738E+03  0.15074066342E+03  0.20552788870E+03  0.90890948173E+02 0.  0.
        -11    1    4    4    0    0 -0.10626141866E+02  0.82708130768E+02  0.47184527540E+02  0.95811948239E+02  0.00000000000E+00 0.  1.
         11    1    4    4    0    0  0.28957033287E+02  0.21799186616E+02  0.10355613588E+03  0.10971594046E+03  0.00000000000E+00 0. -1.
        -11    1    3    3    0    0 -0.76008070792E+01  0.40261402218E+02  0.10946272604E+03  0.11687960116E+03  0.00000000000E+00 0.  1.
         11    1    3    3    0    0 -0.78675707225E+02 -0.44776901653E+02  0.10591909290E+03  0.13933302577E+03  0.00000000000E+00 0. -1.
         -3    1    1    2    0  502  0.67945622883E+02 -0.99991817949E+02 -0.65403303726E+02  0.13745022177E+03  0.00000000000E+00 0.  1.
<scales pt_clust_5="13000.00000" pt_clust_6="13000.00000" pt_clust_7="13000.00000" pt_clust_8="13000.00000" pt_clust_9="120.89240"></scales>
<clustering>
<clus scale="   90.891">  5  6 -1 -1</clus>
<clus scale="  108.589">  7  8 -1 -1</clus>
<clus scale="  120.892">  2  9  1 -1</clus>
<clus scale="  120.892">  2  5  1 -1</clus>
<clus scale="  120.892">  2  5  1 -1</clus>
</clustering>
</event>
<event>
 9    1  0.1504846E-005  0.1007328E+03  0.7546771E-02  0.1284648E+00
          1   -1    0    0  502    0 -0.00000000000E+00  0.00000000000E+00  0.22452879770E+03  0.22452879770E+03  0.00000000000E+00 0. -1.
         21   -1    0    0  501  502  0.00000000000E+00 -0.00000000000E+00 -0.77564234306E+02  0.77564234306E+02  0.00000000000E+00 0. -1.
         23    2    1    2    0    0  0.49985758664E+01  0.38541173494E+02  0.11153326613E+03  0.14452770950E+03  0.83295747459E+02 0.  0.
         23    2    1    2    0    0 -0.23300336325E+02 -0.21704910336E+02  0.64793095623E+02  0.11908767450E+03  0.94708606645E+02 0.  0.
        -11    1    3    3    0    0  0.35981124814E+02  0.45012616797E+02  0.54583038748E+02  0.79373075616E+02  0.00000000000E+00 0.  1.
         11    1    3    3    0    0 -0.30982548948E+02 -0.64714433035E+01  0.56950227380E+02  0.65154633882E+02  0.00000000000E+00 0. -1.
        -13    1    4    4    0    0 -0.52338518283E+02 -0.26955910034E+02  0.67367002058E+02  0.89466499585E+02  0.00000000000E+00 0. -1.
         13    1    4    4    0    0  0.29038181957E+02  0.52509996975E+01 -0.25739064349E+01  0.29621174918E+02  0.00000000000E+00 0.  1.
          1    1    1    2  501    0  0.18301760459E+02 -0.16836263157E+02 -0.29361798358E+02  0.38477648002E+02  0.00000000000E+00 0. -1.
<scales pt_clust_5="13000.00000" pt_clust_6="13000.00000" pt_clust_7="13000.00000" pt_clust_8="13000.00000" pt_clust_9="24.86794"></scales>
<clustering>
<clus scale="   24.868">  2  9  1 -1</clus>
<clus scale="   83.296">  5  6 -1 -1</clus>
<clus scale="   90.086">  1  5  2 -1</clus>
<clus scale="   94.709">  7  8 -1 -1</clus>
<clus scale="   24.868">  2  5  1 -1</clus>
</clustering>
</event>
<event>
 9    1  0.1504846E-005  0.1937466E+03  0.7546771E-02  0.1155210E+00
          3   -1    0    0  502    0 -0.00000000000E+00  0.00000000000E+00  0.68346125679E+03  0.68346125679E+03  0.00000000000E+00 0. -1.
         21   -1    0    0  501  502  0.00000000000E+00 -0.00000000000E+00 -0.11524274543E+03  0.11524274543E+03  0.00000000000E+00 0. -1.
         23    2    1    2    0    0 -0.10471199168E+03  0.11204668811E+03  0.34533463293E+03  0.38894537856E+03  0.92214083955E+02 0.  0.
         23    2    1    2    0    0  0.90469099825E+02 -0.20839386685E+03  0.17307466972E+03  0.30036668570E+03  0.93019582958E+02 0.  0.
        -13    1    3    3    0    0 -0.81231106133E+02  0.62049269352E+02  0.30172192905E+03  0.31856667575E+03  0.00000000000E+00 0. -1.
         13    1    3    3    0    0 -0.23480885547E+02  0.49997418757E+02  0.43612703885E+02  0.70378702805E+02  0.00000000000E+00 0.  1.
        -13    1    4    4    0    0  0.56000620760E+02 -0.15131596413E+03  0.66202659943E+02  0.17440006511E+03  0.00000000000E+00 0. -1.
         13    1    4    4    0    0  0.34468479065E+02 -0.57077902714E+02  0.10687200978E+03  0.12596662058E+03  0.00000000000E+00 0.  1.
          3    1    1    2  501    0  0.14242891855E+02  0.96347178740E+02  0.49809208715E+02  0.10939193797E+03  0.00000000000E+00 0. -1.
<scales pt_clust_5="13000.00000" pt_clust_6="13000.00000" pt_clust_7="13000.00000" pt_clust_8="13000.00000" pt_clust_9="97.39424"></scales>
<clustering>
<clus scale="   92.214">  5  6 -1 -1</clus>
<clus scale="   93.020">  7  8 -1 -1</clus>
<clus scale="   97.394">  2  9  1 -1</clus>
<clus scale="  193.361">  1  5  2 -1</clus>
<clus scale="   97.394">  2  5  1 -1</clus>
</clustering>
</event>
<event>
 9    1  0.1504846E-005  0.9882285E+02  0.7546771E-02  0.1284012E+00
         21   -1    0    0  501  502  0.00000000000E+00  0.00000000000E+00  0.54614612803E+02  0.54614612803E+02  0.00000000000E+00 0. -1.
         -4   -1    0    0    0  501 -0.00000000000E+00 -0.00000000000E+00 -0.23423549717E+03  0.23423549717E+03  0.00000000000E+00 0.  1.
         23    2    1    2    0    0  0.43702382215E+01  0.27202706408E+02 -0.89834264821E+02  0.13152552724E+03  0.92030880476E+02 0.  0.
         23    2    1    2    0    0 -0.27528357675E+02 -0.22290943008E+02 -0.87575750704E+02  0.13354829502E+03  0.94397766789E+02 0.  0.
        -11    1    4    4    0    0 -0.46404478863E+01 -0.55546524097E+02 -0.70093942207E+02  0.89555071492E+02  0.00000000000E+00 0.  1.
         11    1    4    4    0    0 -0.22887909789E+02  0.33255581088E+02 -0.17481808497E+02  0.43993223528E+02  0.00000000000E+00 0. -1.
        -11    1    3    3    0    0 -0.43092164746E+02  0.20495406569E+02 -0.38713318883E+02  0.61446866575E+02  0.00000000000E+00 0. -1.
         11    1    3    3    0    0  0.47462402968E+02  0.67072998389E+01 -0.51120945937E+02  0.70078660662E+02  0.00000000000E+00 0.  1.
         -4    1    1    2    0  502  0.23158119453E+02 -0.49117633993E+01 -0.22108688369E+01  0.23776287711E+02  0.00000000000E+00 0.  1.
<scales pt_clust_5="13000.00000" pt_clust_6="13000.00000" pt_clust_7="13000.00000" pt_clust_8="13000.00000" pt_clust_9="23.67327"></scales>
<clustering>
<clus scale="   23.673">  1  9  2 -1</clus>
<clus scale="   92.031">  7  8 -1 -1</clus>
<clus scale="   94.398">  5  6 -1 -1</clus>
<clus scale="   96.564">  2  7  1 -1</clus>
<clus scale="   23.673">  1  5  2 -1</clus>
</clustering>
</event>
<event>
 9    1  0.1504846E-005  0.2001150E+03  0.7546771E-02  0.1149707E+00
         21   -1    0    0  501  502  0.00000000000E+00  0.00000000000E+00  0.24237126015E+03  0.24237126015E+03  0.00000000000E+00 0.  1.
          1   -1    0    0  502    0 -0.00000000000E+00 -0.00000000000E+00 -0.28870495066E+03  0.28870495066E+03  0.00000000000E+00 0. -1.
         23    2    1    2    0    0  0.79552656613E+02  0.12333574328E+03 -0.39037614979E+02  0.17700075963E+03  0.90912060707E+02 0.  0.
         23    2    1    2    0    0 -0.74587129182E+02 -0.22369332695E+03 -0.14187307564E+02  0.25335906650E+03  0.91583800558E+02 0.  0.
        -13    1    3    3    0    0  0.47855641529E+02  0.32287338489E+02  0.23235335718E+02  0.62229538636E+02  0.00000000000E+00 0.  1.
         13    1    3    3    0    0  0.31697015083E+02  0.91048404790E+02 -0.62272950696E+02  0.11477122099E+03  0.00000000000E+00 0. -1.
        -13    1    4    4    0    0 -0.40200839206E+02 -0.39678645309E+02  0.25539730558E+02  0.61990162150E+02  0.00000000000E+00 0. -1.
         13    1    4    4    0    0 -0.34386289976E+02 -0.18401468164E+03 -0.39727038121E+02  0.19136890435E+03  0.00000000000E+00 0.  1.
          1    1    1    2  501    0 -0.49655274304E+01  0.10035758367E+03  0.68912320318E+01  0.10071638467E+03  0.00000000000E+00 0. -1.
<scales pt_clust_5="13000.00000" pt_clust_6="13000.00000" pt_clust_7="13000.00000" pt_clust_8="13000.00000" pt_clust_9="100.48035"></scales>
<clustering>
<clus scale="   90.912">  5  6 -1 -1</clus>
<clus scale="   91.584">  7  8 -1 -1</clus>
<clus scale="  100.480">  1  9  2 -1</clus>
<clus scale="  199.808">  2  5  1 -1</clus>
<clus scale="  100.480">  1  5  2 -1</clus>
</clustering>
</event>
<event>
 9    1  0.1504846E-005  0.9464257E+02  0.7546771E-02  0.1292563E+00
         21   -1    0    0  501  502  0.00000000000E+00  0.00000000000E+00  0.37739938340E+02  0.37739938340E+02  0.00000000000E+00 0.  1.
          2   -1    0    0  502    0 -0.00000000000E+00 -0.00000000000E+00 -0.37920863824E+03  0.37920863824E+03  0.00000000000E+00 0. -1.
         23    2    1    2    0    0  0.14514227375E+02  0.27020693274E+02 -0.19178044194E+03  0.21414871303E+03  0.90217252889E+02 0.  0.
         23    2    1    2    0    0  0.10455920140E+02 -0.22122014470E+02 -0.15007898560E+03  0.17735073805E+03  0.91273613807E+02 0.  0.
        -11    1    3    3    0    0 -0.33582096670E+01  0.51417539783E+02 -0.16785686281E+03  0.17558749204E+03  0.00000000000E+00 0. -1.
         11    1    3    3    0    0  0.17872437042E+02 -0.24396846509E+02 -0.23923579132E+02  0.38561220985E+02  0.00000000000E+00 0.  1.
        -13    1    4    4    0    0  0.47381297345E+02 -0.30742014677E+02 -0.85812128608E+02  0.10273159310E+03  0.00000000000E+00 0.  1.
         13    1    4    4    0    0 -0.36925377205E+02  0.86200002063E+01 -0.64266856992E+02  0.74619144949E+02  0.00000000000E+00 0. -1.
          2    1    1    2  501    0 -0.24970147515E+02 -0.48986788034E+01  0.39072763846E+00  0.25449125506E+02  0.00000000000E+00 0. -1.
<scales pt_clust_5="13000.00000" pt_clust_6="13000.00000" pt_clust_7="13000.00000" pt_clust_8="13000.00000" pt_clust_9="25.44613"></scales>
<clustering>
<clus scale="   25.446">  1  9  2 -1</clus>
<clus scale="   90.217">  5  6 -1 -1</clus>
<clus scale="   91.274">  7  8 -1 -1</clus>
<clus scale="   93.624">  2  5  1 -1</clus>
<clus scale="   25.446">  1  5  2 -1</clus>
</clustering>
</event>
<event>
 9    1  0.1504846E-005  0.1831949E+03  0.7546771E-02  0.1165104E+00
         21   -1    0    0  501  502  0.00000000000E+00  0.00000000000E+00  0.36394969903E+03  0.36394969903E+03  0.00000000000E+00 0. -1.
          2   -1    0    0  502    0 -0.00000000000E+00 -0.00000000000E+00 -0.15747016652E+03  0.15747016652E+03  0.00000000000E+00 0. -1.
         23    2    1    2    0    0 -0.54848254289E+02  0.14136110739E+03 -0.35825028013E+02  0.18063356570E+03  0.91398899030E+02 0.  0.
         23    2    1    2    0    0  0.50801443451E+02 -0.17434830455E+03  0.18165134858E+03  0.27162457654E+03  0.88343535012E+02 0.  0.
        -11    1    3    3    0    0 -0.30002190755E+02  0.14415588823E+03 -0.45051505489E+02  0.15398275783E+03  0.00000000000E+00 0. -1.
         11    1    3    3    0    0 -0.24846063534E+02 -0.27947808493E+01  0.92264774759E+01  0.26650807863E+02  0.00000000000E+00 0.  1.
        -13    1    4    4    0    0  0.15831494466E+02 -0.11696854930E+03  0.59437114070E+02  0.13215539441E+03  0.00000000000E+00 0. -1.
         13    1    4    4    0    0  0.34969948985E+02 -0.57379755250E+02  0.12221423451E+03  0.13946918212E+03  0.00000000000E+00 0.  1.
          2    1    1    2  501    0  0.40468108377E+01  0.32987197168E+02  0.60653211934E+02  0.69161723322E+02  0.00000000000E+00 0. -1.
<scales pt_clust_5="13000.00000" pt_clust_6="13000.00000" pt_clust_7="13000.00000" pt_clust_8="13000.00000" pt_clust_9="33.23450"></scales>
<clustering>
<clus scale="   33.234">  1  9  2 -1</clus>
<clus scale="   88.344">  7  8 -1 -1</clus>
<clus scale="   91.399">  5  6 -1 -1</clus>
<clus scale="  181.690">  1  7  2 -1</clus>
<clus scale="   33.234">  1  5  2 -1</clus>
</clustering>
</event>
<event>
 9    1  0.1504846E-005  0.1812571E+03  0.7546771E-02  0.1166981E+00
         -4   -1    0    0    0  501 -0.00000000000E+00  0.00000000000E+00  0.39853360008E+03  0.39853360008E+03  0.00000000000E+00 0.  1.
         21   -1    0    0  501  502  0.00000000000E+00 -0.00000000000E+00 -0.21271321745E+03  0.21271321745E+03  0.00000000000E+00 0. -1.
         23    2    1    2    0    0  0.99438544949E+02  0.12134875868E+03  0.30962252021E+03  0.35900468801E+03  0.91677235651E+02 0.  0.
         23    2    1    2    0    0 -0.11506519603E+03 -0.10398109775E+03 -0.66769689353E+02  0.19060992998E+03  0.88441426748E+02 0.  0.
        -11    1    3    3    0    0  0.63209686641E+02  0.73514452519E+02  0.93447638672E+02  0.13465623041E+03  0.00000000000E+00 0. -1.
         11    1    3    3    0    0  0.36228858309E+02  0.47834306163E+02  0.21617488153E+03  0.22434845760E+03  0.00000000000E+00 0.  1.
        -13    1    4    4    0    0 -0.48837685920E+02 -0.10105629231E+03 -0.41523401045E+02  0.11967324938E+03  0.00000000000E+00 0.  1.
         13    1    4    4    0    0 -0.66227510109E+02 -0.29248054370E+01 -0.25246288309E+02  0.70936680606E+02  0.00000000000E+00 0. -1.
         -4    1    1    2    0  502  0.15626651079E+02 -0.17367660933E+02 -0.57032448226E+02  0.61632199546E+02  0.00000000000E+00 0.  1.
<scales pt_clust_5="13000.00000" pt_clust_6="13000.00000" pt_clust_7="13000.00000" pt_clust_8="13000.00000" pt_clust_9="23.36296"></scales>
<clustering>
<clus scale="   23.363">  2  9  1 -1</clus>
<clus scale="   88.441">  7  8 -1 -1</clus>
<clus scale="   91.677">  5  6 -1 -1</clus>
<clus scale="  179.642">  2  7  1 -1</clus>
<clus scale="   23.363">  2  5  1 -1</clus>
</clustering>
</event>
<event>
 9    1  0.1504846E-005  0.1066473E+03  0.7546771E-02  0.1267646E+00
         21   -1    0    0  501  502  0.00000000000E+00  0.00000000000E+00  0.57137939117E+02  0.57137939117E+02  0.00000000000E+00 0.  1.
          1   -1    0    0  502    0 -0.00000000000E+00 -0.00000000000E+00 -0.50204487456E+03  0.50204487456E+03  0.00000000000E+00 0. -1.
         23    2    1    2    0    0 -0.45652865083E+02  0.28620952342E+02 -0.40802810514E+03  0.42173213820E+03  0.92020208636E+02 0.  0.
         23    2    1    2    0    0  0.34617495911E+02 -0.45365128652E+02 -0.44918408881E+02  0.11584554561E+03  0.90256085997E+02 0.  0.
        -11    1    4    4    0    0  0.42912753019E+02  0.96410184046E+01 -0.40919662118E+02  0.60073890796E+02  0.00000000000E+00 0. -1.
         11    1    4    4    0    0 -0.82952571080E+01 -0.55006147057E+02 -0.39987467630E+01  0.55771654810E+02  0.00000000000E+00 0.  1.
        -11    1    3    3    0    0 -0.53128023293E+02  0.54652274252E+02 -0.34150154114E+03  0.34990393044E+03  0.00000000000E+00 0. -1.
         11    1    3    3    0    0  0.74751582100E+01 -0.26031321910E+02 -0.66526564008E+02  0.71828207755E+02  0.00000000000E+00 0.  1.
          1    1    1    2  501    0  0.11035369172E+02  0.16744176310E+02  0.80395785829E+01  0.21605129873E+02  0.00000000000E+00 0. -1.
<scales pt_clust_5="13000.00000" pt_clust_6="13000.00000" pt_clust_7="13000.00000" pt_clust_8="13000.00000" pt_clust_9="20.05360"></scales>
<clustering>
<clus scale="   20.054">  1  9  2 -1</clus>
<clus scale="   90.256">  5  6 -1 -1</clus>
<clus scale="   92.020">  7  8 -1 -1</clus>
<clus scale="  105.129">  1  5  2 -1</clus>
<clus scale="   20.054">  1  5  2 -1</clus>
</clustering>
</event>
<event>
 9    1  0.1504846E-005  0.1405973E+03  0.7546771E-02  0.1213244E+00
          2   -1    0    0  502    0 -0.00000000000E+00  0.00000000000E+00  0.64735208211E+02  0.64735208211E+02  0.00000000000E+00 0. -1.
         21   -1    0    0  501  502  0.00000000000E+00 -0.00000000000E+00 -0.54536562542E+03  0.54536562542E+03  0.00000000000E+00 0. -1.
         23    2    1    2    0    0  0.99019740677E+02 -0.82032244348E+02 -0.13654309899E+03  0.20783017349E+03  0.89527453765E+02 0.  0.
         23    2    1    2    0    0 -0.23661147059E+02  0.86345230873E+02 -0.17753945139E+03  0.21941631529E+03  0.92778843698E+02 0.  0.
        -13    1    4    4    0    0 -0.39225431399E+02  0.11568908013E+02 -0.11037186329E+03  0.11770481004E+03  0.00000000000E+00 0.  1.
         13    1    4    4    0    0  0.15564284340E+02  0.74776322861E+02 -0.67167588109E+02  0.10171150525E+03  0.00000000000E+00 0. -1.
        -13    1    3    3    0    0  0.59052161479E+02  0.66203040995E+01 -0.50406688639E+02  0.77921886920E+02  0.00000000000E+00 0. -1.
         13    1    3    3    0    0  0.39967579198E+02 -0.88652548447E+02 -0.86136410347E+02  0.12990828657E+03  0.00000000000E+00 0.  1.
          2    1    1    2  501    0 -0.75358593618E+02 -0.43129865259E+01 -0.16654786683E+03  0.18285434485E+03  0.00000000000E+00 0. -1.
<scales pt_clust_5="13000.00000" pt_clust_6="13000.00000" pt_clust_7="13000.00000" pt_clust_8="13000.00000" pt_clust_9="75.48191"></scales>
<clustering>
<clus scale="   75.482">  2  9  1 -1</clus>
<clus scale="   89.527">  7  8 -1 -1</clus>
<clus scale="   92.779">  5  6 -1 -1</clus>
<clus scale="  138.473">  1  7  2 -1</clus>
<clus scale="   75.482">  2  5  1 -1</clus>
</clustering>
</event>
<event>
 9    1  0.1504846E-005  0.9961632E+02  0.7546771E-02  0.1282386E+00
          1   -1    0    0  502    0 -0.00000000000E+00  0.00000000000E+00  0.11300482243E+03  0.11300482243E+03  0.00000000000E+00 0. -1.
         21   -1    0    0  501  502  0.00000000000E+00 -0.00000000000E+00 -0.31306263377E+03  0.31306263377E+03  0.00000000000E+00 0. -1.
         23    2    1    2    0    0  0.35393589771E+02 -0.23362235884E+01  0.71672277111E+02  0.12381268728E+03  0.94522495141E+02 0.  0.
         23    2    1    2    0    0  0.11277706592E+01 -0.11359912642E+02 -0.20445599934E+03  0.22449104356E+03  0.91998116791E+02 0.  0.
        -11    1    3    3    0    0  0.65362066512E+01 -0.25689717764E+02 -0.14334785886E+02  0.30135853772E+02  0.00000000000E+00 0.  1.
         11    1    3    3    0    0  0.28857383120E+02  0.23353494176E+02  0.86007062997E+02  0.93676833508E+02  0.00000000000E+00 0. -1.
        -11    1    4    4    0    0 -0.34404254201E+02 -0.30929499413E+02 -0.14736490145E+03  0.15445614530E+03  0.00000000000E+00 0.  1.
         11    1    4    4    0    0  0.35532024860E+02  0.19569586770E+02 -0.57091097888E+02  0.70034898266E+02  0.00000000000E+00 0. -1.
          1    1    1    2  501    0 -0.36521360430E+02  0.13696136231E+02 -0.67274089117E+02  0.77763725360E+02  0.00000000000E+00 0. -1.
<scales pt_clust_5="13000.00000" pt_clust_6="13000.00000" pt_clust_7="13000.00000" pt_clust_8="13000.00000" pt_clust_9="39.00505"></scales>
<clustering>
<clus scale="   39.005">  2  9  1 -1</clus>
<clus scale="   91.998">  7  8 -1 -1</clus>
<clus scale="   94.522">  5  6 -1 -1</clus>
<clus scale="   97.224">  2  7  1 -1</clus>
<clus scale="   39.005">  2  5  1 -1</clus>
</clustering>
</event>
<event>
 9    1  0.1504846E-005  0.9618527E+02  0.7546771E-02  0.1288656E+00
         -1   -1    0    0    0  501 -0.00000000000E+00  0.00000000000E+00  0.91907524755E+02  0.91907524755E+02  0.00000000000E+00 0.  1.
         21   -1    0    0  501  502  0.00000000000E+00 -0.00000000000E+00 -0.25036308040E+03  0.25036308040E+03  0.00000000000E+00 0.  1.
         23    2    1    2    0    0 -0.19702918035E+02 -0.38072124410E+02 -0.41223913504E+01  0.99056984698E+02  0.89205383643E+02 0.  0.
         23    2    1    2    0    0 -0.55551612032E+01  0.32431225085E+02 -0.86416384082E+01  0.95241288492E+02  0.88958310138E+02 0.  0.
        -11    1    4    4    0    0  0.18519092385E+02  0.45217072644E+02 -0.32773168970E+02  0.58835542367E+02  0.00000000000E+00 0. -1.
         11    1    4    4    0    0 -0.24074253588E+02 -0.12785847559E+02  0.24131530562E+02  0.36405746125E+02  0.00000000000E+00 0.  1.
        -13    1    3    3    0    0  0.29051980078E+02  0.92166415823E+01 -0.62046028806E+01  0.31104037124E+02  0.00000000000E+00 0. -1.
         13    1    3    3    0    0 -0.48754898114E+02 -0.47288765992E+02  0.20822115302E+01  0.67952947574E+02  0.00000000000E+00 0.  1.
         -1    1    1    2    0  502  0.25258079238E+02  0.56408993250E+01 -0.14569152588E+03  0.14797233196E+03  0.00000000000E+00 0.  1.
<scales pt_clust_5="13000.00000" pt_clust_6="13000.00000" pt_clust_7="13000.00000" pt_clust_8="13000.00000" pt_clust_9="25.88031"></scales>
<clustering>
<clus scale="   25.880">  2  9  1 -1</clus>
<clus scale="   88.958">  5  6 -1 -1</clus>
<clus scale="   89.205">  7  8 -1 -1</clus>
<clus scale="   95.956">  2  5  1 -1</clus>
<clus scale="   25.880">  2  5  1 -1</clus>
</clustering>
</event>
<event>
 9    1  0.1504846E-005  0.9706861E+02  0.7546771E-02  0.1286923E+00
          2   -1    0    0  502    0 -0.00000000000E+00  0.00000000000E+00  0.75768238048E+03  0.75768238048E+03  0.00000000000E+00 0. -1.
         21   -1    0    0  501  502  0.00000000000E+00 -0.00000000000E+00 -0.23654756831E+02  0.23654756831E+02  0.00000000000E+00 0.  1.
         23    2    1    2    0    0 -0.15846933494E+02  0.43325841979E+02  0.47197278184E+03  0.48316610382E+03  0.92536064331E+02 0.  0.
         23    2    1    2    0    0  0.34520913561E+01  0.37631286805E+01  0.19122563560E+03  0.21221883909E+03  0.91888594955E+02 0.  0.
        -11    1    4    4    0    0  0.38513427397E+02  0.27628584857E+02  0.12379358692E+03  0.13255744020E+03  0.00000000000E+00 0.  1.
         11    1    4    4    0    0 -0.35061336041E+02 -0.23865456177E+02  0.67432048678E+02  0.79661398886E+02  0.00000000000E+00 0. -1.
        -13    1    3    3    0    0  0.17286862837E+02  0.61148828679E+02  0.24556897820E+03  0.25365752094E+03  0.00000000000E+00 0.  1.
         13    1    3    3    0    0 -0.33133796332E+02 -0.17822986700E+02  0.22640380363E+03  0.22950858288E+03  0.00000000000E+00 0. -1.
          2    1    1    2  501    0  0.12394842138E+02 -0.47088970659E+02  0.70829206220E+02  0.85952194406E+02  0.00000000000E+00 0. -1.
<scales pt_clust_5="13000.00000" pt_clust_6="13000.00000" pt_clust_7="13000.00000" pt_clust_8="13000.00000" pt_clust_9="48.69295"></scales>
<clustering>
<clus scale="   48.693">  2  9  1 -1</clus>
<clus scale="   91.889">  5  6 -1 -1</clus>
<clus scale="   92.536">  7  8 -1 -1</clus>
<clus scale="   96.452">  2  5  1 -1</clus>
<clus scale="   48.693">  2  5  1 -1</clus>
</clustering>
</event>
<event>
 9    1  0.1504846E-005  0.2461349E+03  0.7546771E-02  0.1115808E+00
          1   -1    0    0  502    0 -0.00000000000E+00  0.00000000000E+00  0.12674513864E+03  0.12674513864E+03  0.00000000000E+00 0. -1.
         21   -1    0    0  501  502  0.00000000000E+00 -0.00000000000E+00 -0.11657610391E+04  0.11657610391E+04  0.00000000000E+00 0. -1.
         23    2    1    2    0    0  0.15995112345E+03  0.12709962552E+03 -0.93293020120E+02  0.24285982757E+03  0.92404716036E+02 0.  0.
         23    2    1    2    0    0 -0.23686590774E+03 -0.20115629353E+03 -0.53683567344E+03  0.62704840639E+03  0.91803327815E+02 0.  0.
        -11    1    4    4    0    0 -0.77413904878E+02 -0.12275601475E+03 -0.21449138590E+03  0.25897588006E+03  0.00000000000E+00 0.  1.
         11    1    4    4    0    0 -0.15945200286E+03 -0.78400278784E+02 -0.32234428754E+03  0.36807252633E+03  0.00000000000E+00 0. -1.
        -11    1    3    3    0    0  0.79005445064E+02  0.11290051331E+03 -0.35213218775E+02  0.14222642874E+03  0.00000000000E+00 0. -1.
         11    1    3    3    0    0  0.80945678381E+02  0.14199112212E+02 -0.58079801345E+02  0.10063339883E+03  0.00000000000E+00 0.  1.
          1    1    1    2  501    0  0.76914784297E+02  0.74056668013E+02 -0.40888720689E+03  0.42259794377E+03  0.00000000000E+00 0. -1.
<scales pt_clust_5="13000.00000" pt_clust_6="13000.00000" pt_clust_7="13000.00000" pt_clust_8="13000.00000" pt_clust_9="106.77207"></scales>
<clustering>
<clus scale="   91.803">  5  6 -1 -1</clus>
<clus scale="   92.405">  7  8 -1 -1</clus>
<clus scale="  106.772">  2  9  1 -1</clus>
<clus scale="  245.910">  2  5  1 -1</clus>
<clus scale="  106.772">  2  5  1 -1</clus>
</clustering>
</event>
<event>
 9    1  0.1504846E-005  0.1141281E+03  0.7546771E-02  0.1253424E+00
          3   -1    0    0  502    0 -0.00000000000E+00  0.00000000000E+00  0.10836823031E+03  0.10836823031E+03  0.00000000000E+00 0. -1.
         21   -1    0    0  501  502  0.00000000000E+00 -0.00000000000E+00 -0.37438270419E+03  0.37438270419E+03  0.00000000000E+00 0. -1.
         23    2    1    2    0    0 -0.41006539711E+02 -0.57356778742E+02  0.47829698977E+02  0.12427397183E+03  0.90471009746E+02 0.  0.
         23    2    1    2    0    0  0.71189422091E+02  0.16781142696E+02 -0.17331636228E+03  0.20912685661E+03  0.91356117235E+02 0.  0.
        -13    1    4    4    0    0  0.92756600318E+02  0.16686033717E+02 -0.12813907943E+03  0.15906550317E+03  0.00000000000E+00 0. -1.
         13    1    4    4    0    0 -0.21567178227E+02  0.95108978355E-01 -0.45177282851E+02  0.50061353440E+02  0.00000000000E+00 0.  1.
        -13    1    3    3    0    0  0.20762507042E+02 -0.23528712185E+02 -0.10226119400E+02  0.33003871193E+02  0.00000000000E+00 0.  1.
         13    1    3    3    0    0 -0.61769046752E+02 -0.33828066557E+02  0.58055818377E+02  0.91270100641E+02  0.00000000000E+00 0. -1.
          3    1    1    2  501    0 -0.30182882380E+02  0.40575636046E+02 -0.14052781059E+03  0.14935010605E+03  0.00000000000E+00 0. -1.
<scales pt_clust_5="13000.00000" pt_clust_6="13000.00000" pt_clust_7="13000.00000" pt_clust_8="13000.00000" pt_clust_9="50.57063"></scales>
<clustering>
<clus scale="   50.571">  2  9  1 -1</clus>
<clus scale="   90.471">  7  8 -1 -1</clus>
<clus scale="   91.356">  5  6 -1 -1</clus>
<clus scale="  113.421">  1  7  2 -1</clus>
<clus scale="   50.571">  2  5  1 -1</clus>
</clustering>
</event>
<event>
 9    1  0.1504846E-005  0.8575664E+02  0.7546771E-02  0.1313618E+00
         21   -1    0    0  501  502  0.00000000000E+00  0.00000000000E+00  0.14806255096E+03  0.14806255096E+03  0.00000000000E+00 0. -1.
          2   -1    0    0  502    0 -0.00000000000E+00 -0.00000000000E+00 -0.15452329790E+03  0.15452329790E+03  0.00000000000E+00 0. -1.
         23    2    1    2    0    0  0.33006180482E+01  0.71987071491E+01 -0.72429533377E+02  0.11203841425E+03  0.85110830680E+02 0.  0.
         23    2    1    2    0    0  0.18922152891E+02 -0.53754166432E+01 -0.29569938399E+02  0.92441247858E+02  0.85346705118E+02 0.  0.
        -11    1    4    4    0    0 -0.73110490147E+01 -0.41500314717E+02 -0.81365430909E+01  0.42917722362E+02  0.00000000000E+00 0.  1.
         11    1    4    4    0    0  0.26233201906E+02  0.36124898074E+02 -0.21433395308E+02  0.49523525495E+02  0.00000000000E+00 0. -1.
        -13    1    3    3    0    0 -0.23616751285E+02 -0.76846406942E+01 -0.77033186468E+02  0.80937732000E+02  0.00000000000E+00 0. -1.
         13    1    3    3    0    0  0.26917369333E+02  0.14883347843E+02  0.46036530908E+01  0.31100682254E+02  0.00000000000E+00 0.  1.
          2    1    1    2  501    0 -0.22222770939E+02 -0.18232905059E+01  0.95538724831E+02  0.98106186751E+02  0.00000000000E+00 0. -1.
<scales pt_clust_5="13000.00000" pt_clust_6="13000.00000" pt_clust_7="13000.00000" pt_clust_8="13000.00000" pt_clust_9="22.29744"></scales>
<clustering>
<clus scale="   22.297">  1  9  2 -1</clus>
<clus scale="   85.111">  7  8 -1 -1</clus>
<clus scale="   85.347">  5  6 -1 -1</clus>
<clus scale="   85.522">  2  7  1 -1</clus>
<clus scale="   22.297">  1  5  2 -1</clus>
</clustering>
</event>
<event>
 9    1  0.1504846E-005  0.1490540E+03  0.7546771E-02  0.1202431E+00
         21   -1    0    0  501  502  0.00000000000E+00  0.00000000000E+00  0.44778455403E+02  0.44778455403E+02  0.00000000000E+00 0.  1.
          2   -1    0    0  502    0 -0.00000000000E+00 -0.00000000000E+00 -0.64421329670E+03  0.64421329670E+03  0.00000000000E+00 0. -1.
         23    2    1    2    0    0 -0.68511936402E+02  0.10796903193E+03 -0.33390371132E+03  0.36929010426E+03  0.92370424833E+02 0.  0.
         23    2    1    2    0    0  0.34218210076E+02 -0.98249733976E+02 -0.17147019782E+03  0.21911346079E+03  0.88231422008E+02 0.  0.
        -11    1    3    3    0    0 -0.14360528228E+02 -0.14613700611E+02 -0.75148493488E+02  0.77891469944E+02  0.00000000000E+00 0.  1.
         11    1    3    3    0    0 -0.54151408174E+02  0.12258273254E+03 -0.25875521783E+03  0.29139863431E+03  0.00000000000E+00 0. -1.
        -13    1    4    4    0    0 -0.77484294985E+01 -0.28000887641E+02 -0.11761881497E+03  0.12115392483E+03  0.00000000000E+00 0. -1.
         13    1    4    4    0    0  0.41966639575E+02 -0.70248846336E+02 -0.53851382853E+02  0.97959535952E+02  0.00000000000E+00 0.  1.
          2    1    1    2  501    0  0.34293726326E+02 -0.97192979521E+01 -0.94060932155E+02  0.10058818706E+03  0.00000000000E+00 0. -1.
<scales pt_clust_5="13000.00000" pt_clust_6="13000.00000" pt_clust_7="13000.00000" pt_clust_8="13000.00000" pt_clust_9="35.64443"></scales>
<clustering>
<clus scale="   35.644">  1  9  2 -1</clus>
<clus scale="   88.231">  7  8 -1 -1</clus>
<clus scale="   92.370">  5  6 -1 -1</clus>
<clus scale="  146.525">  1  7  2 -1</clus>
<clus scale="   35.644">  1  5  2 -1</clus>
</clustering>
</event>
<event>
 9    1  0.1504846E-005  0.1052464E+03  0.7546771E-02  0.1270316E+00
          2   -1    0    0  502    0 -0.00000000000E+00  0.00000000000E+00  0.62872550461E+03  0.62872550461E+03  0.00000000000E+00 0. -1.
         21   -1    0    0  501  502  0.00000000000E+00 -0.00000000000E+00 -0.26761740228E+02  0.26761740228E+02  0.00000000000E+00 0.  1.
         23    2    1    2    0    0 -0.30517952188E+02 -0.43006172817E+02  0.42287027652E+03  0.43590042701E+03  0.91700791689E+02 0.  0.
         23    2    1    2    0    0  0.98275043995E+01  0.41079414761E+02  0.16598313089E+03  0.19501674485E+03  0.93257883701E+02 0.  0.
        -13    1    4    4    0    0  0.49073112149E+02  0.39670357647E+02  0.10145656265E+03  0.11947946148E+03  0.00000000000E+00 0. -1.
         13    1    4    4    0    0 -0.39245607749E+02  0.14090571136E+01  0.64526568247E+02  0.75537283373E+02  0.00000000000E+00 0.  1.
        -13    1    3    3    0    0 -0.30628118325E+02  0.20005792592E+02  0.90581700094E+02  0.97690110868E+02  0.00000000000E+00 0.  1.
         13    1    3    3    0    0  0.11016613725E+00 -0.63011965409E+02  0.33228857642E+03  0.33821031614E+03  0.00000000000E+00 0. -1.
          2    1    1    2  501    0  0.20690447788E+02  0.19267580560E+01  0.13110356971E+02  0.24570072979E+02  0.00000000000E+00 0. -1.
<scales pt_clust_5="13000.00000" pt_clust_6="13000.00000" pt_clust_7="13000.00000" pt_clust_8="13000.00000" pt_clust_9="20.77997"></scales>
<clustering>
<clus scale="   20.780">  2  9  1 -1</clus>
<clus scale="   91.701">  7  8 -1 -1</clus>
<clus scale="   93.258">  5  6 -1 -1</clus>
<clus scale="  103.869">  1  7  2 -1</clus>
<clus scale="   20.780">  2  5  1 -1</clus>
</clustering>
</event>
<event>
 9    1  0.1504846E-005  0.9662121E+02  0.7546771E-02  0.1289666E+00
         21   -1    0    0  501  502  0.00000000000E+00  0.00000000000E+00  0.82446907090E+02  0.82446907090E+02  0.00000000000E+00 0. -1.
         -1   -1    0    0    0  501 -0.00000000000E+00 -0.00000000000E+00 -0.29390096087E+03  0.29390096087E+03  0.00000000000E+00 0.  1.
         23    2    1    2    0    0  0.29690920439E+02 -0.27101928099E+02 -0.11877433873E+03  0.15524302473E+03  0.91525886635E+02 0.  0.
         23    2    1    2    0    0 -0.25482977683E+02 -0.35179048014E+02  0.12747640569E+02  0.98583195831E+02  0.87573949263E+02 0.  0.
        -11    1    3    3    0    0 -0.22202800977E+01  0.32152463429E+02 -0.45418878341E+02  0.55691876050E+02  0.00000000000E+00 0.  1.
         11    1    3    3    0    0  0.31911200537E+02 -0.59254391528E+02 -0.73355460386E+02  0.99551148680E+02  0.00000000000E+00 0. -1.
        -13    1    4    4    0    0 -0.54784964224E+02 -0.50282352969E+01  0.13917424574E+01  0.55032830223E+02  0.00000000000E+00 0.  1.
         13    1    4    4    0    0  0.29301986541E+02 -0.30150812717E+02  0.11355898112E+02  0.43550365609E+02  0.00000000000E+00 0. -1.
         -1    1    1    2    0  502 -0.42079427561E+01  0.62280976112E+02 -0.10542735563E+03  0.12252164740E+03  0.00000000000E+00 0.  1.
<scales pt_clust_5="13000.00000" pt_clust_6="13000.00000" pt_clust_7="13000.00000" pt_clust_8="13000.00000" pt_clust_9="62.42300"></scales>
<clustering>
<clus scale="   62.423">  1  9  2 -1</clus>
<clus scale="   87.574">  7  8 -1 -1</clus>
<clus scale="   91.526">  5  6 -1 -1</clus>
<clus scale="   92.886">  1  7  2 -1</clus>
<clus scale="   62.423">  1  5  2 -1</clus>
</clustering>
</event>
<event>
 9    1  0.1504846E-005  0.1029597E+03  0.7546771E-02  0.1275549E+00
         -3   -1    0    0    0  501 -0.00000000000E+00  0.00000000000E+00  0.17322916815E+03  0.17322916815E+03  0.00000000000E+00 0.  1.
         21   -1    0    0  501  502  0.00000000000E+00 -0.00000000000E+00 -0.17568727156E+03  0.17568727156E+03  0.00000000000E+00 0. -1.
         23    2    1    2    0    0  0.25330859913E+02 -0.26131668584E+02  0.98947237822E+02  0.14030321088E+03  0.92573854538E+02 0.  0.
         23    2    1    2    0    0 -0.47009083649E+02  0.56708132312E+02 -0.18295463474E+02  0.11744241497E+03  0.89623270612E+02 0.  0.
        -11    1    3    3    0    0  0.23272021956E+02 -0.18834793969E+01  0.11080104302E+03  0.11323429531E+03  0.00000000000E+00 0.  1.
         11    1    3    3    0    0  0.20588379575E+01 -0.24248189187E+02 -0.11853805196E+02  0.27068915571E+02  0.00000000000E+00 0. -1.
        -11    1    4    4    0    0 -0.23802547273E+02  0.14965521140E+02 -0.51912681237E+02  0.59037738379E+02  0.00000000000E+00 0.  1.
         11    1    4    4    0    0 -0.23206536377E+02  0.41742611172E+02  0.33617217763E+02  0.58404676595E+02  0.00000000000E+00 0. -1.
         -3    1    1    2    0  502  0.21678223736E+02 -0.30576463728E+02 -0.83109877755E+02  0.91170813855E+02  0.00000000000E+00 0.  1.
<scales pt_clust_5="13000.00000" pt_clust_6="13000.00000" pt_clust_7="13000.00000" pt_clust_8="13000.00000" pt_clust_9="37.48154"></scales>
<clustering>
<clus scale="   37.482">  2  9  1 -1</clus>
<clus scale="   89.623">  7  8 -1 -1</clus>
<clus scale="   92.574">  5  6 -1 -1</clus>
<clus scale="  100.315">  2  7  1 -1</clus>
<clus scale="   37.482">  2  5  1 -1</clus>
</clustering>
</event>
<event>
 9    1  0.1504846E-005  0.1834769E+03  0.7546771E-02  0.1164604E+00
         21   -1    0    0  501  502  0.00000000000E+00  0.00000000000E+00  0.38828482020E+02  0.38828482020E+02  0.00000000000E+00 0. -1.
          1   -1    0    0  502    0 -0.00000000000E+00 -0.00000000000E+00 -0.12151714836E+04  0.12151714836E+04  0.00000000000E+00 0. -1.
         23    2    1    2    0    0  0.43690200511E+02  0.15672780535E+03 -0.73974317579E+03  0.76291854754E+03  0.91390948463E+02 0.  0.
         23    2    1    2    0    0 -0.35719133340E+00 -0.15628732921E+03 -0.36892975282E+03  0.41072482233E+03  0.90331945132E+02 0.  0.
        -11    1    3    3    0    0  0.35501902100E+02  0.97224768386E+02 -0.62392609754E+03  0.63245301472E+03  0.00000000000E+00 0. -1.
         11    1    3    3    0    0  0.81882984113E+01  0.59503036962E+02 -0.11581707825E+03  0.13046553282E+03  0.00000000000E+00 0.  1.
        -13    1    4    4    0    0  0.36927315255E+02 -0.32504911270E+02 -0.75941235750E+02  0.90483518697E+02  0.00000000000E+00 0. -1.
         13    1    4    4    0    0 -0.37284506588E+02 -0.12378241794E+03 -0.29298851707E+03  0.32024130364E+03  0.00000000000E+00 0.  1.
          1    1    1    2  501    0 -0.43333009177E+02 -0.44047614225E+00 -0.67670072961E+02  0.80356595735E+02  0.00000000000E+00 0. -1.
<scales pt_clust_5="13000.00000" pt_clust_6="13000.00000" pt_clust_7="13000.00000" pt_clust_8="13000.00000" pt_clust_9="43.33525"></scales>
<clustering>
<clus scale="   43.335">  1  9  2 -1</clus>
<clus scale="   90.332">  7  8 -1 -1</clus>
<clus scale="   91.391">  5  6 -1 -1</clus>
<clus scale="  182.952">  1  7  2 -1</clus>
<clus scale="   43.335">  1  5  2 -1</clus>
</clustering>
</event>
<event>
 9    1  0.1504846E-005  0.1497647E+03  0.7546771E-02  0.1201022E+00
         21   -1    0    0  501  502  0.00000000000E+00  0.00000000000E+00  0.48912376172E+03  0.48912376172E+03  0.00000000000E+00 0. -1.
         -1   -1    0    0    0  501 -0.00000000000E+00 -0.00000000000E+00 -0.15060694685E+03  0.15060694685E+03  0.00000000000E+00 0.  1.
         23    2    1    2    0    0 -0.87421426338E+02  0.70886783091E+02 -0.67146723847E+02  0.16029050890E+03  0.92287176366E+02 0.  0.
         23    2    1    2    0    0  0.12457581176E+03 -0.10679126654E+03  0.37514670849E+03  0.41943305663E+03  0.90914952653E+02 0.  0.
        -13    1    4    4    0    0  0.10025224878E+02 -0.59198660209E+02  0.16268369482E+03  0.17340983555E+03  0.00000000000E+00 0.  1.
         13    1    4    4    0    0  0.11455058688E+03 -0.47592606331E+02  0.21246301367E+03  0.24602322108E+03  0.00000000000E+00 0. -1.
        -13    1    3    3    0    0 -0.32880980792E+02 -0.20747803881E+02 -0.16476222075E+02  0.42226723264E+02  0.00000000000E+00 0. -1.
         13    1    3    3    0    0 -0.54540445546E+02  0.91634586973E+02 -0.50670501772E+02  0.11806378564E+03  0.00000000000E+00 0.  1.
         -1    1    1    2    0  502 -0.37154385424E+02  0.35904483449E+02  0.30516830230E+02  0.60007143035E+02  0.00000000000E+00 0.  1.
<scales pt_clust_5="13000.00000" pt_clust_6="13000.00000" pt_clust_7="13000.00000" pt_clust_8="13000.00000" pt_clust_9="51.66801"></scales>
<clustering>
<clus scale="   51.668">  1  9  2 -1</clus>
<clus scale="   90.915">  5  6 -1 -1</clus>
<clus scale="   92.287">  7  8 -1 -1</clus>
<clus scale="  148.923">  1  5  2 -1</clus>
<clus scale="   51.668">  1  5  2 -1</clus>
</clustering>
</event>
<event>
 9    1  0.1504846E-005  0.1022726E+03  0.7546771E-02  0.1278314E+00
         -3   -1    0    0    0  501 -0.00000000000E+00  0.00000000000E+00  0.34756594212E+02  0.34756594212E+02  0.00000000000E+00 0.  1.
         21   -1    0    0  501  502  0.00000000000E+00 -0.00000000000E+00 -0.51435690193E+03  0.51435690193E+03  0.00000000000E+00 0. -1.
         23    2    1    2    0    0 -0.30428512283E+01 -0.20641087524E+02 -0.14120671239E+03  0.17192242625E+03  0.95826257280E+02 0.  0.
         23    2    1    2    0    0 -0.15160928963E+02  0.49068147407E+02 -0.13150033051E+03  0.16756211585E+03  0.90261779771E+02 0.  0.
        -13    1    4    4    0    0 -0.25561420366E+02 -0.17679759875E+02 -0.68366430270E+02  0.75099460106E+02  0.00000000000E+00 0. -1.
         13    1    4    4    0    0  0.10400491403E+02  0.66747907282E+02 -0.63133900237E+02  0.92462655743E+02  0.00000000000E+00 0.  1.
        -13    1    3    3    0    0 -0.71434217214E+00  0.24275999048E+02 -0.59648659531E+00  0.24293830714E+02  0.00000000000E+00 0.  1.
         13    1    3    3    0    0 -0.23285090562E+01 -0.44917086572E+02 -0.14061022580E+03  0.14762859553E+03  0.00000000000E+00 0. -1.
         -3    1    1    2    0  502  0.18203780191E+02 -0.28427059883E+02 -0.20689326482E+03  0.20962895404E+03  0.00000000000E+00 0.  1.
<scales pt_clust_5="13000.00000" pt_clust_6="13000.00000" pt_clust_7="13000.00000" pt_clust_8="13000.00000" pt_clust_9="33.75612"></scales>
<clustering>
<clus scale="   33.756">  2  9  1 -1</clus>
<clus scale="   90.262">  5  6 -1 -1</clus>
<clus scale="   95.826">  7  8 -1 -1</clus>
<clus scale="   97.078">  2  5  1 -1</clus>
<clus scale="   33.756">  2  5  1 -1</clus>
</clustering>
</event>
<event>
 9    1  0.1504846E-005  0.1218605E+03  0.7546771E-02  0.1240597E+00
         -1   -1    0    0    0  501 -0.00000000000E+00  0.00000000000E+00  0.54360728606E+03  0.54360728606E+03  0.00000000000E+00 0.  1.
         21   -1    0    0  501  502  0.00000000000E+00 -0.00000000000E+00 -0.95548815272E+02  0.95548815272E+02  0.00000000000E+00 0.  1.
         23    2    1    2    0    0  0.90485834842E+02 -0.44163366130E+02  0.31592274338E+03  0.34396807590E+03  0.91480972012E+02 0.  0.
         23    2    1    2    0    0 -0.62751606664E+02  0.22988384379E+01  0.18955216440E+03  0.21890910745E+03  0.89711345429E+02 0.  0.
        -11    1    3    3    0    0  0.64525446449E+02 -0.56748787513E+02  0.29767921622E+03  0.30983362293E+03  0.00000000000E+00 0.  1.
         11    1    3    3    0    0  0.25960388393E+02  0.12585421384E+02  0.18243527157E+02  0.34134452977E+02  0.00000000000E+00 0. -1.
        -13    1    4    4    0    0  0.25182421590E+01 -0.32410464510E+02  0.36106649292E+02  0.48584667092E+02  0.00000000000E+00 0. -1.
         13    1    4    4    0    0 -0.65269848823E+02  0.34709302948E+02  0.15344551510E+03  0.17032444035E+03  0.00000000000E+00 0.  1.
         -1    1    1    2    0  502 -0.27734228178E+02  0.41864527692E+02 -0.57416436992E+02  0.76278917981E+02  0.00000000000E+00 0.  1.
<scales pt_clust_5="13000.00000" pt_clust_6="13000.00000" pt_clust_7="13000.00000" pt_clust_8="13000.00000" pt_clust_9="50.21779"></scales>
<clustering>
<clus scale="   50.218">  2  9  1 -1</clus>
<clus scale="   89.711">  7  8 -1 -1</clus>
<clus scale="   91.481">  5  6 -1 -1</clus>
<clus scale="  120.538">  2  7  1 -1</clus>
<clus scale="   50.218">  2  5  1 -1</clus>
</clustering>
</event>
<event>
 9    1  0.1504846E-005  0.1309227E+03  0.7546771E-02  0.1245293E+00
          3   -1    0    0  502    0 -0.00000000000E+00  0.00000000000E+00  0.17351225848E+03  0.17351225848E+03  0.00000000000E+00 0. -1.
         21   -1    0    0  501  502  0.00000000000E+00 -0.00000000000E+00 -0.19848678833E+03  0.19848678833E+03  0.00000000000E+00 0.  1.
         23    2    1    2    0    0 -0.29514114801E+01 -0.12767367830E+02  0.68731195389E+02  0.11197439735E+03  0.87421804668E+02 0.  0.
         23    2    1    2    0    0  0.92026674251E+02  0.32349725355E+02 -0.10334540779E+03  0.16831426487E+03  0.90188718489E+02 0.  0.
        -11    1    3    3    0    0 -0.52754105255E+01  0.29196315835E+02  0.62896972162E+02  0.69543395961E+02  0.00000000000E+00 0.  1.
         11    1    3    3    0    0  0.23239990454E+01 -0.41963683665E+02  0.58342232271E+01  0.42431001390E+02  0.00000000000E+00 0. -1.
        -13    1    4    4    0    0  0.30079654777E+01  0.24603929179E+02  0.75383162931E+01  0.25908056660E+02  0.00000000000E+00 0. -1.
         13    1    4    4    0    0  0.89018708773E+02  0.77457961764E+01 -0.11088372408E+03  0.14240620821E+03  0.00000000000E+00 0.  1.
          3    1    1    2  501    0 -0.89075262771E+02 -0.19582357525E+02  0.96396825450E+01  0.91710384600E+02  0.00000000000E+00 0. -1.
<scales pt_clust_5="13000.00000" pt_clust_6="13000.00000" pt_clust_7="13000.00000" pt_clust_8="13000.00000" pt_clust_9="94.90392"></scales>
<clustering>
<clus scale="   87.422">  5  6 -1 -1</clus>
<clus scale="   88.398">  1  5  2 -1</clus>
<clus scale="   90.189">  7  8 -1 -1</clus>
<clus scale="   94.904">  2  9  1 -1</clus>
<clus scale="   94.904">  2  5  1 -1</clus>
</clustering>
</event>
<event>
 9    1  0.1504846E-005  0.1067754E+03  0.7546771E-02  0.1267712E+00
          1   -1    0    0  502    0 -0.00000000000E+00  0.00000000000E+00  0.83141656159E+02  0.83141656159E+02  0.00000000000E+00 0. -1.
         21   -1    0    0  501  502  0.00000000000E+00 -0.00000000000E+00 -0.37827094586E+03  0.37827094586E+03  0.00000000000E+00 0. -1.
         23    2    1    2    0    0  0.43675322720E+02  0.17093929184E+02  0.15042848914E+02  0.10214591767E+03  0.89486116041E+02 0.  0.
         23    2    1    2    0    0 -0.77399674038E+02 -0.28206910316E+02 -0.14565267748E+03  0.19095898009E+03  0.92001577634E+02 0.  0.
        -11    1    3    3    0    0  0.60405393900E+02 -0.15678153251E+02  0.33272712441E-01  0.62406868281E+02  0.00000000000E+00 0.  1.
         11    1    3    3    0    0 -0.16730071180E+02  0.32772082435E+02  0.15009576202E+02  0.39739049392E+02  0.00000000000E+00 0. -1.
        -13    1    4    4    0    0 -0.24967927191E+02  0.26055698867E+02 -0.90695102341E+02  0.97610954408E+02  0.00000000000E+00 0.  1.
         13    1    4    4    0    0 -0.52431746847E+02 -0.54262609183E+02 -0.54957575142E+02  0.93348025680E+02  0.00000000000E+00 0. -1.
          1    1    1    2  501    0  0.33724351319E+02  0.11112981132E+02 -0.16451946113E+03  0.16830770426E+03  0.00000000000E+00 0. -1.
<scales pt_clust_5="13000.00000" pt_clust_6="13000.00000" pt_clust_7="13000.00000" pt_clust_8="13000.00000" pt_clust_9="35.50817"></scales>
<clustering>
<clus scale="   35.508">  2  9  1 -1</clus>
<clus scale="   89.486">  5  6 -1 -1</clus>
<clus scale="   92.002">  7  8 -1 -1</clus>
<clus scale="  104.616">  1  5  2 -1</clus>
<clus scale="   35.508">  2  5  1 -1</clus>
</clustering>
</event>
<event>
 9    1  0.1504846E-005  0.1161507E+03  0.7546771E-02  0.1252679E+00
         21   -1    0    0  501  502  0.00000000000E+00  0.00000000000E+00  0.39720923305E+03  0.39720923305E+03  0.00000000000E+00 0.  1.
          2   -1    0    0  502    0 -0.00000000000E+00 -0.00000000000E+00 -0.78840748871E+02  0.78840748871E+02  0.00000000000E+00 0. -1.
         23    2    1    2    0    0 -0.54682326015E+02  0.61113957375E+01  0.83810386010E+01  0.10662295169E+03  0.90943422433E+02 0.  0.
         23    2    1    2    0    0  0.73916632326E+02  0.13179002544E+02  0.10542724894E+03  0.16306096699E+03  0.99179733289E+02 0.  0.
        -11    1    3    3    0    0 -0.14550441006E+02  0.45978308444E+02  0.12761402818E+02  0.49885604965E+02  0.00000000000E+00 0. -1.
         11    1    3    3    0    0 -0.40131885009E+02 -0.39866912707E+02 -0.43803642175E+01  0.56737346729E+02  0.00000000000E+00 0.  1.
        -13    1    4    4    0    0  0.34308640174E+02 -0.42588685105E+02  0.58663874098E+02  0.80201801811E+02  0.00000000000E+00 0.  1.
         13    1    4    4    0    0  0.39607992151E+02  0.55767687649E+02  0.46763374838E+02  0.82859165179E+02  0.00000000000E+00 0. -1.
          2    1    1    2  501    0 -0.19234306310E+02 -0.19290398282E+02  0.20456019664E+03  0.20636606324E+03  0.00000000000E+00 0. -1.
<scales pt_clust_5="13000.00000" pt_clust_6="13000.00000" pt_clust_7="13000.00000" pt_clust_8="13000.00000" pt_clust_9="27.24111"></scales>
<clustering>
<clus scale="   27.241">  1  9  2 -1</clus>
<clus scale="   90.943">  5  6 -1 -1</clus>
<clus scale="   99.180">  7  8 -1 -1</clus>
<clus scale="  109.202">  2  5  1 -1</clus>
<clus scale="   27.241">  1  5  2 -1</clus>
</clustering>
</event>
<event>
 9    1  0.1504846E-005  0.1285582E+03  0.7546771E-02  0.1231555E+00
          1   -1    0    0  502    0 -0.00000000000E+00  0.00000000000E+00  0.51031636011E+03  0.51031636011E+03  0.00000000000E+00 0. -1.
         21   -1    0    0  501  502  0.00000000000E+00 -0.00000000000E+00 -0.10431719088E+03  0.10431719088E+03  0.00000000000E+00 0. -1.
         23    2    1    2    0    0  0.41046458079E+02 -0.45951382449E+01  0.13533629849E+03  0.17216184675E+03  0.98070692723E+02 0.  0.
         23    2    1    2    0    0 -0.12469230696E+03 -0.48314836047E+02  0.29854816280E+03  0.33964328925E+03  0.91345846264E+02 0.  0.
        -13    1    4    4    0    0 -0.11125190386E+03 -0.73407445233E+02  0.23946320706E+03  0.27405887445E+03  0.00000000000E+00 0. -1.
         13    1    4    4    0    0 -0.13440403100E+02  0.25092609186E+02  0.59084955734E+02  0.65584414806E+02  0.00000000000E+00 0.  1.
        -13    1    3    3    0    0 -0.26867823765E+02  0.19257532262E+02  0.56075770814E+02  0.65093967271E+02  0.00000000000E+00 0. -1.
         13    1    3    3    0    0  0.67914281843E+02 -0.23852670507E+02  0.79260527673E+02  0.10706787948E+03  0.00000000000E+00 0.  1.
          1    1    1    2  501    0  0.83645848884E+02  0.52909974292E+02 -0.27885292055E+02  0.10282841498E+03  0.00000000000E+00 0. -1.
<scales pt_clust_5="13000.00000" pt_clust_6="13000.00000" pt_clust_7="13000.00000" pt_clust_8="13000.00000" pt_clust_9="98.97522"></scales>
<clustering>
<clus scale="   91.346">  5  6 -1 -1</clus>
<clus scale="   98.071">  7  8 -1 -1</clus>
<clus scale="   98.975">  2  9  1 -1</clus>
<clus scale="  123.505">  2  5  1 -1</clus>
<clus scale="   98.975">  2  5  1 -1</clus>
</clustering>
</event>
<event>
 9    1  0.1504846E-005  0.2061972E+03  0.7546771E-02  0.1178749E+00
         21   -1    0    0  501  502  0.00000000000E+00  0.00000000000E+00  0.34060261645E+03  0.34060261645E+03  0.00000000000E+00 0. -1.
          2   -1    0    0  502    0 -0.00000000000E+00 -0.00000000000E+00 -0.21970951496E+03  0.21970951496E+03  0.00000000000E+00 0. -1.
         23    2    1    2    0    0  0.19423419657E+02 -0.70529969061E+01 -0.10444423334E+02  0.93934753352E+02  0.91036464738E+02 0.  0.
         23    2    1    2    0    0  0.29837850391E+02 -0.17380844734E+03 -0.50638531157E+02  0.20512497196E+03  0.91718698208E+02 0.  0.
        -11    1    4    4    0    0 -0.29489724655E+02 -0.28896229552E+02 -0.27471402929E+01  0.41378529727E+02  0.00000000000E+00 0.  1.
         11    1    4    4    0    0  0.59327575046E+02 -0.14491221778E+03 -0.47891390865E+02  0.16374644223E+03  0.00000000000E+00 0. -1.
        -13    1    3    3    0    0 -0.29332673557E+02  0.47596132102E+01  0.19469541526E+02  0.35526366309E+02  0.00000000000E+00 0.  1.
         13    1    3    3    0    0  0.48756093214E+02 -0.11812610116E+02 -0.29913964860E+02  0.58408387042E+02  0.00000000000E+00 0. -1.
          2    1    1    2  501    0 -0.49261270048E+02  0.18086144424E+03  0.18197605599E+03  0.26125240610E+03  0.00000000000E+00 0. -1.
<scales pt_clust_5="13000.00000" pt_clust_6="13000.00000" pt_clust_7="13000.00000" pt_clust_8="13000.00000" pt_clust_9="184.67532"></scales>
<clustering>
<clus scale="   91.036">  7  8 -1 -1</clus>
<clus scale="   91.719">  5  6 -1 -1</clus>
<clus scale="   93.352">  2  7  1 -1</clus>
<clus scale="  184.675">  1  9  2 -1</clus>
<clus scale="  184.675">  1  5  2 -1</clus>
</clustering>
</event>
<event>
 9    1  0.1504846E-005  0.1275645E+03  0.7546771E-02  0.1240953E+00
         21   -1    0    0  501  502  0.00000000000E+00  0.00000000000E+00  0.69233575744E+03  0.69233575744E+03  0.00000000000E+00 0.  1.
         -2   -1    0    0    0  501 -0.00000000000E+00 -0.00000000000E+00 -0.54823813488E+02  0.54823813488E+02  0.00000000000E+00 0.  1.
         23    2    1    2    0    0 -0.23657361947E+02  0.37551995366E+02  0.46281329248E+02  0.13323585012E+03  0.11679044134E+03 0.  0.
         23    2    1    2    0    0  0.33977154028E+02 -0.73466972498E+02  0.36810506696E+03  0.38769066897E+03  0.90834307608E+02 0.  0.
        -11    1    4    4    0    0 -0.29065596902E+02 -0.72019037700E+01  0.10209527612E+03  0.10639606077E+03  0.00000000000E+00 0. -1.
         11    1    4    4    0    0  0.63042750930E+02 -0.66265068728E+02  0.26600979084E+03  0.28129460820E+03  0.00000000000E+00 0.  1.
        -13    1    3    3    0    0 -0.59155543557E+02  0.46309920574E+02  0.57924365128E+02  0.94864214288E+02  0.00000000000E+00 0. -1.
         13    1    3    3    0    0  0.35498181610E+02 -0.87579252080E+01 -0.11643035880E+02  0.38371635827E+02  0.00000000000E+00 0.  1.
         -2    1    1    2    0  502 -0.10319792080E+02  0.35914977132E+02  0.22312554774E+03  0.22623305184E+03  0.00000000000E+00 0.  1.
<scales pt_clust_5="13000.00000" pt_clust_6="13000.00000" pt_clust_7="13000.00000" pt_clust_8="13000.00000" pt_clust_9="37.36822"></scales>
<clustering>
<clus scale="   37.368">  1  9  2 -1</clus>
<clus scale="   90.834">  5  6 -1 -1</clus>
<clus scale="  104.324">  1  5  2 -1</clus>
<clus scale="  116.790">  7  8 -1 -1</clus>
<clus scale="   37.368">  1  5  2 -1</clus>
</clustering>
</event>
<event>
 9    1  0.1504846E-005  0.9924001E+02  0.7546771E-02  0.1282301E+00
         21   -1    0    0  501  502  0.00000000000E+00  0.00000000000E+00  0.37935556275E+03  0.37935556275E+03  0.00000000000E+00 0.  1.
          3   -1    0    0  502    0 -0.00000000000E+00 -0.00000000000E+00 -0.73708699977E+02  0.73708699977E+02  0.00000000000E+00 0. -1.
         23    2    1    2    0    0  0.25790432083E+00  0.36133367324E+02 -0.96403187642E+01  0.99396845863E+02  0.92092944750E+02 0.  0.
         23    2    1    2    0    0 -0.49263317632E+02 -0.22738144718E+02  0.18778168778E+03  0.21641358828E+03  0.92892309895E+02 0.  0.
        -11    1    4    4    0    0 -0.64017881944E+02  0.83874905935E+00  0.17393581816E+03  0.18534471006E+03  0.00000000000E+00 0.  1.
         11    1    4    4    0    0  0.14754564312E+02 -0.23576893778E+02  0.13845869618E+02  0.31068878218E+02  0.00000000000E+00 0. -1.
        -13    1    3    3    0    0 -0.43623127570E+02  0.15040339110E+02 -0.18852125043E+02  0.49845678631E+02  0.00000000000E+00 0. -1.
         13    1    3    3    0    0  0.43881031891E+02  0.21093028214E+02  0.92118062789E+01  0.49551167232E+02  0.00000000000E+00 0.  1.
          3    1    1    2  501    0  0.49005413311E+02 -0.13395222606E+02  0.12750549376E+03  0.13725382858E+03  0.00000000000E+00 0. -1.
<scales pt_clust_5="13000.00000" pt_clust_6="13000.00000" pt_clust_7="13000.00000" pt_clust_8="13000.00000" pt_clust_9="50.80317"></scales>
<clustering>
<clus scale="   50.803">  1  9  2 -1</clus>
<clus scale="   92.093">  7  8 -1 -1</clus>
<clus scale="   92.892">  5  6 -1 -1</clus>
<clus scale="   98.492">  2  7  1 -1</clus>
<clus scale="   50.803">  1  5  2 -1</clus>
</clustering>
</event>
<event>
 9    1  0.1504846E-005  0.9197675E+02  0.7546771E-02  0.1298236E+00
          2   -1    0    0  502    0 -0.00000000000E+00  0.00000000000E+00  0.31226321021E+03  0.31226321021E+03  0.00000000000E+00 0. -1.
         21   -1    0    0  501  502  0.00000000000E+00 -0.00000000000E+00 -0.53164235449E+02  0.53164235449E+02  0.00000000000E+00 0.  1.
         23    2    1    2    0    0  0.16635487606E+02  0.70034423418E+01  0.22100645329E+03  0.23963374450E+03  0.90855332570E+02 0.  0.
         23    2    1    2    0    0 -0.50752479412E+01  0.17587365201E+02  0.26324972945E+02  0.96182518222E+02  0.90680753496E+02 0.  0.
        -11    1    3    3    0    0 -0.16703435332E+02  0.38310017901E+02  0.66873623557E+02  0.78859011858E+02  0.00000000000E+00 0.  1.
         11    1    3    3    0    0  0.33338922938E+02 -0.31306575560E+02  0.15413282973E+03  0.16077473264E+03  0.00000000000E+00 0. -1.
        -11    1    4    4    0    0 -0.11994955505E+02 -0.32289244392E+02 -0.78472199020E+01  0.35327795306E+02  0.00000000000E+00 0. -1.
         11    1    4    4    0    0  0.69197075636E+01  0.49876609593E+02  0.34172192847E+02  0.60854722916E+02  0.00000000000E+00 0.  1.
          2    1    1    2  501    0 -0.11560239665E+02 -0.24590807542E+02  0.11767548533E+02  0.29611182941E+02  0.00000000000E+00 0. -1.
<scales pt_clust_5="13000.00000" pt_clust_6="13000.00000" pt_clust_7="13000.00000" pt_clust_8="13000.00000" pt_clust_9="27.17254"></scales>
<clustering>
<clus scale="   27.173">  2  9  1 -1</clus>
<clus scale="   90.681">  7  8 -1 -1</clus>
<clus scale="   90.855">  5  6 -1 -1</clus>
<clus scale="   91.804">  2  7  1 -1</clus>
<clus scale="   27.173">  2  5  1 -1</clus>
</clustering>
</event>
<event>
 9    1  0.1504846E-005  0.1102207E+03  0.7546771E-02  0.1260306E+00
         21   -1    0    0  501  502  0.00000000000E+00  0.00000000000E+00  0.13766334055E+03  0.13766334055E+03  0.00000000000E+00 0. -1.
         -1   -1    0    0    0  501 -0.00000000000E+00 -0.00000000000E+00 -0.22810416379E+03  0.22810416379E+03  0.00000000000E+00 0.  1.
         23    2    1    2    0    0 -0.54470757747E+02 -0.21237885536E+02 -0.15803590120E+03  0.19214530957E+03  0.92338305653E+02 0.  0.
         23    2    1    2    0    0  0.75052875657E+02 -0.10037148939E+02  0.35488185023E+02  0.12430075994E+03  0.91965151781E+02 0.  0.
        -13    1    3    3    0    0 -0.16163361782E+02  0.33672670011E+02 -0.30974205895E+02  0.48523235677E+02  0.00000000000E+00 0. -1.
         13    1    3    3    0    0 -0.38307395965E+02 -0.54910555547E+02 -0.12706169531E+03  0.14362207390E+03  0.00000000000E+00 0.  1.
        -13    1    4    4    0    0  0.10367109722E+02 -0.41545676093E+02  0.29710578279E+02  0.52117546255E+02  0.00000000000E+00 0.  1.
         13    1    4    4    0    0  0.64685765936E+02  0.31508527154E+02  0.57776067446E+01  0.72183213684E+02  0.00000000000E+00 0. -1.
         -1    1    1    2    0  502 -0.20582117911E+02  0.31275034475E+02  0.32106892934E+02  0.49321434823E+02  0.00000000000E+00 0.  1.
<scales pt_clust_5="13000.00000" pt_clust_6="13000.00000" pt_clust_7="13000.00000" pt_clust_8="13000.00000" pt_clust_9="37.43997"></scales>
<clustering>
<clus scale="   37.440">  1  9  2 -1</clus>
<clus scale="   91.965">  7  8 -1 -1</clus>
<clus scale="   92.338">  5  6 -1 -1</clus>
<clus scale="  109.908">  1  7  2 -1</clus>
<clus scale="   37.440">  1  5  2 -1</clus>
</clustering>
</event>
<event>
 9    1  0.1504846E-005  0.1386078E+03  0.7546771E-02  0.1225218E+00
          1   -1    0    0  502    0 -0.00000000000E+00  0.00000000000E+00  0.82854042242E+03  0.82854042242E+03  0.00000000000E+00 0. -1.
         21   -1    0    0  501  502  0.00000000000E+00 -0.00000000000E+00 -0.27969338473E+02  0.27969338473E+02  0.00000000000E+00 0.  1.
         23    2    1    2    0    0  0.30273749277E+01 -0.70013228450E+02  0.56175870935E+03  0.57943922329E+03  0.12355544826E+03 0.  0.
         23    2    1    2    0    0 -0.16666084531E+02  0.51476811017E+02  0.22685716888E+03  0.25113715922E+03  0.93156197976E+02 0.  0.
        -11    1    4    4    0    0  0.24429248885E+02  0.13664417690E+02  0.16678379229E+03  0.16911634423E+03  0.00000000000E+00 0. -1.
         11    1    4    4    0    0 -0.41095333416E+02  0.37812393327E+02  0.60073376587E+02  0.82020814994E+02  0.00000000000E+00 0.  1.
        -13    1    3    3    0    0 -0.14298244561E+02  0.33151329390E+02  0.18137659037E+03  0.18493490199E+03  0.00000000000E+00 0.  1.
         13    1    3    3    0    0  0.17325619488E+02 -0.10316455784E+03  0.38038211898E+03  0.39450432130E+03  0.00000000000E+00 0. -1.
          1    1    1    2  501    0  0.13638709604E+02  0.18536417434E+02  0.11955205712E+02  0.25933378387E+02  0.00000000000E+00 0. -1.
<scales pt_clust_5="13000.00000" pt_clust_6="13000.00000" pt_clust_7="13000.00000" pt_clust_8="13000.00000" pt_clust_9="23.01333"></scales>
<clustering>
<clus scale="   23.013">  2  9  1 -1</clus>
<clus scale="   93.156">  5  6 -1 -1</clus>
<clus scale="  112.358">  2  5  1 -1</clus>
<clus scale="  123.555">  7  8 -1 -1</clus>
<clus scale="   23.013">  2  5  1 -1</clus>
</clustering>
</event>
<event>
 9    1  0.1504846E-005  0.1441459E+03  0.7546771E-02  0.1208028E+00
         21   -1    0    0  501  502  0.00000000000E+00  0.00000000000E+00  0.43687150243E+03  0.43687150243E+03  0.00000000000E+00 0. -1.
          2   -1    0    0  502    0 -0.00000000000E+00 -0.00000000000E+00 -0.94437993154E+02  0.94437993154E+02  0.00000000000E+00 0. -1.
         23    2    1    2    0    0 -0.11802148519E+03 -0.66547112614E+01  0.62742283140E+01  0.14884363803E+03  0.90231405254E+02 0.  0.
         23    2    1    2    0    0  0.86201006717E+02  0.44376024400E+02  0.24106886128E+03  0.27533216430E+03  0.91070081356E+02 0.  0.
        -13    1    4    4    0    0  0.95680192374E+02  0.96282042920E+01  0.18844075922E+03  0.21155926183E+03  0.00000000000E+00 0. -1.
         13    1    4    4    0    0 -0.94791856565E+01  0.34747820108E+02  0.52628102067E+02  0.63772902476E+02  0.00000000000E+00 0.  1.
        -13    1    3    3    0    0 -0.69976203930E+01 -0.28583763789E+02  0.18897388634E+02  0.34972983011E+02  0.00000000000E+00 0.  1.
         13    1    3    3    0    0 -0.11102386479E+03  0.21929052528E+02 -0.12623160320E+02  0.11387065502E+03  0.00000000000E+00 0. -1.
          2    1    1    2  501    0  0.31820478469E+02 -0.37721313139E+02  0.95090419676E+02  0.10713369325E+03  0.00000000000E+00 0. -1.
<scales pt_clust_5="13000.00000" pt_clust_6="13000.00000" pt_clust_7="13000.00000" pt_clust_8="13000.00000" pt_clust_9="49.35018"></scales>
<clustering>
<clus scale="   49.350">  1  9  2 -1</clus>
<clus scale="   90.231">  7  8 -1 -1</clus>
<clus scale="   91.070">  5  6 -1 -1</clus>
<clus scale="  143.617">  2  7  1 -1</clus>
<clus scale="   49.350">  1  5  2 -1</clus>
</clustering>
</event>
<event>
 9    1  0.1504846E-005  0.1216764E+03  0.7546771E-02  0.1241367E+00
         21   -1    0    0  501  502  0.00000000000E+00  0.00000000000E+00  0.77310351126E+02  0.77310351126E+02  0.00000000000E+00 0. -1.
          1   -1    0    0  502    0 -0.00000000000E+00 -0.00000000000E+00 -0.75477728750E+03  0.75477728750E+03  0.00000000000E+00 0. -1.
         23    2    1    2    0    0 -0.64642325823E+02  0.57752343857E+02 -0.54257439910E+03  0.55701552412E+03  0.91462298443E+02 0.  0.
         23    2    1    2    0    0  0.72437504861E+02 -0.12516697537E+02 -0.17819777240E+03  0.21196607752E+03  0.88155045812E+02 0.  0.
        -11    1    4    4    0    0 -0.71027271413E+01  0.22019776311E+02 -0.16280872753E+02  0.28291095759E+02  0.00000000000E+00 0. -1.
         11    1    4    4    0    0  0.79540232003E+02 -0.34536473848E+02 -0.16191689965E+03  0.18367498176E+03  0.00000000000E+00 0.  1.
        -11    1    3    3    0    0 -0.22715307854E+02 -0.24330730741E+02 -0.12197314958E+03  0.12643345636E+03  0.00000000000E+00 0.  1.
         11    1    3    3    0    0 -0.41927017969E+02  0.82083074599E+02 -0.42060124953E+03  0.43058206776E+03  0.00000000000E+00 0. -1.
          1    1    1    2  501    0 -0.77951790382E+01 -0.45235646320E+02  0.43305235134E+02  0.63106036987E+02  0.00000000000E+00 0. -1.
<scales pt_clust_5="13000.00000" pt_clust_6="13000.00000" pt_clust_7="13000.00000" pt_clust_8="13000.00000" pt_clust_9="45.90238"></scales>
<clustering>
<clus scale="   45.902">  1  9  2 -1</clus>
<clus scale="   88.155">  5  6 -1 -1</clus>
<clus scale="   91.462">  7  8 -1 -1</clus>
<clus scale="  119.210">  1  5  2 -1</clus>
<clus scale="   45.902">  1  5  2 -1</clus>
</clustering>
</event>
<event>
 9    1  0.1504846E-005  0.1225898E+03  0.7546771E-02  0.1249092E+00
         -3   -1    0    0    0  501 -0.00000000000E+00  0.00000000000E+00  0.42228713797E+03  0.42228713797E+03  0.00000000000E+00 0.  1.
         21   -1    0    0  501  502  0.00000000000E+00 -0.00000000000E+00 -0.44555002301E+02  0.44555002301E+02  0.00000000000E+00 0.  1.
         23    2    1    2    0    0 -0.26981518930E+02  0.37866668006E+01  0.23570992054E+03  0.26424894803E+03  0.11630132709E+03 0.  0.
         23    2    1    2    0    0  0.49340663096E+02 -0.24920625480E+02  0.13230130177E+03  0.17032754962E+03  0.91936397047E+02 0.  0.
        -13    1    3    3    0    0 -0.60727491414E+02 -0.35477782333E+01  0.60959522950E+02  0.86118978060E+02  0.00000000000E+00 0. -1.
         13    1    3    3    0    0  0.33745972484E+02  0.73344450339E+01  0.17475039759E+03  0.17812996997E+03  0.00000000000E+00 0.  1.
        -13    1    4    4    0    0  0.67920882782E+02 -0.50276619997E+01  0.12466549709E+03  0.14205636159E+03  0.00000000000E+00 0.  1.
         13    1    4    4    0    0 -0.18580219686E+02 -0.19892963481E+02  0.76358046729E+01  0.28271188030E+02  0.00000000000E+00 0. -1.
         -3    1    1    2    0  502 -0.22359144166E+02  0.21133958680E+02  0.97209133662E+01  0.32265642625E+02  0.00000000000E+00 0.  1.
<scales pt_clust_5="13000.00000" pt_clust_6="13000.00000" pt_clust_7="13000.00000" pt_clust_8="13000.00000" pt_clust_9="30.76647"></scales>
<clustering>
<clus scale="   30.766">  2  9  1 -1</clus>
<clus scale="   91.936">  7  8 -1 -1</clus>
<clus scale="   99.773">  2  7  1 -1</clus>
<clus scale="  116.301">  5  6 -1 -1</clus>
<clus scale="   30.766">  2  5  1 -1</clus>
</clustering>
</event>
<event>
 9    1  0.1504846E-005  0.1059025E+03  0.7546771E-02  0.1273245E+00
          3   -1    0    0  502    0 -0.00000000000E+00  0.00000000000E+00  0.11526874466E+03  0.11526874466E+03  0.00000000000E+00 0. -1.
         21   -1    0    0  501  502  0.00000000000E+00 -0.00000000000E+00 -0.18422614691E+03  0.18422614691E+03  0.00000000000E+00 0.  1.
         23    2    1    2    0    0 -0.36795500026E+02  0.22590174667E+02  0.20682362302E+02  0.11218109073E+03  0.10145251201E+03 0.  0.
         23    2    1    2    0    0  0.13450728408E+02 -0.11385158677E+02  0.92018854319E+00  0.93124439172E+02  0.91437248927E+02 0.  0.
        -11    1    4    4    0    0 -0.39372926801E+02 -0.24887676778E+01 -0.17506544923E+01  0.39490329456E+02  0.00000000000E+00 0. -1.
         11    1    4    4    0    0  0.52823655209E+02 -0.88963909990E+01  0.26708430355E+01  0.53634109715E+02  0.00000000000E+00 0.  1.
        -11    1    3    3    0    0 -0.57311080604E+02  0.13644542151E+02 -0.22884599123E+02  0.63201569344E+02  0.00000000000E+00 0.  1.
         11    1    3    3    0    0  0.20515580578E+02  0.89456325159E+01  0.43566961425E+02  0.48979521387E+02  0.00000000000E+00 0. -1.
          3    1    1    2  501    0  0.23344771618E+02 -0.11205015990E+02 -0.90559953100E+02  0.94189361664E+02  0.00000000000E+00 0. -1.
<scales pt_clust_5="13000.00000" pt_clust_6="13000.00000" pt_clust_7="13000.00000" pt_clust_8="13000.00000" pt_clust_9="25.89461"></scales>
<clustering>
<clus scale="   25.895">  2  9  1 -1</clus>
<clus scale="   91.437">  5  6 -1 -1</clus>
<clus scale="   96.351">  2  5  1 -1</clus>
<clus scale="  101.453">  7  8 -1 -1</clus>
<clus scale="   25.895">  2  5  1 -1</clus>
</clustering>
</event>
<event>
 9    1  0.1504846E-005  0.9998865E+02  0.7546771E-02  0.1280683E+00
         21   -1    0    0  501  502  0.00000000000E+00  0.00000000000E+00  0.34058928330E+03  0.34058928330E+03  0.00000000000E+00 0. -1.
          1   -1    0    0  502    0 -0.00000000000E+00 -0.00000000000E+00 -0.82759727068E+02  0.82759727068E+02  0.00000000000E+00 0. -1.
         23    2    1    2    0    0 -0.49365301151E+02 -0.13590148881E+02 -0.44787080961E+01  0.10480749132E+03  0.91339620676E+02 0.  0.
         23    2    1    2    0    0  0.20911233115E+02  0.12513406023E+02  0.53882203792E+02  0.10817941202E+03  0.90584923137E+02 0.  0.
        -11    1    4    4    0    0  0.46836341593E+02  0.34270245871E+02  0.23211688505E+02  0.62505000833E+02  0.00000000000E+00 0.  1.
         11    1    4    4    0    0 -0.25925108477E+02 -0.21756839848E+02  0.30670515287E+02  0.45674411191E+02  0.00000000000E+00 0. -1.
        -11    1    3    3    0    0  0.11118530043E+02 -0.26594160439E+02 -0.26484214595E+02  0.39144408317E+02  0.00000000000E+00 0.  1.
         11    1    3    3    0    0 -0.60483831194E+02  0.13004011558E+02  0.22005506499E+02  0.65663082998E+02  0.00000000000E+00 0. -1.
          1    1    1    2  501    0  0.28454068036E+02  0.10767428575E+01  0.20842606054E+03  0.21036210703E+03  0.00000000000E+00 0. -1.
<scales pt_clust_5="13000.00000" pt_clust_6="13000.00000" pt_clust_7="13000.00000" pt_clust_8="13000.00000" pt_clust_9="28.47443"></scales>
<clustering>
<clus scale="   28.474">  1  9  2 -1</clus>
<clus scale="   90.585">  5  6 -1 -1</clus>
<clus scale="   91.340">  7  8 -1 -1</clus>
<clus scale="   99.300">  1  5  2 -1</clus>
<clus scale="   28.474">  1  5  2 -1</clus>
</clustering>
</event>
<event>
 9    1  0.1504846E-005  0.1258436E+03  0.7546771E-02  0.1234676E+00
          2   -1    0    0  502    0 -0.00000000000E+00  0.00000000000E+00  0.66137243054E+03  0.66137243054E+03  0.00000000000E+00 0. -1.
         21   -1    0    0  501  502  0.00000000000E+00 -0.00000000000E+00 -0.61693093495E+02  0.61693093495E+02  0.00000000000E+00 0.  1.
         23    2    1    2    0    0 -0.77263164298E+02  0.20919766972E+02  0.49871411013E+03  0.51386184748E+03  0.94503975824E+02 0.  0.
         23    2    1    2    0    0  0.89160688535E+02 -0.57504816949E+02  0.58033048031E+02  0.15155656953E+03  0.91351665285E+02 0.  0.
        -11    1    4    4    0    0  0.92142391225E+01  0.22502245219E+02  0.22163063332E+02  0.32900678089E+02  0.00000000000E+00 0. -1.
         11    1    4    4    0    0  0.79946449413E+02 -0.80007062168E+02  0.35869984699E+02  0.11865589144E+03  0.00000000000E+00 0.  1.
        -13    1    3    3    0    0 -0.10490988542E+02 -0.35049456521E+02  0.13675978850E+03  0.14156894078E+03  0.00000000000E+00 0.  1.
         13    1    3    3    0    0 -0.66772175755E+02  0.55969223493E+02  0.36195432163E+03  0.37229290670E+03  0.00000000000E+00 0. -1.
          2    1    1    2  501    0 -0.11897524238E+02  0.36585049977E+02  0.42932178883E+02  0.57647107026E+02  0.00000000000E+00 0. -1.
<scales pt_clust_5="13000.00000" pt_clust_6="13000.00000" pt_clust_7="13000.00000" pt_clust_8="13000.00000" pt_clust_9="38.47099"></scales>
<clustering>
<clus scale="   38.471">  2  9  1 -1</clus>
<clus scale="   91.352">  5  6 -1 -1</clus>
<clus scale="   94.504">  7  8 -1 -1</clus>
<clus scale="  123.494">  2  5  1 -1</clus>
<clus scale="   38.471">  2  5  1 -1</clus>
</clustering>
</event>
<event>
 9    1  0.1504846E-005  0.1090000E+03  0.7546771E-02  0.1264654E+00
         21   -1    0    0  501  502  0.00000000000E+00  0.00000000000E+00  0.91018772289E+02  0.91018772289E+02  0.00000000000E+00 0. -1.
          1   -1    0    0  502    0 -0.00000000000E+00 -0.00000000000E+00 -0.33543939216E+03  0.33543939216E+03  0.00000000000E+00 0. -1.
         23    2    1    2    0    0 -0.51279887510E+02 -0.45888593822E+02 -0.18963980621E+03  0.22216915333E+03  0.93061735891E+02 0.  0.
         23    2    1    2    0    0  0.19482321175E+02  0.40083408261E+02 -0.10547514768E+03  0.14416662838E+03  0.87594346312E+02 0.  0.
        -11    1    4    4    0    0  0.41761421970E+02 -0.47655004559E+01 -0.73745350850E+02  0.84882878907E+02  0.00000000000E+00 0.  1.
         11    1    4    4    0    0 -0.22279100795E+02  0.44848908716E+02 -0.31729796826E+02  0.59283749476E+02  0.00000000000E+00 0. -1.
        -11    1    3    3    0    0 -0.41176762578E+02 -0.52142456488E+01 -0.17574039377E+02  0.45072840981E+02  0.00000000000E+00 0.  1.
         11    1    3    3    0    0 -0.10103124932E+02 -0.40674348173E+02 -0.17206576683E+03  0.17709631235E+03  0.00000000000E+00 0. -1.
          1    1    1    2  501    0  0.31797566336E+02  0.58051855613E+01  0.50694334016E+02  0.60122382734E+02  0.00000000000E+00 0. -1.
<scales pt_clust_5="13000.00000" pt_clust_6="13000.00000" pt_clust_7="13000.00000" pt_clust_8="13000.00000" pt_clust_9="32.32314"></scales>
<clustering>
<clus scale="   32.323">  1  9  2 -1</clus>
<clus scale="   87.594">  5  6 -1 -1</clus>
<clus scale="   93.062">  7  8 -1 -1</clus>
<clus scale="  104.371">  1  5  2 -1</clus>
<clus scale="   32.323">  1  5  2 -1</clus>
</clustering>
</event>
<event>
 9    1  0.1504846E-005  0.1105007E+03  0.7546771E-02  0.1259776E+00
          2   -1    0    0  502    0 -0.00000000000E+00  0.00000000000E+00  0.82002626360E+02  0.82002626360E+02  0.00000000000E+00 0. -1.
         21   -1    0    0  501  502  0.00000000000E+00 -0.00000000000E+00 -0.25508860990E+03  0.25508860990E+03  0.00000000000E+00 0. -1.
         23    2    1    2    0    0 -0.49239181169E+02 -0.17489969507E+01 -0.35144700513E+02  0.10929286486E+03  0.91006727128E+02 0.  0.
         23    2    1    2    0    0  0.86963244748E+02  0.31552541344E+02 -0.11972591002E+03  0.17638673804E+03  0.90663217577E+02 0.  0.
        -11    1    4    4    0    0  0.47338074422E+02 -0.47706255473E+01 -0.27573593525E+01  0.47657687614E+02  0.00000000000E+00 0.  1.
         11    1    4    4    0    0  0.39625170326E+02  0.36323166891E+02 -0.11696855067E+03  0.12872905042E+03  0.00000000000E+00 0. -1.
        -13    1    3    3    0    0 -0.50515070890E+02 -0.29667316251E+02  0.67095128109E+01  0.58965579814E+02  0.00000000000E+00 0.  1.
         13    1    3    3    0    0  0.12758897215E+01  0.27918319300E+02 -0.41854213324E+02  0.50327285046E+02  0.00000000000E+00 0. -1.
          2    1    1    2  501    0 -0.37724063579E+02 -0.29803544393E+02 -0.18215372999E+02  0.51411633361E+02  0.00000000000E+00 0. -1.
<scales pt_clust_5="13000.00000" pt_clust_6="13000.00000" pt_clust_7="13000.00000" pt_clust_8="13000.00000" pt_clust_9="48.07659"></scales>
<clustering>
<clus scale="   48.077">  2  9  1 -1</clus>
<clus scale="   90.663">  5  6 -1 -1</clus>
<clus scale="   91.007">  7  8 -1 -1</clus>
<clus scale="  110.218">  2  5  1 -1</clus>
<clus scale="   48.077">  2  5  1 -1</clus>
</clustering>
</event>
<event>
 9    1  0.1504846E-005  0.2412376E+03  0.7546771E-02  0.1134632E+00
         21   -1    0    0  501  502  0.00000000000E+00  0.00000000000E+00  0.65040447791E+03  0.65040447791E+03  0.00000000000E+00 0. -1.
          1   -1    0    0  502    0 -0.00000000000E+00 -0.00000000000E+00 -0.23020805350E+03  0.23020805350E+03  0.00000000000E+00 0. -1.
         23    2    1    2    0    0  0.13544473039E+03  0.11305257702E+02 -0.73273976595E+02  0.17948036371E+03  0.91493395771E+02 0.  0.
         23    2    1    2    0    0 -0.88250157220E+02 -0.22440345244E+03  0.36720478662E+03  0.44897909175E+03  0.92724698929E+02 0.  0.
        -11    1    4    4    0    0 -0.49044403637E+02 -0.67156798684E+02  0.63104067029E+02  0.10439115103E+03  0.00000000000E+00 0.  1.
         11    1    4    4    0    0 -0.39205753583E+02 -0.15724665376E+03  0.30410071959E+03  0.34458794072E+03  0.00000000000E+00 0. -1.
        -13    1    3    3    0    0  0.12383388072E+03  0.38539402503E+02 -0.75012937986E+02  0.14982341748E+03  0.00000000000E+00 0. -1.
         13    1    3    3    0    0  0.11610849670E+02 -0.27234144801E+02  0.17389613911E+01  0.29656946232E+02  0.00000000000E+00 0.  1.
          1    1    1    2  501    0 -0.47194573171E+02  0.21309819474E+03  0.12626561438E+03  0.25215307596E+03  0.00000000000E+00 0. -1.
<scales pt_clust_5="13000.00000" pt_clust_6="13000.00000" pt_clust_7="13000.00000" pt_clust_8="13000.00000" pt_clust_9="222.70549"></scales>
<clustering>
<clus scale="   91.493">  7  8 -1 -1</clus>
<clus scale="   92.725">  5  6 -1 -1</clus>
<clus scale="  163.842">  2  7  1 -1</clus>
<clus scale="  222.705">  1  9  2 -1</clus>
<clus scale="  222.705">  1  5  2 -1</clus>
</clustering>
</event>
<event>
 9    1  0.1504846E-005  0.9413226E+02  0.7546771E-02  0.1294535E+00
         21   -1    0    0  501  502  0.00000000000E+00  0.00000000000E+00  0.13364225526E+03  0.13364225526E+03  0.00000000000E+00 0.  1.
          1   -1    0    0  502    0 -0.00000000000E+00 -0.00000000000E+00 -0.26945885950E+03  0.26945885950E+03  0.00000000000E+00 0. -1.
         23    2    1    2    0    0 -0.51388453151E+00  0.13757459474E+02 -0.20339886876E+03  0.22425140898E+03  0.93424102070E+02 0.  0.
         23    2    1    2    0    0  0.18950182726E+02  0.11226628452E+01 -0.13903744310E+02  0.93989321824E+02  0.90996201646E+02 0.  0.
        -11    1    3    3    0    0 -0.40103204583E+02  0.23569963463E+01 -0.15764370133E+03  0.16268177224E+03  0.00000000000E+00 0. -1.
         11    1    3    3    0    0  0.39589320051E+02  0.11400463128E+02 -0.45755167425E+02  0.61569636736E+02  0.00000000000E+00 0.  1.
        -13    1    4    4    0    0 -0.92038694125E+01 -0.40998438725E+02 -0.27274554943E+01  0.42107270198E+02  0.00000000000E+00 0. -1.
         13    1    4    4    0    0  0.28154052138E+02  0.42121101570E+02 -0.11176288816E+02  0.51882051626E+02  0.00000000000E+00 0.  1.
          1    1    1    2  501    0 -0.18436298194E+02 -0.14880122319E+02  0.81486008822E+02  0.84860383956E+02  0.00000000000E+00 0. -1.
<scales pt_clust_5="13000.00000" pt_clust_6="13000.00000" pt_clust_7="13000.00000" pt_clust_8="13000.00000" pt_clust_9="23.69209"></scales>
<clustering>
<clus scale="   23.692">  1  9  2 -1</clus>
<clus scale="   90.996">  7  8 -1 -1</clus>
<clus scale="   91.723">  1  7  2 -1</clus>
<clus scale="   93.424">  5  6 -1 -1</clus>
<clus scale="   23.692">  1  5  2 -1</clus>
</clustering>
</event>
<event>
 9    1  0.1504846E-005  0.1160150E+03  0.7546771E-02  0.1249849E+00
          1   -1    0    0  502    0 -0.00000000000E+00  0.00000000000E+00  0.85875333224E+03  0.85875333224E+03  0.00000000000E+00 0. -1.
         21   -1    0    0  501  502  0.00000000000E+00 -0.00000000000E+00 -0.33421277469E+02  0.33421277469E+02  0.00000000000E+00 0. -1.
         23    2    1    2    0    0 -0.41537534798E+02 -0.57068948188E+02  0.41605939437E+03  0.43184321888E+03  0.91656502238E+02 0.  0.
         23    2    1    2    0    0  0.90460177862E+02  0.54409970948E+01  0.32738784169E+03  0.35186944417E+03  0.91742349141E+02 0.  0.
        -11    1    3    3    0    0  0.14049384656E+02 -0.57122619074E+02  0.24572742188E+03  0.25267042701E+03  0.00000000000E+00 0. -1.
         11    1    3    3    0    0 -0.55586919455E+02  0.53670885963E-01  0.17033197249E+03  0.17917279187E+03  0.00000000000E+00 0.  1.
        -13    1    4    4    0    0  0.40728662897E+02 -0.35640913592E+02  0.22033358054E+03  0.22688319774E+03  0.00000000000E+00 0. -1.
         13    1    4    4    0    0  0.49731514965E+02  0.41081910687E+02  0.10705426115E+03  0.12498624643E+03  0.00000000000E+00 0.  1.
          1    1    1    2  501    0 -0.48922643064E+02  0.51627951093E+02  0.81884818715E+02  0.10846194667E+03  0.00000000000E+00 0. -1.
<scales pt_clust_5="13000.00000" pt_clust_6="13000.00000" pt_clust_7="13000.00000" pt_clust_8="13000.00000" pt_clust_9="71.12574"></scales>
<clustering>
<clus scale="   71.126">  2  9  1 -1</clus>
<clus scale="   91.657">  5  6 -1 -1</clus>
<clus scale="   91.742">  7  8 -1 -1</clus>
<clus scale="  115.947">  1  5  2 -1</clus>
<clus scale="   71.126">  2  5  1 -1</clus>
</clustering>
</event>
<event>
 9    1  0.1504846E-005  0.9538323E+02  0.7546771E-02  0.1292998E+00
         21   -1    0    0  501  502  0.00000000000E+00  0.00000000000E+00  0.74695757417E+02  0.74695757417E+02  0.00000000000E+00 0.  1.
          1   -1    0    0  502    0 -0.00000000000E+00 -0.00000000000E+00 -0.34709616770E+03  0.34709616770E+03  0.00000000000E+00 0. -1.
         23    2    1    2    0    0  0.15003155765E+02 -0.11605553088E+01 -0.20892571541E+03  0.22895469649E+03  0.92432986060E+02 0.  0.
         23    2    1    2    0    0 -0.39052866899E+02 -0.95574944782E+01 -0.10571181781E+03  0.14306535152E+03  0.87614121402E+02 0.  0.
        -11    1    3    3    0    0 -0.14092984215E+02 -0.41457863691E+02 -0.91232459720E+02  0.10119648399E+03  0.00000000000E+00 0.  1.
         11    1    3    3    0    0  0.29096139980E+02  0.40297308383E+02 -0.11769325569E+03  0.12775821249E+03  0.00000000000E+00 0. -1.
        -13    1    4    4    0    0 -0.75041337296E+01 -0.46907853877E+02 -0.51535615954E+02  0.70089788772E+02  0.00000000000E+00 0.  1.
         13    1    4    4    0    0 -0.31548733169E+02  0.37350359398E+02 -0.54176201854E+02  0.72975562753E+02  0.00000000000E+00 0. -1.
          1    1    1    2  501    0  0.24049711133E+02  0.10718049787E+02  0.42237122935E+02  0.49771877106E+02  0.00000000000E+00 0. -1.
<scales pt_clust_5="13000.00000" pt_clust_6="13000.00000" pt_clust_7="13000.00000" pt_clust_8="13000.00000" pt_clust_9="26.32993"></scales>
<clustering>
<clus scale="   26.330">  1  9  2 -1</clus>
<clus scale="   87.614">  7  8 -1 -1</clus>
<clus scale="   90.721">  1  7  2 -1</clus>
<clus scale="   92.433">  5  6 -1 -1</clus>
<clus scale="   26.330">  1  5  2 -1</clus>
</clustering>
</event>
<event>
 9    1  0.1504846E-005  0.1043481E+03  0.7546771E-02  0.1272532E+00
         21   -1    0    0  501  502  0.00000000000E+00  0.00000000000E+00  0.61472129012E+03  0.61472129012E+03  0.00000000000E+00 0. -1.
          2   -1    0    0  502    0 -0.00000000000E+00 -0.00000000000E+00 -0.62084477864E+02  0.62084477864E+02  0.00000000000E+00 0. -1.
         23    2    1    2    0    0 -0.19909904287E+02 -0.35861616150E+02  0.19934068530E+02  0.10457636568E+03  0.94108391596E+02 0.  0.
         23    2    1    2    0    0  0.93611879450E+02  0.17754844775E+02  0.36336929083E+03  0.38666632790E+03  0.91625264681E+02 0.  0.
        -11    1    4    4    0    0  0.48472595044E+02 -0.29850616164E+02  0.24301329216E+03  0.24959189074E+03  0.00000000000E+00 0.  1.
         11    1    4    4    0    0  0.45139284406E+02  0.47605460939E+02  0.12035599867E+03  0.13707443716E+03  0.00000000000E+00 0. -1.
        -13    1    3    3    0    0 -0.48762767713E+02 -0.28904037851E+02 -0.15098115146E+02  0.58661776312E+02  0.00000000000E+00 0.  1.
         13    1    3    3    0    0  0.28852863425E+02 -0.69575782981E+01  0.35032183676E+02  0.45914589367E+02  0.00000000000E+00 0. -1.
          2    1    1    2  501    0 -0.73701975162E+02  0.18106771374E+02  0.16933345289E+03  0.18556307440E+03  0.00000000000E+00 0. -1.
<scales pt_clust_5="13000.00000" pt_clust_6="13000.00000" pt_clust_7="13000.00000" pt_clust_8="13000.00000" pt_clust_9="75.89359"></scales>
<clustering>
<clus scale="   75.894">  1  9  2 -1</clus>
<clus scale="   91.625">  5  6 -1 -1</clus>
<clus scale="   94.108">  7  8 -1 -1</clus>
<clus scale="  102.114">  1  5  2 -1</clus>
<clus scale="   75.894">  1  5  2 -1</clus>
</clustering>
</event>
<event>
 9    1  0.1504846E-005  0.1041272E+03  0.7546771E-02  0.1273280E+00
         -3   -1    0    0    0  501 -0.00000000000E+00  0.00000000000E+00  0.51385352080E+03  0.51385352080E+03  0.00000000000E+00 0.  1.
         21   -1    0    0  501  502  0.00000000000E+00 -0.00000000000E+00 -0.16370852007E+03  0.16370852007E+03  0.00000000000E+00 0. -1.
         23    2    1    2    0    0 -0.67665082905E+01  0.51167668559E+02  0.47191997248E+03  0.48273133703E+03  0.87505242048E+02 0.  0.
         23    2    1    2    0    0 -0.27025161190E+02 -0.45175667304E+02 -0.52073597476E+02  0.11713860269E+03  0.90766692313E+02 0.  0.
        -11    1    4    4    0    0  0.30866325524E+02 -0.21649726823E+02 -0.37069646375E+02  0.52873428159E+02  0.00000000000E+00 0. -1.
         11    1    4    4    0    0 -0.57891486714E+02 -0.23525940481E+02 -0.15003951101E+02  0.64265174536E+02  0.00000000000E+00 0.  1.
        -13    1    3    3    0    0 -0.46065498716E+02  0.31638279922E+02  0.30855313729E+03  0.31357303688E+03  0.00000000000E+00 0.  1.
         13    1    3    3    0    0  0.39298990426E+02  0.19529388637E+02  0.16336683519E+03  0.16915830015E+03  0.00000000000E+00 0. -1.
         -3    1    1    2    0  502  0.33791669481E+02 -0.59920012546E+01 -0.69701374271E+02  0.77692101146E+02  0.00000000000E+00 0.  1.
<scales pt_clust_5="13000.00000" pt_clust_6="13000.00000" pt_clust_7="13000.00000" pt_clust_8="13000.00000" pt_clust_9="34.31881"></scales>
<clustering>
<clus scale="   34.319">  2  9  1 -1</clus>
<clus scale="   87.505">  7  8 -1 -1</clus>
<clus scale="   90.767">  5  6 -1 -1</clus>
<clus scale="  101.297">  1  7  2 -1</clus>
<clus scale="   34.319">  2  5  1 -1</clus>
</clustering>
</event>
<event>
 9    1  0.1504846E-005  0.9768427E+02  0.7546771E-02  0.1285507E+00
          1   -1    0    0  502    0 -0.00000000000E+00  0.00000000000E+00  0.27872781338E+03  0.27872781338E+03  0.00000000000E+00 0. -1.
         21   -1    0    0  501  502  0.00000000000E+00 -0.00000000000E+00 -0.12890456468E+03  0.12890456468E+03  0.00000000000E+00 0. -1.
         23    2    1    2    0    0  0.19543805699E+02  0.39587205964E+02  0.19403293742E+03  0.21871711000E+03  0.90770513866E+02 0.  0.
         23    2    1    2    0    0 -0.18914028974E+02 -0.10613789645E+01  0.35988210292E+02  0.99941457478E+02  0.91292259395E+02 0.  0.
        -11    1    4    4    0    0  0.12007504564E+02  0.38859956096E+02  0.26548683642E+02  0.48570659423E+02  0.00000000000E+00 0. -1.
         11    1    4    4    0    0 -0.30921533538E+02 -0.39921335061E+02  0.94395266495E+01  0.51370798055E+02  0.00000000000E+00 0.  1.
        -13    1    3    3    0    0  0.21546876317E+02  0.60291628023E+02  0.18549157854E+03  0.19623066528E+03  0.00000000000E+00 0. -1.
         13    1    3    3    0    0 -0.20030706180E+01 -0.20704422059E+02  0.85413588834E+01  0.22486444723E+02  0.00000000000E+00 0.  1.
          1    1    1    2  501    0 -0.62977672515E+00 -0.38525827000E+02 -0.80197899001E+02  0.88973810579E+02  0.00000000000E+00 0. -1.
<scales pt_clust_5="13000.00000" pt_clust_6="13000.00000" pt_clust_7="13000.00000" pt_clust_8="13000.00000" pt_clust_9="38.53097"></scales>
<clustering>
<clus scale="   38.531">  2  9  1 -1</clus>
<clus scale="   90.771">  7  8 -1 -1</clus>
<clus scale="   91.292">  5  6 -1 -1</clus>
<clus scale="   97.197">  1  7  2 -1</clus>
<clus scale="   38.531">  2  5  1 -1</clus>
</clustering>
</event>
<event>
 9    1  0.1504846E-005  0.1555951E+03  0.7546771E-02  0.1193827E+00
         21   -1    0    0  501  502  0.00000000000E+00  0.00000000000E+00  0.63065021043E+02  0.63065021043E+02  0.00000000000E+00 0. -1.
          2   -1    0    0  502    0 -0.00000000000E+00 -0.00000000000E+00 -0.64054895676E+03  0.64054895676E+03  0.00000000000E+00 0. -1.
         23    2    1    2    0    0  0.11057571611E+03  0.47491484677E+02 -0.34186566417E+03  0.37391968023E+03  0.91985677207E+02 0.  0.
         23    2    1    2    0    0 -0.14424368077E+03  0.12582637570E+00 -0.16179384734E+03  0.23561461982E+03  0.92362030966E+02 0.  0.
        -11    1    3    3    0    0  0.28201561355E+02 -0.26386673330E+02 -0.62896218232E+02  0.73807308989E+02  0.00000000000E+00 0.  1.
         11    1    3    3    0    0  0.82374154758E+02  0.73878158007E+02 -0.27896944594E+03  0.30011237124E+03  0.00000000000E+00 0. -1.
        -13    1    4    4    0    0 -0.84104305318E+02 -0.12784803224E+02 -0.15078531435E+03  0.17312768811E+03  0.00000000000E+00 0.  1.
         13    1    4    4    0    0 -0.60139375453E+02  0.12910629600E+02 -0.11008532986E+02  0.62486931714E+02  0.00000000000E+00 0. -1.
          2    1    1    2  501    0  0.33667964657E+02 -0.47617311053E+02 -0.73824424208E+02  0.94079677751E+02  0.00000000000E+00 0. -1.
<scales pt_clust_5="13000.00000" pt_clust_6="13000.00000" pt_clust_7="13000.00000" pt_clust_8="13000.00000" pt_clust_9="58.31758"></scales>
<clustering>
<clus scale="   58.318">  1  9  2 -1</clus>
<clus scale="   91.986">  5  6 -1 -1</clus>
<clus scale="   92.362">  7  8 -1 -1</clus>
<clus scale="  155.372">  2  5  1 -1</clus>
<clus scale="   58.318">  1  5  2 -1</clus>
</clustering>
</event>
<event>
 9    1  0.1618731E-005  0.9874513E+02  0.7546771E-02  0.1284446E+00
          1   -1    0    0  502    0 -0.00000000000E+00  0.00000000000E+00  0.47924385123E+03  0.47924385123E+03  0.00000000000E+00 0. -1.
         21   -1    0    0  501  502  0.00000000000E+00 -0.00000000000E+00 -0.41235507776E+02  0.41235507776E+02  0.00000000000E+00 0.  1.
         23    2    1    2    0    0 -0.28958917504E+02  0.21473771295E+02  0.32429524285E+03  0.33762859963E+03  0.86752089299E+02 0.  0.
         23    2    1    2    0    0  0.52598247599E+02 -0.36892051370E+02  0.69679359168E+02  0.13054864017E+03  0.89778256013E+02 0.  0.
        -13    1    4    4    0    0  0.69095108862E+02 -0.53122741796E+02  0.52765769208E+02  0.10188418015E+03  0.00000000000E+00 0.  1.
         13    1    4    4    0    0 -0.16496861262E+02  0.16230690427E+02  0.16913589960E+02  0.28664460026E+02  0.00000000000E+00 0. -1.
        -13    1    3    3    0    0  0.18491508017E+02 -0.76380843251E+01  0.20021891626E+02  0.28304634694E+02  0.00000000000E+00 0.  1.
         13    1    3    3    0    0 -0.47450425521E+02  0.29111855620E+02  0.30427335122E+03  0.30932396494E+03  0.00000000000E+00 0. -1.
          1    1    1    2  501    0 -0.23639330095E+02  0.15418280075E+02  0.44033741440E+02  0.52302119201E+02  0.00000000000E+00 0. -1.
<scales pt_clust_5="13000.00000" pt_clust_6="13000.00000" pt_clust_7="13000.00000" pt_clust_8="13000.00000" pt_clust_9="28.22308"></scales>
<clustering>
<clus scale="   28.223">  2  9  1 -1</clus>
<clus scale="   86.752">  7  8 -1 -1</clus>
<clus scale="   89.778">  5  6 -1 -1</clus>
<clus scale="   96.002">  1  7  2 -1</clus>
<clus scale="   28.223">  2  5  1 -1</clus>
</clustering>
</event>
<event>
 9    1  0.1504846E-005  0.2784173E+03  0.7546771E-02  0.1096642E+00
         21   -1    0    0  501  502  0.00000000000E+00  0.00000000000E+00  0.38182175407E+03  0.38182175407E+03  0.00000000000E+00 0.  1.
          2   -1    0    0  502    0 -0.00000000000E+00 -0.00000000000E+00 -0.70226938670E+03  0.70226938670E+03  0.00000000000E+00 0. -1.
         23    2    1    2    0    0  0.27348522460E+03  0.15237786685E+03 -0.49278774837E+03  0.59088636025E+03  0.91069991799E+02 0.  0.
         23    2    1    2    0    0 -0.15713939240E+03 -0.98899614279E+02 -0.69995477842E+02  0.21911936301E+03  0.92951632489E+02 0.  0.
        -11    1    3    3    0    0  0.16551964665E+03  0.12443916560E+03 -0.25693423401E+03  0.32999554538E+03  0.00000000000E+00 0.  1.
         11    1    3    3    0    0  0.10796557796E+03  0.27938701248E+02 -0.23585351436E+03  0.26089081488E+03  0.00000000000E+00 0. -1.
        -13    1    4    4    0    0 -0.63486744581E+02 -0.10778685117E+02  0.13503107460E+02  0.65795749874E+02  0.00000000000E+00 0. -1.
         13    1    4    4    0    0 -0.93652647815E+02 -0.88120929162E+02 -0.83498585302E+02  0.15332361314E+03  0.00000000000E+00 0.  1.
          2    1    1    2  501    0 -0.11634583221E+03 -0.53478252569E+02  0.24233559359E+03  0.27408541751E+03  0.00000000000E+00 0. -1.
<scales pt_clust_5="13000.00000" pt_clust_6="13000.00000" pt_clust_7="13000.00000" pt_clust_8="13000.00000" pt_clust_9="128.04794"></scales>
<clustering>
<clus scale="   91.070">  5  6 -1 -1</clus>
<clus scale="   92.952">  7  8 -1 -1</clus>
<clus scale="  128.048">  1  9  2 -1</clus>
<clus scale="  277.795">  2  5  1 -1</clus>
<clus scale="  128.048">  1  5  2 -1</clus>
</clustering>
</event>
<event>
 9    1  0.1504846E-005  0.1674399E+03  0.7546771E-02  0.1180631E+00
         21   -1    0    0  501  502  0.00000000000E+00  0.00000000000E+00  0.19172574569E+03  0.19172574569E+03  0.00000000000E+00 0. -1.
         -3   -1    0    0    0  501 -0.00000000000E+00 -0.00000000000E+00 -0.47611262162E+03  0.47611262162E+03  0.00000000000E+00 0.  1.
         23    2    1    2    0    0  0.12948254380E+03  0.71861157427E+02 -0.30250001953E+03  0.34876251587E+03  0.90549851250E+02 0.  0.
         23    2    1    2    0    0 -0.11100942640E+03 -0.61663778377E+02 -0.10878106248E+03  0.19043922311E+03  0.91149678177E+02 0.  0.
        -11    1    3    3    0    0  0.53065337229E+02  0.79053550822E+02 -0.19074459658E+03  0.21318746454E+03  0.00000000000E+00 0.  1.
         11    1    3    3    0    0  0.76417206573E+02 -0.71923933957E+01 -0.11175542295E+03  0.13557505133E+03  0.00000000000E+00 0. -1.
        -13    1    4    4    0    0 -0.85816819196E+01  0.21673193453E+02 -0.24337351332E+02  0.33699840487E+02  0.00000000000E+00 0.  1.
         13    1    4    4    0    0 -0.10242774448E+03 -0.83336971830E+02 -0.84443711152E+02  0.15673938263E+03  0.00000000000E+00 0. -1.
         -3    1    1    2    0  502 -0.18473117403E+02 -0.10197379050E+02  0.12689420610E+03  0.12863662833E+03  0.00000000000E+00 0.  1.
<scales pt_clust_5="13000.00000" pt_clust_6="13000.00000" pt_clust_7="13000.00000" pt_clust_8="13000.00000" pt_clust_9="21.10077"></scales>
<clustering>
<clus scale="   21.101">  1  9  2 -1</clus>
<clus scale="   90.550">  5  6 -1 -1</clus>
<clus scale="   91.150">  7  8 -1 -1</clus>
<clus scale="  167.114">  2  5  1 -1</clus>
<clus scale="   21.101">  1  5  2 -1</clus>
</clustering>
</event>
<event>
 9    1  0.1504846E-005  0.9964774E+02  0.7546771E-02  0.1281363E+00
         21   -1    0    0  501  502  0.00000000000E+00  0.00000000000E+00  0.85653584672E+02  0.85653584672E+02  0.00000000000E+00 0.  1.
          2   -1    0    0  502    0 -0.00000000000E+00 -0.00000000000E+00 -0.31712679325E+03  0.31712679325E+03  0.00000000000E+00 0. -1.
         23    2    1    2    0    0  0.32914557729E+02  0.85231486816E+01 -0.23749264251E+03  0.25710935647E+03  0.92447032216E+02 0.  0.
         23    2    1    2    0    0 -0.60230418150E+02 -0.35661362136E+01  0.24212196882E+02  0.11247908226E+03  0.91787215183E+02 0.  0.
        -11    1    3    3    0    0  0.19745242859E+01 -0.30335083585E+02 -0.26435086009E+02  0.40285603068E+02  0.00000000000E+00 0.  1.
         11    1    3    3    0    0  0.30940033443E+02  0.38858232267E+02 -0.21105755650E+03  0.21682375340E+03  0.00000000000E+00 0. -1.
        -13    1    4    4    0    0  0.18269190837E+02  0.13690023545E+02  0.22549017292E+02  0.32087976866E+02  0.00000000000E+00 0. -1.
         13    1    4    4    0    0 -0.78499608987E+02 -0.17256159759E+02  0.16631795901E+01  0.80391105398E+02  0.00000000000E+00 0.  1.
          2    1    1    2  501    0  0.27315860421E+02 -0.49570124680E+01 -0.18192762953E+02  0.33191939188E+02  0.00000000000E+00 0. -1.
<scales pt_clust_5="13000.00000" pt_clust_6="13000.00000" pt_clust_7="13000.00000" pt_clust_8="13000.00000" pt_clust_9="27.76199"></scales>
<clustering>
<clus scale="   27.762">  1  9  2 -1</clus>
<clus scale="   91.787">  7  8 -1 -1</clus>
<clus scale="   92.447">  5  6 -1 -1</clus>
<clus scale="   99.036">  1  7  2 -1</clus>
<clus scale="   27.762">  1  5  2 -1</clus>
</clustering>
</event>
<event>
 9    1  0.1504846E-005  0.9549190E+02  0.7546771E-02  0.1290925E+00
         21   -1    0    0  501  502  0.00000000000E+00  0.00000000000E+00  0.17536167478E+03  0.17536167478E+03  0.00000000000E+00 0.  1.
          3   -1    0    0  502    0 -0.00000000000E+00 -0.00000000000E+00 -0.14581312304E+03  0.14581312304E+03  0.00000000000E+00 0. -1.
         23    2    1    2    0    0 -0.25520466500E+02  0.37918208658E+02 -0.51773412789E+02  0.11417792467E+03  0.90923195348E+02 0.  0.
         23    2    1    2    0    0  0.28902767519E+01 -0.11506754374E+02 -0.26313653977E+02  0.93881371225E+02  0.89333892681E+02 0.  0.
        -11    1    4    4    0    0  0.68269596068E+01 -0.32913536958E+02 -0.50929790604E+02  0.61022552090E+02  0.00000000000E+00 0. -1.
         11    1    4    4    0    0 -0.39366828549E+01  0.21406782584E+02  0.24616136627E+02  0.32858819135E+02  0.00000000000E+00 0.  1.
        -11    1    3    3    0    0 -0.11066069476E+02  0.62160054936E+02 -0.10240322776E+02  0.63962446278E+02  0.00000000000E+00 0.  1.
         11    1    3    3    0    0 -0.14454397023E+02 -0.24241846278E+02 -0.41533090013E+02  0.50215478394E+02  0.00000000000E+00 0. -1.
          3    1    1    2  501    0  0.22630189748E+02 -0.26411454284E+02  0.10763561850E+03  0.11311550193E+03  0.00000000000E+00 0. -1.
<scales pt_clust_5="13000.00000" pt_clust_6="13000.00000" pt_clust_7="13000.00000" pt_clust_8="13000.00000" pt_clust_9="34.78060"></scales>
<clustering>
<clus scale="   34.781">  1  9  2 -1</clus>
<clus scale="   89.334">  5  6 -1 -1</clus>
<clus scale="   90.923">  7  8 -1 -1</clus>
<clus scale="   93.980">  1  5  2 -1</clus>
<clus scale="   34.781">  1  5  2 -1</clus>
</clustering>
</event>
<event>
 9    1  0.1504846E-005  0.1073295E+03  0.7546771E-02  0.1267515E+00
         21   -1    0    0  501  502  0.00000000000E+00  0.00000000000E+00  0.75347690013E+02  0.75347690013E+02  0.00000000000E+00 0.  1.
         -2   -1    0    0    0  501 -0.00000000000E+00 -0.00000000000E+00 -0.25076635630E+03  0.25076635630E+03  0.00000000000E+00 0.  1.
         23    2    1    2    0    0  0.57271415297E+02 -0.35307644930E+01 -0.10572576819E+03  0.14985816261E+03  0.89370294461E+02 0.  0.
         23    2    1    2    0    0 -0.39764902157E+02 -0.39713235185E+02 -0.69448673718E+02  0.12960203975E+03  0.93889200299E+02 0.  0.
        -11    1    3    3    0    0  0.41543956919E+02  0.38151913776E+02 -0.35350705113E+02  0.66566817809E+02  0.00000000000E+00 0. -1.
         11    1    3    3    0    0  0.15727458378E+02 -0.41682678269E+02 -0.70375063080E+02  0.83291344798E+02  0.00000000000E+00 0.  1.
        -11    1    4    4    0    0 -0.26838547170E+02 -0.56625165206E+02 -0.63202355350E+01  0.62981444300E+02  0.00000000000E+00 0.  1.
         11    1    4    4    0    0 -0.12926354987E+02  0.16911930021E+02 -0.63128438183E+02  0.66620595447E+02  0.00000000000E+00 0. -1.
         -2    1    1    2    0  502 -0.17506513140E+02  0.43243999678E+02 -0.24422437424E+00  0.46653843958E+02  0.00000000000E+00 0.  1.
<scales pt_clust_5="13000.00000" pt_clust_6="13000.00000" pt_clust_7="13000.00000" pt_clust_8="13000.00000" pt_clust_9="46.65320"></scales>
<clustering>
<clus scale="   46.653">  1  9  2 -1</clus>
<clus scale="   89.370">  5  6 -1 -1</clus>
<clus scale="   93.889">  7  8 -1 -1</clus>
<clus scale="  103.400">  2  5  1 -1</clus>
<clus scale="   46.653">  1  5  2 -1</clus>
</clustering>
</event>
<event>
 9    1  0.1504846E-005  0.1056030E+03  0.7546771E-02  0.1269976E+00
          2   -1    0    0  502    0 -0.00000000000E+00  0.00000000000E+00  0.10110392692E+03  0.10110392692E+03  0.00000000000E+00 0. -1.
         21   -1    0    0  501  502  0.00000000000E+00 -0.00000000000E+00 -0.61222175697E+03  0.61222175697E+03  0.00000000000E+00 0. -1.
         23    2    1    2    0    0  0.19244476670E+02 -0.80070829866E+02  0.19044178824E+02  0.12200124503E+03  0.87976902449E+02 0.  0.
         23    2    1    2    0    0  0.25228764307E+02  0.13394024479E+02 -0.55391544596E+02  0.10983647506E+03  0.90443007474E+02 0.  0.
        -11    1    3    3    0    0  0.27068313901E+02 -0.53937593139E+02  0.51689097472E+02  0.79458922523E+02  0.00000000000E+00 0. -1.
         11    1    3    3    0    0 -0.78238372308E+01 -0.26133236727E+02 -0.32644918649E+02  0.42542322509E+02  0.00000000000E+00 0.  1.
        -13    1    4    4    0    0 -0.22342361280E+02  0.29457748612E+02 -0.45557841554E+02  0.58672455104E+02  0.00000000000E+00 0.  1.
         13    1    4    4    0    0  0.47571125587E+02 -0.16063724134E+02 -0.98337030419E+01  0.51164019957E+02  0.00000000000E+00 0. -1.
          2    1    1    2  501    0 -0.44473240977E+02  0.66676805387E+02 -0.47477046428E+03  0.48148796380E+03  0.00000000000E+00 0. -1.
<scales pt_clust_5="13000.00000" pt_clust_6="13000.00000" pt_clust_7="13000.00000" pt_clust_8="13000.00000" pt_clust_9="80.14777"></scales>
<clustering>
<clus scale="   80.148">  2  9  1 -1</clus>
<clus scale="   87.977">  5  6 -1 -1</clus>
<clus scale="   90.443">  7  8 -1 -1</clus>
<clus scale="  103.499">  1  5  2 -1</clus>
<clus scale="   80.148">  2  5  1 -1</clus>
</clustering>
</event>
<event>
 9    1  0.1504846E-005  0.2401293E+03  0.7546771E-02  0.1119848E+00
          1   -1    0    0  502    0 -0.00000000000E+00  0.00000000000E+00  0.10895761391E+04  0.10895761391E+04  0.00000000000E+00 0. -1.
         21   -1    0    0  501  502  0.00000000000E+00 -0.00000000000E+00 -0.28941915146E+03  0.28941915146E+03  0.00000000000E+00 0. -1.
         23    2    1    2    0    0  0.23072401075E+03 -0.20504883035E+02  0.84853268170E+03  0.88451068755E+03  0.93259986701E+02 0.  0.
         23    2    1    2    0    0 -0.19268038747E+03 -0.75804486149E+01  0.16895745137E+03  0.27206653002E+03  0.91051531916E+02 0.  0.
        -11    1    3    3    0    0  0.11440035906E+03  0.66214101852E+01  0.57069256169E+03  0.58208357235E+03  0.00000000000E+00 0. -1.
         11    1    3    3    0    0  0.11632365169E+03 -0.27126293220E+02  0.27784012000E+03  0.30242711520E+03  0.00000000000E+00 0.  1.
        -13    1    4    4    0    0 -0.62636814916E+02  0.31435122110E+02  0.25576684520E+02  0.74603647873E+02  0.00000000000E+00 0. -1.
         13    1    4    4    0    0 -0.13004357256E+03 -0.39015570724E+02  0.14338076685E+03  0.19746288215E+03  0.00000000000E+00 0.  1.
          1    1    1    2  501    0 -0.38043623277E+02  0.28085331650E+02 -0.21733314539E+03  0.22241807303E+03  0.00000000000E+00 0. -1.
<scales pt_clust_5="13000.00000" pt_clust_6="13000.00000" pt_clust_7="13000.00000" pt_clust_8="13000.00000" pt_clust_9="47.28745"></scales>
<clustering>
<clus scale="   47.287">  2  9  1 -1</clus>
<clus scale="   91.052">  7  8 -1 -1</clus>
<clus scale="   93.260">  5  6 -1 -1</clus>
<clus scale="  239.280">  2  7  1 -1</clus>
<clus scale="   47.287">  2  5  1 -1</clus>
</clustering>
</event>
<event>
 9    1  0.1504846E-005  0.9605870E+02  0.7546771E-02  0.1288901E+00
         21   -1    0    0  501  502  0.00000000000E+00  0.00000000000E+00  0.41713194073E+03  0.41713194073E+03  0.00000000000E+00 0. -1.
          4   -1    0    0  502    0 -0.00000000000E+00 -0.00000000000E+00 -0.41037423988E+02  0.41037423988E+02  0.00000000000E+00 0. -1.
         23    2    1    2    0    0 -0.20212343113E+02 -0.27216498770E+02  0.52618559264E+02  0.11152053519E+03  0.92297564269E+02 0.  0.
         23    2    1    2    0    0  0.11624550706E+02 -0.62126989998E+00  0.21230247444E+03  0.23172174450E+03  0.92125512568E+02 0.  0.
        -13    1    3    3    0    0  0.25802004507E+02  0.97191688157E+01  0.43949654405E+02  0.51882345758E+02  0.00000000000E+00 0.  1.
         13    1    3    3    0    0 -0.46014347620E+02 -0.36935667585E+02  0.86689048592E+01  0.59638189429E+02  0.00000000000E+00 0. -1.
        -13    1    4    4    0    0  0.10068421132E+02  0.43945289292E+02  0.76629704635E+02  0.88908229020E+02  0.00000000000E+00 0.  1.
         13    1    4    4    0    0  0.15561295745E+01 -0.44566559192E+02  0.13567276981E+03  0.14281351548E+03  0.00000000000E+00 0. -1.
          4    1    1    2  501    0  0.85877924066E+01  0.27837768670E+02  0.11117348304E+03  0.11492708503E+03  0.00000000000E+00 0. -1.
<scales pt_clust_5="13000.00000" pt_clust_6="13000.00000" pt_clust_7="13000.00000" pt_clust_8="13000.00000" pt_clust_9="29.13231"></scales>
<clustering>
<clus scale="   29.132">  1  9  2 -1</clus>
<clus scale="   92.126">  7  8 -1 -1</clus>
<clus scale="   92.298">  5  6 -1 -1</clus>
<clus scale="   95.893">  1  7  2 -1</clus>
<clus scale="   29.132">  1  5  2 -1</clus>
</clustering>
</event>
<event>
 9    1  0.1504846E-005  0.9650806E+02  0.7546771E-02  0.1287987E+00
         21   -1    0    0  501  502  0.00000000000E+00  0.00000000000E+00  0.78610982791E+02  0.78610982791E+02  0.00000000000E+00 0. -1.
         -4   -1    0    0    0  501 -0.00000000000E+00 -0.00000000000E+00 -0.31203445319E+03  0.31203445319E+03  0.00000000000E+00 0.  1.
         23    2    1    2    0    0 -0.32833868880E+02  0.12182703215E+02 -0.23810694611E+03  0.25751140408E+03  0.91600896511E+02 0.  0.
         23    2    1    2    0    0  0.97783515476E+01 -0.11588855298E+02 -0.24714617299E+02  0.95768842116E+02  0.91273989098E+02 0.  0.
        -13    1    3    3    0    0 -0.50694834707E+02 -0.18644750331E+01 -0.22627616215E+03  0.23189295826E+03  0.00000000000E+00 0.  1.
         13    1    3    3    0    0  0.17860965827E+02  0.14047178248E+02 -0.11830783957E+02  0.25618445816E+02  0.00000000000E+00 0. -1.
        -13    1    4    4    0    0  0.13425189204E+01  0.35073908407E+02 -0.32356235426E+02  0.47737902959E+02  0.00000000000E+00 0.  1.
         13    1    4    4    0    0  0.84358326273E+01 -0.46662763705E+02  0.76416181269E+01  0.48030939157E+02  0.00000000000E+00 0. -1.
         -4    1    1    2    0  502  0.23055517333E+02 -0.59384791636E+00  0.29398093012E+02  0.37365189783E+02  0.00000000000E+00 0.  1.
<scales pt_clust_5="13000.00000" pt_clust_6="13000.00000" pt_clust_7="13000.00000" pt_clust_8="13000.00000" pt_clust_9="23.06316"></scales>
<clustering>
<clus scale="   23.063">  1  9  2 -1</clus>
<clus scale="   91.274">  7  8 -1 -1</clus>
<clus scale="   91.601">  5  6 -1 -1</clus>
<clus scale="   96.198">  1  7  2 -1</clus>
<clus scale="   23.063">  1  5  2 -1</clus>
</clustering>
</event>
<event>
 9    1  0.1504846E-005  0.1289097E+03  0.7546771E-02  0.1244757E+00
         21   -1    0    0  501  502  0.00000000000E+00  0.00000000000E+00  0.19400571498E+03  0.19400571498E+03  0.00000000000E+00 0.  1.
         -4   -1    0    0    0  501 -0.00000000000E+00 -0.00000000000E+00 -0.24391806262E+03  0.24391806262E+03  0.00000000000E+00 0.  1.
         23    2    1    2    0    0  0.17027321738E+02 -0.16033165287E+02 -0.29258549767E+02  0.98075397208E+02  0.90640657149E+02 0.  0.
         23    2    1    2    0    0 -0.93817470612E+02  0.88126177405E+02 -0.12422807263E+03  0.19212648036E+03  0.70085872267E+02 0.  0.
        -11    1    3    3    0    0  0.29001481815E+02 -0.47939549338E+02 -0.50165069507E+01  0.56253459273E+02  0.00000000000E+00 0. -1.
         11    1    3    3    0    0 -0.11974160077E+02  0.31906384051E+02 -0.24242042816E+02  0.41821937935E+02  0.00000000000E+00 0.  1.
        -13    1    4    4    0    0 -0.79019173301E+01  0.29504608004E+02 -0.57932361116E+00  0.30549923188E+02  0.00000000000E+00 0. -1.
         13    1    4    4    0    0 -0.85915553282E+02  0.58621569401E+02 -0.12364874902E+03  0.16157655717E+03  0.00000000000E+00 0.  1.
         -4    1    1    2    0  502  0.76790148873E+02 -0.72093012118E+02  0.10357427474E+03  0.14772190003E+03  0.00000000000E+00 0.  1.
<scales pt_clust_5="13000.00000" pt_clust_6="13000.00000" pt_clust_7="13000.00000" pt_clust_8="13000.00000" pt_clust_9="108.19278"></scales>
<clustering>
<clus scale="   70.086">  7  8 -1 -1</clus>
<clus scale="   90.641">  5  6 -1 -1</clus>
<clus scale="   93.609">  2  5  1 -1</clus>
<clus scale="  108.193">  1  9  2 -1</clus>
<clus scale="  108.193">  1  5  2 -1</clus>
</clustering>
</event>
<event>
 9    1  0.1504846E-005  0.1202738E+03  0.7546771E-02  0.1245415E+00
          1   -1    0    0  502    0 -0.00000000000E+00  0.00000000000E+00  0.56621315637E+03  0.56621315637E+03  0.00000000000E+00 0. -1.
         21   -1    0    0  501  502  0.00000000000E+00 -0.00000000000E+00 -0.37126826221E+02  0.37126826221E+02  0.00000000000E+00 0.  1.
         23    2    1    2    0    0 -0.60694671171E+02 -0.55623791157E+02  0.32506987763E+03  0.34746137808E+03  0.91000739901E+02 0.  0.
         23    2    1    2    0    0  0.19078952218E+02  0.41695589786E+02  0.12910201796E+03  0.16905674458E+03  0.99047075779E+02 0.  0.
        -11    1    4    4    0    0  0.72407282625E+01 -0.22293718633E+02 -0.11341089784E+01  0.23467514556E+02  0.00000000000E+00 0. -1.
         11    1    4    4    0    0  0.11838223956E+02  0.63989308419E+02  0.13023612694E+03  0.14558923002E+03  0.00000000000E+00 0.  1.
        -13    1    3    3    0    0 -0.74962983620E+02 -0.14826422389E+02  0.16816390741E+03  0.18471158997E+03  0.00000000000E+00 0.  1.
         13    1    3    3    0    0  0.14268312448E+02 -0.40797368768E+02  0.15690597022E+03  0.16274978811E+03  0.00000000000E+00 0. -1.
          1    1    1    2  501    0  0.41615718953E+02  0.13928201371E+02  0.74914434553E+02  0.86821859931E+02  0.00000000000E+00 0. -1.
<scales pt_clust_5="13000.00000" pt_clust_6="13000.00000" pt_clust_7="13000.00000" pt_clust_8="13000.00000" pt_clust_9="43.88465"></scales>
<clustering>
<clus scale="   43.885">  2  9  1 -1</clus>
<clus scale="   91.001">  7  8 -1 -1</clus>
<clus scale="   99.047">  5  6 -1 -1</clus>
<clus scale="  113.739">  1  7  2 -1</clus>
<clus scale="   43.885">  2  5  1 -1</clus>
</clustering>
</event>
<event>
 9    1  0.1504846E-005  0.1194441E+03  0.7546771E-02  0.1244897E+00
         21   -1    0    0  501  502  0.00000000000E+00  0.00000000000E+00  0.33847247266E+03  0.33847247266E+03  0.00000000000E+00 0.  1.
         -2   -1    0    0    0  501 -0.00000000000E+00 -0.00000000000E+00 -0.32266872702E+03  0.32266872702E+03  0.00000000000E+00 0.  1.
         23    2    1    2    0    0 -0.72863175171E+02 -0.67398194313E+01 -0.20021248003E+03  0.23092892082E+03  0.88818139176E+02 0.  0.
         23    2    1    2    0    0  0.14242150048E+03  0.44483450873E+02  0.27879010382E+03  0.32919989292E+03  0.91575031024E+02 0.  0.
        -11    1    4    4    0    0  0.68877336858E+02  0.43898545554E+02  0.22117072442E+03  0.23577035262E+03  0.00000000000E+00 0.  1.
         11    1    4    4    0    0  0.73544163625E+02  0.58490531818E+00  0.57619379401E+02  0.93429540297E+02  0.00000000000E+00 0. -1.
        -13    1    3    3    0    0 -0.28897898915E+02 -0.80787961088E+01 -0.18006604267E+03  0.18254899406E+03  0.00000000000E+00 0.  1.
         13    1    3    3    0    0 -0.43965276256E+02  0.13389766774E+01 -0.20146437361E+02  0.48379926758E+02  0.00000000000E+00 0. -1.
         -2    1    1    2    0  502 -0.69558325311E+02 -0.37743631441E+02 -0.62773878149E+02  0.10101238594E+03  0.00000000000E+00 0.  1.
<scales pt_clust_5="13000.00000" pt_clust_6="13000.00000" pt_clust_7="13000.00000" pt_clust_8="13000.00000" pt_clust_9="79.13879"></scales>
<clustering>
<clus scale="   79.139">  1  9  2 -1</clus>
<clus scale="   88.818">  7  8 -1 -1</clus>
<clus scale="   91.575">  5  6 -1 -1</clus>
<clus scale="  117.344">  2  7  1 -1</clus>
<clus scale="   79.139">  1  5  2 -1</clus>
</clustering>
</event>
<event>
 9    1  0.1504846E-005  0.9871129E+02  0.7546771E-02  0.1283115E+00
         21   -1    0    0  501  502  0.00000000000E+00  0.00000000000E+00  0.39467099020E+02  0.39467099020E+02  0.00000000000E+00 0. -1.
          2   -1    0    0  502    0 -0.00000000000E+00 -0.00000000000E+00 -0.49606811238E+03  0.49606811238E+03  0.00000000000E+00 0. -1.
         23    2    1    2    0    0  0.77654134210E+01 -0.22980518574E+02 -0.27317483375E+03  0.28906284028E+03  0.91347851411E+02 0.  0.
         23    2    1    2    0    0 -0.37413322988E+02  0.60538750085E+02 -0.14081432766E+03  0.18239905981E+03  0.91520736146E+02 0.  0.
        -11    1    4    4    0    0 -0.44184533179E+02 -0.62867203601E+00 -0.97787834933E+02  0.10730856845E+03  0.00000000000E+00 0. -1.
         11    1    4    4    0    0  0.67712101919E+01  0.61167422121E+02 -0.43026492728E+02  0.75090491361E+02  0.00000000000E+00 0.  1.
        -13    1    3    3    0    0 -0.13176623859E+02 -0.50914483573E+02 -0.21389980525E+03  0.22027036737E+03  0.00000000000E+00 0. -1.
         13    1    3    3    0    0  0.20942037280E+02  0.27933964999E+02 -0.59275028500E+02  0.68792472915E+02  0.00000000000E+00 0.  1.
          2    1    1    2  501    0  0.29647909567E+02 -0.37558231511E+02 -0.42611851946E+02  0.64073311310E+02  0.00000000000E+00 0. -1.
<scales pt_clust_5="13000.00000" pt_clust_6="13000.00000" pt_clust_7="13000.00000" pt_clust_8="13000.00000" pt_clust_9="47.84997"></scales>
<clustering>
<clus scale="   47.850">  1  9  2 -1</clus>
<clus scale="   91.348">  7  8 -1 -1</clus>
<clus scale="   91.521">  5  6 -1 -1</clus>
<clus scale="   98.551">  2  7  1 -1</clus>
<clus scale="   47.850">  1  5  2 -1</clus>
</clustering>
</event>
<event>
 9    1  0.1504846E-005  0.9979942E+02  0.7546771E-02  0.1282992E+00
          1   -1    0    0  502    0 -0.00000000000E+00  0.00000000000E+00  0.15540174373E+03  0.15540174373E+03  0.00000000000E+00 0. -1.
         21   -1    0    0  501  502  0.00000000000E+00 -0.00000000000E+00 -0.42706673030E+03  0.42706673030E+03  0.00000000000E+00 0. -1.
         23    2    1    2    0    0 -0.21158918313E+02 -0.57800817532E+02  0.71632401458E+02  0.12856058391E+03  0.87223783826E+02 0.  0.
         23    2    1    2    0    0 -0.31861897503E+02  0.87553591429E+01  0.54706389447E+01  0.97739670689E+02  0.91821993606E+02 0.  0.
        -11    1    4    4    0    0  0.25194597683E+02 -0.20690117606E+02  0.76852404909E+01  0.33494949475E+02  0.00000000000E+00 0.  1.
         11    1    4    4    0    0 -0.57056495185E+02  0.29445476749E+02 -0.22146015462E+01  0.64244721214E+02  0.00000000000E+00 0. -1.
        -13    1    3    3    0    0 -0.13835489264E+01  0.20457949837E+02 -0.20324904809E+00  0.20505687731E+02  0.00000000000E+00 0.  1.
         13    1    3    3    0    0 -0.19775369386E+02 -0.78258767369E+02  0.71835650506E+02  0.10805489618E+03  0.00000000000E+00 0. -1.
          1    1    1    2  501    0  0.53020815815E+02  0.49045458389E+02 -0.34876802697E+03  0.35616821944E+03  0.00000000000E+00 0. -1.
<scales pt_clust_5="13000.00000" pt_clust_6="13000.00000" pt_clust_7="13000.00000" pt_clust_8="13000.00000" pt_clust_9="72.22648"></scales>
<clustering>
<clus scale="   72.226">  2  9  1 -1</clus>
<clus scale="   87.224">  7  8 -1 -1</clus>
<clus scale="   91.822">  5  6 -1 -1</clus>
<clus scale="   95.586">  1  7  2 -1</clus>
<clus scale="   72.226">  2  5  1 -1</clus>
</clustering>
</event>
<event>
 9    1  0.1504846E-005  0.1165183E+03  0.7546771E-02  0.1250162E+00
         -1   -1    0    0    0  501 -0.00000000000E+00  0.00000000000E+00  0.61677002758E+02  0.61677002758E+02  0.00000000000E+00 0.  1.
         21   -1    0    0  501  502  0.00000000000E+00 -0.00000000000E+00 -0.76086596786E+03  0.76086596786E+03  0.00000000000E+00 0. -1.
         23    2    1    2    0    0 -0.61106579020E+02  0.71851114395E+00 -0.20717451076E+02  0.11256716899E+03  0.92236784942E+02 0.  0.
         23    2    1    2    0    0  0.10728132131E+03  0.37934408879E+02 -0.49914575875E+03  0.52080952145E+03  0.95643964161E+02 0.  0.
        -11    1    4    4    0    0  0.10668867030E+03  0.10640261057E+02 -0.46442741597E+03  0.47664296096E+03  0.00000000000E+00 0. -1.
         11    1    4    4    0    0  0.59265100110E+00  0.27294147822E+02 -0.34718342779E+02  0.44166560494E+02  0.00000000000E+00 0.  1.
        -11    1    3    3    0    0  0.21692699859E+02  0.53006472142E+01 -0.19477713338E+02  0.29631932183E+02  0.00000000000E+00 0. -1.
         11    1    3    3    0    0 -0.82799278879E+02 -0.45821360702E+01 -0.12397377385E+01  0.82935236802E+02  0.00000000000E+00 0.  1.
         -1    1    1    2    0  502 -0.46174742285E+02 -0.38652920023E+02 -0.17932575528E+03  0.18916628018E+03  0.00000000000E+00 0.  1.
<scales pt_clust_5="13000.00000" pt_clust_6="13000.00000" pt_clust_7="13000.00000" pt_clust_8="13000.00000" pt_clust_9="60.21756"></scales>
<clustering>
<clus scale="   60.218">  2  9  1 -1</clus>
<clus scale="   92.237">  7  8 -1 -1</clus>
<clus scale="   95.644">  5  6 -1 -1</clus>
<clus scale="  113.738">  1  7  2 -1</clus>
<clus scale="   60.218">  2  5  1 -1</clus>
</clustering>
</event>
<event>
 9    1  0.1504846E-005  0.1357654E+03  0.7546771E-02  0.1219338E+00
          1   -1    0    0  502    0 -0.00000000000E+00  0.00000000000E+00  0.18497568288E+03  0.18497568288E+03  0.00000000000E+00 0. -1.
         21   -1    0    0  501  502  0.00000000000E+00 -0.00000000000E+00 -0.16934429262E+03  0.16934429262E+03  0.00000000000E+00 0.  1.
         23    2    1    2    0    0 -0.10324824822E+03  0.47935002494E-01  0.59246528709E+02  0.14921656426E+03  0.89973489567E+02 0.  0.
         23    2    1    2    0    0  0.96687902501E+02  0.36815360691E+02  0.13053625424E+02  0.13718221055E+03  0.89132712746E+02 0.  0.
        -11    1    4    4    0    0  0.25837753676E+02  0.53020460195E+02  0.24010939863E+02  0.63681111386E+02  0.00000000000E+00 0. -1.
         11    1    4    4    0    0  0.70850148824E+02 -0.16205099504E+02 -0.10957314439E+02  0.73501099162E+02  0.00000000000E+00 0.  1.
        -13    1    3    3    0    0 -0.54036264659E+02 -0.28674970788E+02 -0.73007448120E+01  0.61607408018E+02  0.00000000000E+00 0.  1.
         13    1    3    3    0    0 -0.49211983566E+02  0.28722905790E+02  0.66547273520E+02  0.87609156237E+02  0.00000000000E+00 0. -1.
          1    1    1    2  501    0  0.65603457239E+01 -0.36863295694E+02 -0.56668763870E+02  0.67921200696E+02  0.00000000000E+00 0. -1.
<scales pt_clust_5="13000.00000" pt_clust_6="13000.00000" pt_clust_7="13000.00000" pt_clust_8="13000.00000" pt_clust_9="37.44250"></scales>
<clustering>
<clus scale="   37.442">  2  9  1 -1</clus>
<clus scale="   89.133">  5  6 -1 -1</clus>
<clus scale="   89.973">  7  8 -1 -1</clus>
<clus scale="  135.210">  2  5  1 -1</clus>
<clus scale="   37.442">  2  5  1 -1</clus>
</clustering>
</event>
<event>
 9    1  0.1504846E-005  0.1033944E+03  0.7546771E-02  0.1275475E+00
          1   -1    0    0  502    0 -0.00000000000E+00  0.00000000000E+00  0.42388200402E+03  0.42388200402E+03  0.00000000000E+00 0. -1.
         21   -1    0    0  501  502  0.00000000000E+00 -0.00000000000E+00 -0.35773274880E+02  0.35773274880E+02  0.00000000000E+00 0.  1.
         23    2    1    2    0    0 -0.51875504134E+02 -0.19618731542E+02  0.20462875697E+03  0.23156754234E+03  0.93137725591E+02 0.  0.
         23    2    1    2    0    0  0.37087900375E+02 -0.14398736658E+02  0.14661304386E+03  0.17579020535E+03  0.88453240172E+02 0.  0.
        -11    1    3    3    0    0 -0.70037786575E+02  0.12824177852E+02  0.13246198493E+03  0.15038593198E+03  0.00000000000E+00 0.  1.
         11    1    3    3    0    0  0.18162282441E+02 -0.32442909394E+02  0.72166772040E+02  0.81181610357E+02  0.00000000000E+00 0. -1.
        -13    1    4    4    0    0  0.16081525104E+02 -0.39321598762E+02  0.13444648608E+03  0.14099879857E+03  0.00000000000E+00 0. -1.
         13    1    4    4    0    0  0.21006375272E+02  0.24922862104E+02  0.12166557771E+02  0.34791406777E+02  0.00000000000E+00 0.  1.
          1    1    1    2  501    0  0.14787603759E+02  0.34017468201E+02  0.36866928312E+02  0.52297531212E+02  0.00000000000E+00 0. -1.
<scales pt_clust_5="13000.00000" pt_clust_6="13000.00000" pt_clust_7="13000.00000" pt_clust_8="13000.00000" pt_clust_9="37.09261"></scales>
<clustering>
<clus scale="   37.093">  2  9  1 -1</clus>
<clus scale="   88.453">  7  8 -1 -1</clus>
<clus scale="   93.138">  5  6 -1 -1</clus>
<clus scale="   99.195">  2  7  1 -1</clus>
<clus scale="   37.093">  2  5  1 -1</clus>
</clustering>
</event>
<event>
 9    1  0.2622532E-005  0.9957755E+02  0.7546771E-02  0.1282920E+00
         21   -1    0    0  501  502  0.00000000000E+00  0.00000000000E+00  0.12799811361E+03  0.12799811361E+03  0.00000000000E+00 0.  1.
          2   -1    0    0  502    0 -0.00000000000E+00 -0.00000000000E+00 -0.36774910885E+03  0.36774910885E+03  0.00000000000E+00 0. -1.
         23    2    1    2    0    0 -0.27855567747E+02  0.51095432819E+01 -0.31616649756E+03  0.33032832061E+03  0.91397511615E+02 0.  0.
         23    2    1    2    0    0  0.58585836209E+02 -0.17736460297E+02  0.65402109074E+02  0.13041771239E+03  0.94786399900E+02 0.  0.
        -11    1    4    4    0    0  0.81800630433E+02 -0.22662098131E+02  0.64607887743E+02  0.10667283154E+03  0.00000000000E+00 0.  1.
         11    1    4    4    0    0 -0.23214794224E+02  0.49256378341E+01  0.79422133096E+00  0.23744880848E+02  0.00000000000E+00 0. -1.
        -11    1    3    3    0    0  0.50059025421E+00  0.43534197053E+02 -0.20085568298E+03  0.20552002892E+03  0.00000000000E+00 0.  1.
         11    1    3    3    0    0 -0.28356158001E+02 -0.38424653771E+02 -0.11531081458E+03  0.12480829169E+03  0.00000000000E+00 0. -1.
          2    1    1    2  501    0 -0.30730268462E+02  0.12626917015E+02  0.11013393250E+02  0.35001189465E+02  0.00000000000E+00 0. -1.
<scales pt_clust_5="13000.00000" pt_clust_6="13000.00000" pt_clust_7="13000.00000" pt_clust_8="13000.00000" pt_clust_9="33.22331"></scales>
<clustering>
<clus scale="   33.223">  1  9  2 -1</clus>
<clus scale="   91.398">  7  8 -1 -1</clus>
<clus scale="   94.786">  5  6 -1 -1</clus>
<clus scale="   96.357">  2  7  1 -1</clus>
<clus scale="   33.223">  1  5  2 -1</clus>
</clustering>
</event>
<event>
 9    1  0.1504846E-005  0.1093005E+03  0.7546771E-02  0.1262600E+00
         -1   -1    0    0    0  501 -0.00000000000E+00  0.00000000000E+00  0.17859794760E+03  0.17859794760E+03  0.00000000000E+00 0.  1.
         21   -1    0    0  501  502  0.00000000000E+00 -0.00000000000E+00 -0.27703640556E+03  0.27703640556E+03  0.00000000000E+00 0. -1.
         23    2    1    2    0    0  0.49319253613E+02 -0.15329861832E+02  0.11588640071E+03  0.15716317396E+03  0.92753500953E+02 0.  0.
         23    2    1    2    0    0 -0.87912684991E+02  0.14099003235E+02 -0.62431849793E+02  0.14174704543E+03  0.90923412522E+02 0.  0.
        -11    1    3    3    0    0  0.87341927879E+01 -0.48969699115E+02  0.76952490802E+02  0.91629708041E+02  0.00000000000E+00 0.  1.
         11    1    3    3    0    0  0.40585060825E+02  0.33639837283E+02  0.38933909906E+02  0.65533465918E+02  0.00000000000E+00 0. -1.
        -11    1    4    4    0    0 -0.70694294652E+02 -0.10136888578E+02 -0.79979652220E+02  0.10722492516E+03  0.00000000000E+00 0. -1.
         11    1    4    4    0    0 -0.17218390340E+02  0.24235891814E+02  0.17547802426E+02  0.34522120269E+02  0.00000000000E+00 0.  1.
         -1    1    1    2    0  502  0.38593431378E+02  0.12308585967E+01 -0.15189300888E+03  0.15672413377E+03  0.00000000000E+00 0.  1.
<scales pt_clust_5="13000.00000" pt_clust_6="13000.00000" pt_clust_7="13000.00000" pt_clust_8="13000.00000" pt_clust_9="38.61305"></scales>
<clustering>
<clus scale="   38.613">  2  9  1 -1</clus>
<clus scale="   90.923">  7  8 -1 -1</clus>
<clus scale="   92.754">  5  6 -1 -1</clus>
<clus scale="  107.752">  2  7  1 -1</clus>
<clus scale="   38.613">  2  5  1 -1</clus>
</clustering>
</event>
<event>
 9    1  0.1504846E-005  0.1012360E+03  0.7546771E-02  0.1279436E+00
          2   -1    0    0  502    0 -0.00000000000E+00  0.00000000000E+00  0.42739282767E+03  0.42739282767E+03  0.00000000000E+00 0. -1.
         21   -1    0    0  501  502  0.00000000000E+00 -0.00000000000E+00 -0.36366025764E+02  0.36366025764E+02  0.00000000000E+00 0. -1.
         23    2    1    2    0    0 -0.23890622114E+02 -0.21566134754E+02  0.20160058915E+03  0.22513918100E+03  0.94915716713E+02 0.  0.
         23    2    1    2    0    0  0.11411940512E+02  0.39608410614E+02  0.19191719897E+03  0.21654148807E+03  0.91427272819E+02 0.  0.
        -13    1    4    4    0    0  0.23831983638E+02 -0.84396275905E+01  0.87237545189E+01  0.26744993006E+02  0.00000000000E+00 0.  1.
         13    1    4    4    0    0 -0.12420043126E+02  0.48048038205E+02  0.18319344445E+03  0.18979649506E+03  0.00000000000E+00 0. -1.
        -13    1    3    3    0    0 -0.90550903493E+01  0.37067186937E+02  0.59258898817E+02  0.70481118732E+02  0.00000000000E+00 0. -1.
         13    1    3    3    0    0 -0.14835531765E+02 -0.58633321691E+02  0.14234169034E+03  0.15465806226E+03  0.00000000000E+00 0.  1.
          2    1    1    2  501    0  0.12478681602E+02 -0.18042275860E+02 -0.24909862211E+01  0.22078184370E+02  0.00000000000E+00 0. -1.
<scales pt_clust_5="13000.00000" pt_clust_6="13000.00000" pt_clust_7="13000.00000" pt_clust_8="13000.00000" pt_clust_9="21.93721"></scales>
<clustering>
<clus scale="   21.937">  2  9  1 -1</clus>
<clus scale="   91.427">  5  6 -1 -1</clus>
<clus scale="   94.916">  7  8 -1 -1</clus>
<clus scale="   97.973">  2  5  1 -1</clus>
<clus scale="   21.937">  2  5  1 -1</clus>
</clustering>
</event>
<event>
 9    1  0.1504846E-005  0.2114218E+03  0.7546771E-02  0.1159396E+00
         21   -1    0    0  501  502  0.00000000000E+00  0.00000000000E+00  0.81148565619E+02  0.81148565619E+02  0.00000000000E+00 0. -1.
         -1   -1    0    0    0  501 -0.00000000000E+00 -0.00000000000E+00 -0.12147909104E+04  0.12147909104E+04  0.00000000000E+00 0.  1.
         23    2    1    2    0    0 -0.81851321048E-03  0.73726306149E+02 -0.59045435732E+03  0.60567471338E+03  0.11300416863E+03 0.  0.
         23    2    1    2    0    0  0.14534753306E+03 -0.17227515198E+03 -0.37541908916E+03  0.44739865616E+03  0.91768358755E+02 0.  0.
        -11    1    4    4    0    0  0.63097516498E+02 -0.10516883613E+03 -0.27572538386E+03  0.30177188071E+03  0.00000000000E+00 0.  1.
         11    1    4    4    0    0  0.82250016562E+02 -0.67106315850E+02 -0.99693705304E+02  0.14562677545E+03  0.00000000000E+00 0. -1.
        -11    1    3    3    0    0 -0.17472838732E+02 -0.27284464850E+02 -0.13769157363E+03  0.14145215291E+03  0.00000000000E+00 0.  1.
         11    1    3    3    0    0  0.17472020218E+02  0.10101077100E+03 -0.45276278369E+03  0.46422256047E+03  0.00000000000E+00 0. -1.
         -1    1    1    2    0  502 -0.14534671455E+03  0.98548845834E+02 -0.16776889832E+03  0.24286610650E+03  0.00000000000E+00 0.  1.
<scales pt_clust_5="13000.00000" pt_clust_6="13000.00000" pt_clust_7="13000.00000" pt_clust_8="13000.00000" pt_clust_9="190.46717"></scales>
<clustering>
<clus scale="   91.768">  5  6 -1 -1</clus>
<clus scale="  113.004">  7  8 -1 -1</clus>
<clus scale="  134.928">  2  7  1 -1</clus>
<clus scale="  190.467">  1  9  2 -1</clus>
<clus scale="  190.467">  1  5  2 -1</clus>
</clustering>
</event>
<event>
 9    1  0.1504846E-005  0.1510925E+03  0.7546771E-02  0.1200470E+00
          1   -1    0    0  502    0 -0.00000000000E+00  0.00000000000E+00  0.55471065458E+03  0.55471065458E+03  0.00000000000E+00 0. -1.
         21   -1    0    0  501  502  0.00000000000E+00 -0.00000000000E+00 -0.11666355595E+03  0.11666355595E+03  0.00000000000E+00 0. -1.
         23    2    1    2    0    0 -0.10547599249E+03 -0.17902140473E+02  0.25201400139E+03  0.28618110684E+03  0.83324050479E+02 0.  0.
         23    2    1    2    0    0  0.13905954151E+03  0.23760336990E+02  0.25675667896E+03  0.30668196917E+03  0.90706826229E+02 0.  0.
        -11    1    4    4    0    0  0.65235810477E+02  0.46281380033E+02  0.18391156415E+03  0.20055208933E+03  0.00000000000E+00 0. -1.
         11    1    4    4    0    0  0.73823731032E+02 -0.22521043043E+02  0.72845114812E+02  0.10612987984E+03  0.00000000000E+00 0.  1.
        -11    1    3    3    0    0 -0.24954535234E+02  0.31982803894E+02  0.84757298330E+02  0.93965037082E+02  0.00000000000E+00 0.  1.
         11    1    3    3    0    0 -0.80521457261E+02 -0.49884944367E+02  0.16725670306E+03  0.19221606976E+03  0.00000000000E+00 0. -1.
          1    1    1    2  501    0 -0.33583549015E+02 -0.58581965177E+01 -0.70723581727E+02  0.78511134517E+02  0.00000000000E+00 0. -1.
<scales pt_clust_5="13000.00000" pt_clust_6="13000.00000" pt_clust_7="13000.00000" pt_clust_8="13000.00000" pt_clust_9="34.09066"></scales>
<clustering>
<clus scale="   34.091">  2  9  1 -1</clus>
<clus scale="   83.324">  7  8 -1 -1</clus>
<clus scale="   90.707">  5  6 -1 -1</clus>
<clus scale="  146.779">  1  7  2 -1</clus>
<clus scale="   34.091">  2  5  1 -1</clus>
</clustering>
</event>
<event>
 9    1  0.1504846E-005  0.1076933E+03  0.7546771E-02  0.1264967E+00
         -1   -1    0    0    0  501 -0.00000000000E+00  0.00000000000E+00  0.29013203174E+03  0.29013203174E+03  0.00000000000E+00 0.  1.
         21   -1    0    0  501  502  0.00000000000E+00 -0.00000000000E+00 -0.26415290254E+03  0.26415290254E+03  0.00000000000E+00 0.  1.
         23    2    1    2    0    0 -0.54122286629E+02 -0.36390804850E+02  0.25005210599E+03  0.27386340577E+03  0.90673020912E+02 0.  0.
         23    2    1    2    0    0 -0.89201999164E+01  0.44805646407E+01 -0.85667224783E+02  0.12502278100E+03  0.90510645453E+02 0.  0.
        -11    1    4    4    0    0  0.23793885994E+01 -0.39433394679E+02 -0.62916752486E+02  0.74291129009E+02  0.00000000000E+00 0.  1.
         11    1    4    4    0    0 -0.11299588516E+02  0.43913959320E+02 -0.22750472297E+02  0.50731651989E+02  0.00000000000E+00 0. -1.
        -13    1    3    3    0    0 -0.40544844499E+02  0.11650062317E+01  0.30605592095E+02  0.50812832261E+02  0.00000000000E+00 0. -1.
         13    1    3    3    0    0 -0.13577442130E+02 -0.37555811081E+02  0.21944651390E+03  0.22305057351E+03  0.00000000000E+00 0.  1.
         -1    1    1    2    0  502  0.63042486545E+02  0.31910240209E+02 -0.13840575201E+03  0.15539874751E+03  0.00000000000E+00 0.  1.
<scales pt_clust_5="13000.00000" pt_clust_6="13000.00000" pt_clust_7="13000.00000" pt_clust_8="13000.00000" pt_clust_9="70.65846"></scales>
<clustering>
<clus scale="   70.658">  2  9  1 -1</clus>
<clus scale="   90.511">  5  6 -1 -1</clus>
<clus scale="   90.673">  7  8 -1 -1</clus>
<clus scale="  107.557">  2  5  1 -1</clus>
<clus scale="   70.658">  2  5  1 -1</clus>
</clustering>
</event>
<event>
 9    1  0.2264614E-005  0.9722047E+02  0.7546771E-02  0.1290067E+00
          2   -1    0    0  502    0 -0.00000000000E+00  0.00000000000E+00  0.20736045844E+03  0.20736045844E+03  0.00000000000E+00 0. -1.
         21   -1    0    0  501  502  0.00000000000E+00 -0.00000000000E+00 -0.13183541465E+03  0.13183541465E+03  0.00000000000E+00 0.  1.
         23    2    1    2    0    0  0.19511485822E+01  0.29929742065E+01  0.15391810072E+03  0.18208121511E+03  0.97211225123E+02 0.  0.
         23    2    1    2    0    0  0.11911936450E+02  0.12434709792E+02 -0.93656630268E+02  0.13136246912E+03  0.90487665802E+02 0.  0.
        -11    1    3    3    0    0  0.40607655033E+02  0.13881446913E+02  0.31474398584E+02  0.53219488742E+02  0.00000000000E+00 0.  1.
         11    1    3    3    0    0 -0.38656506451E+02 -0.10888472706E+02  0.12244370214E+03  0.12886172637E+03  0.00000000000E+00 0. -1.
        -13    1    4    4    0    0  0.44253229194E+02  0.24317819901E+02 -0.79352495261E+02  0.94055957616E+02  0.00000000000E+00 0.  1.
         13    1    4    4    0    0 -0.32341292744E+02 -0.11883110109E+02 -0.14304135007E+02  0.37306511503E+02  0.00000000000E+00 0. -1.
          2    1    1    2  501    0 -0.13863085032E+02 -0.15427683998E+02  0.15263573342E+02  0.25752188865E+02  0.00000000000E+00 0. -1.
<scales pt_clust_5="13000.00000" pt_clust_6="13000.00000" pt_clust_7="13000.00000" pt_clust_8="13000.00000" pt_clust_9="20.74124"></scales>
<clustering>
<clus scale="   20.741">  2  9  1 -1</clus>
<clus scale="   90.488">  7  8 -1 -1</clus>
<clus scale="   90.498">  2  7  1 -1</clus>
<clus scale="   97.211">  5  6 -1 -1</clus>
<clus scale="   20.741">  2  5  1 -1</clus>
</clustering>
</event>
<event>
 9    1  0.1504846E-005  0.1193351E+03  0.7546771E-02  0.1245130E+00
         21   -1    0    0  501  502  0.00000000000E+00  0.00000000000E+00  0.31019683519E+03  0.31019683519E+03  0.00000000000E+00 0.  1.
          1   -1    0    0  502    0 -0.00000000000E+00 -0.00000000000E+00 -0.10838990816E+03  0.10838990816E+03  0.00000000000E+00 0. -1.
         23    2    1    2    0    0  0.54618392187E+02  0.34002931078E+02  0.14390972540E+02  0.11237412301E+03  0.91002611751E+02 0.  0.
         23    2    1    2    0    0 -0.83619341524E+02 -0.20271203900E+02  0.11995304269E+02  0.12788141185E+03  0.93843764785E+02 0.  0.
        -11    1    3    3    0    0 -0.20735754397E+02  0.77362823825E+01  0.23230093201E+02  0.32085180468E+02  0.00000000000E+00 0.  1.
         11    1    3    3    0    0  0.75354146584E+02  0.26266648696E+02 -0.88391206604E+01  0.80288942546E+02  0.00000000000E+00 0. -1.
        -13    1    4    4    0    0  0.14415169745E+02 -0.25297165784E+02  0.40633677743E+01  0.29398208673E+02  0.00000000000E+00 0. -1.
         13    1    4    4    0    0 -0.98034511268E+02  0.50259618844E+01  0.79319364946E+01  0.98483203182E+02  0.00000000000E+00 0.  1.
          1    1    1    2  501    0  0.29000949337E+02 -0.13731727178E+02  0.17542065022E+03  0.17833120848E+03  0.00000000000E+00 0. -1.
<scales pt_clust_5="13000.00000" pt_clust_6="13000.00000" pt_clust_7="13000.00000" pt_clust_8="13000.00000" pt_clust_9="32.08762"></scales>
<clustering>
<clus scale="   32.088">  1  9  2 -1</clus>
<clus scale="   91.003">  5  6 -1 -1</clus>
<clus scale="   93.844">  7  8 -1 -1</clus>
<clus scale="  117.114">  2  5  1 -1</clus>
<clus scale="   32.088">  1  5  2 -1</clus>
</clustering>
</event>
<event>
 9    1  0.1504846E-005  0.1183075E+03  0.7546771E-02  0.1253787E+00
          2   -1    0    0  502    0 -0.00000000000E+00  0.00000000000E+00  0.36713489450E+03  0.36713489450E+03  0.00000000000E+00 0. -1.
         21   -1    0    0  501  502  0.00000000000E+00 -0.00000000000E+00 -0.86309935621E+02  0.86309935621E+02  0.00000000000E+00 0. -1.
         23    2    1    2    0    0 -0.42685905072E+02  0.52617760798E+02  0.19745583786E+03  0.22738526317E+03  0.90136201166E+02 0.  0.
         23    2    1    2    0    0  0.67711883111E+01 -0.12533656715E+02  0.11856723445E+03  0.16175163999E+03  0.10909840702E+03 0.  0.
        -11    1    4    4    0    0 -0.44223031148E+02 -0.31354327452E+02  0.46084835350E+02  0.71151826281E+02  0.00000000000E+00 0. -1.
         11    1    4    4    0    0  0.50994219459E+02  0.18820670737E+02  0.72482399096E+02  0.90599813708E+02  0.00000000000E+00 0.  1.
        -11    1    3    3    0    0  0.20092505926E+02 -0.34643118809E+01  0.82015787101E+02  0.84512126851E+02  0.00000000000E+00 0.  1.
         11    1    3    3    0    0 -0.62778410998E+02  0.56082072679E+02  0.11544005076E+03  0.14287313632E+03  0.00000000000E+00 0. -1.
          2    1    1    2  501    0  0.35914716761E+02 -0.40084104084E+02 -0.35198113429E+02  0.64307926955E+02  0.00000000000E+00 0. -1.
<scales pt_clust_5="13000.00000" pt_clust_6="13000.00000" pt_clust_7="13000.00000" pt_clust_8="13000.00000" pt_clust_9="53.82009"></scales>
<clustering>
<clus scale="   53.820">  2  9  1 -1</clus>
<clus scale="   90.136">  7  8 -1 -1</clus>
<clus scale="  101.088">  1  7  2 -1</clus>
<clus scale="  109.098">  5  6 -1 -1</clus>
<clus scale="   53.820">  2  5  1 -1</clus>
</clustering>
</event>
<event>
 9    1  0.1504846E-005  0.1486901E+03  0.7546771E-02  0.1202954E+00
         21   -1    0    0  501  502  0.00000000000E+00  0.00000000000E+00  0.55727704271E+02  0.55727704271E+02  0.00000000000E+00 0. -1.
          1   -1    0    0  502    0 -0.00000000000E+00 -0.00000000000E+00 -0.75947691727E+03  0.75947691727E+03  0.00000000000E+00 0. -1.
         23    2    1    2    0    0  0.10646210813E+03  0.34542248381E+02 -0.38651634061E+03  0.41152837139E+03  0.86217002451E+02 0.  0.
         23    2    1    2    0    0 -0.12723328026E+03 -0.11106453230E+02 -0.33343369035E+03  0.36841799453E+03  0.90786187992E+02 0.  0.
        -11    1    3    3    0    0  0.94453170914E+02 -0.46896479671E+01 -0.21008101836E+03  0.23038539140E+03  0.00000000000E+00 0. -1.
         11    1    3    3    0    0  0.12008937212E+02  0.39231896348E+02 -0.17643532225E+03  0.18114297999E+03  0.00000000000E+00 0.  1.
        -11    1    4    4    0    0 -0.96228185415E+02 -0.91920063517E+01 -0.32051462216E+03  0.33477452064E+03  0.00000000000E+00 0. -1.
         11    1    4    4    0    0 -0.31005094841E+02 -0.19144468788E+01 -0.12919068184E+02  0.33643473895E+02  0.00000000000E+00 0.  1.
          1    1    1    2  501    0  0.20771172131E+02 -0.23435795150E+02  0.16200817963E+02  0.35258255610E+02  0.00000000000E+00 0. -1.
<scales pt_clust_5="13000.00000" pt_clust_6="13000.00000" pt_clust_7="13000.00000" pt_clust_8="13000.00000" pt_clust_9="31.31578"></scales>
<clustering>
<clus scale="   31.316">  1  9  2 -1</clus>
<clus scale="   86.217">  5  6 -1 -1</clus>
<clus scale="   90.786">  7  8 -1 -1</clus>
<clus scale="  145.945">  2  5  1 -1</clus>
<clus scale="   31.316">  1  5  2 -1</clus>
</clustering>
</event>
<event>
 9    1  0.1504846E-005  0.9579708E+02  0.7546771E-02  0.1292419E+00
         21   -1    0    0  501  502  0.00000000000E+00  0.00000000000E+00  0.12559625609E+03  0.12559625609E+03  0.00000000000E+00 0.  1.
          1   -1    0    0  502    0 -0.00000000000E+00 -0.00000000000E+00 -0.14759008032E+03  0.14759008032E+03  0.00000000000E+00 0. -1.
         23    2    1    2    0    0 -0.32844714414E+02 -0.14061756573E+02 -0.36203327658E+02  0.10542201535E+03  0.92339656296E+02 0.  0.
         23    2    1    2    0    0 -0.17646124782E+02  0.34702928962E+02 -0.27527028719E+02  0.99081565177E+02  0.86854707699E+02 0.  0.
        -11    1    4    4    0    0 -0.20503565659E+02  0.62515922432E+02 -0.27000396643E+02  0.71117214380E+02  0.00000000000E+00 0.  1.
         11    1    4    4    0    0  0.28574408773E+01 -0.27812993470E+02 -0.52663207594E+00  0.27964350797E+02  0.00000000000E+00 0. -1.
        -13    1    3    3    0    0 -0.18873186039E+01 -0.34882536486E+02 -0.53820560144E+02  0.64163899643E+02  0.00000000000E+00 0. -1.
         13    1    3    3    0    0 -0.30957395810E+02  0.20820779913E+02  0.17617232486E+02  0.41258115711E+02  0.00000000000E+00 0.  1.
          1    1    1    2  501    0  0.50490839196E+02 -0.20641172389E+02  0.41736532139E+02  0.68682755880E+02  0.00000000000E+00 0. -1.
<scales pt_clust_5="13000.00000" pt_clust_6="13000.00000" pt_clust_7="13000.00000" pt_clust_8="13000.00000" pt_clust_9="54.54707"></scales>
<clustering>
<clus scale="   54.547">  1  9  2 -1</clus>
<clus scale="   86.855">  5  6 -1 -1</clus>
<clus scale="   90.522">  1  5  2 -1</clus>
<clus scale="   92.340">  7  8 -1 -1</clus>
<clus scale="   54.547">  1  5  2 -1</clus>
</clustering>
</event>
<event>
 9    1  0.1504846E-005  0.1532319E+03  0.7546771E-02  0.1196742E+00
          3   -1    0    0  502    0 -0.00000000000E+00  0.00000000000E+00  0.28307836304E+03  0.28307836304E+03  0.00000000000E+00 0. -1.
         21   -1    0    0  501  502  0.00000000000E+00 -0.00000000000E+00 -0.30465636859E+03  0.30465636859E+03  0.00000000000E+00 0. -1.
         23    2    1    2    0    0  0.93699621325E+02 -0.44176715694E+02  0.11636325496E+03  0.18114319636E+03  0.92418879219E+02 0.  0.
         23    2    1    2    0    0 -0.15262473519E+03  0.50263798315E+02  0.64400644628E+02  0.19575636697E+03  0.91391208390E+02 0.  0.
        -13    1    4    4    0    0 -0.61773142485E+02  0.42744779227E+02  0.72289347961E+02  0.10425347530E+03  0.00000000000E+00 0. -1.
         13    1    4    4    0    0 -0.90851592701E+02  0.75190190879E+01 -0.78887033337E+01  0.91502891674E+02  0.00000000000E+00 0.  1.
        -13    1    3    3    0    0  0.76598236455E+02 -0.66186270442E+02  0.58506743907E+02  0.11692284339E+03  0.00000000000E+00 0. -1.
         13    1    3    3    0    0  0.17101384870E+02  0.22009554749E+02  0.57856511048E+02  0.64220352968E+02  0.00000000000E+00 0.  1.
          3    1    1    2  501    0  0.58925113860E+02 -0.60870826210E+01 -0.20234190514E+03  0.21083516830E+03  0.00000000000E+00 0. -1.
<scales pt_clust_5="13000.00000" pt_clust_6="13000.00000" pt_clust_7="13000.00000" pt_clust_8="13000.00000" pt_clust_9="59.23868"></scales>
<clustering>
<clus scale="   59.239">  2  9  1 -1</clus>
<clus scale="   91.391">  5  6 -1 -1</clus>
<clus scale="   92.419">  7  8 -1 -1</clus>
<clus scale="  152.614">  2  5  1 -1</clus>
<clus scale="   59.239">  2  5  1 -1</clus>
</clustering>
</event>
<event>
 9    1  0.1504846E-005  0.1469308E+03  0.7546771E-02  0.1204572E+00
         -3   -1    0    0    0  501 -0.00000000000E+00  0.00000000000E+00  0.19790618135E+03  0.19790618135E+03  0.00000000000E+00 0.  1.
         21   -1    0    0  501  502  0.00000000000E+00 -0.00000000000E+00 -0.48421357247E+03  0.48421357247E+03  0.00000000000E+00 0.  1.
         23    2    1    2    0    0 -0.57727792046E+02  0.61496729158E+02  0.41542588361E+02  0.12987617162E+03  0.89597363994E+02 0.  0.
         23    2    1    2    0    0  0.12580609482E+03 -0.14526141055E+03 -0.59334607656E+01  0.21271240222E+03  0.91012687090E+02 0.  0.
        -13    1    3    3    0    0 -0.75355208665E+02  0.21641734636E+02  0.34803011321E+02  0.85778912024E+02  0.00000000000E+00 0.  1.
         13    1    3    3    0    0  0.17627416619E+02  0.39854994522E+02  0.67395770404E+01  0.44097259594E+02  0.00000000000E+00 0. -1.
        -13    1    4    4    0    0  0.13787708123E+03 -0.11355877784E+03 -0.71890308110E+01  0.17876623763E+03  0.00000000000E+00 0.  1.
         13    1    4    4    0    0 -0.12070986413E+02 -0.31702632711E+02  0.12555700454E+01  0.33946164583E+02  0.00000000000E+00 0. -1.
         -3    1    1    2    0  502 -0.68078302772E+02  0.83764681393E+02 -0.32191651872E+03  0.33953117998E+03  0.00000000000E+00 0.  1.
<scales pt_clust_5="13000.00000" pt_clust_6="13000.00000" pt_clust_7="13000.00000" pt_clust_8="13000.00000" pt_clust_9="107.94062"></scales>
<clustering>
<clus scale="   89.597">  5  6 -1 -1</clus>
<clus scale="   91.013">  7  8 -1 -1</clus>
<clus scale="  107.941">  2  9  1 -1</clus>
<clus scale="  146.058">  1  5  2 -1</clus>
<clus scale="  107.941">  2  5  1 -1</clus>
</clustering>
</event>
<event>
 9    1  0.1504846E-005  0.1118064E+03  0.7546771E-02  0.1258663E+00
          2   -1    0    0  502    0 -0.00000000000E+00  0.00000000000E+00  0.32620190667E+03  0.32620190667E+03  0.00000000000E+00 0. -1.
         21   -1    0    0  501  502  0.00000000000E+00 -0.00000000000E+00 -0.82961982339E+02  0.82961982339E+02  0.00000000000E+00 0.  1.
         23    2    1    2    0    0  0.23918823393E+02 -0.49360837147E+02  0.21206903243E+03  0.23990858351E+03  0.97848104588E+02 0.  0.
         23    2    1    2    0    0  0.93929716052E+01  0.59094043176E+02  0.57538953511E+02  0.12566992196E+03  0.94349691360E+02 0.  0.
        -11    1    3    3    0    0  0.61003583663E+02 -0.18346632523E+02  0.12617590501E+03  0.14134495092E+03  0.00000000000E+00 0.  1.
         11    1    3    3    0    0 -0.37084760269E+02 -0.31014204624E+02  0.85893127414E+02  0.98563632592E+02  0.00000000000E+00 0. -1.
        -11    1    4    4    0    0  0.35848229017E+02 -0.68556396735E+00 -0.37630891116E+01  0.36051717868E+02  0.00000000000E+00 0.  1.
         11    1    4    4    0    0 -0.26455257412E+02  0.59779607143E+02  0.61302042622E+02  0.89618204091E+02  0.00000000000E+00 0. -1.
          2    1    1    2  501    0 -0.33311794998E+02 -0.97332060287E+01 -0.26368061604E+02  0.43585383540E+02  0.00000000000E+00 0. -1.
<scales pt_clust_5="13000.00000" pt_clust_6="13000.00000" pt_clust_7="13000.00000" pt_clust_8="13000.00000" pt_clust_9="34.70462"></scales>
<clustering>
<clus scale="   34.705">  2  9  1 -1</clus>
<clus scale="   94.350">  7  8 -1 -1</clus>
<clus scale="   97.848">  5  6 -1 -1</clus>
<clus scale="  108.758">  2  7  1 -1</clus>
<clus scale="   34.705">  2  5  1 -1</clus>
</clustering>
</event>
<event>
 9    1  0.1504846E-005  0.1192687E+03  0.7546771E-02  0.1244962E+00
         21   -1    0    0  501  502  0.00000000000E+00  0.00000000000E+00  0.19519852401E+03  0.19519852401E+03  0.00000000000E+00 0. -1.
         -1   -1    0    0    0  501 -0.00000000000E+00 -0.00000000000E+00 -0.11218779105E+03  0.11218779105E+03  0.00000000000E+00 0.  1.
         23    2    1    2    0    0  0.86226237767E+02 -0.91088263681E+00 -0.26280017615E+02  0.12900254596E+03  0.92277970025E+02 0.  0.
         23    2    1    2    0    0 -0.55581620414E+02 -0.63660562636E+01  0.66643569076E+02  0.12536652188E+03  0.90252735738E+02 0.  0.
        -13    1    3    3    0    0  0.87870676887E+02 -0.32707361290E+02 -0.25448429558E+02  0.97152714352E+02  0.00000000000E+00 0.  1.
         13    1    3    3    0    0 -0.16444391198E+01  0.31796478653E+02 -0.83158805692E+00  0.31849831608E+02  0.00000000000E+00 0. -1.
        -13    1    4    4    0    0 -0.39820401988E+02 -0.31428365801E+02  0.78507939045E+02  0.93471402495E+02  0.00000000000E+00 0. -1.
         13    1    4    4    0    0 -0.15761218426E+02  0.25062309538E+02 -0.11864369969E+02  0.31895119382E+02  0.00000000000E+00 0.  1.
         -1    1    1    2    0  502 -0.30644617353E+02  0.72769389004E+01  0.42647181500E+02  0.53017247216E+02  0.00000000000E+00 0.  1.
<scales pt_clust_5="13000.00000" pt_clust_6="13000.00000" pt_clust_7="13000.00000" pt_clust_8="13000.00000" pt_clust_9="31.49677"></scales>
<clustering>
<clus scale="   31.497">  1  9  2 -1</clus>
<clus scale="   90.253">  7  8 -1 -1</clus>
<clus scale="   92.278">  5  6 -1 -1</clus>
<clus scale="  117.709">  1  7  2 -1</clus>
<clus scale="   31.497">  1  5  2 -1</clus>
</clustering>
</event>
<event>
 9    1  0.1504846E-005  0.9632629E+02  0.7546771E-02  0.1289570E+00
         -1   -1    0    0    0  501 -0.00000000000E+00  0.00000000000E+00  0.11140136425E+03  0.11140136425E+03  0.00000000000E+00 0.  1.
         21   -1    0    0  501  502  0.00000000000E+00 -0.00000000000E+00 -0.27652810287E+03  0.27652810287E+03  0.00000000000E+00 0.  1.
         23    2    1    2    0    0  0.14047426257E+02  0.32887630057E+02  0.74676427683E+02  0.12258178972E+03  0.90392477141E+02 0.  0.
         23    2    1    2    0    0  0.33229819695E+00 -0.13131388135E+02 -0.19641537300E+03  0.21555223407E+03  0.87813570036E+02 0.  0.
        -13    1    4    4    0    0 -0.13435215101E+02 -0.38847252122E+02 -0.43379081536E+02  0.59760846021E+02  0.00000000000E+00 0. -1.
         13    1    4    4    0    0  0.13767513298E+02  0.25715863987E+02 -0.15303629147E+03  0.15579138805E+03  0.00000000000E+00 0.  1.
        -13    1    3    3    0    0  0.34109119561E+02 -0.57427926035E+01 -0.17446495785E+01  0.34633156170E+02  0.00000000000E+00 0. -1.
         13    1    3    3    0    0 -0.20061693304E+02  0.38630422660E+02  0.76421077262E+02  0.87948633548E+02  0.00000000000E+00 0.  1.
         -1    1    1    2    0  502 -0.14379724454E+02 -0.19756241922E+02 -0.43387793292E+02  0.49795443335E+02  0.00000000000E+00 0.  1.
<scales pt_clust_5="13000.00000" pt_clust_6="13000.00000" pt_clust_7="13000.00000" pt_clust_8="13000.00000" pt_clust_9="24.43533"></scales>
<clustering>
<clus scale="   24.435">  2  9  1 -1</clus>
<clus scale="   87.814">  5  6 -1 -1</clus>
<clus scale="   90.392">  7  8 -1 -1</clus>
<clus scale="   93.910">  2  5  1 -1</clus>
<clus scale="   24.435">  2  5  1 -1</clus>
</clustering>
</event>
<event>
 9    1  0.1504846E-005  0.1021724E+03  0.7546771E-02  0.1278298E+00
          1   -1    0    0  502    0 -0.00000000000E+00  0.00000000000E+00  0.18747470444E+03  0.18747470444E+03  0.00000000000E+00 0. -1.
         21   -1    0    0  501  502  0.00000000000E+00 -0.00000000000E+00 -0.10225985218E+04  0.10225985218E+04  0.00000000000E+00 0. -1.
         23    2    1    2    0    0  0.39132173929E+02 -0.13211299773E+02  0.15923516886E+03  0.18720782547E+03  0.89359193354E+02 0.  0.
         23    2    1    2    0    0  0.56215228643E+00 -0.73426228181E+02 -0.31726833351E+03  0.33910122157E+03  0.94544783155E+02 0.  0.
        -11    1    4    4    0    0  0.30248103317E+02 -0.79518289923E+02 -0.18841906675E+03  0.20673618672E+03  0.00000000000E+00 0. -1.
         11    1    4    4    0    0 -0.29685951031E+02  0.60920617418E+01 -0.12884926676E+03  0.13236503485E+03  0.00000000000E+00 0.  1.
        -13    1    3    3    0    0 -0.22372570016E+02 -0.22473473444E+02  0.29398347093E+02  0.43241781989E+02  0.00000000000E+00 0.  1.
         13    1    3    3    0    0  0.61504743945E+02  0.92621736708E+01  0.12983682176E+03  0.14396604348E+03  0.00000000000E+00 0. -1.
          1    1    1    2  501    0 -0.39694326216E+02  0.86637527954E+02 -0.67709065270E+03  0.68376417920E+03  0.00000000000E+00 0. -1.
<scales pt_clust_5="13000.00000" pt_clust_6="13000.00000" pt_clust_7="13000.00000" pt_clust_8="13000.00000" pt_clust_9="95.29796"></scales>
<clustering>
<clus scale="   89.359">  7  8 -1 -1</clus>
<clus scale="   94.545">  5  6 -1 -1</clus>
<clus scale="   95.298">  2  9  1 -1</clus>
<clus scale="   97.394">  1  7  2 -1</clus>
<clus scale="   95.298">  2  5  1 -1</clus>
</clustering>
</event>
<event>
 9    1  0.1504846E-005  0.9684637E+02  0.7546771E-02  0.1288165E+00
         -1   -1    0    0    0  501 -0.00000000000E+00  0.00000000000E+00  0.61766382159E+03  0.61766382159E+03  0.00000000000E+00 0.  1.
         21   -1    0    0  501  502  0.00000000000E+00 -0.00000000000E+00 -0.33164892773E+02  0.33164892773E+02  0.00000000000E+00 0. -1.
         23    2    1    2    0    0  0.38589137715E+02 -0.11759801207E+02  0.40812643619E+03  0.41966142252E+03  0.89000602011E+02 0.  0.
         23    2    1    2    0    0 -0.16876679956E+02  0.82476526108E+01  0.18537439331E+03  0.20740176585E+03  0.91098741385E+02 0.  0.
        -11    1    4    4    0    0 -0.54500138638E+02  0.93831389938E+01  0.11429534968E+03  0.12697139586E+03  0.00000000000E+00 0.  1.
         11    1    4    4    0    0  0.37623458682E+02 -0.11354863830E+01  0.71079043639E+02  0.80430369993E+02  0.00000000000E+00 0. -1.
        -13    1    3    3    0    0  0.47137271125E+02  0.28882669477E+02  0.20434331438E+03  0.21168920865E+03  0.00000000000E+00 0.  1.
         13    1    3    3    0    0 -0.85481334102E+01 -0.40642470684E+02  0.20378312181E+03  0.20797221387E+03  0.00000000000E+00 0. -1.
         -1    1    1    2    0  502 -0.21712457759E+02  0.35121485957E+01 -0.90019006878E+01  0.23765525992E+02  0.00000000000E+00 0.  1.
<scales pt_clust_5="13000.00000" pt_clust_6="13000.00000" pt_clust_7="13000.00000" pt_clust_8="13000.00000" pt_clust_9="21.99468"></scales>
<clustering>
<clus scale="   21.995">  2  9  1 -1</clus>
<clus scale="   89.001">  7  8 -1 -1</clus>
<clus scale="   91.099">  5  6 -1 -1</clus>
<clus scale="   94.875">  1  7  2 -1</clus>
<clus scale="   21.995">  2  5  1 -1</clus>
</clustering>
</event>
<event>
 9    1  0.1504846E-005  0.4474834E+03  0.7546771E-02  0.1074891E+00
          1   -1    0    0  502    0 -0.00000000000E+00  0.00000000000E+00  0.24345278617E+04  0.24345278617E+04  0.00000000000E+00 0. -1.
         21   -1    0    0  501  502  0.00000000000E+00 -0.00000000000E+00 -0.78858625098E+03  0.78858625098E+03  0.00000000000E+00 0. -1.
         23    2    1    2    0    0  0.76971906495E+02  0.14355753839E+02  0.64629106046E+02  0.13582236484E+03  0.90222122475E+02 0.  0.
         23    2    1    2    0    0 -0.41422077357E+03  0.26304157996E+03  0.22411482841E+04  0.22960463151E+04  0.91177451363E+02 0.  0.
        -11    1    3    3    0    0  0.74298896943E+02 -0.25848632712E+02  0.48531622247E+02  0.92432657962E+02  0.00000000000E+00 0.  1.
         11    1    3    3    0    0  0.26730095514E+01  0.40204386551E+02  0.16097483800E+02  0.43389706875E+02  0.00000000000E+00 0. -1.
        -13    1    4    4    0    0 -0.81539109880E+02  0.73275972503E+02  0.36072142406E+03  0.37701185706E+03  0.00000000000E+00 0.  1.
         13    1    4    4    0    0 -0.33268166369E+03  0.18976560746E+03  0.18804268600E+04  0.19190344580E+04  0.00000000000E+00 0. -1.
          1    1    1    2  501    0  0.33724886708E+03 -0.27739733380E+03 -0.65983577939E+03  0.79124543279E+03  0.00000000000E+00 0. -1.
<scales pt_clust_5="13000.00000" pt_clust_6="13000.00000" pt_clust_7="13000.00000" pt_clust_8="13000.00000" pt_clust_9="438.09600"></scales>
<clustering>
<clus scale="   90.222">  5  6 -1 -1</clus>
<clus scale="   91.177">  7  8 -1 -1</clus>
<clus scale="  119.460">  1  5  2 -1</clus>
<clus scale="  438.096">  2  9  1 -1</clus>
<clus scale="  438.096">  2  5  1 -1</clus>
</clustering>
</event>
<event>
 9    1  0.1504846E-005  0.9576543E+02  0.7546771E-02  0.1289809E+00
         21   -1    0    0  501  502  0.00000000000E+00  0.00000000000E+00  0.29925391152E+02  0.29925391152E+02  0.00000000000E+00 0.  1.
          2   -1    0    0  502    0 -0.00000000000E+00 -0.00000000000E+00 -0.84301300185E+03  0.84301300185E+03  0.00000000000E+00 0. -1.
         23    2    1    2    0    0 -0.34126475889E+02  0.39558031734E+01 -0.48824649889E+03  0.49802912950E+03  0.92022309351E+02 0.  0.
         23    2    1    2    0    0  0.15940554098E+01 -0.24559500423E+02 -0.32236596081E+03  0.33632173838E+03  0.92664928344E+02 0.  0.
        -11    1    4    4    0    0 -0.13409993556E+02  0.32929490089E+02 -0.14380813302E+03  0.14813830824E+03  0.00000000000E+00 0. -1.
         11    1    4    4    0    0  0.15004048966E+02 -0.57488990512E+02 -0.17855782779E+03  0.18818343015E+03  0.00000000000E+00 0.  1.
        -11    1    3    3    0    0 -0.47381439026E+02  0.38578220970E+02 -0.29590948715E+03  0.30215179046E+03  0.00000000000E+00 0. -1.
         11    1    3    3    0    0  0.13254963138E+02 -0.34622417797E+02 -0.19233701174E+03  0.19587733903E+03  0.00000000000E+00 0.  1.
          2    1    1    2  501    0  0.32532420479E+02  0.20603697250E+02 -0.24751510006E+01  0.38587525122E+02  0.00000000000E+00 0. -1.
<scales pt_clust_5="13000.00000" pt_clust_6="13000.00000" pt_clust_7="13000.00000" pt_clust_8="13000.00000" pt_clust_9="38.50806"></scales>
<clustering>
<clus scale="   38.508">  1  9  2 -1</clus>
<clus scale="   92.022">  7  8 -1 -1</clus>
<clus scale="   92.665">  5  6 -1 -1</clus>
<clus scale="   95.144">  2  7  1 -1</clus>
<clus scale="   38.508">  1  5  2 -1</clus>
</clustering>
</event>
<event>
 9    1  0.1504846E-005  0.1356641E+03  0.7546771E-02  0.1219780E+00
         21   -1    0    0  501  502  0.00000000000E+00  0.00000000000E+00  0.45231041379E+02  0.45231041379E+02  0.00000000000E+00 0.  1.
          1   -1    0    0  502    0 -0.00000000000E+00 -0.00000000000E+00 -0.52615824175E+03  0.52615824175E+03  0.00000000000E+00 0. -1.
         23    2    1    2    0    0 -0.92881241404E+02 -0.55595182987E+01 -0.26898231312E+03  0.29879094336E+03  0.90921448600E+02 0.  0.
         23    2    1    2    0    0  0.11315249371E+03 -0.91507336005E+01 -0.19445377219E+03  0.24204912886E+03  0.88816037424E+02 0.  0.
        -13    1    3    3    0    0 -0.36723831078E+02  0.13907542726E+02 -0.22530437218E+02  0.45273393014E+02  0.00000000000E+00 0.  1.
         13    1    3    3    0    0 -0.56157410326E+02 -0.19467061025E+02 -0.24645187590E+03  0.25351755035E+03  0.00000000000E+00 0. -1.
        -13    1    4    4    0    0  0.93779950125E+02 -0.36194636949E+02 -0.99509968470E+02  0.14144597772E+03  0.00000000000E+00 0.  1.
         13    1    4    4    0    0  0.19372543586E+02  0.27043903349E+02 -0.94943803721E+02  0.10060315114E+03  0.00000000000E+00 0. -1.
          1    1    1    2  501    0 -0.20271252306E+02  0.14710251899E+02 -0.17491115059E+02  0.30549210906E+02  0.00000000000E+00 0. -1.
<scales pt_clust_5="13000.00000" pt_clust_6="13000.00000" pt_clust_7="13000.00000" pt_clust_8="13000.00000" pt_clust_9="25.04626"></scales>
<clustering>
<clus scale="   25.046">  1  9  2 -1</clus>
<clus scale="   88.816">  7  8 -1 -1</clus>
<clus scale="   90.921">  5  6 -1 -1</clus>
<clus scale="  134.262">  1  7  2 -1</clus>
<clus scale="   25.046">  1  5  2 -1</clus>
</clustering>
</event>
<event>
 9    1  0.1504846E-005  0.9259934E+02  0.7546771E-02  0.1296835E+00
          1   -1    0    0  502    0 -0.00000000000E+00  0.00000000000E+00  0.34803904975E+03  0.34803904975E+03  0.00000000000E+00 0. -1.
         21   -1    0    0  501  502  0.00000000000E+00 -0.00000000000E+00 -0.55336496144E+02  0.55336496144E+02  0.00000000000E+00 0. -1.
         23    2    1    2    0    0 -0.12013667390E+02  0.84063594427E+01  0.17900043435E+03  0.20088559859E+03  0.89993739452E+02 0.  0.
         23    2    1    2    0    0 -0.10609073770E+02 -0.38828988116E+02  0.12821876670E+03  0.16189366907E+03  0.90273280571E+02 0.  0.
        -11    1    3    3    0    0 -0.47332751949E+02  0.15565367659E+01  0.59269807169E+02  0.75866476494E+02  0.00000000000E+00 0. -1.
         11    1    3    3    0    0  0.35319084558E+02  0.68498226768E+01  0.11973062718E+03  0.12501912210E+03  0.00000000000E+00 0.  1.
        -13    1    4    4    0    0  0.22250173968E+02 -0.14223266116E+02 -0.88294687711E+00  0.26422549760E+02  0.00000000000E+00 0.  1.
         13    1    4    4    0    0 -0.32859247738E+02 -0.24605721999E+02  0.12910171358E+03  0.13547111931E+03  0.00000000000E+00 0. -1.
          1    1    1    2  501    0  0.22622741161E+02  0.30422628673E+02 -0.14516647451E+02  0.40596278231E+02  0.00000000000E+00 0. -1.
<scales pt_clust_5="13000.00000" pt_clust_6="13000.00000" pt_clust_7="13000.00000" pt_clust_8="13000.00000" pt_clust_9="37.91207"></scales>
<clustering>
<clus scale="   37.912">  2  9  1 -1</clus>
<clus scale="   89.994">  5  6 -1 -1</clus>
<clus scale="   90.273">  7  8 -1 -1</clus>
<clus scale="   92.327">  1  5  2 -1</clus>
<clus scale="   37.912">  2  5  1 -1</clus>
</clustering>
</event>
<event>
 9    1  0.1504846E-005  0.1380860E+03  0.7546771E-02  0.1233342E+00
          1   -1    0    0  502    0 -0.00000000000E+00  0.00000000000E+00  0.45745581046E+03  0.45745581046E+03  0.00000000000E+00 0. -1.
         21   -1    0    0  501  502  0.00000000000E+00 -0.00000000000E+00 -0.74799623811E+02  0.74799623811E+02  0.00000000000E+00 0.  1.
         23    2    1    2    0    0 -0.14068907746E+02 -0.22338050526E+02  0.20541984363E+03  0.22677286244E+03  0.92367182039E+02 0.  0.
         23    2    1    2    0    0 -0.77032745273E+02 -0.52986479752E+02  0.11827505979E+03  0.17338514958E+03  0.85625985809E+02 0.  0.
        -11    1    4    4    0    0 -0.52528620024E+02 -0.72587923956E+02  0.62023975917E+02  0.10897355741E+03  0.00000000000E+00 0.  1.
         11    1    4    4    0    0 -0.24504125249E+02  0.19601444204E+02  0.56251083874E+02  0.64411592172E+02  0.00000000000E+00 0. -1.
        -11    1    3    3    0    0 -0.47435826585E+02 -0.31260074546E+01  0.16156867314E+03  0.16841723697E+03  0.00000000000E+00 0. -1.
         11    1    3    3    0    0  0.33366918839E+02 -0.19212043071E+02  0.43851170487E+02  0.58355625477E+02  0.00000000000E+00 0.  1.
          1    1    1    2  501    0  0.91101653019E+02  0.75324530278E+02  0.58961283231E+02  0.13209742225E+03  0.00000000000E+00 0. -1.
<scales pt_clust_5="13000.00000" pt_clust_6="13000.00000" pt_clust_7="13000.00000" pt_clust_8="13000.00000" pt_clust_9="108.33258"></scales>
<clustering>
<clus scale="   85.626">  5  6 -1 -1</clus>
<clus scale="   92.367">  7  8 -1 -1</clus>
<clus scale="   96.066">  1  7  2 -1</clus>
<clus scale="  108.333">  2  9  1 -1</clus>
<clus scale="  108.333">  2  5  1 -1</clus>
</clustering>
</event>
<event>
 9    1  0.1504846E-005  0.1269084E+03  0.7546771E-02  0.1232391E+00
         21   -1    0    0  501  502  0.00000000000E+00  0.00000000000E+00  0.96021252164E+02  0.96021252164E+02  0.00000000000E+00 0. -1.
         -3   -1    0    0    0  501 -0.00000000000E+00 -0.00000000000E+00 -0.19969123928E+03  0.19969123928E+03  0.00000000000E+00 0.  1.
         23    2    1    2    0    0  0.62086126980E+02 -0.68990771885E+02 -0.61502072604E+02  0.14156704067E+03  0.87431735093E+02 0.  0.
         23    2    1    2    0    0 -0.43095356231E+02  0.79174364681E+02 -0.31841290613E+02  0.13024996800E+03  0.88461271885E+02 0.  0.
        -11    1    3    3    0    0  0.43084282569E+02  0.69363156902E+01 -0.27962297806E+01  0.43728557955E+02  0.00000000000E+00 0.  1.
         11    1    3    3    0    0  0.19001844410E+02 -0.75927087575E+02 -0.58705842823E+02  0.97838482716E+02  0.00000000000E+00 0. -1.
        -11    1    4    4    0    0 -0.64216646931E+01  0.48912643241E+02 -0.57870822756E+02  0.76044175140E+02  0.00000000000E+00 0.  1.
         11    1    4    4    0    0 -0.36673691537E+02  0.30261721440E+02  0.26029532143E+02  0.54205792855E+02  0.00000000000E+00 0. -1.
         -3    1    1    2    0  502 -0.18990770749E+02 -0.10183592796E+02 -0.10326623895E+02  0.23895482773E+02  0.00000000000E+00 0.  1.
<scales pt_clust_5="13000.00000" pt_clust_6="13000.00000" pt_clust_7="13000.00000" pt_clust_8="13000.00000" pt_clust_9="21.54891"></scales>
<clustering>
<clus scale="   21.549">  1  9  2 -1</clus>
<clus scale="   87.432">  5  6 -1 -1</clus>
<clus scale="   88.461">  7  8 -1 -1</clus>
<clus scale="  126.193">  2  5  1 -1</clus>
<clus scale="   21.549">  1  5  2 -1</clus>
</clustering>
</event>
<event>
 9    1  0.1504846E-005  0.2343891E+03  0.7546771E-02  0.1124265E+00
         21   -1    0    0  501  502  0.00000000000E+00  0.00000000000E+00  0.31343137170E+03  0.31343137170E+03  0.00000000000E+00 0.  1.
          3   -1    0    0  502    0 -0.00000000000E+00 -0.00000000000E+00 -0.33879256494E+03  0.33879256494E+03  0.00000000000E+00 0. -1.
         23    2    1    2    0    0 -0.47264595589E+02  0.20233155232E+03 -0.17847895978E+03  0.28890058104E+03  0.91852096219E+02 0.  0.
         23    2    1    2    0    0  0.11818396103E+03 -0.19863037336E+03  0.88783355693E+02  0.26749970746E+03  0.10125282900E+03 0.  0.
        -11    1    3    3    0    0 -0.41641698471E+02  0.10047186288E+03 -0.37831194832E+02  0.11515131603E+03  0.00000000000E+00 0.  1.
         11    1    3    3    0    0 -0.56228971180E+01  0.10185968945E+03 -0.14064776495E+03  0.17374926501E+03  0.00000000000E+00 0. -1.
        -11    1    4    4    0    0  0.80115815987E+02 -0.42391590587E+02  0.21329330741E+02  0.93115687581E+02  0.00000000000E+00 0. -1.
         11    1    4    4    0    0  0.38068145046E+02 -0.15623878277E+03  0.67454024952E+02  0.17438401988E+03  0.00000000000E+00 0.  1.
          3    1    1    2  501    0 -0.70919365444E+02 -0.37011789689E+01  0.64334410849E+02  0.95823648125E+02  0.00000000000E+00 0. -1.
<scales pt_clust_5="13000.00000" pt_clust_6="13000.00000" pt_clust_7="13000.00000" pt_clust_8="13000.00000" pt_clust_9="71.01588"></scales>
<clustering>
<clus scale="   71.016">  1  9  2 -1</clus>
<clus scale="   91.852">  5  6 -1 -1</clus>
<clus scale="  101.253">  7  8 -1 -1</clus>
<clus scale="  230.484">  2  5  1 -1</clus>
<clus scale="   71.016">  1  5  2 -1</clus>
</clustering>
</event>
<event>
 9    1  0.1504846E-005  0.1019291E+03  0.7546771E-02  0.1277044E+00
          1   -1    0    0  502    0 -0.00000000000E+00  0.00000000000E+00  0.41925813025E+03  0.41925813025E+03  0.00000000000E+00 0. -1.
         21   -1    0    0  501  502  0.00000000000E+00 -0.00000000000E+00 -0.90512051327E+02  0.90512051327E+02  0.00000000000E+00 0. -1.
         23    2    1    2    0    0  0.35192013612E+02  0.66434490471E+01  0.30456718770E+03  0.32076789757E+03  0.94065185106E+02 0.  0.
         23    2    1    2    0    0 -0.45162957581E+02 -0.29145021571E+02  0.76279779371E+02  0.13138073391E+03  0.92483336233E+02 0.  0.
        -13    1    3    3    0    0  0.54231046482E+02  0.36209450461E+02  0.18624088115E+03  0.19732662394E+03  0.00000000000E+00 0.  1.
         13    1    3    3    0    0 -0.19039032870E+02 -0.29566001414E+02  0.11832630655E+03  0.12344127363E+03  0.00000000000E+00 0. -1.
        -13    1    4    4    0    0 -0.70849210285E+02 -0.36875695948E+02  0.61078191782E+02  0.10054836180E+03  0.00000000000E+00 0.  1.
         13    1    4    4    0    0  0.25686252704E+02  0.77306743764E+01  0.15201587589E+02  0.30832372104E+02  0.00000000000E+00 0. -1.
          1    1    1    2  501    0  0.99709439692E+01  0.22501572524E+02 -0.52100888152E+02  0.57621550100E+02  0.00000000000E+00 0. -1.
<scales pt_clust_5="13000.00000" pt_clust_6="13000.00000" pt_clust_7="13000.00000" pt_clust_8="13000.00000" pt_clust_9="24.61180"></scales>
<clustering>
<clus scale="   24.612">  2  9  1 -1</clus>
<clus scale="   92.483">  7  8 -1 -1</clus>
<clus scale="   94.065">  5  6 -1 -1</clus>
<clus scale="  100.471">  2  7  1 -1</clus>
<clus scale="   24.612">  2  5  1 -1</clus>
</clustering>
</event>
<event>
 9    1  0.1504846E-005  0.1039771E+03  0.7546771E-02  0.1273846E+00
         21   -1    0    0  501  502  0.00000000000E+00  0.00000000000E+00  0.22586955883E+03  0.22586955883E+03  0.00000000000E+00 0.  1.
          1   -1    0    0  502    0 -0.00000000000E+00 -0.00000000000E+00 -0.10232728832E+03  0.10232728832E+03  0.00000000000E+00 0. -1.
         23    2    1    2    0    0 -0.42784346227E+02  0.32937273235E+02 -0.23985650200E+02  0.10892622298E+03  0.91510908569E+02 0.  0.
         23    2    1    2    0    0  0.17841884276E+02 -0.41918659635E+02  0.36861884241E+02  0.10547359724E+03  0.87694779462E+02 0.  0.
        -11    1    3    3    0    0  0.26604624079E+02  0.10790829218E+02  0.73478538650E+01  0.29635096997E+02  0.00000000000E+00 0. -1.
         11    1    3    3    0    0 -0.69388970306E+02  0.22146444016E+02 -0.31333504065E+02  0.79291125983E+02  0.00000000000E+00 0.  1.
        -13    1    4    4    0    0  0.10640533659E+02  0.17985536554E+02  0.39921839460E+02  0.45060556449E+02  0.00000000000E+00 0. -1.
         13    1    4    4    0    0  0.72013506170E+01 -0.59904196188E+02 -0.30599552181E+01  0.60413040791E+02  0.00000000000E+00 0.  1.
          1    1    1    2  501    0  0.24942461951E+02  0.89813864004E+01  0.11066603647E+03  0.11379702693E+03  0.00000000000E+00 0. -1.
<scales pt_clust_5="13000.00000" pt_clust_6="13000.00000" pt_clust_7="13000.00000" pt_clust_8="13000.00000" pt_clust_9="26.51022"></scales>
<clustering>
<clus scale="   26.510">  1  9  2 -1</clus>
<clus scale="   87.695">  7  8 -1 -1</clus>
<clus scale="   91.511">  5  6 -1 -1</clus>
<clus scale="  100.635">  1  7  2 -1</clus>
<clus scale="   26.510">  1  5  2 -1</clus>
</clustering>
</event>
<event>
 9    1  0.1504846E-005  0.9416907E+02  0.7546771E-02  0.1293418E+00
         -1   -1    0    0    0  501 -0.00000000000E+00  0.00000000000E+00  0.29214610803E+03  0.29214610803E+03  0.00000000000E+00 0.  1.
         21   -1    0    0  501  502  0.00000000000E+00 -0.00000000000E+00 -0.11257217129E+03  0.11257217129E+03  0.00000000000E+00 0.  1.
         23    2    1    2    0    0  0.27410121586E+02 -0.13338622767E+02  0.18253507046E+03  0.20591032740E+03  0.90281655716E+02 0.  0.
         23    2    1    2    0    0 -0.16814870123E+02 -0.87826026639E+01  0.73536101470E+02  0.11847467762E+03  0.90933036080E+02 0.  0.
        -11    1    4    4    0    0  0.35438631569E+02 -0.29519871520E+01  0.48763908803E+02  0.60353373040E+02  0.00000000000E+00 0.  1.
         11    1    4    4    0    0 -0.52253501692E+02 -0.58306155119E+01  0.24772192668E+02  0.58121304578E+02  0.00000000000E+00 0. -1.
        -11    1    3    3    0    0  0.30969741982E+01  0.20283517929E+02  0.19399393966E+01  0.20610087666E+02  0.00000000000E+00 0. -1.
         11    1    3    3    0    0  0.24313147388E+02 -0.33622140696E+02  0.18059513107E+03  0.18530023973E+03  0.00000000000E+00 0.  1.
         -1    1    1    2    0  502 -0.10595251463E+02  0.22121225431E+02 -0.76497235187E+02  0.80333274297E+02  0.00000000000E+00 0.  1.
<scales pt_clust_5="13000.00000" pt_clust_6="13000.00000" pt_clust_7="13000.00000" pt_clust_8="13000.00000" pt_clust_9="24.52770"></scales>
<clustering>
<clus scale="   24.528">  2  9  1 -1</clus>
<clus scale="   90.282">  7  8 -1 -1</clus>
<clus scale="   90.933">  5  6 -1 -1</clus>
<clus scale="   93.540">  1  7  2 -1</clus>
<clus scale="   24.528">  2  5  1 -1</clus>
</clustering>
</event>
<event>
 9    1  0.1504846E-005  0.9098536E+02  0.7546771E-02  0.1304310E+00
          1   -1    0    0  502    0 -0.00000000000E+00  0.00000000000E+00  0.19953675130E+03  0.19953675130E+03  0.00000000000E+00 0. -1.
         21   -1    0    0  501  502  0.00000000000E+00 -0.00000000000E+00 -0.77519189457E+02  0.77519189457E+02  0.00000000000E+00 0.  1.
         23    2    1    2    0    0  0.12071317398E+02 -0.20947822324E+01  0.94007682486E+02  0.13129107803E+03  0.90828398579E+02 0.  0.
         23    2    1    2    0    0  0.34408760603E+02 -0.33804780755E+01  0.36044005290E+02  0.98278829979E+02  0.84641406336E+02 0.  0.
        -13    1    4    4    0    0  0.61443528838E+02  0.65117963165E+01  0.18212447736E+02  0.64415867454E+02  0.00000000000E+00 0.  1.
         13    1    4    4    0    0 -0.27034768235E+02 -0.98922743920E+01  0.17831557554E+02  0.33862962525E+02  0.00000000000E+00 0. -1.
        -13    1    3    3    0    0  0.14099706186E+02  0.42702953532E+02  0.60144453700E+02  0.75097931169E+02  0.00000000000E+00 0.  1.
         13    1    3    3    0    0 -0.20283887883E+01 -0.44797735765E+02  0.33863228786E+02  0.56193146864E+02  0.00000000000E+00 0. -1.
          1    1    1    2  501    0 -0.46480078001E+02  0.54752603078E+01 -0.80341259327E+01  0.47486032745E+02  0.00000000000E+00 0. -1.
<scales pt_clust_5="13000.00000" pt_clust_6="13000.00000" pt_clust_7="13000.00000" pt_clust_8="13000.00000" pt_clust_9="46.80145"></scales>
<clustering>
<clus scale="   46.801">  2  9  1 -1</clus>
<clus scale="   84.641">  5  6 -1 -1</clus>
<clus scale="   84.810">  2  5  1 -1</clus>
<clus scale="   90.828">  7  8 -1 -1</clus>
<clus scale="   46.801">  2  5  1 -1</clus>
</clustering>
</event>
<event>
 9    1  0.1504846E-005  0.3211918E+03  0.7546771E-02  0.1096186E+00
          1   -1    0    0  502    0 -0.00000000000E+00  0.00000000000E+00  0.14105313087E+03  0.14105313087E+03  0.00000000000E+00 0. -1.
         21   -1    0    0  501  502  0.00000000000E+00 -0.00000000000E+00 -0.12397981604E+04  0.12397981604E+04  0.00000000000E+00 0.  1.
         23    2    1    2    0    0  0.16567255697E+02 -0.15888516341E+03 -0.26621493981E+03  0.32310403157E+03  0.89481014355E+02 0.  0.
         23    2    1    2    0    0  0.23073071322E+03  0.26976710624E+03 -0.58896501146E+03  0.69336416732E+03  0.88674292567E+02 0.  0.
        -11    1    4    4    0    0  0.21709641216E+03  0.20918882133E+03 -0.51536988154E+03  0.59707363862E+03  0.00000000000E+00 0.  1.
         11    1    4    4    0    0  0.13634301058E+02  0.60578284905E+02 -0.73595129923E+02  0.96290528692E+02  0.00000000000E+00 0. -1.
        -11    1    3    3    0    0  0.44927866461E+02 -0.13224060211E+03 -0.17474286003E+03  0.22369880903E+03  0.00000000000E+00 0.  1.
         11    1    3    3    0    0 -0.28360610764E+02 -0.26644561299E+02 -0.91472079779E+02  0.99405222543E+02  0.00000000000E+00 0. -1.
          1    1    1    2  501    0 -0.24729796892E+03 -0.11088194283E+03 -0.24356507828E+03  0.36438309241E+03  0.00000000000E+00 0. -1.
<scales pt_clust_5="13000.00000" pt_clust_6="13000.00000" pt_clust_7="13000.00000" pt_clust_8="13000.00000" pt_clust_9="308.70884"></scales>
<clustering>
<clus scale="   88.674">  5  6 -1 -1</clus>
<clus scale="   89.481">  7  8 -1 -1</clus>
<clus scale="  183.101">  1  7  2 -1</clus>
<clus scale="  308.709">  2  9  1 -1</clus>
<clus scale="  308.709">  2  5  1 -1</clus>
</clustering>
</event>
<event>
 9    1  0.1504846E-005  0.1141769E+03  0.7546771E-02  0.1254025E+00
         21   -1    0    0  501  502  0.00000000000E+00  0.00000000000E+00  0.59890819068E+03  0.59890819068E+03  0.00000000000E+00 0. -1.
         -3   -1    0    0    0  501 -0.00000000000E+00 -0.00000000000E+00 -0.12295287723E+03  0.12295287723E+03  0.00000000000E+00 0.  1.
         23    2    1    2    0    0  0.34212802315E+02 -0.62808325862E+02 -0.87188047647E+02  0.14301195743E+03  0.87950342093E+02 0.  0.
         23    2    1    2    0    0 -0.22501122784E+02  0.29952727651E+02  0.38563703422E+03  0.39794817116E+03  0.90792942153E+02 0.  0.
        -11    1    3    3    0    0  0.47225141383E+02 -0.35989926231E+02 -0.99269103735E+01  0.60199936199E+02  0.00000000000E+00 0. -1.
         11    1    3    3    0    0 -0.13012339068E+02 -0.26818399631E+02 -0.77261137274E+02  0.82812021227E+02  0.00000000000E+00 0.  1.
        -13    1    4    4    0    0  0.10967606228E+02 -0.28295930302E+02  0.14287409923E+03  0.14606148119E+03  0.00000000000E+00 0.  1.
         13    1    4    4    0    0 -0.33468729013E+02  0.58248657953E+02  0.24276293500E+03  0.25188668997E+03  0.00000000000E+00 0. -1.
         -3    1    1    2    0  502 -0.11711679530E+02  0.32855598211E+02  0.17750632687E+03  0.18090093933E+03  0.00000000000E+00 0.  1.
<scales pt_clust_5="13000.00000" pt_clust_6="13000.00000" pt_clust_7="13000.00000" pt_clust_8="13000.00000" pt_clust_9="34.88056"></scales>
<clustering>
<clus scale="   34.881">  1  9  2 -1</clus>
<clus scale="   87.950">  5  6 -1 -1</clus>
<clus scale="   90.793">  7  8 -1 -1</clus>
<clus scale="  111.930">  2  5  1 -1</clus>
<clus scale="   34.881">  1  5  2 -1</clus>
</clustering>
</event>
<event>
 9    1  0.1504846E-005  0.9458935E+02  0.7546771E-02  0.1294860E+00
          1   -1    0    0  502    0 -0.00000000000E+00  0.00000000000E+00  0.19443309537E+03  0.19443309537E+03  0.00000000000E+00 0. -1.
         21   -1    0    0  501  502  0.00000000000E+00 -0.00000000000E+00 -0.15206938070E+03  0.15206938070E+03  0.00000000000E+00 0.  1.
         23    2    1    2    0    0 -0.11086957589E+01 -0.32324946401E+02  0.15455197054E+03  0.17928802121E+03  0.84922032400E+02 0.  0.
         23    2    1    2    0    0  0.16860341586E+02  0.42433733360E+01 -0.78600456237E+02  0.12068672790E+03  0.89916501466E+02 0.  0.
        -11    1    4    4    0    0  0.20564743670E+02 -0.31358416627E+02 -0.76060814786E+02  0.84802750671E+02  0.00000000000E+00 0.  1.
         11    1    4    4    0    0 -0.37044020841E+01  0.35601789963E+02 -0.25396414516E+01  0.35883977233E+02  0.00000000000E+00 0. -1.
        -13    1    3    3    0    0 -0.35129993491E+02 -0.41113105844E+02  0.76420941903E+02  0.93619251632E+02  0.00000000000E+00 0. -1.
         13    1    3    3    0    0  0.34021297733E+02  0.87881594427E+01  0.78131028635E+02  0.85668769580E+02  0.00000000000E+00 0.  1.
          1    1    1    2  501    0 -0.15751645827E+02  0.28081573065E+02 -0.33587799621E+02  0.46527726953E+02  0.00000000000E+00 0. -1.
<scales pt_clust_5="13000.00000" pt_clust_6="13000.00000" pt_clust_7="13000.00000" pt_clust_8="13000.00000" pt_clust_9="32.19766"></scales>
<clustering>
<clus scale="   32.198">  2  9  1 -1</clus>
<clus scale="   84.922">  7  8 -1 -1</clus>
<clus scale="   89.855">  1  7  2 -1</clus>
<clus scale="   89.917">  5  6 -1 -1</clus>
<clus scale="   32.198">  2  5  1 -1</clus>
</clustering>
</event>
<event>
 9    1  0.1504846E-005  0.3211330E+03  0.7546771E-02  0.1082554E+00
         -3   -1    0    0    0  501 -0.00000000000E+00  0.00000000000E+00  0.18376542942E+03  0.18376542942E+03  0.00000000000E+00 0.  1.
         21   -1    0    0  501  502  0.00000000000E+00 -0.00000000000E+00 -0.17756637825E+04  0.17756637825E+04  0.00000000000E+00 0.  1.
         23    2    1    2    0    0  0.20192507483E+03 -0.14189865471E+03 -0.21089164374E+03  0.33695730267E+03  0.90310433336E+02 0.  0.
         23    2    1    2    0    0  0.52866346990E+02  0.33369175950E+03 -0.20780327862E+03  0.40669662016E+03  0.89860432047E+02 0.  0.
        -11    1    4    4    0    0  0.67162541713E+02  0.22817417425E+03 -0.10977732779E+03  0.26196435349E+03  0.00000000000E+00 0.  1.
         11    1    4    4    0    0 -0.14296194723E+02  0.10551758525E+03 -0.98025950831E+02  0.14473226668E+03  0.00000000000E+00 0. -1.
        -11    1    3    3    0    0  0.11407185163E+03 -0.13105926254E+03 -0.14972020877E+03  0.22935792671E+03  0.00000000000E+00 0. -1.
         11    1    3    3    0    0  0.87853223202E+02 -0.10839392161E+02 -0.61171434972E+02  0.10759937595E+03  0.00000000000E+00 0.  1.
         -3    1    1    2    0  502 -0.25479142182E+03 -0.19179310479E+03 -0.11732034307E+04  0.12157752890E+04  0.00000000000E+00 0.  1.
<scales pt_clust_5="13000.00000" pt_clust_6="13000.00000" pt_clust_7="13000.00000" pt_clust_8="13000.00000" pt_clust_9="308.30420"></scales>
<clustering>
<clus scale="   89.860">  5  6 -1 -1</clus>
<clus scale="   90.310">  7  8 -1 -1</clus>
<clus scale="  262.802">  1  7  2 -1</clus>
<clus scale="  308.304">  2  9  1 -1</clus>
<clus scale="  308.304">  2  5  1 -1</clus>
</clustering>
</event>
<event>
 9    1  0.1504846E-005  0.1000692E+03  0.7546771E-02  0.1281861E+00
         21   -1    0    0  501  502  0.00000000000E+00  0.00000000000E+00  0.53131033962E+02  0.53131033962E+02  0.00000000000E+00 0. -1.
          1   -1    0    0  502    0 -0.00000000000E+00 -0.00000000000E+00 -0.42566803648E+03  0.42566803648E+03  0.00000000000E+00 0. -1.
         23    2    1    2    0    0 -0.30846022211E+02  0.85786119182E+01 -0.28693702733E+03  0.30287734818E+03  0.91524645408E+02 0.  0.
         23    2    1    2    0    0  0.22363957548E+02 -0.27974201059E+02 -0.10586339014E+03  0.14661745150E+03  0.94904779592E+02 0.  0.
        -11    1    4    4    0    0  0.84445258581E+01 -0.57692378398E+02 -0.33706561495E+02  0.67348740374E+02  0.00000000000E+00 0. -1.
         11    1    4    4    0    0  0.13919431690E+02  0.29718177339E+02 -0.72156828645E+02  0.79268711123E+02  0.00000000000E+00 0.  1.
        -11    1    3    3    0    0 -0.46228476671E+02  0.40147262334E+02 -0.16541623947E+03  0.17638425952E+03  0.00000000000E+00 0. -1.
         11    1    3    3    0    0  0.15382454460E+02 -0.31568650416E+02 -0.12152078787E+03  0.12649308866E+03  0.00000000000E+00 0.  1.
          1    1    1    2  501    0  0.84820646630E+01  0.19395589140E+02  0.20263414960E+02  0.29304270762E+02  0.00000000000E+00 0. -1.
<scales pt_clust_5="13000.00000" pt_clust_6="13000.00000" pt_clust_7="13000.00000" pt_clust_8="13000.00000" pt_clust_9="21.16918"></scales>
<clustering>
<clus scale="   21.169">  1  9  2 -1</clus>
<clus scale="   91.525">  7  8 -1 -1</clus>
<clus scale="   94.905">  5  6 -1 -1</clus>
<clus scale="   96.869">  2  7  1 -1</clus>
<clus scale="   21.169">  1  5  2 -1</clus>
</clustering>
</event>
<event>
 9    1  0.1504846E-005  0.1005863E+03  0.7546771E-02  0.1279737E+00
          2   -1    0    0  502    0 -0.00000000000E+00  0.00000000000E+00  0.46419389234E+03  0.46419389234E+03  0.00000000000E+00 0. -1.
         21   -1    0    0  501  502  0.00000000000E+00 -0.00000000000E+00 -0.55581790616E+02  0.55581790616E+02  0.00000000000E+00 0. -1.
         23    2    1    2    0    0 -0.90724014550E+01  0.31492665031E+02  0.28970347481E+03  0.30578438365E+03  0.92205691518E+02 0.  0.
         23    2    1    2    0    0 -0.17020652072E+02 -0.62247238027E+02  0.13092240076E+03  0.17190778752E+03  0.90814047102E+02 0.  0.
        -11    1    3    3    0    0 -0.38819536476E+02 -0.13622068273E+02  0.91069591423E+02  0.99930914327E+02  0.00000000000E+00 0. -1.
         11    1    3    3    0    0  0.29747135021E+02  0.45114733303E+02  0.19863388339E+03  0.20585346932E+03  0.00000000000E+00 0.  1.
        -13    1    4    4    0    0  0.44654972473E-01 -0.76437018329E+02  0.58768379863E+02  0.96417541126E+02  0.00000000000E+00 0.  1.
         13    1    4    4    0    0 -0.17065307044E+02  0.14189780301E+02  0.72154020893E+02  0.75490246393E+02  0.00000000000E+00 0. -1.
          2    1    1    2  501    0  0.26093053526E+02  0.30754572997E+02 -0.12013773841E+02  0.42083511788E+02  0.00000000000E+00 0. -1.
<scales pt_clust_5="13000.00000" pt_clust_6="13000.00000" pt_clust_7="13000.00000" pt_clust_8="13000.00000" pt_clust_9="40.33226"></scales>
<clustering>
<clus scale="   40.332">  2  9  1 -1</clus>
<clus scale="   90.814">  7  8 -1 -1</clus>
<clus scale="   92.206">  5  6 -1 -1</clus>
<clus scale="   99.312">  2  7  1 -1</clus>
<clus scale="   40.332">  2  5  1 -1</clus>
</clustering>
</event>
<event>
 9    1  0.1504846E-005  0.1466414E+03  0.7546771E-02  0.1225592E+00
         -1   -1    0    0    0  501 -0.00000000000E+00  0.00000000000E+00  0.62104279675E+02  0.62104279675E+02  0.00000000000E+00 0.  1.
         21   -1    0    0  501  502  0.00000000000E+00 -0.00000000000E+00 -0.82119077962E+03  0.82119077962E+03  0.00000000000E+00 0.  1.
         23    2    1    2    0    0  0.19238368487E+02  0.30949786656E+02 -0.31451383469E+02  0.99262324612E+02  0.86809074694E+02 0.  0.
         23    2    1    2    0    0  0.66933805084E+02  0.76535149104E+02 -0.49413055799E+03  0.51291830543E+03  0.92641332017E+02 0.  0.
        -11    1    3    3    0    0 -0.32250792265E+02  0.13775310250E+02 -0.27997422236E+02  0.44874585525E+02  0.00000000000E+00 0. -1.
         11    1    3    3    0    0  0.51489160753E+02  0.17174476406E+02 -0.34539612331E+01  0.54387739087E+02  0.00000000000E+00 0.  1.
        -11    1    4    4    0    0  0.49388192651E+02  0.96847691724E+02 -0.42696737544E+03  0.44059029568E+03  0.00000000000E+00 0.  1.
         11    1    4    4    0    0  0.17545612433E+02 -0.20312542620E+02 -0.67163182555E+02  0.72328009749E+02  0.00000000000E+00 0. -1.
         -1    1    1    2    0  502 -0.86172173571E+02 -0.10748493576E+03 -0.23350455849E+03  0.27111442925E+03  0.00000000000E+00 0.  1.
<scales pt_clust_5="13000.00000" pt_clust_6="13000.00000" pt_clust_7="13000.00000" pt_clust_8="13000.00000" pt_clust_9="113.67188"></scales>
<clustering>
<clus scale="   86.809">  5  6 -1 -1</clus>
<clus scale="   92.641">  7  8 -1 -1</clus>
<clus scale="   94.148">  1  5  2 -1</clus>
<clus scale="  113.672">  2  9  1 -1</clus>
<clus scale="  113.672">  2  5  1 -1</clus>
</clustering>
</event>
<event>
 9    1  0.1504846E-005  0.1633882E+03  0.7546771E-02  0.1199238E+00
         -2   -1    0    0    0  501 -0.00000000000E+00  0.00000000000E+00  0.11376291501E+03  0.11376291501E+03  0.00000000000E+00 0.  1.
         21   -1    0    0  501  502  0.00000000000E+00 -0.00000000000E+00 -0.53015657840E+03  0.53015657840E+03  0.00000000000E+00 0.  1.
         23    2    1    2    0    0 -0.39478353047E+02  0.55086229204E+02 -0.15773183820E+03  0.19771982167E+03  0.98085483602E+02 0.  0.
         23    2    1    2    0    0  0.12170602669E+03 -0.14581679878E+03 -0.71426519272E+02  0.22248001156E+03  0.91217937657E+02 0.  0.
        -11    1    3    3    0    0  0.29737377509E+02  0.21925706889E+02 -0.81798358608E+02  0.89755332514E+02  0.00000000000E+00 0.  1.
         11    1    3    3    0    0 -0.69215730556E+02  0.33160522314E+02 -0.75933479591E+02  0.10796448916E+03  0.00000000000E+00 0. -1.
        -13    1    4    4    0    0 -0.12175348533E+02 -0.30200460862E+02 -0.20197338789E+02  0.38317612691E+02  0.00000000000E+00 0. -1.
         13    1    4    4    0    0  0.13388137522E+03 -0.11561633792E+03 -0.51229180483E+02  0.18416239887E+03  0.00000000000E+00 0.  1.
         -2    1    1    2    0  502 -0.82227673642E+02  0.90730569576E+02 -0.18723530592E+03  0.22371966018E+03  0.00000000000E+00 0.  1.
<scales pt_clust_5="13000.00000" pt_clust_6="13000.00000" pt_clust_7="13000.00000" pt_clust_8="13000.00000" pt_clust_9="135.55437"></scales>
<clustering>
<clus scale="   91.218">  7  8 -1 -1</clus>
<clus scale="   98.085">  5  6 -1 -1</clus>
<clus scale="  119.222">  1  5  2 -1</clus>
<clus scale="  135.554">  2  9  1 -1</clus>
<clus scale="  135.554">  2  5  1 -1</clus>
</clustering>
</event>
<event>
 9    1  0.1504846E-005  0.1025697E+03  0.7546771E-02  0.1275952E+00
         21   -1    0    0  501  502  0.00000000000E+00  0.00000000000E+00  0.10090792819E+03  0.10090792819E+03  0.00000000000E+00 0.  1.
         -1   -1    0    0    0  501 -0.00000000000E+00 -0.00000000000E+00 -0.15203444577E+03  0.15203444577E+03  0.00000000000E+00 0.  1.
         23    2    1    2    0    0 -0.76700258162E+01  0.49378316156E+02 -0.60164199844E+02  0.12151647027E+03  0.93002549435E+02 0.  0.
         23    2    1    2    0    0  0.27044753744E+02 -0.26769785013E+02 -0.46204151411E+01  0.98668165868E+02  0.90917647489E+02 0.  0.
        -11    1    3    3    0    0 -0.21637464326E+02 -0.21185051459E+02 -0.32571322257E+02  0.44473332475E+02  0.00000000000E+00 0. -1.
         11    1    3    3    0    0  0.13967438510E+02  0.70563367616E+02 -0.27592877587E+02  0.77043137795E+02  0.00000000000E+00 0.  1.
        -13    1    4    4    0    0  0.30114212019E+02  0.27531638976E+01 -0.41486659921E+02  0.51337984265E+02  0.00000000000E+00 0.  1.
         13    1    4    4    0    0 -0.30694582749E+01 -0.29522948911E+02  0.36866244780E+02  0.47330181604E+02  0.00000000000E+00 0. -1.
         -1    1    1    2    0  502 -0.19374727928E+02 -0.22608531143E+02  0.13658097398E+02  0.32757737823E+02  0.00000000000E+00 0.  1.
<scales pt_clust_5="13000.00000" pt_clust_6="13000.00000" pt_clust_7="13000.00000" pt_clust_8="13000.00000" pt_clust_9="29.77458"></scales>
<clustering>
<clus scale="   29.775">  1  9  2 -1</clus>
<clus scale="   90.918">  7  8 -1 -1</clus>
<clus scale="   93.003">  5  6 -1 -1</clus>
<clus scale="  100.683">  1  7  2 -1</clus>
<clus scale="   29.775">  1  5  2 -1</clus>
</clustering>
</event>
<event>
 9    1  0.1504846E-005  0.1573724E+03  0.7546771E-02  0.1206141E+00
          3   -1    0    0  502    0 -0.00000000000E+00  0.00000000000E+00  0.19705968459E+03  0.19705968459E+03  0.00000000000E+00 0. -1.
         21   -1    0    0  501  502  0.00000000000E+00 -0.00000000000E+00 -0.38233412896E+03  0.38233412896E+03  0.00000000000E+00 0. -1.
         23    2    1    2    0    0  0.26643732923E+02 -0.61333042997E+02 -0.11656159895E+03  0.16368979347E+03  0.93467167859E+02 0.  0.
         23    2    1    2    0    0 -0.11180085917E+03 -0.33325879335E+02  0.11645639403E+03  0.19098264823E+03  0.96448088987E+02 0.  0.
        -11    1    4    4    0    0 -0.27919355393E+02 -0.29165525563E+02 -0.76863990452E+01  0.41099866389E+02  0.00000000000E+00 0.  1.
         11    1    4    4    0    0 -0.83881503779E+02 -0.41603537716E+01  0.12414279307E+03  0.14988278184E+03  0.00000000000E+00 0. -1.
        -11    1    3    3    0    0  0.51464740726E+02 -0.71100587040E+02 -0.82811449930E+02  0.12067165887E+03  0.00000000000E+00 0.  1.
         11    1    3    3    0    0 -0.24821007803E+02  0.97675440428E+01 -0.33750149020E+02  0.43018134593E+02  0.00000000000E+00 0. -1.
          3    1    1    2  501    0  0.85157126248E+02  0.94658922332E+02 -0.18516923945E+03  0.22472137185E+03  0.00000000000E+00 0. -1.
<scales pt_clust_5="13000.00000" pt_clust_6="13000.00000" pt_clust_7="13000.00000" pt_clust_8="13000.00000" pt_clust_9="124.35374"></scales>
<clustering>
<clus scale="   93.467">  7  8 -1 -1</clus>
<clus scale="   96.448">  5  6 -1 -1</clus>
<clus scale="  114.925">  1  7  2 -1</clus>
<clus scale="  124.354">  2  9  1 -1</clus>
<clus scale="  124.354">  2  5  1 -1</clus>
</clustering>
</event>
<event>
 9    1  0.1504846E-005  0.9466990E+02  0.7546771E-02  0.1293679E+00
          2   -1    0    0  502    0 -0.00000000000E+00  0.00000000000E+00  0.10421723854E+03  0.10421723854E+03  0.00000000000E+00 0. -1.
         21   -1    0    0  501  502  0.00000000000E+00 -0.00000000000E+00 -0.13487518292E+03  0.13487518292E+03  0.00000000000E+00 0.  1.
         23    2    1    2    0    0 -0.77069155365E+01 -0.16456443234E+02  0.38339992165E+02  0.98292804704E+02  0.88664025322E+02 0.  0.
         23    2    1    2    0    0  0.13873313262E+02  0.35911276915E+02 -0.67605348582E+02  0.12034346083E+03  0.91814904977E+02 0.  0.
        -11    1    4    4    0    0 -0.28849932903E+02  0.35460350844E+02 -0.70827229771E+01  0.46259270155E+02  0.00000000000E+00 0.  1.
         11    1    4    4    0    0  0.42723246164E+02  0.45092607123E+00 -0.60522625605E+02  0.74084190670E+02  0.00000000000E+00 0. -1.
        -13    1    3    3    0    0  0.13770844890E+02 -0.22103975886E+02  0.61145668156E+02  0.66460624833E+02  0.00000000000E+00 0. -1.
         13    1    3    3    0    0 -0.21477760426E+02  0.56475326511E+01 -0.22805675991E+02  0.31832179871E+02  0.00000000000E+00 0.  1.
          2    1    1    2  501    0 -0.61663977254E+01 -0.19454833681E+02 -0.13925879670E+01  0.20456155937E+02  0.00000000000E+00 0. -1.
<scales pt_clust_5="13000.00000" pt_clust_6="13000.00000" pt_clust_7="13000.00000" pt_clust_8="13000.00000" pt_clust_9="20.40871"></scales>
<clustering>
<clus scale="   20.409">  2  9  1 -1</clus>
<clus scale="   88.664">  7  8 -1 -1</clus>
<clus scale="   91.617">  1  7  2 -1</clus>
<clus scale="   91.815">  5  6 -1 -1</clus>
<clus scale="   20.409">  2  5  1 -1</clus>
</clustering>
</event>
<event>
 9    1  0.1504846E-005  0.9430936E+02  0.7546771E-02  0.1295673E+00
         21   -1    0    0  501  502  0.00000000000E+00  0.00000000000E+00  0.14934795703E+03  0.14934795703E+03  0.00000000000E+00 0. -1.
         -2   -1    0    0    0  501 -0.00000000000E+00 -0.00000000000E+00 -0.24808099344E+03  0.24808099344E+03  0.00000000000E+00 0.  1.
         23    2    1    2    0    0  0.15730848851E+02  0.10550856908E+02 -0.17629550749E+03  0.19758774960E+03  0.87189636106E+02 0.  0.
         23    2    1    2    0    0 -0.37221249992E+02  0.41143958495E+02  0.45029206163E+01  0.10779833480E+03  0.92314451301E+02 0.  0.
        -13    1    3    3    0    0  0.14503701921E+02  0.48580847019E+02 -0.90512222483E+02  0.10374448653E+03  0.00000000000E+00 0. -1.
         13    1    3    3    0    0  0.12271469292E+01 -0.38029990110E+02 -0.85783285003E+02  0.93843263069E+02  0.00000000000E+00 0.  1.
        -13    1    4    4    0    0  0.29487493252E+02  0.19566208909E+02 -0.87283322980E+01  0.36449040784E+02  0.00000000000E+00 0.  1.
         13    1    4    4    0    0 -0.66708743243E+02  0.21577749586E+02  0.13231252914E+02  0.71349294012E+02  0.00000000000E+00 0. -1.
         -2    1    1    2    0  502  0.21490401141E+02 -0.51694815403E+02  0.73059550461E+02  0.92042866070E+02  0.00000000000E+00 0.  1.
<scales pt_clust_5="13000.00000" pt_clust_6="13000.00000" pt_clust_7="13000.00000" pt_clust_8="13000.00000" pt_clust_9="55.98385"></scales>
<clustering>
<clus scale="   55.984">  1  9  2 -1</clus>
<clus scale="   87.190">  5  6 -1 -1</clus>
<clus scale="   89.299">  2  5  1 -1</clus>
<clus scale="   92.314">  7  8 -1 -1</clus>
<clus scale="   55.984">  1  5  2 -1</clus>
</clustering>
</event>
<event>
 9    1  0.1504846E-005  0.1693466E+03  0.7546771E-02  0.1196620E+00
         21   -1    0    0  501  502  0.00000000000E+00  0.00000000000E+00  0.18484876928E+03  0.18484876928E+03  0.00000000000E+00 0.  1.
         -1   -1    0    0    0  501 -0.00000000000E+00 -0.00000000000E+00 -0.36096569196E+03  0.36096569196E+03  0.00000000000E+00 0.  1.
         23    2    1    2    0    0  0.39464590188E+02  0.55459492143E+02  0.13973907164E+02  0.11422150840E+03  0.90653592056E+02 0.  0.
         23    2    1    2    0    0  0.31350269080E+02  0.76456583264E+02 -0.24139956286E+03  0.27332362123E+03  0.97997982007E+02 0.  0.
        -11    1    4    4    0    0  0.51434318692E+02  0.55227816925E+02 -0.22981149001E+03  0.24188617538E+03  0.00000000000E+00 0. -1.
         11    1    4    4    0    0 -0.20084049611E+02  0.21228766339E+02 -0.11588072855E+02  0.31437445850E+02  0.00000000000E+00 0.  1.
        -13    1    3    3    0    0 -0.28153698057E+02  0.92368689283E+01  0.12876293616E+02  0.32307110659E+02  0.00000000000E+00 0. -1.
         13    1    3    3    0    0  0.67618288245E+02  0.46222623215E+02  0.10976135480E+01  0.81914397743E+02  0.00000000000E+00 0.  1.
         -1    1    1    2    0  502 -0.70814859268E+02 -0.13191607541E+03  0.51308733020E+02  0.15826933161E+03  0.00000000000E+00 0.  1.
<scales pt_clust_5="13000.00000" pt_clust_6="13000.00000" pt_clust_7="13000.00000" pt_clust_8="13000.00000" pt_clust_9="138.11105"></scales>
<clustering>
<clus scale="   90.654">  7  8 -1 -1</clus>
<clus scale="   97.998">  5  6 -1 -1</clus>
<clus scale="  113.364">  2  7  1 -1</clus>
<clus scale="  138.111">  1  9  2 -1</clus>
<clus scale="  138.111">  1  5  2 -1</clus>
</clustering>
</event>
<event>
 9    1  0.1504846E-005  0.1019476E+03  0.7546771E-02  0.1280071E+00
         -3   -1    0    0    0  501 -0.00000000000E+00  0.00000000000E+00  0.36843979443E+03  0.36843979443E+03  0.00000000000E+00 0.  1.
         21   -1    0    0  501  502  0.00000000000E+00 -0.00000000000E+00 -0.30764362412E+03  0.30764362412E+03  0.00000000000E+00 0.  1.
         23    2    1    2    0    0 -0.42787245247E+02 -0.16392989157E+02  0.23632618294E+03  0.25754604621E+03  0.91544648803E+02 0.  0.
         23    2    1    2    0    0 -0.18259146939E+02 -0.44547109491E+01  0.96187393721E+02  0.13926754312E+03  0.98945403937E+02 0.  0.
        -11    1    3    3    0    0 -0.34896348500E+02 -0.49500225157E+02  0.19399714469E+03  0.20323119735E+03  0.00000000000E+00 0.  1.
         11    1    3    3    0    0 -0.78908967471E+01  0.33107236000E+02  0.42329038256E+02  0.54314848861E+02  0.00000000000E+00 0. -1.
        -13    1    4    4    0    0  0.33421046262E+02 -0.19803448015E+02  0.14648396136E+02  0.41517687747E+02  0.00000000000E+00 0.  1.
         13    1    4    4    0    0 -0.51680193201E+02  0.15348737066E+02  0.81538997585E+02  0.97749855376E+02  0.00000000000E+00 0. -1.
         -3    1    1    2    0  502  0.61046392186E+02  0.20847700106E+02 -0.27171740635E+03  0.27926982922E+03  0.00000000000E+00 0.  1.
<scales pt_clust_5="13000.00000" pt_clust_6="13000.00000" pt_clust_7="13000.00000" pt_clust_8="13000.00000" pt_clust_9="64.50805"></scales>
<clustering>
<clus scale="   64.508">  2  9  1 -1</clus>
<clus scale="   91.545">  5  6 -1 -1</clus>
<clus scale="   94.782">  1  5  2 -1</clus>
<clus scale="   98.945">  7  8 -1 -1</clus>
<clus scale="   64.508">  2  5  1 -1</clus>
</clustering>
</event>
<event>
 9    1  0.1504846E-005  0.1135939E+03  0.7546771E-02  0.1254174E+00
         21   -1    0    0  501  502  0.00000000000E+00  0.00000000000E+00  0.89063766849E+02  0.89063766849E+02  0.00000000000E+00 0. -1.
         -1   -1    0    0    0  501 -0.00000000000E+00 -0.00000000000E+00 -0.21394426896E+03  0.21394426896E+03  0.00000000000E+00 0.  1.
         23    2    1    2    0    0 -0.17345069272E+02  0.59584695063E+02 -0.80792855957E+02  0.13701694184E+03  0.91624065964E+02 0.  0.
         23    2    1    2    0    0 -0.16356657061E+02 -0.77571323743E+02 -0.38603106267E+02  0.12739827927E+03  0.91952548899E+02 0.  0.
        -11    1    3    3    0    0 -0.41028195635E+02  0.43141515528E+02 -0.88966282928E+02  0.10704906677E+03  0.00000000000E+00 0.  1.
         11    1    3    3    0    0  0.23683126363E+02  0.16443179535E+02  0.81734269708E+01  0.29967875066E+02  0.00000000000E+00 0. -1.
        -13    1    4    4    0    0 -0.44567501065E+01 -0.97040584882E+02 -0.23220798593E+02  0.99879643687E+02  0.00000000000E+00 0.  1.
         13    1    4    4    0    0 -0.11899906955E+02  0.19469261138E+02 -0.15382307674E+02  0.27518635580E+02  0.00000000000E+00 0. -1.
         -1    1    1    2    0  502  0.33701726333E+02  0.17986628680E+02 -0.54845398891E+01  0.38592814706E+02  0.00000000000E+00 0.  1.
<scales pt_clust_5="13000.00000" pt_clust_6="13000.00000" pt_clust_7="13000.00000" pt_clust_8="13000.00000" pt_clust_9="38.20111"></scales>
<clustering>
<clus scale="   38.201">  1  9  2 -1</clus>
<clus scale="   91.624">  5  6 -1 -1</clus>
<clus scale="   91.953">  7  8 -1 -1</clus>
<clus scale="  113.328">  2  5  1 -1</clus>
<clus scale="   38.201">  1  5  2 -1</clus>
</clustering>
</event>
<event>
 9    1  0.1504846E-005  0.1310753E+03  0.7546771E-02  0.1227661E+00
          1   -1    0    0  502    0 -0.00000000000E+00  0.00000000000E+00  0.62426618718E+03  0.62426618718E+03  0.00000000000E+00 0. -1.
         21   -1    0    0  501  502  0.00000000000E+00 -0.00000000000E+00 -0.37746789547E+02  0.37746789547E+02  0.00000000000E+00 0.  1.
         23    2    1    2    0    0  0.56449400944E+02 -0.58595960778E+02  0.31597781365E+03  0.34030101450E+03  0.96658058446E+02 0.  0.
         23    2    1    2    0    0 -0.44032054814E+02  0.93405167329E+02  0.21764998950E+03  0.25718760936E+03  0.90058877112E+02 0.  0.
        -11    1    4    4    0    0  0.43779324703E+01  0.57366034420E+02  0.17242763453E+03  0.18177270793E+03  0.00000000000E+00 0. -1.
         11    1    4    4    0    0 -0.48409987284E+02  0.36039132908E+02  0.45222354967E+02  0.75414901435E+02  0.00000000000E+00 0.  1.
        -11    1    3    3    0    0  0.78769146242E+02 -0.58083976324E+02  0.20582412509E+03  0.22790765054E+03  0.00000000000E+00 0. -1.
         11    1    3    3    0    0 -0.22319745298E+02 -0.51198445346E+00  0.11015368857E+03  0.11239336397E+03  0.00000000000E+00 0.  1.
          1    1    1    2  501    0 -0.12417346130E+02 -0.34809206551E+02  0.52891594478E+02  0.64524352860E+02  0.00000000000E+00 0. -1.
<scales pt_clust_5="13000.00000" pt_clust_6="13000.00000" pt_clust_7="13000.00000" pt_clust_8="13000.00000" pt_clust_9="36.95770"></scales>
<clustering>
<clus scale="   36.958">  2  9  1 -1</clus>
<clus scale="   90.059">  5  6 -1 -1</clus>
<clus scale="   96.658">  7  8 -1 -1</clus>
<clus scale="  126.288">  2  5  1 -1</clus>
<clus scale="   36.958">  2  5  1 -1</clus>
</clustering>
</event>
<event>
 9    1  0.1504846E-005  0.9864092E+02  0.7546771E-02  0.1286387E+00
         21   -1    0    0  501  502  0.00000000000E+00  0.00000000000E+00  0.19691763821E+03  0.19691763821E+03  0.00000000000E+00 0. -1.
         -1   -1    0    0    0  501 -0.00000000000E+00 -0.00000000000E+00 -0.72027075852E+02  0.72027075852E+02  0.00000000000E+00 0.  1.
         23    2    1    2    0    0  0.29649529502E+01  0.24313847633E+01  0.60261419271E+02  0.10969332757E+03  0.91577753215E+02 0.  0.
         23    2    1    2    0    0  0.24288062016E+02 -0.22584280296E+02  0.70616118403E+02  0.12483177149E+03  0.97449347465E+02 0.  0.
        -13    1    4    4    0    0 -0.71043487398E+01 -0.24308755772E+02 -0.17824343160E+02  0.30969252289E+02  0.00000000000E+00 0.  1.
         13    1    4    4    0    0  0.31392410756E+02  0.17244754765E+01  0.88440461564E+02  0.93862519199E+02  0.00000000000E+00 0. -1.
        -13    1    3    3    0    0 -0.28946525030E+02  0.34570825291E+02  0.20939812408E+02  0.49714374344E+02  0.00000000000E+00 0.  1.
         13    1    3    3    0    0  0.31911477981E+02 -0.32139440528E+02  0.39321606862E+02  0.59978953230E+02  0.00000000000E+00 0. -1.
         -1    1    1    2    0  502 -0.27253014966E+02  0.20152895533E+02 -0.59869753195E+01  0.34419614998E+02  0.00000000000E+00 0.  1.
<scales pt_clust_5="13000.00000" pt_clust_6="13000.00000" pt_clust_7="13000.00000" pt_clust_8="13000.00000" pt_clust_9="33.89494"></scales>
<clustering>
<clus scale="   33.895">  1  9  2 -1</clus>
<clus scale="   91.578">  7  8 -1 -1</clus>
<clus scale="   92.845">  2  7  1 -1</clus>
<clus scale="   97.449">  5  6 -1 -1</clus>
<clus scale="   33.895">  1  5  2 -1</clus>
</clustering>
</event>
<event>
 9    1  0.1504846E-005  0.2636389E+03  0.7546771E-02  0.1139112E+00
         -1   -1    0    0    0  501 -0.00000000000E+00  0.00000000000E+00  0.67113592843E+03  0.67113592843E+03  0.00000000000E+00 0.  1.
         21   -1    0    0  501  502  0.00000000000E+00 -0.00000000000E+00 -0.22298986465E+03  0.22298986465E+03  0.00000000000E+00 0.  1.
         23    2    1    2    0    0 -0.34150437326E+02 -0.54578859714E+02  0.35308518004E+03  0.37060503823E+03  0.92378816304E+02 0.  0.
         23    2    1    2    0    0  0.26373134305E+03  0.30768519358E+02  0.25338422951E+02  0.28240761518E+03  0.92796025467E+02 0.  0.
        -11    1    4    4    0    0  0.22880913771E+03 -0.63340271612E+01  0.96722163889E+01  0.22910105450E+03  0.00000000000E+00 0.  1.
         11    1    4    4    0    0  0.34922205338E+02  0.37102546519E+02  0.15666206562E+02  0.53306560683E+02  0.00000000000E+00 0. -1.
        -13    1    3    3    0    0 -0.43066476547E+02  0.12411883252E+02  0.15172962970E+03  0.15821079855E+03  0.00000000000E+00 0. -1.
         13    1    3    3    0    0  0.89160392210E+01 -0.66990742965E+02  0.20135555034E+03  0.21239423968E+03  0.00000000000E+00 0.  1.
         -1    1    1    2    0  502 -0.22958090573E+03  0.23810340356E+02  0.69722460795E+02  0.24111313967E+03  0.00000000000E+00 0.  1.
<scales pt_clust_5="13000.00000" pt_clust_6="13000.00000" pt_clust_7="13000.00000" pt_clust_8="13000.00000" pt_clust_9="246.76802"></scales>
<clustering>
<clus scale="   92.379">  7  8 -1 -1</clus>
<clus scale="   92.796">  5  6 -1 -1</clus>
<clus scale="  112.601">  1  7  2 -1</clus>
<clus scale="  246.768">  2  9  1 -1</clus>
<clus scale="  246.768">  2  5  1 -1</clus>
</clustering>
</event>
<event>
 9    1  0.1504846E-005  0.9787507E+02  0.7546771E-02  0.1284978E+00
          1   -1    0    0  502    0 -0.00000000000E+00  0.00000000000E+00  0.46756852444E+03  0.46756852444E+03  0.00000000000E+00 0. -1.
         21   -1    0    0  501  502  0.00000000000E+00 -0.00000000000E+00 -0.32877228505E+02  0.32877228505E+02  0.00000000000E+00 0. -1.
         23    2    1    2    0    0  0.11190556884E+02 -0.53923093057E+02  0.24625276184E+03  0.26804428490E+03  0.90412319002E+02 0.  0.
         23    2    1    2    0    0  0.10059666868E+02  0.16623617669E+02  0.14059904678E+03  0.16812519388E+03  0.90113524506E+02 0.  0.
        -11    1    3    3    0    0  0.37028221620E+02 -0.65112251245E+02  0.14856667752E+03  0.16638134550E+03  0.00000000000E+00 0. -1.
         11    1    3    3    0    0 -0.25837664736E+02  0.11189158188E+02  0.97686084314E+02  0.10166293941E+03  0.00000000000E+00 0.  1.
        -11    1    4    4    0    0 -0.56528582112E+01 -0.30874219917E+02  0.19132271581E+02  0.36758891132E+02  0.00000000000E+00 0. -1.
         11    1    4    4    0    0  0.15712525080E+02  0.47497837585E+02  0.12146677520E+03  0.13136630275E+03  0.00000000000E+00 0.  1.
          1    1    1    2  501    0 -0.21250223752E+02  0.37299475389E+02  0.47839487317E+02  0.64276274165E+02  0.00000000000E+00 0. -1.
<scales pt_clust_5="13000.00000" pt_clust_6="13000.00000" pt_clust_7="13000.00000" pt_clust_8="13000.00000" pt_clust_9="42.92811"></scales>
<clustering>
<clus scale="   42.928">  2  9  1 -1</clus>
<clus scale="   90.114">  7  8 -1 -1</clus>
<clus scale="   90.412">  5  6 -1 -1</clus>
<clus scale="   97.599">  2  7  1 -1</clus>
<clus scale="   42.928">  2  5  1 -1</clus>
</clustering>
</event>
<event>
 9    1  0.1504846E-005  0.1003645E+03  0.7546771E-02  0.1293105E+00
         -3   -1    0    0    0  501 -0.00000000000E+00  0.00000000000E+00  0.25305362664E+03  0.25305362664E+03  0.00000000000E+00 0.  1.
         21   -1    0    0  501  502  0.00000000000E+00 -0.00000000000E+00 -0.10341512004E+03  0.10341512004E+03  0.00000000000E+00 0.  1.
         23    2    1    2    0    0  0.27523864729E+02  0.39439514863E+02  0.20178428211E+03  0.22611702862E+03  0.89994309081E+02 0.  0.
         23    2    1    2    0    0 -0.70493983147E+01 -0.35284893588E+02  0.10249579049E+01  0.73223865435E+02  0.63764929221E+02 0.  0.
        -13    1    4    4    0    0 -0.17086627457E+02 -0.11167181286E+02 -0.27692454260E+02  0.34402482449E+02  0.00000000000E+00 0. -1.
         13    1    4    4    0    0  0.10037229142E+02 -0.24117712302E+02  0.28717412165E+02  0.38821382986E+02  0.00000000000E+00 0.  1.
        -13    1    3    3    0    0  0.13793186403E+01 -0.28423046829E+02  0.44306203718E+02  0.52657495182E+02  0.00000000000E+00 0. -1.
         13    1    3    3    0    0  0.26144546088E+02  0.67862561692E+02  0.15747807839E+03  0.17345953344E+03  0.00000000000E+00 0.  1.
         -3    1    1    2    0  502 -0.20474466414E+02 -0.41546212752E+01 -0.53170733416E+02  0.57127852619E+02  0.00000000000E+00 0.  1.
<scales pt_clust_5="13000.00000" pt_clust_6="13000.00000" pt_clust_7="13000.00000" pt_clust_8="13000.00000" pt_clust_9="20.89174"></scales>
<clustering>
<clus scale="   20.892">  2  9  1 -1</clus>
<clus scale="   63.765">  5  6 -1 -1</clus>
<clus scale="   77.718">  2  5  1 -1</clus>
<clus scale="   89.994">  7  8 -1 -1</clus>
<clus scale="   20.892">  2  5  1 -1</clus>
</clustering>
</event>
<event>
 9    1  0.1504846E-005  0.1026646E+03  0.7546771E-02  0.1276570E+00
          1   -1    0    0  502    0 -0.00000000000E+00  0.00000000000E+00  0.11461669960E+03  0.11461669960E+03  0.00000000000E+00 0. -1.
         21   -1    0    0  501  502  0.00000000000E+00 -0.00000000000E+00 -0.15950191168E+03  0.15950191168E+03  0.00000000000E+00 0.  1.
         23    2    1    2    0    0 -0.37042611632E+02 -0.94924232071E+01  0.37591082135E+02  0.10685212529E+03  0.92423081788E+02 0.  0.
         23    2    1    2    0    0  0.50649545905E+02  0.41798941171E+02 -0.58843726900E+02  0.12498932903E+03  0.88584536989E+02 0.  0.
        -11    1    3    3    0    0  0.18521218898E+02 -0.32675394418E+02  0.36465063684E+01  0.37736109478E+02  0.00000000000E+00 0.  1.
         11    1    3    3    0    0 -0.55563830529E+02  0.23182971211E+02  0.33944575767E+02  0.69116015808E+02  0.00000000000E+00 0. -1.
        -13    1    4    4    0    0  0.25911840675E+02 -0.36213299317E+01 -0.67642582875E+02  0.72526247219E+02  0.00000000000E+00 0.  1.
         13    1    4    4    0    0  0.24737705229E+02  0.45420271103E+02  0.87988559753E+01  0.52463081815E+02  0.00000000000E+00 0. -1.
          1    1    1    2  501    0 -0.13606934273E+02 -0.32306517964E+02 -0.23632567314E+02  0.42277156966E+02  0.00000000000E+00 0. -1.
<scales pt_clust_5="13000.00000" pt_clust_6="13000.00000" pt_clust_7="13000.00000" pt_clust_8="13000.00000" pt_clust_9="35.05510"></scales>
<clustering>
<clus scale="   35.055">  2  9  1 -1</clus>
<clus scale="   88.585">  7  8 -1 -1</clus>
<clus scale="   92.423">  5  6 -1 -1</clus>
<clus scale="   99.223">  2  7  1 -1</clus>
<clus scale="   35.055">  2  5  1 -1</clus>
</clustering>
</event>
<event>
 9    1  0.1638516E-005  0.9509467E+02  0.7546771E-02  0.1291297E+00
         21   -1    0    0  501  502  0.00000000000E+00  0.00000000000E+00  0.11195196304E+03  0.11195196304E+03  0.00000000000E+00 0.  1.
         -3   -1    0    0    0  501 -0.00000000000E+00 -0.00000000000E+00 -0.57490610759E+03  0.57490610759E+03  0.00000000000E+00 0.  1.
         23    2    1    2    0    0 -0.76796169568E+01 -0.30426630837E+02 -0.34012805637E+03  0.35330967759E+03  0.90309895169E+02 0.  0.
         23    2    1    2    0    0 -0.20100940067E+02  0.23358630649E+02 -0.21583337998E+03  0.23622382111E+03  0.90928391204E+02 0.  0.
        -11    1    4    4    0    0 -0.50948117061E+02  0.31235369220E+02 -0.17172090269E+03  0.18182251606E+03  0.00000000000E+00 0.  1.
         11    1    4    4    0    0  0.30847176994E+02 -0.78767385705E+01 -0.44112477287E+02  0.54401305052E+02  0.00000000000E+00 0. -1.
        -13    1    3    3    0    0 -0.48839951264E+02 -0.18308730540E+02 -0.16775497838E+03  0.17567664393E+03  0.00000000000E+00 0.  1.
         13    1    3    3    0    0  0.41160334308E+02 -0.12117900298E+02 -0.17237307799E+03  0.17763303365E+03  0.00000000000E+00 0. -1.
         -3    1    1    2    0  502  0.27780557024E+02  0.70680001883E+01  0.93007291801E+02  0.97324571940E+02  0.00000000000E+00 0.  1.
<scales pt_clust_5="13000.00000" pt_clust_6="13000.00000" pt_clust_7="13000.00000" pt_clust_8="13000.00000" pt_clust_9="28.66559"></scales>
<clustering>
<clus scale="   28.666">  1  9  2 -1</clus>
<clus scale="   90.310">  7  8 -1 -1</clus>
<clus scale="   90.928">  5  6 -1 -1</clus>
<clus scale="   94.503">  2  7  1 -1</clus>
<clus scale="   28.666">  1  5  2 -1</clus>
</clustering>
</event>
<event>
 9    1  0.1518308E-005  0.2781837E+03  0.7546771E-02  0.1097033E+00
         21   -1    0    0  501  502  0.00000000000E+00  0.00000000000E+00  0.25561673261E+03  0.25561673261E+03  0.00000000000E+00 0.  1.
          2   -1    0    0  502    0 -0.00000000000E+00 -0.00000000000E+00 -0.71562673365E+03  0.71562673365E+03  0.00000000000E+00 0. -1.
         23    2    1    2    0    0  0.22184924725E+03 -0.13053717953E+03 -0.55764059832E+03  0.62151735964E+03  0.95203716788E+02 0.  0.
         23    2    1    2    0    0 -0.24184533911E+03  0.14902873876E+03  0.59990184096E+02  0.30326556254E+03  0.87592500859E+02 0.  0.
        -11    1    4    4    0    0 -0.94236844519E+02  0.20957635054E+02 -0.67111192936E+01  0.96772126431E+02  0.00000000000E+00 0. -1.
         11    1    4    4    0    0 -0.14760849459E+03  0.12807110371E+03  0.66701303390E+02  0.20649343610E+03  0.00000000000E+00 0.  1.
        -13    1    3    3    0    0  0.39727007345E+02 -0.28684159724E+02 -0.39505925694E+02  0.62942309273E+02  0.00000000000E+00 0.  1.
         13    1    3    3    0    0  0.18212223990E+03 -0.10185301981E+03 -0.51813467263E+03  0.55857505037E+03  0.00000000000E+00 0. -1.
          2    1    1    2  501    0  0.19996091860E+02 -0.18491559231E+02  0.37640413184E+02  0.46460544090E+02  0.00000000000E+00 0. -1.
<scales pt_clust_5="13000.00000" pt_clust_6="13000.00000" pt_clust_7="13000.00000" pt_clust_8="13000.00000" pt_clust_9="27.23567"></scales>
<clustering>
<clus scale="   27.236">  1  9  2 -1</clus>
<clus scale="   87.593">  5  6 -1 -1</clus>
<clus scale="   95.204">  7  8 -1 -1</clus>
<clus scale="  275.672">  1  5  2 -1</clus>
<clus scale="   27.236">  1  5  2 -1</clus>
</clustering>
</event>
<event>
 9    1  0.1504846E-005  0.1251495E+03  0.7546771E-02  0.1236192E+00
         21   -1    0    0  501  502  0.00000000000E+00  0.00000000000E+00  0.14895833804E+03  0.14895833804E+03  0.00000000000E+00 0. -1.
          2   -1    0    0  502    0 -0.00000000000E+00 -0.00000000000E+00 -0.22830900657E+03  0.22830900657E+03  0.00000000000E+00 0. -1.
         23    2    1    2    0    0 -0.73645106042E+02 -0.25114971233E+02 -0.10527031969E+03  0.15993327347E+03  0.91882796716E+02 0.  0.
         23    2    1    2    0    0  0.75499262893E+02  0.72658808994E+02 -0.34340155775E+02  0.14055452478E+03  0.87160122284E+02 0.  0.
        -11    1    4    4    0    0  0.60007012769E+02  0.51829013128E+02 -0.63448633144E+02  0.10155204198E+03  0.00000000000E+00 0. -1.
         11    1    4    4    0    0  0.15492250124E+02  0.20829795866E+02  0.29108477369E+02  0.39002482799E+02  0.00000000000E+00 0.  1.
        -13    1    3    3    0    0 -0.64099421967E+02 -0.57736884185E+02 -0.78986369679E+02  0.11696636391E+03  0.00000000000E+00 0. -1.
         13    1    3    3    0    0 -0.95456840754E+01  0.32621912951E+02 -0.26283950009E+02  0.42966909560E+02  0.00000000000E+00 0.  1.
          2    1    1    2  501    0 -0.18541568513E+01 -0.47543837761E+02  0.60259806936E+02  0.76779546356E+02  0.00000000000E+00 0. -1.
<scales pt_clust_5="13000.00000" pt_clust_6="13000.00000" pt_clust_7="13000.00000" pt_clust_8="13000.00000" pt_clust_9="47.57998"></scales>
<clustering>
<clus scale="   47.580">  1  9  2 -1</clus>
<clus scale="   87.160">  5  6 -1 -1</clus>
<clus scale="   91.883">  7  8 -1 -1</clus>
<clus scale="  121.724">  1  5  2 -1</clus>
<clus scale="   47.580">  1  5  2 -1</clus>
</clustering>
</event>
<event>
 9    1  0.1504846E-005  0.2689109E+03  0.7546771E-02  0.1101957E+00
         -1   -1    0    0    0  501 -0.00000000000E+00  0.00000000000E+00  0.79534482390E+02  0.79534482390E+02  0.00000000000E+00 0.  1.
         21   -1    0    0  501  502  0.00000000000E+00 -0.00000000000E+00 -0.13455922696E+04  0.13455922696E+04  0.00000000000E+00 0.  1.
         23    2    1    2    0    0  0.74718840672E+02 -0.21834534342E+03 -0.37126917154E+03  0.44664439443E+03  0.91612352882E+02 0.  0.
         23    2    1    2    0    0 -0.13653052082E+03  0.25226628209E+03 -0.55315798858E+03  0.62965174071E+03  0.90546640212E+02 0.  0.
        -13    1    3    3    0    0  0.33459236859E+02 -0.16664391339E+03 -0.19669598837E+03  0.25995966272E+03  0.00000000000E+00 0.  1.
         13    1    3    3    0    0  0.41259603814E+02 -0.51701430033E+02 -0.17457318317E+03  0.18668473171E+03  0.00000000000E+00 0. -1.
        -13    1    4    4    0    0 -0.28689475301E+01  0.22033133534E+02 -0.11366518881E+03  0.11581651428E+03  0.00000000000E+00 0. -1.
         13    1    4    4    0    0 -0.13366157329E+03  0.23023314855E+03 -0.43949279978E+03  0.51383522643E+03  0.00000000000E+00 0.  1.
         -1    1    1    2    0  502  0.61811680147E+02 -0.33920938667E+02 -0.34163062709E+03  0.34883061684E+03  0.00000000000E+00 0.  1.
<scales pt_clust_5="13000.00000" pt_clust_6="13000.00000" pt_clust_7="13000.00000" pt_clust_8="13000.00000" pt_clust_9="70.50754"></scales>
<clustering>
<clus scale="   70.508">  2  9  1 -1</clus>
<clus scale="   90.547">  7  8 -1 -1</clus>
<clus scale="   91.612">  5  6 -1 -1</clus>
<clus scale="  268.550">  2  7  1 -1</clus>
<clus scale="   70.508">  2  5  1 -1</clus>
</clustering>
</event>
<event>
 9    1  0.1504846E-005  0.9979659E+02  0.7546771E-02  0.1280822E+00
         21   -1    0    0  501  502  0.00000000000E+00  0.00000000000E+00  0.47301381836E+03  0.47301381836E+03  0.00000000000E+00 0. -1.
          2   -1    0    0  502    0 -0.00000000000E+00 -0.00000000000E+00 -0.95677485177E+02  0.95677485177E+02  0.00000000000E+00 0. -1.
         23    2    1    2    0    0  0.32659359478E+02  0.21380480230E+02 -0.57337774467E+02  0.11470765877E+03  0.91359005593E+02 0.  0.
         23    2    1    2    0    0 -0.27031214255E+02 -0.45746794420E+02  0.35913471605E+03  0.37441233732E+03  0.91560899519E+02 0.  0.
        -11    1    4    4    0    0 -0.18037605553E+02  0.23968522281E+02  0.17023708436E+03  0.17285979916E+03  0.00000000000E+00 0.  1.
         11    1    4    4    0    0 -0.89936087024E+01 -0.69715316701E+02  0.18889763169E+03  0.20155253816E+03  0.00000000000E+00 0. -1.
        -11    1    3    3    0    0  0.85805656912E+00 -0.33817440958E+02 -0.97914725036E+01  0.35216878167E+02  0.00000000000E+00 0.  1.
         11    1    3    3    0    0  0.31801302909E+02  0.55197921188E+02 -0.47546301963E+02  0.79490780601E+02  0.00000000000E+00 0. -1.
          2    1    1    2  501    0 -0.56281452226E+01  0.24366314190E+02  0.75539391607E+02  0.79571307456E+02  0.00000000000E+00 0. -1.
<scales pt_clust_5="13000.00000" pt_clust_6="13000.00000" pt_clust_7="13000.00000" pt_clust_8="13000.00000" pt_clust_9="25.00786"></scales>
<clustering>
<clus scale="   25.008">  1  9  2 -1</clus>
<clus scale="   91.359">  7  8 -1 -1</clus>
<clus scale="   91.561">  5  6 -1 -1</clus>
<clus scale="   99.611">  2  7  1 -1</clus>
<clus scale="   25.008">  1  5  2 -1</clus>
</clustering>
</event>
<event>
 9    1  0.1504846E-005  0.9777251E+02  0.7546771E-02  0.1286050E+00
         21   -1    0    0  501  502  0.00000000000E+00  0.00000000000E+00  0.12032425256E+03  0.12032425256E+03  0.00000000000E+00 0.  1.
         -1   -1    0    0    0  501 -0.00000000000E+00 -0.00000000000E+00 -0.16655223084E+03  0.16655223084E+03  0.00000000000E+00 0.  1.
         23    2    1    2    0    0 -0.21116329865E+02  0.22448369912E+02 -0.67553875781E+02  0.11669012019E+03  0.90017938865E+02 0.  0.
         23    2    1    2    0    0  0.89504969584E+01 -0.38340317366E+02 -0.38434390920E+02  0.10716372002E+03  0.91960693511E+02 0.  0.
        -11    1    3    3    0    0 -0.24977622544E+02  0.47301256757E+02 -0.10740708286E+02  0.54558714549E+02  0.00000000000E+00 0. -1.
         11    1    3    3    0    0  0.38612926791E+01 -0.24852886846E+02 -0.56813167495E+02  0.62131405638E+02  0.00000000000E+00 0.  1.
        -13    1    4    4    0    0 -0.21203494698E+01  0.22306446417E+02 -0.39604418487E+02  0.45503663559E+02  0.00000000000E+00 0. -1.
         13    1    4    4    0    0  0.11070846428E+02 -0.60646763783E+02  0.11700275670E+01  0.61660056459E+02  0.00000000000E+00 0.  1.
         -1    1    1    2    0  502  0.12165832907E+02  0.15891947455E+02  0.59760288417E+02  0.63022643200E+02  0.00000000000E+00 0.  1.
<scales pt_clust_5="13000.00000" pt_clust_6="13000.00000" pt_clust_7="13000.00000" pt_clust_8="13000.00000" pt_clust_9="20.01403"></scales>
<clustering>
<clus scale="   20.014">  1  9  2 -1</clus>
<clus scale="   90.018">  5  6 -1 -1</clus>
<clus scale="   91.961">  7  8 -1 -1</clus>
<clus scale="   95.948">  2  5  1 -1</clus>
<clus scale="   20.014">  1  5  2 -1</clus>
</clustering>
</event>
<event>
 9    1  0.1504846E-005  0.1337002E+03  0.7546771E-02  0.1222343E+00
          1   -1    0    0  502    0 -0.00000000000E+00  0.00000000000E+00  0.64649568419E+03  0.64649568419E+03  0.00000000000E+00 0. -1.
         21   -1    0    0  501  502  0.00000000000E+00 -0.00000000000E+00 -0.71215762492E+02  0.71215762492E+02  0.00000000000E+00 0.  1.
         23    2    1    2    0    0 -0.75646978281E+02 -0.67279684034E+02  0.52802089814E+03  0.54558433269E+03  0.92774856484E+02 0.  0.
         23    2    1    2    0    0  0.37350878249E+02  0.68999049155E+02  0.55674494916E+02  0.13287959622E+03  0.91659046560E+02 0.  0.
        -11    1    3    3    0    0 -0.92180714091E+02 -0.45898144399E+02  0.47543433728E+03  0.48645835667E+03  0.00000000000E+00 0. -1.
         11    1    3    3    0    0  0.16533735810E+02 -0.21381539635E+02  0.52586560861E+02  0.59125976019E+02  0.00000000000E+00 0.  1.
        -13    1    4    4    0    0  0.59435380227E+02  0.15771283951E+02  0.39273449469E+02  0.72963700930E+02  0.00000000000E+00 0. -1.
         13    1    4    4    0    0 -0.22084501978E+02  0.53227765205E+02  0.16401045447E+02  0.59915895287E+02  0.00000000000E+00 0.  1.
          1    1    1    2  501    0  0.38296100032E+02 -0.17193651212E+01 -0.84154713516E+01  0.39247517783E+02  0.00000000000E+00 0. -1.
<scales pt_clust_5="13000.00000" pt_clust_6="13000.00000" pt_clust_7="13000.00000" pt_clust_8="13000.00000" pt_clust_9="38.33468"></scales>
<clustering>
<clus scale="   38.335">  2  9  1 -1</clus>
<clus scale="   91.659">  7  8 -1 -1</clus>
<clus scale="   92.775">  5  6 -1 -1</clus>
<clus scale="  132.928">  2  7  1 -1</clus>
<clus scale="   38.335">  2  5  1 -1</clus>
</clustering>
</event>
<event>
 9    1  0.1504846E-005  0.1711344E+03  0.7546771E-02  0.1177813E+00
          4   -1    0    0  502    0 -0.00000000000E+00  0.00000000000E+00  0.77647414520E+02  0.77647414520E+02  0.00000000000E+00 0. -1.
         21   -1    0    0  501  502  0.00000000000E+00 -0.00000000000E+00 -0.49263245117E+03  0.49263245117E+03  0.00000000000E+00 0.  1.
         23    2    1    2    0    0  0.54567810646E+02  0.13850347040E+03 -0.91812485194E+02  0.19637839204E+03  0.89297721984E+02 0.  0.
         23    2    1    2    0    0 -0.30088539769E+02 -0.13772728832E+03 -0.29342184794E+03  0.33536653468E+03  0.80623852342E+02 0.  0.
        -11    1    3    3    0    0  0.23475340672E+02  0.13211021526E+03 -0.95103298359E+02  0.16446530927E+03  0.00000000000E+00 0.  1.
         11    1    3    3    0    0  0.31092469974E+02  0.63932551378E+01  0.32908131650E+01  0.31913082766E+02  0.00000000000E+00 0. -1.
        -13    1    4    4    0    0 -0.33458926359E+02 -0.13759640693E+02 -0.91633615128E+02  0.98516734043E+02  0.00000000000E+00 0.  1.
         13    1    4    4    0    0  0.33703865893E+01 -0.12396764763E+03 -0.20178823281E+03  0.23684980064E+03  0.00000000000E+00 0. -1.
          4    1    1    2  501    0 -0.24479270877E+02 -0.77618207667E+00 -0.29750703520E+02  0.38534938967E+02  0.00000000000E+00 0. -1.
<scales pt_clust_5="13000.00000" pt_clust_6="13000.00000" pt_clust_7="13000.00000" pt_clust_8="13000.00000" pt_clust_9="24.49157"></scales>
<clustering>
<clus scale="   24.492">  2  9  1 -1</clus>
<clus scale="   80.624">  7  8 -1 -1</clus>
<clus scale="   89.298">  5  6 -1 -1</clus>
<clus scale="  166.773">  2  7  1 -1</clus>
<clus scale="   24.492">  2  5  1 -1</clus>
</clustering>
</event>
<event>
 9    1  0.1504846E-005  0.1058773E+03  0.7546771E-02  0.1268429E+00
         21   -1    0    0  501  502  0.00000000000E+00  0.00000000000E+00  0.34417575883E+02  0.34417575883E+02  0.00000000000E+00 0.  1.
          1   -1    0    0  502    0 -0.00000000000E+00 -0.00000000000E+00 -0.46392978850E+03  0.46392978850E+03  0.00000000000E+00 0. -1.
         23    2    1    2    0    0 -0.35962300219E+02 -0.32728478903E+02 -0.24329247058E+03  0.26371502836E+03  0.89386517847E+02 0.  0.
         23    2    1    2    0    0  0.63002719018E+02  0.36784448224E+02 -0.15337861883E+03  0.19189857292E+03  0.89317542166E+02 0.  0.
        -11    1    3    3    0    0 -0.31192180117E+02 -0.58546849467E+02 -0.11498461170E+03  0.13274843355E+03  0.00000000000E+00 0.  1.
         11    1    3    3    0    0 -0.47701201013E+01  0.25818370565E+02 -0.12830785888E+03  0.13096659481E+03  0.00000000000E+00 0. -1.
        -11    1    4    4    0    0  0.13287388397E+02  0.58050355019E+02 -0.63876025114E+02  0.87330092137E+02  0.00000000000E+00 0. -1.
         11    1    4    4    0    0  0.49715330621E+02 -0.21265906796E+02 -0.89502593721E+02  0.10456848078E+03  0.00000000000E+00 0.  1.
          1    1    1    2  501    0 -0.27040418799E+02 -0.40559693211E+01 -0.32841123206E+02  0.42733763109E+02  0.00000000000E+00 0. -1.
<scales pt_clust_5="13000.00000" pt_clust_6="13000.00000" pt_clust_7="13000.00000" pt_clust_8="13000.00000" pt_clust_9="27.34292"></scales>
<clustering>
<clus scale="   27.343">  1  9  2 -1</clus>
<clus scale="   89.318">  7  8 -1 -1</clus>
<clus scale="   89.387">  5  6 -1 -1</clus>
<clus scale="  105.819">  1  7  2 -1</clus>
<clus scale="   27.343">  1  5  2 -1</clus>
</clustering>
</event>
<event>
 9    1  0.1504846E-005  0.1433727E+03  0.7546771E-02  0.1226567E+00
         21   -1    0    0  501  502  0.00000000000E+00  0.00000000000E+00  0.48497130022E+02  0.48497130022E+02  0.00000000000E+00 0.  1.
          2   -1    0    0  502    0 -0.00000000000E+00 -0.00000000000E+00 -0.72482413229E+03  0.72482413229E+03  0.00000000000E+00 0. -1.
         23    2    1    2    0    0  0.15040787266E+02 -0.34213794561E+02 -0.30733932975E+03  0.32280373229E+03  0.91367264092E+02 0.  0.
         23    2    1    2    0    0 -0.11655031886E+03 -0.85796436714E+01 -0.22678555751E+03  0.27063727854E+03  0.90306480010E+02 0.  0.
        -11    1    3    3    0    0 -0.14805638887E+02  0.24833232217E+02 -0.57596193505E+02  0.64445464321E+02  0.00000000000E+00 0.  1.
         11    1    3    3    0    0  0.29846426153E+02 -0.59047026778E+02 -0.24974313625E+03  0.25835826797E+03  0.00000000000E+00 0. -1.
        -11    1    4    4    0    0 -0.11270149571E+03 -0.33788845295E+02 -0.20797239324E+03  0.23894733635E+03  0.00000000000E+00 0.  1.
         11    1    4    4    0    0 -0.38488231457E+01  0.25209201624E+02 -0.18813164274E+02  0.31689942192E+02  0.00000000000E+00 0. -1.
          2    1    1    2  501    0  0.10150953159E+03  0.42793438232E+02 -0.14220211501E+03  0.17988025148E+03  0.00000000000E+00 0. -1.
<scales pt_clust_5="13000.00000" pt_clust_6="13000.00000" pt_clust_7="13000.00000" pt_clust_8="13000.00000" pt_clust_9="111.35741"></scales>
<clustering>
<clus scale="   90.306">  7  8 -1 -1</clus>
<clus scale="   91.367">  5  6 -1 -1</clus>
<clus scale="   98.716">  2  5  1 -1</clus>
<clus scale="  111.357">  1  9  2 -1</clus>
<clus scale="  111.357">  1  5  2 -1</clus>
</clustering>
</event>
<event>
 9    1  0.1504846E-005  0.1168385E+03  0.7546771E-02  0.1249457E+00
         -3   -1    0    0    0  501 -0.00000000000E+00  0.00000000000E+00  0.83247462816E+02  0.83247462816E+02  0.00000000000E+00 0.  1.
         21   -1    0    0  501  502  0.00000000000E+00 -0.00000000000E+00 -0.22713854301E+03  0.22713854301E+03  0.00000000000E+00 0. -1.
         23    2    1    2    0    0  0.63440140165E+01  0.65805855863E+02 -0.24731557482E+02  0.11334312201E+03  0.88681205405E+02 0.  0.
         23    2    1    2    0    0 -0.13276604401E+02 -0.84748810493E+02 -0.12375521091E+03  0.17635431959E+03  0.91797955887E+02 0.  0.
        -13    1    4    4    0    0  0.31772616716E+02 -0.56137901293E+02 -0.36620360768E+02  0.74175561726E+02  0.00000000000E+00 0.  1.
         13    1    4    4    0    0 -0.45049221117E+02 -0.28610909200E+02 -0.87134850145E+02  0.10217875786E+03  0.00000000000E+00 0. -1.
        -13    1    3    3    0    0 -0.20725223153E+02  0.28112218215E+02 -0.49623611499E+02  0.60682242097E+02  0.00000000000E+00 0. -1.
         13    1    3    3    0    0  0.27069237170E+02  0.37693637649E+02  0.24892054017E+02  0.52660879914E+02  0.00000000000E+00 0.  1.
         -3    1    1    2    0  502  0.69325903847E+01  0.18942954629E+02  0.45956882041E+01  0.20688564223E+02  0.00000000000E+00 0.  1.
<scales pt_clust_5="13000.00000" pt_clust_6="13000.00000" pt_clust_7="13000.00000" pt_clust_8="13000.00000" pt_clust_9="20.17168"></scales>
<clustering>
<clus scale="   20.172">  2  9  1 -1</clus>
<clus scale="   88.681">  7  8 -1 -1</clus>
<clus scale="   91.798">  5  6 -1 -1</clus>
<clus scale="  114.406">  1  7  2 -1</clus>
<clus scale="   20.172">  2  5  1 -1</clus>
</clustering>
</event>
<event>
 9    1  0.1504846E-005  0.9765642E+02  0.7546771E-02  0.1285795E+00
          4   -1    0    0  502    0 -0.00000000000E+00  0.00000000000E+00  0.53553810843E+03  0.53553810843E+03  0.00000000000E+00 0. -1.
         21   -1    0    0  501  502  0.00000000000E+00 -0.00000000000E+00 -0.42527959577E+02  0.42527959577E+02  0.00000000000E+00 0. -1.
         23    2    1    2    0    0  0.92130918812E+01  0.22019546361E+02  0.29539403292E+03  0.30993007866E+03  0.90715365242E+02 0.  0.
         23    2    1    2    0    0  0.38657535309E+01 -0.75609266124E+02  0.97223199458E+02  0.15358621004E+03  0.91676977622E+02 0.  0.
        -11    1    4    4    0    0 -0.14863001701E+02  0.16527943975E+02  0.32756618694E+02  0.39586333751E+02  0.00000000000E+00 0.  1.
         11    1    4    4    0    0  0.18728755232E+02 -0.92137210099E+02  0.64466580765E+02  0.11399987628E+03  0.00000000000E+00 0. -1.
        -13    1    3    3    0    0  0.49764501903E+02  0.18114604253E+02  0.15964160230E+03  0.16819656870E+03  0.00000000000E+00 0.  1.
         13    1    3    3    0    0 -0.40551410022E+02  0.39049421073E+01  0.13575243062E+03  0.14173350996E+03  0.00000000000E+00 0. -1.
          4    1    1    2  501    0 -0.13078845412E+02  0.53589719763E+02  0.10039291647E+03  0.11454977931E+03  0.00000000000E+00 0. -1.
<scales pt_clust_5="13000.00000" pt_clust_6="13000.00000" pt_clust_7="13000.00000" pt_clust_8="13000.00000" pt_clust_9="55.16264"></scales>
<clustering>
<clus scale="   55.163">  2  9  1 -1</clus>
<clus scale="   90.715">  7  8 -1 -1</clus>
<clus scale="   91.677">  5  6 -1 -1</clus>
<clus scale="   96.754">  1  7  2 -1</clus>
<clus scale="   55.163">  2  5  1 -1</clus>
</clustering>
</event>
<event>
 9    1  0.1504846E-005  0.9725998E+02  0.7546771E-02  0.1286560E+00
         -1   -1    0    0    0  501 -0.00000000000E+00  0.00000000000E+00  0.80340851415E+02  0.80340851415E+02  0.00000000000E+00 0.  1.
         21   -1    0    0  501  502  0.00000000000E+00 -0.00000000000E+00 -0.48762132312E+03  0.48762132312E+03  0.00000000000E+00 0.  1.
         23    2    1    2    0    0 -0.70571567146E+01 -0.38339081549E+02  0.29006648028E+02  0.10375369398E+03  0.91671995446E+02 0.  0.
         23    2    1    2    0    0  0.69976672434E+01  0.31197916640E+01 -0.14857329577E+03  0.17434705433E+03  0.90907484230E+02 0.  0.
        -11    1    4    4    0    0 -0.95404262678E+01 -0.41533395489E+02 -0.57422546525E+02  0.71507982237E+02  0.00000000000E+00 0.  1.
         11    1    4    4    0    0  0.16538093511E+02  0.44653187153E+02 -0.91150749245E+02  0.10283907209E+03  0.00000000000E+00 0. -1.
        -13    1    3    3    0    0 -0.73624589911E+01 -0.66887078631E+02  0.68964167559E+01  0.67643533721E+02  0.00000000000E+00 0.  1.
         13    1    3    3    0    0  0.30530227649E+00  0.28547997081E+02  0.22110231272E+02  0.36110160256E+02  0.00000000000E+00 0. -1.
         -1    1    1    2    0  502  0.59489471177E-01  0.35219289885E+02 -0.28771382396E+03  0.28986142623E+03  0.00000000000E+00 0.  1.
<scales pt_clust_5="13000.00000" pt_clust_6="13000.00000" pt_clust_7="13000.00000" pt_clust_8="13000.00000" pt_clust_9="35.21934"></scales>
<clustering>
<clus scale="   35.219">  2  9  1 -1</clus>
<clus scale="   90.907">  5  6 -1 -1</clus>
<clus scale="   91.672">  7  8 -1 -1</clus>
<clus scale="   96.540">  2  5  1 -1</clus>
<clus scale="   35.219">  2  5  1 -1</clus>
</clustering>
</event>
<event>
 9    1  0.1504846E-005  0.1840806E+03  0.7546771E-02  0.1164702E+00
          2   -1    0    0  502    0 -0.00000000000E+00  0.00000000000E+00  0.63037995591E+03  0.63037995591E+03  0.00000000000E+00 0. -1.
         21   -1    0    0  501  502  0.00000000000E+00 -0.00000000000E+00 -0.94521195629E+02  0.94521195629E+02  0.00000000000E+00 0.  1.
         23    2    1    2    0    0  0.36972551497E+02  0.15170376148E+03  0.32363736281E+03  0.36944496091E+03  0.85833767957E+02 0.  0.
         23    2    1    2    0    0 -0.84921452636E+01 -0.16460666970E+03  0.24544749122E+03  0.30983172476E+03  0.92648553584E+02 0.  0.
        -11    1    3    3    0    0 -0.86947750858E+00  0.97416428504E+02  0.25993440197E+03  0.27759072365E+03  0.00000000000E+00 0.  1.
         11    1    3    3    0    0  0.37842029005E+02  0.54287332980E+02  0.63702960845E+02  0.91854237255E+02  0.00000000000E+00 0. -1.
        -13    1    4    4    0    0 -0.18824171152E+02 -0.12802126010E+03  0.11220181175E+03  0.17126890849E+03  0.00000000000E+00 0.  1.
         13    1    4    4    0    0  0.10332025889E+02 -0.36585409600E+02  0.13324567947E+03  0.13856281627E+03  0.00000000000E+00 0. -1.
          2    1    1    2  501    0 -0.28480406233E+02  0.12902908212E+02 -0.33226093754E+02  0.45624465868E+02  0.00000000000E+00 0. -1.
<scales pt_clust_5="13000.00000" pt_clust_6="13000.00000" pt_clust_7="13000.00000" pt_clust_8="13000.00000" pt_clust_9="31.26689"></scales>
<clustering>
<clus scale="   31.267">  2  9  1 -1</clus>
<clus scale="   85.834">  5  6 -1 -1</clus>
<clus scale="   92.649">  7  8 -1 -1</clus>
<clus scale="  180.747">  1  5  2 -1</clus>
<clus scale="   31.267">  2  5  1 -1</clus>
</clustering>
</event>
<event>
 9    1  0.1504846E-005  0.9903593E+02  0.7546771E-02  0.1285439E+00
         -4   -1    0    0    0  501 -0.00000000000E+00  0.00000000000E+00  0.20042916622E+03  0.20042916622E+03  0.00000000000E+00 0.  1.
         21   -1    0    0  501  502  0.00000000000E+00 -0.00000000000E+00 -0.35541314902E+03  0.35541314902E+03  0.00000000000E+00 0. -1.
         23    2    1    2    0    0 -0.27223415219E+02  0.50976888023E+00  0.13820415362E+03  0.16775910636E+03  0.91111774703E+02 0.  0.
         23    2    1    2    0    0 -0.11111838053E+02 -0.30679742207E+02 -0.12279483503E+02  0.10297009060E+03  0.96888256851E+02 0.  0.
        -11    1    4    4    0    0 -0.42361653843E+02  0.15802113095E+02  0.16891786299E+01  0.45244555684E+02  0.00000000000E+00 0.  1.
         11    1    4    4    0    0  0.31249815790E+02 -0.46481855301E+02 -0.13968662133E+02  0.57725534913E+02  0.00000000000E+00 0. -1.
        -11    1    3    3    0    0 -0.53289970288E+02  0.25367975974E+02  0.88547337948E+02  0.10641421990E+03  0.00000000000E+00 0.  1.
         11    1    3    3    0    0  0.26066555069E+02 -0.24858207094E+02  0.49656815671E+02  0.61344886467E+02  0.00000000000E+00 0. -1.
         -4    1    1    2    0  502  0.38335253272E+02  0.30169973327E+02 -0.28090865291E+03  0.28511311828E+03  0.00000000000E+00 0.  1.
<scales pt_clust_5="13000.00000" pt_clust_6="13000.00000" pt_clust_7="13000.00000" pt_clust_8="13000.00000" pt_clust_9="48.78339"></scales>
<clustering>
<clus scale="   48.783">  2  9  1 -1</clus>
<clus scale="   91.112">  7  8 -1 -1</clus>
<clus scale="   93.392">  1  7  2 -1</clus>
<clus scale="   96.888">  5  6 -1 -1</clus>
<clus scale="   48.783">  2  5  1 -1</clus>
</clustering>
</event>
<event>
 9    1  0.1504846E-005  0.1307035E+03  0.7546771E-02  0.1227410E+00
          1   -1    0    0  502    0 -0.00000000000E+00  0.00000000000E+00  0.18063229754E+03  0.18063229754E+03  0.00000000000E+00 0. -1.
         21   -1    0    0  501  502  0.00000000000E+00 -0.00000000000E+00 -0.25194172234E+03  0.25194172234E+03  0.00000000000E+00 0. -1.
         23    2    1    2    0    0 -0.99535468223E+02 -0.22248017278E+02  0.96114367544E+02  0.16905658724E+03  0.94550908689E+02 0.  0.
         23    2    1    2    0    0  0.32704116859E+02  0.75951285916E+00 -0.16748781436E+03  0.19331636822E+03  0.90823532986E+02 0.  0.
        -11    1    3    3    0    0 -0.51477620937E+02 -0.33776549616E+02  0.66679822240E+00  0.61573089749E+02  0.00000000000E+00 0.  1.
         11    1    3    3    0    0 -0.48057847286E+02  0.11528532339E+02  0.95447569322E+02  0.10748349749E+03  0.00000000000E+00 0. -1.
        -11    1    4    4    0    0  0.50425602057E+02  0.29456298151E+02 -0.76250336535E+02  0.96044409860E+02  0.00000000000E+00 0.  1.
         11    1    4    4    0    0 -0.17721485198E+02 -0.28696785292E+02 -0.91237477824E+02  0.97271958362E+02  0.00000000000E+00 0. -1.
          1    1    1    2  501    0  0.66831351364E+02  0.21488504418E+02  0.64022014302E-01  0.70201064423E+02  0.00000000000E+00 0. -1.
<scales pt_clust_5="13000.00000" pt_clust_6="13000.00000" pt_clust_7="13000.00000" pt_clust_8="13000.00000" pt_clust_9="70.20107"></scales>
<clustering>
<clus scale="   70.201">  2  9  1 -1</clus>
<clus scale="   90.824">  7  8 -1 -1</clus>
<clus scale="   94.551">  5  6 -1 -1</clus>
<clus scale="  128.033">  2  7  1 -1</clus>
<clus scale="   70.201">  2  5  1 -1</clus>
</clustering>
</event>
<event>
 9    1  0.1504846E-005  0.1042366E+03  0.7546771E-02  0.1271881E+00
          4   -1    0    0  502    0 -0.00000000000E+00  0.00000000000E+00  0.22059505560E+03  0.22059505560E+03  0.00000000000E+00 0. -1.
         21   -1    0    0  501  502  0.00000000000E+00 -0.00000000000E+00 -0.79308917345E+02  0.79308917345E+02  0.00000000000E+00 0.  1.
         23    2    1    2    0    0  0.43532347594E+02  0.80270652986E+01  0.63434626888E+02  0.12003019513E+03  0.91781244218E+02 0.  0.
         23    2    1    2    0    0 -0.41733757956E+02 -0.50005976783E+02  0.29661663918E+02  0.11593845635E+03  0.91211880182E+02 0.  0.
        -11    1    3    3    0    0  0.66889726087E+02  0.26383758952E+02  0.48904272792E+02  0.86959565833E+02  0.00000000000E+00 0. -1.
         11    1    3    3    0    0 -0.23357378493E+02 -0.18356693654E+02  0.14530354096E+02  0.33070629297E+02  0.00000000000E+00 0.  1.
        -13    1    4    4    0    0 -0.51086779461E+02 -0.48531828741E+01 -0.13195506208E+02  0.52986166155E+02  0.00000000000E+00 0.  1.
         13    1    4    4    0    0  0.93530215053E+01 -0.45152793909E+02  0.42857170126E+02  0.62952290191E+02  0.00000000000E+00 0. -1.
          4    1    1    2  501    0 -0.17985896387E+01  0.41978911485E+02  0.48189847445E+02  0.63935321465E+02  0.00000000000E+00 0. -1.
<scales pt_clust_5="13000.00000" pt_clust_6="13000.00000" pt_clust_7="13000.00000" pt_clust_8="13000.00000" pt_clust_9="42.01745"></scales>
<clustering>
<clus scale="   42.017">  2  9  1 -1</clus>
<clus scale="   91.212">  7  8 -1 -1</clus>
<clus scale="   91.781">  5  6 -1 -1</clus>
<clus scale="  103.736">  2  7  1 -1</clus>
<clus scale="   42.017">  2  5  1 -1</clus>
</clustering>
</event>
<event>
 9    1  0.1504846E-005  0.9587825E+02  0.7546771E-02  0.1290134E+00
         21   -1    0    0  501  502  0.00000000000E+00  0.00000000000E+00  0.17592037943E+03  0.17592037943E+03  0.00000000000E+00 0.  1.
         -1   -1    0    0    0  501 -0.00000000000E+00 -0.00000000000E+00 -0.15978440497E+03  0.15978440497E+03  0.00000000000E+00 0.  1.
         23    2    1    2    0    0  0.22666844196E+02 -0.93482673164E+01 -0.51051626317E+02  0.10675804537E+03  0.90497711431E+02 0.  0.
         23    2    1    2    0    0 -0.14333164000E+02  0.28300572188E+02 -0.50249219398E+02  0.10969890123E+03  0.92209017484E+02 0.  0.
        -11    1    3    3    0    0  0.40489519915E+02  0.16292022170E+02 -0.60074158351E+02  0.74254533268E+02  0.00000000000E+00 0.  1.
         11    1    3    3    0    0 -0.17822675719E+02 -0.25640289487E+02  0.90225320332E+01  0.32503512103E+02  0.00000000000E+00 0. -1.
        -13    1    4    4    0    0 -0.86175399092E+01 -0.33734895320E+02 -0.13329054662E+02  0.37282286069E+02  0.00000000000E+00 0. -1.
         13    1    4    4    0    0 -0.57156240910E+01  0.62035467508E+02 -0.36920164736E+02  0.72416615164E+02  0.00000000000E+00 0.  1.
         -1    1    1    2    0  502 -0.83336801960E+01 -0.18952304871E+02  0.11743682018E+03  0.11924783779E+03  0.00000000000E+00 0.  1.
<scales pt_clust_5="13000.00000" pt_clust_6="13000.00000" pt_clust_7="13000.00000" pt_clust_8="13000.00000" pt_clust_9="20.70362"></scales>
<clustering>
<clus scale="   20.704">  1  9  2 -1</clus>
<clus scale="   90.498">  5  6 -1 -1</clus>
<clus scale="   92.209">  7  8 -1 -1</clus>
<clus scale="   94.234">  2  5  1 -1</clus>
<clus scale="   20.704">  1  5  2 -1</clus>
</clustering>
</event>
<event>
 9    1  0.1504846E-005  0.1403453E+03  0.7546771E-02  0.1212930E+00
         21   -1    0    0  501  502  0.00000000000E+00  0.00000000000E+00  0.17780894474E+03  0.17780894474E+03  0.00000000000E+00 0. -1.
          2   -1    0    0  502    0 -0.00000000000E+00 -0.00000000000E+00 -0.53215369632E+03  0.53215369632E+03  0.00000000000E+00 0. -1.
         23    2    1    2    0    0 -0.87969516187E+02 -0.78801103624E+02 -0.43347997337E+03  0.45785137698E+03  0.88174522257E+02 0.  0.
         23    2    1    2    0    0  0.56958975235E+02  0.52754933675E+02 -0.41536030086E+02  0.12482572819E+03  0.88480578296E+02 0.  0.
        -11    1    4    4    0    0  0.42749791108E+02  0.73308547705E+02 -0.11316691288E+02  0.85613990142E+02  0.00000000000E+00 0.  1.
         11    1    4    4    0    0  0.14209184127E+02 -0.20553614029E+02 -0.30219338798E+02  0.39211738046E+02  0.00000000000E+00 0. -1.
        -11    1    3    3    0    0 -0.64763289538E+02 -0.36970011372E+01 -0.24923063866E+03  0.25753419721E+03  0.00000000000E+00 0. -1.
         11    1    3    3    0    0 -0.23206226649E+02 -0.75104102487E+02 -0.18424933472E+03  0.20031717977E+03  0.00000000000E+00 0.  1.
          2    1    1    2  501    0  0.31010540952E+02  0.26046169949E+02  0.12067125187E+03  0.12728553589E+03  0.00000000000E+00 0. -1.
<scales pt_clust_5="13000.00000" pt_clust_6="13000.00000" pt_clust_7="13000.00000" pt_clust_8="13000.00000" pt_clust_9="40.49761"></scales>
<clustering>
<clus scale="   40.498">  1  9  2 -1</clus>
<clus scale="   88.175">  7  8 -1 -1</clus>
<clus scale="   88.481">  5  6 -1 -1</clus>
<clus scale="  140.153">  2  7  1 -1</clus>
<clus scale="   40.498">  1  5  2 -1</clus>
</clustering>
</event>
<event>
 9    1  0.1504846E-005  0.9822216E+02  0.7546771E-02  0.1284081E+00
         21   -1    0    0  501  502  0.00000000000E+00  0.00000000000E+00  0.18012041043E+03  0.18012041043E+03  0.00000000000E+00 0.  1.
          1   -1    0    0  502    0 -0.00000000000E+00 -0.00000000000E+00 -0.12303267661E+03  0.12303267661E+03  0.00000000000E+00 0. -1.
         23    2    1    2    0    0  0.30546710947E+01 -0.34090588931E+02 -0.68931394104E+02  0.11932920533E+03  0.91194423523E+02 0.  0.
         23    2    1    2    0    0  0.18351783492E+02  0.46295785308E+02  0.78247402805E+02  0.13007129260E+03  0.91190994170E+02 0.  0.
        -11    1    3    3    0    0 -0.27655668480E+02  0.95156654762E+01  0.34175549674E+01  0.29445943192E+02  0.00000000000E+00 0.  1.
         11    1    3    3    0    0  0.30710339575E+02 -0.43606254407E+02 -0.72348949071E+02  0.89883262134E+02  0.00000000000E+00 0. -1.
        -11    1    4    4    0    0  0.38016378781E+02  0.65240956614E+02  0.65400331699E+02  0.99894098233E+02  0.00000000000E+00 0.  1.
         11    1    4    4    0    0 -0.19664595289E+02 -0.18945171306E+02  0.12847071106E+02  0.30177194364E+02  0.00000000000E+00 0. -1.
          1    1    1    2  501    0 -0.21406454587E+02 -0.12205196378E+02  0.47771725114E+02  0.53752589119E+02  0.00000000000E+00 0. -1.
<scales pt_clust_5="13000.00000" pt_clust_6="13000.00000" pt_clust_7="13000.00000" pt_clust_8="13000.00000" pt_clust_9="24.64149"></scales>
<clustering>
<clus scale="   24.641">  1  9  2 -1</clus>
<clus scale="   91.191">  7  8 -1 -1</clus>
<clus scale="   91.194">  5  6 -1 -1</clus>
<clus scale="   98.219">  1  7  2 -1</clus>
<clus scale="   24.641">  1  5  2 -1</clus>
</clustering>
</event>
<event>
 9    1  0.1504846E-005  0.1660262E+03  0.7546771E-02  0.1182581E+00
         -1   -1    0    0    0  501 -0.00000000000E+00  0.00000000000E+00  0.41208186645E+03  0.41208186645E+03  0.00000000000E+00 0.  1.
         21   -1    0    0  501  502  0.00000000000E+00 -0.00000000000E+00 -0.17943440795E+03  0.17943440795E+03  0.00000000000E+00 0.  1.
         23    2    1    2    0    0 -0.59625141052E+02 -0.11710596607E+03  0.28456073477E+03  0.32601382475E+03  0.89672946976E+02 0.  0.
         23    2    1    2    0    0  0.58168863705E+02  0.15232508192E+03  0.16523606240E+02  0.18852119380E+03  0.93170079233E+02 0.  0.
        -11    1    3    3    0    0  0.19859121050E+02 -0.51206327599E+01  0.52515579680E+02  0.56378113465E+02  0.00000000000E+00 0.  1.
         11    1    3    3    0    0 -0.79484262101E+02 -0.11198533331E+03  0.23204515509E+03  0.26963571128E+03  0.00000000000E+00 0. -1.
        -13    1    4    4    0    0  0.76525075848E+02  0.76179152356E+02  0.21257547711E+02  0.11005105098E+03  0.00000000000E+00 0.  1.
         13    1    4    4    0    0 -0.18356212143E+02  0.76145929559E+02 -0.47339414706E+01  0.78470142822E+02  0.00000000000E+00 0. -1.
         -1    1    1    2    0  502  0.14562773468E+01 -0.35219115841E+02 -0.68436882508E+02  0.76981255847E+02  0.00000000000E+00 0.  1.
<scales pt_clust_5="13000.00000" pt_clust_6="13000.00000" pt_clust_7="13000.00000" pt_clust_8="13000.00000" pt_clust_9="35.24921"></scales>
<clustering>
<clus scale="   35.249">  2  9  1 -1</clus>
<clus scale="   89.673">  5  6 -1 -1</clus>
<clus scale="   93.170">  7  8 -1 -1</clus>
<clus scale="  164.089">  1  5  2 -1</clus>
<clus scale="   35.249">  2  5  1 -1</clus>
</clustering>
</event>
<event>
 9    1  0.1504846E-005  0.1171426E+03  0.7546771E-02  0.1248574E+00
          1   -1    0    0  502    0 -0.00000000000E+00  0.00000000000E+00  0.50794854732E+03  0.50794854732E+03  0.00000000000E+00 0. -1.
         21   -1    0    0  501  502  0.00000000000E+00 -0.00000000000E+00 -0.40148338342E+02  0.40148338342E+02  0.00000000000E+00 0.  1.
         23    2    1    2    0    0  0.31095701891E+02 -0.55901287230E+02  0.26992350740E+03  0.29151957458E+03  0.89627372662E+02 0.  0.
         23    2    1    2    0    0 -0.51309888522E+02  0.73268683715E+02  0.18933315695E+03  0.22859102950E+03  0.91683203332E+02 0.  0.
        -11    1    4    4    0    0 -0.75030068097E+02  0.34547919627E+02  0.11830776325E+03  0.14429066745E+03  0.00000000000E+00 0.  1.
         11    1    4    4    0    0  0.23720179575E+02  0.38720764088E+02  0.71025393707E+02  0.84300362050E+02  0.00000000000E+00 0. -1.
        -13    1    3    3    0    0  0.17114935613E+02  0.23569507336E+02  0.81339487470E+02  0.86397655750E+02  0.00000000000E+00 0. -1.
         13    1    3    3    0    0  0.13980766278E+02 -0.79470794566E+02  0.18858401993E+03  0.20512191883E+03  0.00000000000E+00 0.  1.
          1    1    1    2  501    0  0.20214186631E+02 -0.17367396485E+02  0.85435446314E+01  0.27986281580E+02  0.00000000000E+00 0. -1.
<scales pt_clust_5="13000.00000" pt_clust_6="13000.00000" pt_clust_7="13000.00000" pt_clust_8="13000.00000" pt_clust_9="26.65032"></scales>
<clustering>
<clus scale="   26.650">  2  9  1 -1</clus>
<clus scale="   89.627">  7  8 -1 -1</clus>
<clus scale="   91.683">  5  6 -1 -1</clus>
<clus scale="  115.541">  1  7  2 -1</clus>
<clus scale="   26.650">  2  5  1 -1</clus>
</clustering>
</event>
<event>
 9    1  0.1504846E-005  0.1302968E+03  0.7546771E-02  0.1244328E+00
         21   -1    0    0  501  502  0.00000000000E+00  0.00000000000E+00  0.41021083143E+03  0.41021083143E+03  0.00000000000E+00 0.  1.
          1   -1    0    0  502    0 -0.00000000000E+00 -0.00000000000E+00 -0.11617123306E+03  0.11617123306E+03  0.00000000000E+00 0. -1.
         23    2    1    2    0    0 -0.27528798058E+01  0.11663610791E+01 -0.46816489612E+02  0.10272764869E+03  0.91390630591E+02 0.  0.
         23    2    1    2    0    0  0.71624346067E+02 -0.62610259589E+02  0.99432084719E+02  0.16518936811E+03  0.91382144366E+02 0.  0.
        -13    1    4    4    0    0  0.81880577651E+02 -0.15091394007E+02  0.60826238951E+02  0.10311164102E+03  0.00000000000E+00 0.  1.
         13    1    4    4    0    0 -0.10256231584E+02 -0.47518865582E+02  0.38605845768E+02  0.62077727085E+02  0.00000000000E+00 0. -1.
        -13    1    3    3    0    0  0.10670739172E+02 -0.43218476449E+02 -0.17297810556E+02  0.47758932475E+02  0.00000000000E+00 0. -1.
         13    1    3    3    0    0 -0.13423618978E+02  0.44384837528E+02 -0.29518679056E+02  0.54968716213E+02  0.00000000000E+00 0.  1.
          1    1    1    2  501    0 -0.68871466261E+02  0.61443898510E+02  0.24142400326E+03  0.25846504770E+03  0.00000000000E+00 0. -1.
<scales pt_clust_5="13000.00000" pt_clust_6="13000.00000" pt_clust_7="13000.00000" pt_clust_8="13000.00000" pt_clust_9="92.87924"></scales>
<clustering>
<clus scale="   91.382">  5  6 -1 -1</clus>
<clus scale="   91.391">  7  8 -1 -1</clus>
<clus scale="   91.440">  2  7  1 -1</clus>
<clus scale="   92.879">  1  9  2 -1</clus>
<clus scale="   92.879">  1  5  2 -1</clus>
</clustering>
</event>
<event>
 9    1  0.1504846E-005  0.9328466E+02  0.7546771E-02  0.1295866E+00
         -1   -1    0    0    0  501 -0.00000000000E+00  0.00000000000E+00  0.30375902840E+02  0.30375902840E+02  0.00000000000E+00 0.  1.
         21   -1    0    0  501  502  0.00000000000E+00 -0.00000000000E+00 -0.44749705320E+03  0.44749705320E+03  0.00000000000E+00 0. -1.
         23    2    1    2    0    0  0.11751553118E+02 -0.10768119750E+02 -0.10060606389E+03  0.13694875880E+03  0.91538686042E+02 0.  0.
         23    2    1    2    0    0 -0.27949663569E+02 -0.94725401614E+01 -0.19736005309E+03  0.21898164898E+03  0.90172386704E+02 0.  0.
        -11    1    3    3    0    0 -0.23175129486E+02 -0.40633823221E+02 -0.55045234624E+02  0.72236916262E+02  0.00000000000E+00 0. -1.
         11    1    3    3    0    0  0.34926682604E+02  0.29865703471E+02 -0.45560829266E+02  0.64711842540E+02  0.00000000000E+00 0.  1.
        -11    1    4    4    0    0  0.25084847439E+02  0.79855733794E+01 -0.12414892814E+03  0.12690931925E+03  0.00000000000E+00 0.  1.
         11    1    4    4    0    0 -0.53034511007E+02 -0.17458113541E+02 -0.73211124946E+02  0.92072329731E+02  0.00000000000E+00 0. -1.
         -1    1    1    2    0  502  0.16198110450E+02  0.20240659911E+02 -0.11915503338E+03  0.12194254826E+03  0.00000000000E+00 0.  1.
<scales pt_clust_5="13000.00000" pt_clust_6="13000.00000" pt_clust_7="13000.00000" pt_clust_8="13000.00000" pt_clust_9="25.92418"></scales>
<clustering>
<clus scale="   25.924">  2  9  1 -1</clus>
<clus scale="   90.172">  7  8 -1 -1</clus>
<clus scale="   91.539">  5  6 -1 -1</clus>
<clus scale="   91.944">  2  7  1 -1</clus>
<clus scale="   25.924">  2  5  1 -1</clus>
</clustering>
</event>
<event>
 9    1  0.1504846E-005  0.1364222E+03  0.7546771E-02  0.1219450E+00
         21   -1    0    0  501  502  0.00000000000E+00  0.00000000000E+00  0.11374184095E+03  0.11374184095E+03  0.00000000000E+00 0.  1.
          1   -1    0    0  502    0 -0.00000000000E+00 -0.00000000000E+00 -0.42371583128E+03  0.42371583128E+03  0.00000000000E+00 0. -1.
         23    2    1    2    0    0  0.91885227210E+02  0.34928615413E+02 -0.33612698973E+03  0.36284424671E+03  0.94929926767E+02 0.  0.
         23    2    1    2    0    0 -0.75841755223E+02 -0.68019654170E+02  0.21560269651E+02  0.13755262404E+03  0.89873433028E+02 0.  0.
        -11    1    4    4    0    0 -0.65853873570E+02 -0.89725469727E+02  0.12497628860E+02  0.11199813976E+03  0.00000000000E+00 0.  1.
         11    1    4    4    0    0 -0.99878816531E+01  0.21705815557E+02  0.90626407913E+01  0.25554484284E+02  0.00000000000E+00 0. -1.
        -11    1    3    3    0    0  0.68377091312E+02  0.42989515870E+02 -0.32625431358E+03  0.33610326124E+03  0.00000000000E+00 0. -1.
         11    1    3    3    0    0  0.23508135898E+02 -0.80609004568E+01 -0.98726761511E+01  0.26740985471E+02  0.00000000000E+00 0.  1.
          1    1    1    2  501    0 -0.16043471987E+02  0.33091038757E+02  0.45927297382E+01  0.37060801474E+02  0.00000000000E+00 0. -1.
<scales pt_clust_5="13000.00000" pt_clust_6="13000.00000" pt_clust_7="13000.00000" pt_clust_8="13000.00000" pt_clust_9="36.77513"></scales>
<clustering>
<clus scale="   36.775">  1  9  2 -1</clus>
<clus scale="   89.873">  5  6 -1 -1</clus>
<clus scale="   94.930">  7  8 -1 -1</clus>
<clus scale="  132.953">  1  5  2 -1</clus>
<clus scale="   36.775">  1  5  2 -1</clus>
</clustering>
</event>
<event>
 9    1  0.1504846E-005  0.1019921E+03  0.7546771E-02  0.1281291E+00
         21   -1    0    0  501  502  0.00000000000E+00  0.00000000000E+00  0.13838163238E+03  0.13838163238E+03  0.00000000000E+00 0. -1.
          4   -1    0    0  502    0 -0.00000000000E+00 -0.00000000000E+00 -0.19857538821E+03  0.19857538821E+03  0.00000000000E+00 0. -1.
         23    2    1    2    0    0  0.24356782472E+01 -0.39826185380E+02 -0.11766600928E+03  0.14826045311E+03  0.80893848016E+02 0.  0.
         23    2    1    2    0    0 -0.74395590693E+01  0.59498637834E+02 -0.17631274511E+02  0.11089821196E+03  0.91608496507E+02 0.  0.
        -11    1    3    3    0    0  0.22085355603E+02  0.28875358290E+01 -0.79598163430E+00  0.22287538716E+02  0.00000000000E+00 0.  1.
         11    1    3    3    0    0 -0.19649677356E+02 -0.42713721208E+02 -0.11687002764E+03  0.12597291439E+03  0.00000000000E+00 0. -1.
        -11    1    4    4    0    0  0.10599962152E+02  0.80669897303E+02 -0.16751048986E+02  0.83069784944E+02  0.00000000000E+00 0.  1.
         11    1    4    4    0    0 -0.18039521221E+02 -0.21171259468E+02 -0.88022552435E+00  0.27828427019E+02  0.00000000000E+00 0. -1.
          4    1    1    2  501    0  0.50038808221E+01 -0.19672452455E+02  0.75103527964E+02  0.77798355519E+02  0.00000000000E+00 0. -1.
<scales pt_clust_5="13000.00000" pt_clust_6="13000.00000" pt_clust_7="13000.00000" pt_clust_8="13000.00000" pt_clust_9="20.29887"></scales>
<clustering>
<clus scale="   20.299">  1  9  2 -1</clus>
<clus scale="   80.894">  5  6 -1 -1</clus>
<clus scale="   91.608">  7  8 -1 -1</clus>
<clus scale="   92.488">  2  5  1 -1</clus>
<clus scale="   20.299">  1  5  2 -1</clus>
</clustering>
</event>
<event>
 9    1  0.1504846E-005  0.1150846E+03  0.7546771E-02  0.1251552E+00
         21   -1    0    0  501  502  0.00000000000E+00  0.00000000000E+00  0.69579003014E+02  0.69579003014E+02  0.00000000000E+00 0. -1.
          2   -1    0    0  502    0 -0.00000000000E+00 -0.00000000000E+00 -0.33270123295E+03  0.33270123295E+03  0.00000000000E+00 0. -1.
         23    2    1    2    0    0  0.15561595806E+02 -0.63348542776E+02 -0.20633895352E+03  0.23448248117E+03  0.90283271431E+02 0.  0.
         23    2    1    2    0    0 -0.32846566774E+02  0.82810504069E+02 -0.62453257046E+02  0.14115780661E+03  0.89936869624E+02 0.  0.
        -11    1    4    4    0    0 -0.11668643406E+02  0.59336059295E+02  0.10748591275E+02  0.61420333653E+02  0.00000000000E+00 0. -1.
         11    1    4    4    0    0 -0.21177923367E+02  0.23474444774E+02 -0.73201848322E+02  0.79737472955E+02  0.00000000000E+00 0.  1.
        -13    1    3    3    0    0 -0.34124501872E+02 -0.48652392529E+02 -0.10429178537E+03  0.12003463426E+03  0.00000000000E+00 0. -1.
         13    1    3    3    0    0  0.49686097678E+02 -0.14696150247E+02 -0.10204716815E+03  0.11444784691E+03  0.00000000000E+00 0.  1.
          2    1    1    2  501    0  0.17284970968E+02 -0.19461961293E+02  0.56699806335E+01  0.26639948181E+02  0.00000000000E+00 0. -1.
<scales pt_clust_5="13000.00000" pt_clust_6="13000.00000" pt_clust_7="13000.00000" pt_clust_8="13000.00000" pt_clust_9="26.02956"></scales>
<clustering>
<clus scale="   26.030">  1  9  2 -1</clus>
<clus scale="   89.937">  5  6 -1 -1</clus>
<clus scale="   90.283">  7  8 -1 -1</clus>
<clus scale="  114.813">  1  5  2 -1</clus>
<clus scale="   26.030">  1  5  2 -1</clus>
</clustering>
</event>
<event>
 9    1  0.1504846E-005  0.1077190E+03  0.7546771E-02  0.1266033E+00
         -1   -1    0    0    0  501 -0.00000000000E+00  0.00000000000E+00  0.25962586552E+03  0.25962586552E+03  0.00000000000E+00 0.  1.
         21   -1    0    0  501  502  0.00000000000E+00 -0.00000000000E+00 -0.35091012730E+03  0.35091012730E+03  0.00000000000E+00 0.  1.
         23    2    1    2    0    0 -0.24771397780E+02  0.70045047333E+02  0.16036753154E+03  0.19810470958E+03  0.89486311703E+02 0.  0.
         23    2    1    2    0    0 -0.18989067362E+02 -0.29381827485E+02  0.45928349551E+02  0.10891453380E+03  0.92353050384E+02 0.  0.
        -13    1    3    3    0    0  0.31825338839E+02  0.12795681122E+02  0.63319435926E+02  0.72013419677E+02  0.00000000000E+00 0.  1.
         13    1    3    3    0    0 -0.56596736619E+02  0.57249366212E+02  0.97048095615E+02  0.12609128991E+03  0.00000000000E+00 0. -1.
        -13    1    4    4    0    0 -0.52051983851E+02  0.34360147620E+01  0.23625241025E+02  0.57265759698E+02  0.00000000000E+00 0. -1.
         13    1    4    4    0    0  0.33062916489E+02 -0.32817842247E+02  0.22303108527E+02  0.51648774104E+02  0.00000000000E+00 0.  1.
         -1    1    1    2    0  502  0.43760465142E+02 -0.40663219848E+02 -0.29758014287E+03  0.30351674943E+03  0.00000000000E+00 0.  1.
<scales pt_clust_5="13000.00000" pt_clust_6="13000.00000" pt_clust_7="13000.00000" pt_clust_8="13000.00000" pt_clust_9="59.73672"></scales>
<clustering>
<clus scale="   59.737">  2  9  1 -1</clus>
<clus scale="   89.486">  5  6 -1 -1</clus>
<clus scale="   92.353">  7  8 -1 -1</clus>
<clus scale="  105.272">  1  5  2 -1</clus>
<clus scale="   59.737">  2  5  1 -1</clus>
</clustering>
</event>
<event>
 9    1  0.1504846E-005  0.1300808E+03  0.7546771E-02  0.1228097E+00
          2   -1    0    0  502    0 -0.00000000000E+00  0.00000000000E+00  0.34095999927E+02  0.34095999927E+02  0.00000000000E+00 0. -1.
         21   -1    0    0  501  502  0.00000000000E+00 -0.00000000000E+00 -0.10850560437E+04  0.10850560437E+04  0.00000000000E+00 0. -1.
         23    2    1    2    0    0 -0.83374864326E+02 -0.51099817169E+02 -0.16756165218E+03  0.21121742556E+03  0.83506492340E+02 0.  0.
         23    2    1    2    0    0  0.43161113781E+02  0.10077992848E+03 -0.49605301119E+03  0.51535124742E+03  0.86595857729E+02 0.  0.
        -11    1    3    3    0    0 -0.19393887386E+02 -0.12416064890E+02  0.46350568195E+01  0.23489684694E+02  0.00000000000E+00 0.  1.
         11    1    3    3    0    0 -0.63980976940E+02 -0.38683752279E+02 -0.17219670900E+03  0.18772774086E+03  0.00000000000E+00 0. -1.
        -13    1    4    4    0    0  0.55800172872E+02  0.22494111957E+02 -0.22922223770E+03  0.23698624142E+03  0.00000000000E+00 0.  1.
         13    1    4    4    0    0 -0.12639059091E+02  0.78285816521E+02 -0.26683077350E+03  0.27836500600E+03  0.00000000000E+00 0. -1.
          2    1    1    2  501    0  0.40213750545E+02 -0.49680111308E+02 -0.38734538044E+03  0.39258337069E+03  0.00000000000E+00 0. -1.
<scales pt_clust_5="13000.00000" pt_clust_6="13000.00000" pt_clust_7="13000.00000" pt_clust_8="13000.00000" pt_clust_9="63.91603"></scales>
<clustering>
<clus scale="   63.916">  2  9  1 -1</clus>
<clus scale="   83.506">  5  6 -1 -1</clus>
<clus scale="   86.596">  7  8 -1 -1</clus>
<clus scale="  128.045">  1  5  2 -1</clus>
<clus scale="   63.916">  2  5  1 -1</clus>
</clustering>
</event>
<event>
 9    1  0.1844441E-005  0.9495451E+02  0.7546771E-02  0.1291339E+00
          4   -1    0    0  502    0 -0.00000000000E+00  0.00000000000E+00  0.48542633315E+03  0.48542633315E+03  0.00000000000E+00 0. -1.
         21   -1    0    0  501  502  0.00000000000E+00 -0.00000000000E+00 -0.85726107891E+02  0.85726107891E+02  0.00000000000E+00 0. -1.
         23    2    1    2    0    0 -0.50769818935E+01  0.39438813723E+01  0.38227979548E+03  0.39381239973E+03  0.94387680363E+02 0.  0.
         23    2    1    2    0    0  0.30731067840E+02 -0.19179291686E+01  0.68231762217E+02  0.12038367105E+03  0.94279254867E+02 0.  0.
        -13    1    4    4    0    0 -0.35320359310E+01 -0.33814167495E+02 -0.40803243411E+01  0.34242112200E+02  0.00000000000E+00 0.  1.
         13    1    4    4    0    0  0.34263103771E+02  0.31896238326E+02  0.72312086559E+02  0.86141558854E+02  0.00000000000E+00 0. -1.
        -13    1    3    3    0    0 -0.56266752797E+01  0.48714316135E+02  0.17424599788E+03  0.18101494924E+03  0.00000000000E+00 0. -1.
         13    1    3    3    0    0  0.54969338617E+00 -0.44770434762E+02  0.20803379760E+03  0.21279745049E+03  0.00000000000E+00 0.  1.
          4    1    1    2  501    0 -0.25654085947E+02 -0.20259522037E+01 -0.50811332440E+02  0.56956370253E+02  0.00000000000E+00 0. -1.
<scales pt_clust_5="13000.00000" pt_clust_6="13000.00000" pt_clust_7="13000.00000" pt_clust_8="13000.00000" pt_clust_9="25.73396"></scales>
<clustering>
<clus scale="   25.734">  2  9  1 -1</clus>
<clus scale="   94.279">  5  6 -1 -1</clus>
<clus scale="   94.388">  7  8 -1 -1</clus>
<clus scale="   94.847">  2  5  1 -1</clus>
<clus scale="   25.734">  2  5  1 -1</clus>
</clustering>
</event>
<event>
 9    1  0.1504846E-005  0.1600722E+03  0.7546771E-02  0.1199080E+00
          2   -1    0    0  502    0 -0.00000000000E+00  0.00000000000E+00  0.15646803567E+03  0.15646803567E+03  0.00000000000E+00 0. -1.
         21   -1    0    0  501  502  0.00000000000E+00 -0.00000000000E+00 -0.41207216974E+03  0.41207216974E+03  0.00000000000E+00 0.  1.
         23    2    1    2    0    0 -0.35577828233E+02 -0.78808005172E+02 -0.20434419160E+02  0.12885386391E+03  0.93323465528E+02 0.  0.
         23    2    1    2    0    0 -0.99916489693E+02  0.40587552554E+02  0.25459343831E+02  0.14346510754E+03  0.91123018813E+02 0.  0.
        -11    1    3    3    0    0 -0.65992009566E+02 -0.67118676184E+02 -0.10080048846E+02  0.94665037918E+02  0.00000000000E+00 0. -1.
         11    1    3    3    0    0  0.30414181334E+02 -0.11689328988E+02 -0.10354370313E+02  0.34188825996E+02  0.00000000000E+00 0.  1.
        -11    1    4    4    0    0 -0.49488421065E+02 -0.16852723765E+02 -0.18300266833E+02  0.55389691134E+02  0.00000000000E+00 0.  1.
         11    1    4    4    0    0 -0.50428068628E+02  0.57440276319E+02  0.43759610664E+02  0.88075416403E+02  0.00000000000E+00 0. -1.
          2    1    1    2  501    0  0.13549431793E+03  0.38220452618E+02 -0.26062905874E+03  0.29622123396E+03  0.00000000000E+00 0. -1.
<scales pt_clust_5="13000.00000" pt_clust_6="13000.00000" pt_clust_7="13000.00000" pt_clust_8="13000.00000" pt_clust_9="131.60433"></scales>
<clustering>
<clus scale="   91.123">  7  8 -1 -1</clus>
<clus scale="   93.323">  5  6 -1 -1</clus>
<clus scale="  127.223">  1  5  2 -1</clus>
<clus scale="  131.604">  2  9  1 -1</clus>
<clus scale="  131.604">  2  5  1 -1</clus>
</clustering>
</event>
<event>
 9    1  0.1504846E-005  0.9523391E+02  0.7546771E-02  0.1291446E+00
          2   -1    0    0  502    0 -0.00000000000E+00  0.00000000000E+00  0.30366586992E+03  0.30366586992E+03  0.00000000000E+00 0. -1.
         21   -1    0    0  501  502  0.00000000000E+00 -0.00000000000E+00 -0.11263664656E+03  0.11263664656E+03  0.00000000000E+00 0. -1.
         23    2    1    2    0    0 -0.21534084847E+02  0.66108174845E+01  0.23903869049E+03  0.25681994637E+03  0.91156840566E+02 0.  0.
         23    2    1    2    0    0  0.10744652136E+02 -0.28245490943E+02  0.87359866373E+01  0.97801799384E+02  0.92604639150E+02 0.  0.
        -11    1    3    3    0    0  0.28572907983E+02 -0.21627423909E+02  0.78610724032E+02  0.86393301062E+02  0.00000000000E+00 0.  1.
         11    1    3    3    0    0 -0.50106992830E+02  0.28238241393E+02  0.16042796646E+03  0.17042664530E+03  0.00000000000E+00 0. -1.
        -13    1    4    4    0    0  0.36655361194E+02 -0.48644739640E+02 -0.69125203770E+01  0.61300156091E+02  0.00000000000E+00 0.  1.
         13    1    4    4    0    0 -0.25910709058E+02  0.20399248697E+02  0.15648507014E+02  0.36501643293E+02  0.00000000000E+00 0. -1.
          2    1    1    2  501    0  0.10789432711E+02  0.21634673458E+02 -0.56745453774E+02  0.61680770731E+02  0.00000000000E+00 0. -1.
<scales pt_clust_5="13000.00000" pt_clust_6="13000.00000" pt_clust_7="13000.00000" pt_clust_8="13000.00000" pt_clust_9="24.17583"></scales>
<clustering>
<clus scale="   24.176">  2  9  1 -1</clus>
<clus scale="   91.157">  5  6 -1 -1</clus>
<clus scale="   92.605">  7  8 -1 -1</clus>
<clus scale="   93.827">  1  5  2 -1</clus>
<clus scale="   24.176">  2  5  1 -1</clus>
</clustering>
</event>
<event>
 9    1  0.1504846E-005  0.1129060E+03  0.7546771E-02  0.1255738E+00
         -4   -1    0    0    0  501 -0.00000000000E+00  0.00000000000E+00  0.12996167525E+03  0.12996167525E+03  0.00000000000E+00 0.  1.
         21   -1    0    0  501  502  0.00000000000E+00 -0.00000000000E+00 -0.27493932948E+03  0.27493932948E+03  0.00000000000E+00 0.  1.
         23    2    1    2    0    0  0.52585964045E+02 -0.44191341786E+02  0.70460871192E+02  0.13458683344E+03  0.91818968969E+02 0.  0.
         23    2    1    2    0    0 -0.21319580970E+02  0.47144708440E+02 -0.85264495541E+02  0.13640529503E+03  0.93054942080E+02 0.  0.
        -11    1    4    4    0    0  0.14582154048E+02 -0.23212366441E+02 -0.19800209974E+02  0.33815698832E+02  0.00000000000E+00 0.  1.
         11    1    4    4    0    0 -0.35901735018E+02  0.70357074881E+02 -0.65464285567E+02  0.10258959620E+03  0.00000000000E+00 0. -1.
        -11    1    3    3    0    0  0.32791178614E+02 -0.12696698691E+02 -0.17358016830E+02  0.39214388952E+02  0.00000000000E+00 0. -1.
         11    1    3    3    0    0  0.19794785430E+02 -0.31494643096E+02  0.87818888023E+02  0.95372444487E+02  0.00000000000E+00 0.  1.
         -4    1    1    2    0  502 -0.31266383075E+02 -0.29533666531E+01 -0.13017402988E+03  0.13390887626E+03  0.00000000000E+00 0.  1.
<scales pt_clust_5="13000.00000" pt_clust_6="13000.00000" pt_clust_7="13000.00000" pt_clust_8="13000.00000" pt_clust_9="31.40556"></scales>
<clustering>
<clus scale="   31.406">  2  9  1 -1</clus>
<clus scale="   91.819">  7  8 -1 -1</clus>
<clus scale="   93.055">  5  6 -1 -1</clus>
<clus scale="  111.890">  1  7  2 -1</clus>
<clus scale="   31.406">  2  5  1 -1</clus>
</clustering>
</event>
<event>
 9    1  0.1504846E-005  0.9751723E+02  0.7546771E-02  0.1286301E+00
          1   -1    0    0  502    0 -0.00000000000E+00  0.00000000000E+00  0.26281872450E+03  0.26281872450E+03  0.00000000000E+00 0. -1.
         21   -1    0    0  501  502  0.00000000000E+00 -0.00000000000E+00 -0.10364349177E+03  0.10364349177E+03  0.00000000000E+00 0.  1.
         23    2    1    2    0    0  0.27810844616E+02  0.39065675299E+02  0.17814059933E+03  0.20542530708E+03  0.90365444691E+02 0.  0.
         23    2    1    2    0    0  0.64421415280E+00  0.15315149488E+02  0.93221168853E+01  0.93456244825E+02  0.91718040853E+02 0.  0.
        -13    1    4    4    0    0 -0.43197467555E+02  0.18581992431E+02  0.14450765935E+02  0.49194880648E+02  0.00000000000E+00 0.  1.
         13    1    4    4    0    0  0.43841681708E+02 -0.32668429430E+01 -0.51286490498E+01  0.44261364177E+02  0.00000000000E+00 0. -1.
        -13    1    3    3    0    0  0.29559577641E+02  0.59729578057E+02  0.17094211599E+03  0.18347369878E+03  0.00000000000E+00 0. -1.
         13    1    3    3    0    0 -0.17487330250E+01 -0.20663902758E+02  0.71984833353E+01  0.21951608295E+02  0.00000000000E+00 0.  1.
          1    1    1    2  501    0 -0.28455058768E+02 -0.54380824787E+02 -0.28287483486E+02  0.67580664365E+02  0.00000000000E+00 0. -1.
<scales pt_clust_5="13000.00000" pt_clust_6="13000.00000" pt_clust_7="13000.00000" pt_clust_8="13000.00000" pt_clust_9="61.37560"></scales>
<clustering>
<clus scale="   61.376">  2  9  1 -1</clus>
<clus scale="   90.365">  7  8 -1 -1</clus>
<clus scale="   91.718">  5  6 -1 -1</clus>
<clus scale="   96.246">  1  7  2 -1</clus>
<clus scale="   61.376">  2  5  1 -1</clus>
</clustering>
</event>
<event>
 9    1  0.1512452E-005  0.1092240E+03  0.7546771E-02  0.1263675E+00
          2   -1    0    0  502    0 -0.00000000000E+00  0.00000000000E+00  0.92956914133E+03  0.92956914133E+03  0.00000000000E+00 0. -1.
         21   -1    0    0  501  502  0.00000000000E+00 -0.00000000000E+00 -0.22255067617E+03  0.22255067617E+03  0.00000000000E+00 0. -1.
         23    2    1    2    0    0  0.28194253011E+01 -0.23178431381E+02  0.36617199953E+03  0.37859928496E+03  0.93328969218E+02 0.  0.
         23    2    1    2    0    0 -0.29697992594E+02  0.97561089895E+02  0.54131429573E+03  0.55801510762E+03  0.89216346807E+02 0.  0.
        -11    1    3    3    0    0  0.84778661792E+01 -0.55098956496E+02  0.29726857923E+03  0.30245061980E+03  0.00000000000E+00 0.  1.
         11    1    3    3    0    0 -0.56584408781E+01  0.31920525115E+02  0.68903420300E+02  0.76148665161E+02  0.00000000000E+00 0. -1.
        -13    1    4    4    0    0 -0.51113192391E+02  0.40868342307E+02  0.38196832834E+03  0.38753397747E+03  0.00000000000E+00 0. -1.
         13    1    4    4    0    0  0.21415199797E+02  0.56692747588E+02  0.15934596739E+03  0.17048113015E+03  0.00000000000E+00 0.  1.
          2    1    1    2  501    0  0.26878567293E+02 -0.74382658514E+02 -0.20046783010E+03  0.21550542493E+03  0.00000000000E+00 0. -1.
<scales pt_clust_5="13000.00000" pt_clust_6="13000.00000" pt_clust_7="13000.00000" pt_clust_8="13000.00000" pt_clust_9="79.09006"></scales>
<clustering>
<clus scale="   79.090">  2  9  1 -1</clus>
<clus scale="   89.216">  7  8 -1 -1</clus>
<clus scale="   93.329">  5  6 -1 -1</clus>
<clus scale="  105.731">  2  7  1 -1</clus>
<clus scale="   79.090">  2  5  1 -1</clus>
</clustering>
</event>
<event>
 9    1  0.1504846E-005  0.1250168E+03  0.7546771E-02  0.1235957E+00
         21   -1    0    0  501  502  0.00000000000E+00  0.00000000000E+00  0.20386378312E+03  0.20386378312E+03  0.00000000000E+00 0. -1.
         -3   -1    0    0    0  501 -0.00000000000E+00 -0.00000000000E+00 -0.16684059251E+03  0.16684059251E+03  0.00000000000E+00 0.  1.
         23    2    1    2    0    0  0.22564446626E+02  0.74713265155E+02 -0.72631645521E+02  0.13970617717E+03  0.90284183367E+02 0.  0.
         23    2    1    2    0    0 -0.44414062272E+02 -0.84618917387E+02  0.16315361798E+02  0.13462504287E+03  0.93406322217E+02 0.  0.
        -11    1    4    4    0    0 -0.31306207268E+02 -0.17037537492E+02 -0.34076983288E+02  0.49311226788E+02  0.00000000000E+00 0.  1.
         11    1    4    4    0    0 -0.13107855004E+02 -0.67581379895E+02  0.50392345086E+02  0.85313816083E+02  0.00000000000E+00 0. -1.
        -11    1    3    3    0    0  0.46016942322E+02  0.45808437922E+02 -0.84040418027E+01  0.65472130591E+02  0.00000000000E+00 0.  1.
         11    1    3    3    0    0 -0.23452495697E+02  0.28904827233E+02 -0.64227603718E+02  0.74234046577E+02  0.00000000000E+00 0. -1.
         -3    1    1    2    0  502  0.21849615646E+02  0.99056522321E+01  0.93339474335E+02  0.96373155594E+02  0.00000000000E+00 0.  1.
<scales pt_clust_5="13000.00000" pt_clust_6="13000.00000" pt_clust_7="13000.00000" pt_clust_8="13000.00000" pt_clust_9="23.99016"></scales>
<clustering>
<clus scale="   23.990">  1  9  2 -1</clus>
<clus scale="   90.284">  7  8 -1 -1</clus>
<clus scale="   93.406">  5  6 -1 -1</clus>
<clus scale="  122.702">  2  7  1 -1</clus>
<clus scale="   23.990">  1  5  2 -1</clus>
</clustering>
</event>
<event>
 9    1  0.2197241E-005  0.1020377E+03  0.7546771E-02  0.1276544E+00
          1   -1    0    0  502    0 -0.00000000000E+00  0.00000000000E+00  0.34028763765E+03  0.34028763765E+03  0.00000000000E+00 0. -1.
         21   -1    0    0  501  502  0.00000000000E+00 -0.00000000000E+00 -0.22814308705E+03  0.22814308705E+03  0.00000000000E+00 0. -1.
         23    2    1    2    0    0 -0.28669475158E+02  0.47634166190E+02  0.28266411537E+03  0.30169720083E+03  0.89617220878E+02 0.  0.
         23    2    1    2    0    0 -0.48706290137E+02 -0.21604342793E+02 -0.36123465394E+02  0.10948571851E+03  0.88561659192E+02 0.  0.
        -11    1    3    3    0    0 -0.24906234431E+01 -0.23374165451E+02  0.12011827796E+03  0.12239671367E+03  0.00000000000E+00 0. -1.
         11    1    3    3    0    0 -0.26178851715E+02  0.71008331641E+02  0.16254583741E+03  0.17930048717E+03  0.00000000000E+00 0.  1.
        -13    1    4    4    0    0  0.48077099558E+01 -0.44354778560E+02 -0.21505689344E+02  0.49527317011E+02  0.00000000000E+00 0. -1.
         13    1    4    4    0    0 -0.53514000093E+02  0.22750435767E+02 -0.14617776050E+02  0.59958401498E+02  0.00000000000E+00 0.  1.
          1    1    1    2  501    0  0.77375765295E+02 -0.26029823397E+02 -0.13439609938E+03  0.15724780535E+03  0.00000000000E+00 0. -1.
<scales pt_clust_5="13000.00000" pt_clust_6="13000.00000" pt_clust_7="13000.00000" pt_clust_8="13000.00000" pt_clust_9="81.63676"></scales>
<clustering>
<clus scale="   81.637">  2  9  1 -1</clus>
<clus scale="   88.562">  7  8 -1 -1</clus>
<clus scale="   89.617">  5  6 -1 -1</clus>
<clus scale="  101.112">  2  7  1 -1</clus>
<clus scale="   81.637">  2  5  1 -1</clus>
</clustering>
</event>
<event>
 9    1  0.1504846E-005  0.9282825E+02  0.7546771E-02  0.1296379E+00
          1   -1    0    0  502    0 -0.00000000000E+00  0.00000000000E+00  0.31641017687E+03  0.31641017687E+03  0.00000000000E+00 0. -1.
         21   -1    0    0  501  502  0.00000000000E+00 -0.00000000000E+00 -0.85371635322E+02  0.85371635322E+02  0.00000000000E+00 0.  1.
         23    2    1    2    0    0  0.11810294697E+01 -0.21116148772E+02  0.18615946273E+03  0.20855773819E+03  0.91617127362E+02 0.  0.
         23    2    1    2    0    0 -0.43226535932E+02 -0.31394141869E+02 -0.10322320143E+02  0.10620482507E+03  0.91207395660E+02 0.  0.
        -11    1    4    4    0    0 -0.32040549107E+02 -0.63789927418E+02 -0.84206648977E+01  0.71879477074E+02  0.00000000000E+00 0. -1.
         11    1    4    4    0    0 -0.11185986825E+02  0.32395785549E+02 -0.19016552458E+01  0.34325347999E+02  0.00000000000E+00 0.  1.
        -13    1    3    3    0    0  0.11737902272E+02 -0.56184566953E+02  0.11478805926E+03  0.12833854628E+03  0.00000000000E+00 0. -1.
         13    1    3    3    0    0 -0.10556872803E+02  0.35068418181E+02  0.71371403473E+02  0.80219191911E+02  0.00000000000E+00 0.  1.
          1    1    1    2  501    0  0.42045506462E+02  0.52510290641E+02  0.55201398963E+02  0.87019248930E+02  0.00000000000E+00 0. -1.
<scales pt_clust_5="13000.00000" pt_clust_6="13000.00000" pt_clust_7="13000.00000" pt_clust_8="13000.00000" pt_clust_9="67.26931"></scales>
<clustering>
<clus scale="   67.269">  2  9  1 -1</clus>
<clus scale="   91.207">  5  6 -1 -1</clus>
<clus scale="   91.617">  7  8 -1 -1</clus>
<clus scale="   92.424">  2  5  1 -1</clus>
<clus scale="   67.269">  2  5  1 -1</clus>
</clustering>
</event>
<event>
 9    1  0.1504846E-005  0.2937981E+03  0.7546771E-02  0.1089011E+00
         21   -1    0    0  501  502  0.00000000000E+00  0.00000000000E+00  0.18332450371E+03  0.18332450371E+03  0.00000000000E+00 0.  1.
          1   -1    0    0  502    0 -0.00000000000E+00 -0.00000000000E+00 -0.13868815624E+04  0.13868815624E+04  0.00000000000E+00 0. -1.
         23    2    1    2    0    0 -0.25869946416E+03 -0.10253886595E+03 -0.11888430940E+04  0.12244208288E+04  0.91754193885E+02 0.  0.
         23    2    1    2    0    0  0.25298798926E+03  0.13443582051E+03 -0.47289249069E+02  0.29983759524E+03  0.74768963464E+02 0.  0.
        -11    1    3    3    0    0 -0.14295726029E+03 -0.10370088463E+03 -0.67745533052E+03  0.70009740508E+03  0.00000000000E+00 0.  1.
         11    1    3    3    0    0 -0.11574220387E+03  0.11620186848E+01 -0.51138776346E+03  0.52432342372E+03  0.00000000000E+00 0. -1.
        -13    1    4    4    0    0  0.10265544237E+03  0.43825874049E+02 -0.54390950055E+02  0.12416610863E+03  0.00000000000E+00 0. -1.
         13    1    4    4    0    0  0.15033254688E+03  0.90609946460E+02  0.71017009861E+01  0.17567148661E+03  0.00000000000E+00 0.  1.
          1    1    1    2  501    0  0.57114748978E+01 -0.31896954561E+02  0.32575284400E+02  0.45947642045E+02  0.00000000000E+00 0. -1.
<scales pt_clust_5="13000.00000" pt_clust_6="13000.00000" pt_clust_7="13000.00000" pt_clust_8="13000.00000" pt_clust_9="32.40427"></scales>
<clustering>
<clus scale="   32.404">  1  9  2 -1</clus>
<clus scale="   74.769">  7  8 -1 -1</clus>
<clus scale="   91.754">  5  6 -1 -1</clus>
<clus scale="  288.944">  1  7  2 -1</clus>
<clus scale="   32.404">  1  5  2 -1</clus>
</clustering>
</event>
<event>
 9    1  0.1504846E-005  0.1616338E+03  0.7546771E-02  0.1187994E+00
         -3   -1    0    0    0  501 -0.00000000000E+00  0.00000000000E+00  0.22466392005E+03  0.22466392005E+03  0.00000000000E+00 0.  1.
         21   -1    0    0  501  502  0.00000000000E+00 -0.00000000000E+00 -0.47276858810E+03  0.47276858810E+03  0.00000000000E+00 0.  1.
         23    2    1    2    0    0  0.12198205875E+03  0.40279608051E+02  0.16460467355E+03  0.22784908587E+03  0.91205470764E+02 0.  0.
         23    2    1    2    0    0 -0.10596071257E+03 -0.89350473829E+02 -0.28320046686E+03  0.33016612767E+03  0.97959112131E+02 0.  0.
        -11    1    4    4    0    0 -0.10523927944E+03 -0.46267410507E+02 -0.14292427127E+03  0.18342117252E+03  0.00000000000E+00 0.  1.
         11    1    4    4    0    0 -0.72143312489E+00 -0.43083063322E+02 -0.14027619560E+03  0.14674495515E+03  0.00000000000E+00 0. -1.
        -11    1    3    3    0    0  0.11544875233E+03  0.60840635825E+02  0.15873342803E+03  0.20549038556E+03  0.00000000000E+00 0. -1.
         11    1    3    3    0    0  0.65333064119E+01 -0.20561027773E+02  0.58712455228E+01  0.22358700315E+02  0.00000000000E+00 0.  1.
         -3    1    1    2    0  502 -0.16021346181E+02  0.49070865778E+02 -0.12950887474E+03  0.13941729461E+03  0.00000000000E+00 0.  1.
<scales pt_clust_5="13000.00000" pt_clust_6="13000.00000" pt_clust_7="13000.00000" pt_clust_8="13000.00000" pt_clust_9="51.62009"></scales>
<clustering>
<clus scale="   51.620">  2  9  1 -1</clus>
<clus scale="   91.205">  7  8 -1 -1</clus>
<clus scale="   97.959">  5  6 -1 -1</clus>
<clus scale="  157.632">  1  7  2 -1</clus>
<clus scale="   51.620">  2  5  1 -1</clus>
</clustering>
</event>
<event>
 9    1  0.1504846E-005  0.1172383E+03  0.7546771E-02  0.1248213E+00
         21   -1    0    0  501  502  0.00000000000E+00  0.00000000000E+00  0.70998826400E+02  0.70998826400E+02  0.00000000000E+00 0. -1.
          2   -1    0    0  502    0 -0.00000000000E+00 -0.00000000000E+00 -0.44985919794E+03  0.44985919794E+03  0.00000000000E+00 0. -1.
         23    2    1    2    0    0  0.89852481527E+02  0.46661547344E+02 -0.25374923578E+03  0.28823546009E+03  0.91870764443E+02 0.  0.
         23    2    1    2    0    0 -0.13225243445E+02 -0.50269541091E+02 -0.11500628936E+03  0.15524776760E+03  0.90407349954E+02 0.  0.
        -11    1    4    4    0    0 -0.36864277927E+02  0.69789476559E+01 -0.21963548275E+02  0.43475029043E+02  0.00000000000E+00 0. -1.
         11    1    4    4    0    0  0.23639034482E+02 -0.57248488747E+02 -0.93042741090E+02  0.11177273856E+03  0.00000000000E+00 0.  1.
        -13    1    3    3    0    0 -0.12764061883E+01  0.35722212009E+02 -0.30989825481E+02  0.47308296597E+02  0.00000000000E+00 0.  1.
         13    1    3    3    0    0  0.91128887715E+02  0.10939335335E+02 -0.22275941030E+03  0.24092716350E+03  0.00000000000E+00 0. -1.
          2    1    1    2  501    0 -0.76627238081E+02  0.36079937466E+01 -0.10104846391E+02  0.77374796642E+02  0.00000000000E+00 0. -1.
<scales pt_clust_5="13000.00000" pt_clust_6="13000.00000" pt_clust_7="13000.00000" pt_clust_8="13000.00000" pt_clust_9="76.71213"></scales>
<clustering>
<clus scale="   76.712">  1  9  2 -1</clus>
<clus scale="   90.407">  5  6 -1 -1</clus>
<clus scale="   91.871">  7  8 -1 -1</clus>
<clus scale="  116.095">  1  5  2 -1</clus>
<clus scale="   76.712">  1  5  2 -1</clus>
</clustering>
</event>
<event>
 9    1  0.1504846E-005  0.9169583E+02  0.7546771E-02  0.1303987E+00
          2   -1    0    0  502    0 -0.00000000000E+00  0.00000000000E+00  0.38095164102E+03  0.38095164102E+03  0.00000000000E+00 0. -1.
         21   -1    0    0  501  502  0.00000000000E+00 -0.00000000000E+00 -0.40739763273E+02  0.40739763273E+02  0.00000000000E+00 0.  1.
         23    2    1    2    0    0 -0.21245494935E+02 -0.19874569078E+02  0.14486061421E+03  0.17373346549E+03  0.91391191758E+02 0.  0.
         23    2    1    2    0    0 -0.11772786221E+02 -0.32752894300E+02  0.10488417842E+03  0.13821209478E+03  0.83009286702E+02 0.  0.
        -11    1    4    4    0    0  0.29429882882E+02 -0.25774298735E+02  0.20778300722E+02  0.44296391079E+02  0.00000000000E+00 0.  1.
         11    1    4    4    0    0 -0.41202669103E+02 -0.69785955654E+01  0.84105877703E+02  0.93915703700E+02  0.00000000000E+00 0. -1.
        -13    1    3    3    0    0  0.95497815040E+01 -0.23290940491E+02 -0.42938567552E+00  0.25176389888E+02  0.00000000000E+00 0.  1.
         13    1    3    3    0    0 -0.30795276439E+02  0.34163714134E+01  0.14528999989E+03  0.14855707560E+03  0.00000000000E+00 0. -1.
          2    1    1    2  501    0  0.33018281156E+02  0.52627463378E+02  0.90467085112E+02  0.10974584402E+03  0.00000000000E+00 0. -1.
<scales pt_clust_5="13000.00000" pt_clust_6="13000.00000" pt_clust_7="13000.00000" pt_clust_8="13000.00000" pt_clust_9="62.12778"></scales>
<clustering>
<clus scale="   62.128">  2  9  1 -1</clus>
<clus scale="   83.009">  5  6 -1 -1</clus>
<clus scale="   83.345">  2  5  1 -1</clus>
<clus scale="   91.391">  7  8 -1 -1</clus>
<clus scale="   62.128">  2  5  1 -1</clus>
</clustering>
</event>
<event>
 9    1  0.1504846E-005  0.2723533E+03  0.7546771E-02  0.1099982E+00
         21   -1    0    0  501  502  0.00000000000E+00  0.00000000000E+00  0.11412923838E+03  0.11412923838E+03  0.00000000000E+00 0. -1.
         -1   -1    0    0    0  501 -0.00000000000E+00 -0.00000000000E+00 -0.10252877079E+04  0.10252877079E+04  0.00000000000E+00 0.  1.
         23    2    1    2    0    0 -0.25637750233E+03  0.18455071240E+02 -0.74237600997E+03  0.79089474513E+03  0.91226883909E+02 0.  0.
         23    2    1    2    0    0  0.25632352133E+03  0.12634222130E+02 -0.13923750078E+03  0.30563337201E+03  0.90351011648E+02 0.  0.
        -11    1    3    3    0    0 -0.17802553766E+03 -0.67895580875E+01 -0.60556666141E+03  0.63122909595E+03  0.00000000000E+00 0.  1.
         11    1    3    3    0    0 -0.78351964666E+02  0.25244629327E+02 -0.13680934856E+03  0.15966564918E+03  0.00000000000E+00 0. -1.
        -13    1    4    4    0    0  0.48790495845E+02  0.20541602450E+02 -0.67773271518E+02  0.85998175843E+02  0.00000000000E+00 0.  1.
         13    1    4    4    0    0  0.20753302549E+03 -0.79073803198E+01 -0.71464229260E+02  0.21963519617E+03  0.00000000000E+00 0. -1.
         -1    1    1    2    0  502  0.53980995049E-01 -0.31089293370E+02 -0.29544958763E+02  0.42888829134E+02  0.00000000000E+00 0.  1.
<scales pt_clust_5="13000.00000" pt_clust_6="13000.00000" pt_clust_7="13000.00000" pt_clust_8="13000.00000" pt_clust_9="31.08934"></scales>
<clustering>
<clus scale="   31.089">  1  9  2 -1</clus>
<clus scale="   90.351">  7  8 -1 -1</clus>
<clus scale="   91.227">  5  6 -1 -1</clus>
<clus scale="  272.061">  1  7  2 -1</clus>
<clus scale="   31.089">  1  5  2 -1</clus>
</clustering>
</event>
<event>
 9    1  0.1504846E-005  0.1494130E+03  0.7546771E-02  0.1205687E+00
         21   -1    0    0  501  502  0.00000000000E+00  0.00000000000E+00  0.11525661793E+03  0.11525661793E+03  0.00000000000E+00 0.  1.
         -1   -1    0    0    0  501 -0.00000000000E+00 -0.00000000000E+00 -0.61711848786E+03  0.61711848786E+03  0.00000000000E+00 0.  1.
         23    2    1    2    0    0  0.60395308539E+02 -0.64879381741E+02 -0.32005666284E+03  0.34941520981E+03  0.10861765026E+03 0.  0.
         23    2    1    2    0    0 -0.17178508006E+03  0.77223847236E+02 -0.58294192755E+02  0.21618148703E+03  0.88671224843E+02 0.  0.
        -13    1    3    3    0    0  0.80896215985E+02 -0.76561492937E+02 -0.21968614099E+03  0.24630846616E+03  0.00000000000E+00 0. -1.
         13    1    3    3    0    0 -0.20500907446E+02  0.11682111196E+02 -0.10037052186E+03  0.10310674365E+03  0.00000000000E+00 0.  1.
        -13    1    4    4    0    0 -0.54582068853E+02  0.46017198918E+02  0.17047909248E+02  0.73399019382E+02  0.00000000000E+00 0. -1.
         13    1    4    4    0    0 -0.11720301120E+03  0.31206648318E+02 -0.75342102004E+02  0.14278246765E+03  0.00000000000E+00 0.  1.
         -1    1    1    2    0  502  0.11138977152E+03 -0.12344465495E+02 -0.12351101433E+03  0.16677840894E+03  0.00000000000E+00 0.  1.
<scales pt_clust_5="13000.00000" pt_clust_6="13000.00000" pt_clust_7="13000.00000" pt_clust_8="13000.00000" pt_clust_9="112.07176"></scales>
<clustering>
<clus scale="   88.671">  7  8 -1 -1</clus>
<clus scale="  108.618">  5  6 -1 -1</clus>
<clus scale="  112.072">  1  9  2 -1</clus>
<clus scale="  135.606">  1  7  2 -1</clus>
<clus scale="  112.072">  1  5  2 -1</clus>
</clustering>
</event>
<event>
 9    1  0.1504846E-005  0.9657294E+02  0.7546771E-02  0.1288312E+00
          2   -1    0    0  502    0 -0.00000000000E+00  0.00000000000E+00  0.10523725717E+03  0.10523725717E+03  0.00000000000E+00 0.  1.
         21   -1    0    0  501  502  0.00000000000E+00 -0.00000000000E+00 -0.27532661583E+03  0.27532661583E+03  0.00000000000E+00 0. -1.
         23    2    1    2    0    0  0.47298859393E+02 -0.97902390084E+00  0.26312715502E+02  0.10734057805E+03  0.92690345303E+02 0.  0.
         23    2    1    2    0    0  0.40992074577E+02 -0.57295509581E+01 -0.11814004042E+03  0.15504867870E+03  0.91486860720E+02 0.  0.
        -13    1    4    4    0    0 -0.24851753297E+02  0.12548099761E+02 -0.56653629529E+02  0.63124465846E+02  0.00000000000E+00 0.  1.
         13    1    4    4    0    0  0.65843827874E+02 -0.18277650719E+02 -0.61486410888E+02  0.91924212854E+02  0.00000000000E+00 0. -1.
        -13    1    3    3    0    0  0.73562344942E+02 -0.11335552158E+02  0.26789295717E+02  0.79104865218E+02  0.00000000000E+00 0. -1.
         13    1    3    3    0    0 -0.26263485549E+02  0.10356528257E+02 -0.47658021493E+00  0.28235712837E+02  0.00000000000E+00 0.  1.
          2    1    1    2  501    0 -0.88290933970E+02  0.67085748589E+01 -0.78262033744E+02  0.11817461624E+03  0.00000000000E+00 0.  1.
<scales pt_clust_5="13000.00000" pt_clust_6="13000.00000" pt_clust_7="13000.00000" pt_clust_8="13000.00000" pt_clust_9="88.54543"></scales>
<clustering>
<clus scale="   88.545">  2  9  1 -1</clus>
<clus scale="   91.487">  5  6 -1 -1</clus>
<clus scale="   92.690">  7  8 -1 -1</clus>
<clus scale="   95.418">  2  5  1 -1</clus>
<clus scale="   88.545">  2  5  1 -1</clus>
</clustering>
</event>
<event>
 9    1  0.1504846E-005  0.1174287E+03  0.7546771E-02  0.1248809E+00
         21   -1    0    0  501  502  0.00000000000E+00  0.00000000000E+00  0.29644257355E+03  0.29644257355E+03  0.00000000000E+00 0. -1.
         -4   -1    0    0    0  501 -0.00000000000E+00 -0.00000000000E+00 -0.17774980977E+03  0.17774980977E+03  0.00000000000E+00 0.  1.
         23    2    1    2    0    0 -0.27266303401E+02  0.68634693190E+02 -0.14045512706E+03  0.18179679498E+03  0.88703210408E+02 0.  0.
         23    2    1    2    0    0  0.45993754636E+01 -0.51685844345E+02  0.21625654221E+03  0.24100764339E+03  0.92872016040E+02 0.  0.
        -11    1    4    4    0    0  0.48021699529E+02 -0.35068264395E+02  0.13198141277E+03  0.14475828166E+03  0.00000000000E+00 0.  1.
         11    1    4    4    0    0 -0.43422324066E+02 -0.16617579950E+02  0.84275129447E+02  0.96249361733E+02  0.00000000000E+00 0. -1.
        -13    1    3    3    0    0 -0.39643764644E+02  0.48461973003E+02 -0.31100147623E+02  0.69910014195E+02  0.00000000000E+00 0. -1.
         13    1    3    3    0    0  0.12377461243E+02  0.20172720187E+02 -0.10935497944E+03  0.11188678079E+03  0.00000000000E+00 0.  1.
         -4    1    1    2    0  502  0.22666927937E+02 -0.16948848845E+02  0.42891348621E+02  0.51387944946E+02  0.00000000000E+00 0.  1.
<scales pt_clust_5="13000.00000" pt_clust_6="13000.00000" pt_clust_7="13000.00000" pt_clust_8="13000.00000" pt_clust_9="28.30288"></scales>
<clustering>
<clus scale="   28.303">  1  9  2 -1</clus>
<clus scale="   88.703">  7  8 -1 -1</clus>
<clus scale="   92.872">  5  6 -1 -1</clus>
<clus scale="  114.160">  2  7  1 -1</clus>
<clus scale="   28.303">  1  5  2 -1</clus>
</clustering>
</event>
<event>
 9    1  0.1504846E-005  0.1744498E+03  0.7546771E-02  0.1173556E+00
         21   -1    0    0  501  502  0.00000000000E+00  0.00000000000E+00  0.15024526651E+03  0.15024526651E+03  0.00000000000E+00 0.  1.
          1   -1    0    0  502    0 -0.00000000000E+00 -0.00000000000E+00 -0.67405216190E+03  0.67405216190E+03  0.00000000000E+00 0. -1.
         23    2    1    2    0    0  0.14130102945E+02 -0.15016622052E+03 -0.54807750058E+03  0.57544810788E+03  0.89454036412E+02 0.  0.
         23    2    1    2    0    0 -0.77613420800E+02  0.12155613639E+03  0.44181277251E+02  0.17642623427E+03  0.91512258732E+02 0.  0.
        -11    1    4    4    0    0 -0.52043511597E+02  0.72032122140E+01  0.22986442073E+02  0.57347971932E+02  0.00000000000E+00 0. -1.
         11    1    4    4    0    0 -0.25569909202E+02  0.11435292417E+03  0.21194835177E+02  0.11907826234E+03  0.00000000000E+00 0.  1.
        -13    1    3    3    0    0 -0.26339578307E+02 -0.19994043151E+02 -0.57998069808E+02  0.66763097954E+02  0.00000000000E+00 0.  1.
         13    1    3    3    0    0  0.40469681252E+02 -0.13017217737E+03 -0.49007943077E+03  0.50868500993E+03  0.00000000000E+00 0. -1.
          1    1    1    2  501    0  0.63483317854E+02  0.28610084131E+02 -0.19910672061E+02  0.72423086248E+02  0.00000000000E+00 0. -1.
<scales pt_clust_5="13000.00000" pt_clust_6="13000.00000" pt_clust_7="13000.00000" pt_clust_8="13000.00000" pt_clust_9="69.63238"></scales>
<clustering>
<clus scale="   69.632">  1  9  2 -1</clus>
<clus scale="   89.454">  7  8 -1 -1</clus>
<clus scale="   91.512">  5  6 -1 -1</clus>
<clus scale="  173.379">  2  7  1 -1</clus>
<clus scale="   69.632">  1  5  2 -1</clus>
</clustering>
</event>
<event>
 9    1  0.1504846E-005  0.9175254E+02  0.7546771E-02  0.1299983E+00
          3   -1    0    0  502    0 -0.00000000000E+00  0.00000000000E+00  0.21799171478E+03  0.21799171478E+03  0.00000000000E+00 0. -1.
         21   -1    0    0  501  502  0.00000000000E+00 -0.00000000000E+00 -0.94645330664E+02  0.94645330664E+02  0.00000000000E+00 0.  1.
         23    2    1    2    0    0 -0.19930861728E+01  0.37594843112E+02  0.42343638468E+02  0.10761616347E+03  0.91492678945E+02 0.  0.
         23    2    1    2    0    0 -0.10257830249E+02  0.47851445214E+02  0.48655132711E+02  0.11283888154E+03  0.89276577872E+02 0.  0.
        -11    1    3    3    0    0 -0.93899662726E+01  0.66875043098E+02  0.21311284599E+02  0.70813937239E+02  0.00000000000E+00 0.  1.
         11    1    3    3    0    0  0.73968800998E+01 -0.29280199986E+02  0.21032353868E+02  0.36802226233E+02  0.00000000000E+00 0. -1.
        -11    1    4    4    0    0  0.35002441675E+02  0.39417292016E+02  0.12186019391E+02  0.54105386993E+02  0.00000000000E+00 0.  1.
         11    1    4    4    0    0 -0.45260271924E+02  0.84341531977E+01  0.36469113320E+02  0.58733494542E+02  0.00000000000E+00 0. -1.
          3    1    1    2  501    0  0.12250916422E+02 -0.85446288326E+02  0.32347612937E+02  0.92182000437E+02  0.00000000000E+00 0. -1.
<scales pt_clust_5="13000.00000" pt_clust_6="13000.00000" pt_clust_7="13000.00000" pt_clust_8="13000.00000" pt_clust_9="86.32006"></scales>
<clustering>
<clus scale="   86.320">  2  9  1 -1</clus>
<clus scale="   89.277">  7  8 -1 -1</clus>
<clus scale="   89.543">  2  7  1 -1</clus>
<clus scale="   91.493">  5  6 -1 -1</clus>
<clus scale="   86.320">  2  5  1 -1</clus>
</clustering>
</event>
<event>
 9    1  0.1504846E-005  0.1996778E+03  0.7546771E-02  0.1153359E+00
         21   -1    0    0  501  502  0.00000000000E+00  0.00000000000E+00  0.57992962226E+02  0.57992962226E+02  0.00000000000E+00 0. -1.
         -3   -1    0    0    0  501 -0.00000000000E+00 -0.00000000000E+00 -0.10461427857E+04  0.10461427857E+04  0.00000000000E+00 0.  1.
         23    2    1    2    0    0 -0.77040009847E+02 -0.13100536764E+03 -0.67476809582E+03  0.70188494596E+03  0.11930182211E+03 0.  0.
         23    2    1    2    0    0  0.87845273118E+02  0.15405562452E+03 -0.31887622183E+03  0.37620742428E+03  0.91651807292E+02 0.  0.
        -11    1    3    3    0    0 -0.30682148002E+02 -0.13024929453E+03 -0.59277448271E+03  0.60769059585E+03  0.00000000000E+00 0.  1.
         11    1    3    3    0    0 -0.46357861845E+02 -0.75607310597E+00 -0.81993613112E+02  0.94194350110E+02  0.00000000000E+00 0. -1.
        -13    1    4    4    0    0  0.38949360807E+02  0.69074447655E+02 -0.23211555237E+03  0.24528750820E+03  0.00000000000E+00 0.  1.
         13    1    4    4    0    0  0.48895912312E+02  0.84981176862E+02 -0.86760669462E+02  0.13091991608E+03  0.00000000000E+00 0. -1.
         -3    1    1    2    0  502 -0.10805263271E+02 -0.23050256879E+02  0.54944941563E+01  0.26043377710E+02  0.00000000000E+00 0.  1.
<scales pt_clust_5="13000.00000" pt_clust_6="13000.00000" pt_clust_7="13000.00000" pt_clust_8="13000.00000" pt_clust_9="25.45718"></scales>
<clustering>
<clus scale="   25.457">  1  9  2 -1</clus>
<clus scale="   91.652">  7  8 -1 -1</clus>
<clus scale="  119.302">  5  6 -1 -1</clus>
<clus scale="  184.495">  1  7  2 -1</clus>
<clus scale="   25.457">  1  5  2 -1</clus>
</clustering>
</event>
<event>
 9    1  0.1504846E-005  0.1023947E+03  0.7546771E-02  0.1276086E+00
         21   -1    0    0  501  502  0.00000000000E+00  0.00000000000E+00  0.64828621887E+02  0.64828621887E+02  0.00000000000E+00 0. -1.
          2   -1    0    0  502    0 -0.00000000000E+00 -0.00000000000E+00 -0.22637016060E+03  0.22637016060E+03  0.00000000000E+00 0. -1.
         23    2    1    2    0    0  0.13472963821E+02 -0.59401835468E+02 -0.10132185017E+03  0.14961246867E+03  0.91693372990E+02 0.  0.
         23    2    1    2    0    0 -0.37920419407E+01  0.27273914268E+02 -0.49265644921E+02  0.10628879774E+03  0.90066413133E+02 0.  0.
        -13    1    3    3    0    0 -0.16859455304E+01 -0.31851539451E+02  0.10400638416E+02  0.33549012761E+02  0.00000000000E+00 0. -1.
         13    1    3    3    0    0  0.15158909351E+02 -0.27550296017E+02 -0.11172248858E+03  0.11606345591E+03  0.00000000000E+00 0.  1.
        -13    1    4    4    0    0  0.24220008149E+02 -0.10773993348E+01  0.16544291076E+02  0.29351033224E+02  0.00000000000E+00 0.  1.
         13    1    4    4    0    0 -0.28012050090E+02  0.28351313603E+02 -0.65809935998E+02  0.76937764520E+02  0.00000000000E+00 0. -1.
          2    1    1    2  501    0 -0.96809218800E+01  0.32127921200E+02 -0.10954043627E+02  0.35297516072E+02  0.00000000000E+00 0. -1.
<scales pt_clust_5="13000.00000" pt_clust_6="13000.00000" pt_clust_7="13000.00000" pt_clust_8="13000.00000" pt_clust_9="33.55478"></scales>
<clustering>
<clus scale="   33.555">  1  9  2 -1</clus>
<clus scale="   90.066">  7  8 -1 -1</clus>
<clus scale="   91.693">  5  6 -1 -1</clus>
<clus scale="  100.940">  1  7  2 -1</clus>
<clus scale="   33.555">  1  5  2 -1</clus>
</clustering>
</event>
<event>
 9    1  0.1504846E-005  0.1028764E+03  0.7546771E-02  0.1276459E+00
          2   -1    0    0  502    0 -0.00000000000E+00  0.00000000000E+00  0.24565770922E+03  0.24565770922E+03  0.00000000000E+00 0. -1.
         21   -1    0    0  501  502  0.00000000000E+00 -0.00000000000E+00 -0.82330931657E+02  0.82330931657E+02  0.00000000000E+00 0.  1.
         23    2    1    2    0    0 -0.38423036690E+02 -0.18950542790E+02  0.17025297413E+03  0.20047488139E+03  0.96791787087E+02 0.  0.
         23    2    1    2    0    0  0.63356124909E+01  0.65963437976E+01 -0.61073572826E+01  0.93120453127E+02  0.92468736557E+02 0.  0.
        -13    1    3    3    0    0 -0.52646866082E+02 -0.46681420401E+02  0.89029262424E+02  0.11347712142E+03  0.00000000000E+00 0. -1.
         13    1    3    3    0    0  0.14223829392E+02  0.27730877611E+02  0.81223711707E+02  0.86997759966E+02  0.00000000000E+00 0.  1.
        -13    1    4    4    0    0  0.20812992035E+02 -0.21798742805E+02 -0.37684283012E+02  0.48254233093E+02  0.00000000000E+00 0.  1.
         13    1    4    4    0    0 -0.14477379544E+02  0.28395086602E+02  0.31576925729E+02  0.44866220034E+02  0.00000000000E+00 0. -1.
          2    1    1    2  501    0  0.32087424199E+02  0.12354198992E+02 -0.81883928611E+00  0.34393306358E+02  0.00000000000E+00 0. -1.
<scales pt_clust_5="13000.00000" pt_clust_6="13000.00000" pt_clust_7="13000.00000" pt_clust_8="13000.00000" pt_clust_9="34.38356"></scales>
<clustering>
<clus scale="   34.384">  2  9  1 -1</clus>
<clus scale="   92.469">  7  8 -1 -1</clus>
<clus scale="   96.792">  5  6 -1 -1</clus>
<clus scale="   98.820">  2  7  1 -1</clus>
<clus scale="   34.384">  2  5  1 -1</clus>
</clustering>
</event>
<event>
 9    1  0.1504846E-005  0.9690843E+02  0.7546771E-02  0.1287764E+00
          3   -1    0    0  502    0 -0.00000000000E+00  0.00000000000E+00  0.13094764480E+03  0.13094764480E+03  0.00000000000E+00 0. -1.
         21   -1    0    0  501  502  0.00000000000E+00 -0.00000000000E+00 -0.16657627568E+03  0.16657627568E+03  0.00000000000E+00 0. -1.
         23    2    1    2    0    0 -0.20981533063E+02  0.44340935518E+02  0.49774049081E+02  0.11439503028E+03  0.90567233024E+02 0.  0.
         23    2    1    2    0    0 -0.30902954977E+02 -0.42407494421E+01 -0.64799523075E+02  0.11439378203E+03  0.88960567636E+02 0.  0.
        -11    1    4    4    0    0 -0.46935052300E+02 -0.19855809138E+02 -0.74285943030E+02  0.90086367575E+02  0.00000000000E+00 0.  1.
         11    1    4    4    0    0  0.16032097323E+02  0.15615059696E+02  0.94864199555E+01  0.24307414454E+02  0.00000000000E+00 0. -1.
        -13    1    3    3    0    0  0.34798344910E+02  0.73926796832E+01  0.11903197315E+02  0.37513499273E+02  0.00000000000E+00 0.  1.
         13    1    3    3    0    0 -0.55779877973E+02  0.36948255835E+02  0.37870851766E+02  0.76881531003E+02  0.00000000000E+00 0. -1.
          3    1    1    2  501    0  0.51884488041E+02 -0.40100186076E+02 -0.20603156885E+02  0.68735108178E+02  0.00000000000E+00 0. -1.
<scales pt_clust_5="13000.00000" pt_clust_6="13000.00000" pt_clust_7="13000.00000" pt_clust_8="13000.00000" pt_clust_9="65.57458"></scales>
<clustering>
<clus scale="   65.575">  2  9  1 -1</clus>
<clus scale="   88.961">  5  6 -1 -1</clus>
<clus scale="   90.567">  7  8 -1 -1</clus>
<clus scale="   95.409">  2  5  1 -1</clus>
<clus scale="   65.575">  2  5  1 -1</clus>
</clustering>
</event>
<event>
 9    1  0.1504846E-005  0.1574166E+03  0.7546771E-02  0.1191724E+00
         21   -1    0    0  501  502  0.00000000000E+00  0.00000000000E+00  0.37738126628E+02  0.37738126628E+02  0.00000000000E+00 0.  1.
          2   -1    0    0  502    0 -0.00000000000E+00 -0.00000000000E+00 -0.12559820986E+04  0.12559820986E+04  0.00000000000E+00 0. -1.
         23    2    1    2    0    0  0.11544158973E+03  0.38477399599E+02 -0.70487579005E+03  0.72103691186E+03  0.90758349209E+02 0.  0.
         23    2    1    2    0    0 -0.12296817043E+03 -0.67951601931E+02 -0.51564977529E+03  0.54217784361E+03  0.91233394087E+02 0.  0.
        -11    1    3    3    0    0  0.96298357589E+02  0.62424734180E+02 -0.62560690499E+03  0.63604576933E+03  0.00000000000E+00 0. -1.
         11    1    3    3    0    0  0.19143232141E+02 -0.23947334581E+02 -0.79268885056E+02  0.84991142529E+02  0.00000000000E+00 0.  1.
        -13    1    4    4    0    0 -0.72721584095E+02  0.77229291079E+01 -0.28635335263E+03  0.29554409991E+03  0.00000000000E+00 0. -1.
         13    1    4    4    0    0 -0.50246586331E+02 -0.75674531039E+02 -0.22929642266E+03  0.24663374370E+03  0.00000000000E+00 0.  1.
          2    1    1    2  501    0  0.75265806959E+01  0.29474202332E+02  0.22815933205E+01  0.30505469807E+02  0.00000000000E+00 0. -1.
<scales pt_clust_5="13000.00000" pt_clust_6="13000.00000" pt_clust_7="13000.00000" pt_clust_8="13000.00000" pt_clust_9="30.42003"></scales>
<clustering>
<clus scale="   30.420">  1  9  2 -1</clus>
<clus scale="   90.758">  5  6 -1 -1</clus>
<clus scale="   91.233">  7  8 -1 -1</clus>
<clus scale="  157.142">  2  5  1 -1</clus>
<clus scale="   30.420">  1  5  2 -1</clus>
</clustering>
</event>
<event>
 9    1  0.1504846E-005  0.3104207E+03  0.7546771E-02  0.1080585E+00
          2   -1    0    0  502    0 -0.00000000000E+00  0.00000000000E+00  0.14454851551E+04  0.14454851551E+04  0.00000000000E+00 0. -1.
         21   -1    0    0  501  502  0.00000000000E+00 -0.00000000000E+00 -0.15818896983E+03  0.15818896983E+03  0.00000000000E+00 0.  1.
         23    2    1    2    0    0 -0.28174120021E+03 -0.10062240978E+03  0.12289757641E+04  0.12682895884E+04  0.93134730447E+02 0.  0.
         23    2    1    2    0    0  0.27031177024E+03  0.70971597051E+02  0.73938070961E+02  0.29997671884E+03  0.80086033675E+02 0.  0.
        -13    1    3    3    0    0 -0.67213076572E+02  0.11780971041E+02  0.20487306336E+03  0.21593832691E+03  0.00000000000E+00 0.  1.
         13    1    3    3    0    0 -0.21452812364E+03 -0.11240338082E+03  0.10241027008E+04  0.10523512615E+04  0.00000000000E+00 0. -1.
        -13    1    4    4    0    0  0.21778381012E+03  0.73487732666E+02  0.87047147445E+02  0.24577925194E+03  0.00000000000E+00 0.  1.
         13    1    4    4    0    0  0.52527960116E+02 -0.25161356143E+01 -0.13109076484E+02  0.54197466902E+02  0.00000000000E+00 0. -1.
          2    1    1    2  501    0  0.11429429968E+02  0.29650812727E+02 -0.15617649846E+02  0.35407817661E+02  0.00000000000E+00 0. -1.
<scales pt_clust_5="13000.00000" pt_clust_6="13000.00000" pt_clust_7="13000.00000" pt_clust_8="13000.00000" pt_clust_9="31.77739"></scales>
<clustering>
<clus scale="   31.777">  2  9  1 -1</clus>
<clus scale="   80.086">  7  8 -1 -1</clus>
<clus scale="   93.135">  5  6 -1 -1</clus>
<clus scale="  306.758">  2  7  1 -1</clus>
<clus scale="   31.777">  2  5  1 -1</clus>
</clustering>
</event>
<event>
 9    1  0.1504846E-005  0.2404118E+03  0.7546771E-02  0.1119860E+00
          1   -1    0    0  502    0 -0.00000000000E+00  0.00000000000E+00  0.73832586159E+03  0.73832586159E+03  0.00000000000E+00 0. -1.
         21   -1    0    0  501  502  0.00000000000E+00 -0.00000000000E+00 -0.25720996777E+03  0.25720996777E+03  0.00000000000E+00 0. -1.
         23    2    1    2    0    0  0.19130061215E+02 -0.21561954445E+03  0.38443832271E+03  0.45044209103E+03  0.90815781706E+02 0.  0.
         23    2    1    2    0    0  0.49312809937E+02  0.25013361209E+03 -0.13284905507E+03  0.30310588823E+03  0.96050668521E+02 0.  0.
        -13    1    4    4    0    0  0.54216763981E+01  0.20650572044E+03 -0.79320322899E+02  0.22128199379E+03  0.00000000000E+00 0. -1.
         13    1    4    4    0    0  0.43891133539E+02  0.43627891648E+02 -0.53528732175E+02  0.81823894440E+02  0.00000000000E+00 0.  1.
        -13    1    3    3    0    0 -0.22193728924E+02 -0.10617101428E+03  0.24820454044E+03  0.27086959920E+03  0.00000000000E+00 0.  1.
         13    1    3    3    0    0  0.41323790139E+02 -0.10944853017E+03  0.13623378227E+03  0.17957249183E+03  0.00000000000E+00 0. -1.
          1    1    1    2  501    0 -0.68442871152E+02 -0.34514067635E+02  0.22952662618E+03  0.24198785011E+03  0.00000000000E+00 0. -1.
<scales pt_clust_5="13000.00000" pt_clust_6="13000.00000" pt_clust_7="13000.00000" pt_clust_8="13000.00000" pt_clust_9="76.65281"></scales>
<clustering>
<clus scale="   76.653">  2  9  1 -1</clus>
<clus scale="   90.816">  7  8 -1 -1</clus>
<clus scale="   96.051">  5  6 -1 -1</clus>
<clus scale="  238.369">  1  7  2 -1</clus>
<clus scale="   76.653">  2  5  1 -1</clus>
</clustering>
</event>
<event>
 9    1  0.1504846E-005  0.1087160E+03  0.7546771E-02  0.1269453E+00
         21   -1    0    0  501  502  0.00000000000E+00  0.00000000000E+00  0.10108667096E+03  0.10108667096E+03  0.00000000000E+00 0.  1.
          1   -1    0    0  502    0 -0.00000000000E+00 -0.00000000000E+00 -0.39217808801E+03  0.39217808801E+03  0.00000000000E+00 0. -1.
         23    2    1    2    0    0  0.12931485368E+02  0.26515507631E+02 -0.29872209552E+03  0.31733477994E+03  0.10293773239E+03 0.  0.
         23    2    1    2    0    0  0.12420548826E+02 -0.75248956253E+02 -0.11091430705E+02  0.11789385214E+03  0.89214713399E+02 0.  0.
        -11    1    3    3    0    0 -0.15171193543E+02  0.58432027559E+02 -0.21659576656E+03  0.22485149110E+03  0.00000000000E+00 0. -1.
         11    1    3    3    0    0  0.28102678911E+02 -0.31916519928E+02 -0.82126328960E+02  0.92483288840E+02  0.00000000000E+00 0.  1.
        -13    1    4    4    0    0 -0.27933669743E+02 -0.69843173715E+02  0.16246707539E+01  0.75239606425E+02  0.00000000000E+00 0.  1.
         13    1    4    4    0    0  0.40354218569E+02 -0.54057825387E+01 -0.12716101459E+02  0.42654245715E+02  0.00000000000E+00 0. -1.
          1    1    1    2  501    0 -0.25352034194E+02  0.48733448622E+02  0.18722109181E+02  0.58036126892E+02  0.00000000000E+00 0. -1.
<scales pt_clust_5="13000.00000" pt_clust_6="13000.00000" pt_clust_7="13000.00000" pt_clust_8="13000.00000" pt_clust_9="54.93337"></scales>
<clustering>
<clus scale="   54.933">  1  9  2 -1</clus>
<clus scale="   89.215">  7  8 -1 -1</clus>
<clus scale="   95.824">  1  7  2 -1</clus>
<clus scale="  102.938">  5  6 -1 -1</clus>
<clus scale="   54.933">  1  5  2 -1</clus>
</clustering>
</event>
<event>
 9    1  0.1504846E-005  0.9952503E+02  0.7546771E-02  0.1287418E+00
          2   -1    0    0  502    0 -0.00000000000E+00  0.00000000000E+00  0.44869685337E+03  0.44869685337E+03  0.00000000000E+00 0. -1.
         21   -1    0    0  501  502  0.00000000000E+00 -0.00000000000E+00 -0.38051471777E+02  0.38051471777E+02  0.00000000000E+00 0.  1.
         23    2    1    2    0    0  0.31084479209E+02 -0.15163077478E+02  0.26770938823E+03  0.28546375265E+03  0.92871275228E+02 0.  0.
         23    2    1    2    0    0 -0.25515618150E+02  0.34813548851E+02  0.47014189145E+02  0.10321242680E+03  0.81113754142E+02 0.  0.
        -11    1    3    3    0    0  0.21391143205E+02  0.24748863110E+02  0.30500911063E+02  0.44725751067E+02  0.00000000000E+00 0.  1.
         11    1    3    3    0    0  0.96933360034E+01 -0.39911940588E+02  0.23720847717E+03  0.24073800158E+03  0.00000000000E+00 0. -1.
        -11    1    4    4    0    0 -0.41340039660E+02  0.15490275457E+02  0.60448173669E+02  0.74852716802E+02  0.00000000000E+00 0. -1.
         11    1    4    4    0    0  0.15824421510E+02  0.19323273394E+02 -0.13433984523E+02  0.28359709994E+02  0.00000000000E+00 0.  1.
          2    1    1    2  501    0 -0.55688610588E+01 -0.19650471372E+02  0.95921804216E+02  0.98072145703E+02  0.00000000000E+00 0. -1.
<scales pt_clust_5="13000.00000" pt_clust_6="13000.00000" pt_clust_7="13000.00000" pt_clust_8="13000.00000" pt_clust_9="20.42434"></scales>
<clustering>
<clus scale="   20.424">  2  9  1 -1</clus>
<clus scale="   81.114">  7  8 -1 -1</clus>
<clus scale="   88.654">  2  7  1 -1</clus>
<clus scale="   92.871">  5  6 -1 -1</clus>
<clus scale="   20.424">  2  5  1 -1</clus>
</clustering>
</event>
<event>
 9    1  0.1504846E-005  0.1308336E+03  0.7546771E-02  0.1244452E+00
         -2   -1    0    0    0  501 -0.00000000000E+00  0.00000000000E+00  0.21299327242E+03  0.21299327242E+03  0.00000000000E+00 0.  1.
         21   -1    0    0  501  502  0.00000000000E+00 -0.00000000000E+00 -0.36724721308E+03  0.36724721308E+03  0.00000000000E+00 0.  1.
         23    2    1    2    0    0  0.10931366226E+02  0.21230027475E+01  0.16632372173E+03  0.18915706017E+03  0.89402522848E+02 0.  0.
         23    2    1    2    0    0  0.84092466365E+02  0.15978189873E+02 -0.16122326672E+03  0.20466720996E+03  0.92568243201E+02 0.  0.
        -13    1    4    4    0    0  0.62114461744E+02  0.83793769221E+01 -0.26663602811E+02  0.68112906488E+02  0.00000000000E+00 0.  1.
         13    1    4    4    0    0  0.21978004622E+02  0.75988129511E+01 -0.13455966391E+03  0.13655430347E+03  0.00000000000E+00 0. -1.
        -13    1    3    3    0    0  0.46763081682E+02  0.16572400896E+02  0.74185910407E+02  0.89246734298E+02  0.00000000000E+00 0.  1.
         13    1    3    3    0    0 -0.35831715456E+02 -0.14449398148E+02  0.92137811325E+02  0.99910325868E+02  0.00000000000E+00 0. -1.
         -2    1    1    2    0  502 -0.95023832591E+02 -0.18101192621E+02 -0.15935439568E+03  0.18641621538E+03  0.00000000000E+00 0.  1.
<scales pt_clust_5="13000.00000" pt_clust_6="13000.00000" pt_clust_7="13000.00000" pt_clust_8="13000.00000" pt_clust_9="92.45844"></scales>
<clustering>
<clus scale="   89.403">  7  8 -1 -1</clus>
<clus scale="   90.093">  1  7  2 -1</clus>
<clus scale="   92.458">  2  9  1 -1</clus>
<clus scale="   92.568">  5  6 -1 -1</clus>
<clus scale="   92.458">  2  5  1 -1</clus>
</clustering>
</event>
<event>
 9    1  0.1504846E-005  0.9952601E+02  0.7546771E-02  0.1282354E+00
         21   -1    0    0  501  502  0.00000000000E+00  0.00000000000E+00  0.39651802842E+03  0.39651802842E+03  0.00000000000E+00 0. -1.
         -2   -1    0    0    0  501 -0.00000000000E+00 -0.00000000000E+00 -0.46508410972E+02  0.46508410972E+02  0.00000000000E+00 0.  1.
         23    2    1    2    0    0  0.54593434932E+01  0.42899899997E+02  0.34695888041E+02  0.10720110977E+03  0.91750026915E+02 0.  0.
         23    2    1    2    0    0 -0.41443410985E+01 -0.22776398490E+02  0.22501328944E+03  0.24330044647E+03  0.89600150300E+02 0.  0.
        -11    1    3    3    0    0  0.33573479210E+01 -0.27836158493E+02 -0.76074402879E+00  0.28048212709E+02  0.00000000000E+00 0.  1.
         11    1    3    3    0    0  0.21019955722E+01  0.70736058490E+02  0.35456632070E+02  0.79152897066E+02  0.00000000000E+00 0. -1.
        -11    1    4    4    0    0 -0.34730426113E+02  0.19903980120E+02  0.98541859960E+02  0.10636197200E+03  0.00000000000E+00 0. -1.
         11    1    4    4    0    0  0.30586085015E+02 -0.42680378610E+02  0.12647142948E+03  0.13693847447E+03  0.00000000000E+00 0.  1.
         -2    1    1    2    0  502 -0.13150023947E+01 -0.20123501508E+02  0.90300439969E+02  0.92524883155E+02  0.00000000000E+00 0.  1.
<scales pt_clust_5="13000.00000" pt_clust_6="13000.00000" pt_clust_7="13000.00000" pt_clust_8="13000.00000" pt_clust_9="20.16642"></scales>
<clustering>
<clus scale="   20.166">  1  9  2 -1</clus>
<clus scale="   89.600">  7  8 -1 -1</clus>
<clus scale="   91.750">  5  6 -1 -1</clus>
<clus scale="   97.548">  1  7  2 -1</clus>
<clus scale="   20.166">  1  5  2 -1</clus>
</clustering>
</event>
<event>
 9    1  0.1504846E-005  0.1028595E+03  0.7546771E-02  0.1274765E+00
         21   -1    0    0  501  502  0.00000000000E+00  0.00000000000E+00  0.18238519323E+03  0.18238519323E+03  0.00000000000E+00 0. -1.
          1   -1    0    0  502    0 -0.00000000000E+00 -0.00000000000E+00 -0.39132118511E+03  0.39132118511E+03  0.00000000000E+00 0. -1.
         23    2    1    2    0    0 -0.89802200308E+01  0.44327889402E+02 -0.18067362672E+03  0.20766179451E+03  0.91841468714E+02 0.  0.
         23    2    1    2    0    0  0.40653704316E+02 -0.34135342237E+02 -0.18115510066E+03  0.20957322481E+03  0.91026484043E+02 0.  0.
        -13    1    3    3    0    0  0.38096143760E+02  0.18274304331E+02 -0.45093209294E+02  0.61795338761E+02  0.00000000000E+00 0. -1.
         13    1    3    3    0    0 -0.47076363790E+02  0.26053585071E+02 -0.13558041743E+03  0.14586645575E+03  0.00000000000E+00 0.  1.
        -13    1    4    4    0    0  0.67701326749E+01 -0.40950677221E+02 -0.22531139081E+02  0.47227586108E+02  0.00000000000E+00 0.  1.
         13    1    4    4    0    0  0.33883571641E+02  0.68153349848E+01 -0.15862396158E+03  0.16234563870E+03  0.00000000000E+00 0. -1.
          1    1    1    2  501    0 -0.31673484285E+02 -0.10192547165E+02  0.15289273551E+03  0.15647135902E+03  0.00000000000E+00 0. -1.
<scales pt_clust_5="13000.00000" pt_clust_6="13000.00000" pt_clust_7="13000.00000" pt_clust_8="13000.00000" pt_clust_9="33.27308"></scales>
<clustering>
<clus scale="   33.273">  1  9  2 -1</clus>
<clus scale="   91.026">  7  8 -1 -1</clus>
<clus scale="   91.841">  5  6 -1 -1</clus>
<clus scale="  102.132">  1  7  2 -1</clus>
<clus scale="   33.273">  1  5  2 -1</clus>
</clustering>
</event>
<event>
 9    1  0.1504846E-005  0.1746785E+03  0.7546771E-02  0.1173130E+00
         21   -1    0    0  501  502  0.00000000000E+00  0.00000000000E+00  0.97721672123E+03  0.97721672123E+03  0.00000000000E+00 0.  1.
          3   -1    0    0  502    0 -0.00000000000E+00 -0.00000000000E+00 -0.39778350356E+02  0.39778350356E+02  0.00000000000E+00 0. -1.
         23    2    1    2    0    0  0.13895764843E+03  0.78017475859E+02  0.36942421101E+03  0.41258877414E+03  0.91429176220E+02 0.  0.
         23    2    1    2    0    0 -0.12918406868E+03 -0.48565423301E+02  0.39149493344E+03  0.42518022915E+03  0.91993588964E+02 0.  0.
        -11    1    3    3    0    0  0.67004842101E+02  0.84987063234E+02  0.18254144115E+03  0.21221175160E+03  0.00000000000E+00 0.  1.
         11    1    3    3    0    0  0.71952806333E+02 -0.69695873755E+01  0.18688276986E+03  0.20037702253E+03  0.00000000000E+00 0. -1.
        -13    1    4    4    0    0 -0.30880714223E+02 -0.25386613033E+02  0.23868160590E+03  0.24200621403E+03  0.00000000000E+00 0.  1.
         13    1    4    4    0    0 -0.98303354460E+02 -0.23178810268E+02  0.15281332754E+03  0.18317401513E+03  0.00000000000E+00 0. -1.
          3    1    1    2  501    0 -0.97735797508E+01 -0.29452052558E+02  0.17651922642E+03  0.17922606829E+03  0.00000000000E+00 0. -1.
<scales pt_clust_5="13000.00000" pt_clust_6="13000.00000" pt_clust_7="13000.00000" pt_clust_8="13000.00000" pt_clust_9="31.03138"></scales>
<clustering>
<clus scale="   31.031">  1  9  2 -1</clus>
<clus scale="   91.429">  5  6 -1 -1</clus>
<clus scale="   91.994">  7  8 -1 -1</clus>
<clus scale="  174.382">  2  5  1 -1</clus>
<clus scale="   31.031">  1  5  2 -1</clus>
</clustering>
</event>
<event>
 9    1  0.1504846E-005  0.1124400E+03  0.7546771E-02  0.1259218E+00
         21   -1    0    0  501  502  0.00000000000E+00  0.00000000000E+00  0.39469388314E+03  0.39469388314E+03  0.00000000000E+00 0. -1.
          1   -1    0    0  502    0 -0.00000000000E+00 -0.00000000000E+00 -0.34108186123E+03  0.34108186123E+03  0.00000000000E+00 0. -1.
         23    2    1    2    0    0 -0.29062462201E+02 -0.48654501787E+02 -0.31037456208E+03  0.32787071245E+03  0.89190515428E+02 0.  0.
         23    2    1    2    0    0 -0.32112802366E+01  0.71619531221E+02  0.16147609970E+03  0.20155706543E+03  0.97010567861E+02 0.  0.
        -11    1    4    4    0    0  0.90782774144E+01  0.88845023442E+02  0.15591038056E+03  0.17967721079E+03  0.00000000000E+00 0.  1.
         11    1    4    4    0    0 -0.12289557651E+02 -0.17225492221E+02  0.55657191437E+01  0.21879854641E+02  0.00000000000E+00 0. -1.
        -13    1    3    3    0    0 -0.53595038276E+02 -0.58254397394E+02 -0.24070102328E+03  0.25338308064E+03  0.00000000000E+00 0.  1.
         13    1    3    3    0    0  0.24532576075E+02  0.95998956068E+01 -0.69673538799E+02  0.74487631814E+02  0.00000000000E+00 0. -1.
          1    1    1    2  501    0  0.32273742437E+02 -0.22965029434E+02  0.20251048429E+03  0.20634796649E+03  0.00000000000E+00 0. -1.
<scales pt_clust_5="13000.00000" pt_clust_6="13000.00000" pt_clust_7="13000.00000" pt_clust_8="13000.00000" pt_clust_9="39.61044"></scales>
<clustering>
<clus scale="   39.610">  1  9  2 -1</clus>
<clus scale="   89.191">  7  8 -1 -1</clus>
<clus scale="   97.011">  5  6 -1 -1</clus>
<clus scale="  105.767">  2  7  1 -1</clus>
<clus scale="   39.610">  1  5  2 -1</clus>
</clustering>
</event>
<event>
 9    1  0.1504846E-005  0.3025863E+03  0.7546771E-02  0.1121238E+00
          2   -1    0    0  502    0 -0.00000000000E+00  0.00000000000E+00  0.10423913477E+04  0.10423913477E+04  0.00000000000E+00 0. -1.
         21   -1    0    0  501  502  0.00000000000E+00 -0.00000000000E+00 -0.17969025262E+03  0.17969025262E+03  0.00000000000E+00 0. -1.
         23    2    1    2    0    0  0.36893457492E+02  0.58563593518E+02  0.51439058798E+03  0.52719995712E+03  0.92473218289E+02 0.  0.
         23    2    1    2    0    0  0.27141531500E+03  0.54444434718E+00  0.14193752263E+03  0.31919844149E+03  0.89859974846E+02 0.  0.
        -11    1    3    3    0    0 -0.14330056567E+02  0.57410620681E+02  0.35136109630E+03  0.35630878446E+03  0.00000000000E+00 0.  1.
         11    1    3    3    0    0  0.51223514059E+02  0.11529728372E+01  0.16302949168E+03  0.17089117266E+03  0.00000000000E+00 0. -1.
        -13    1    4    4    0    0  0.16377367126E+03  0.29089187071E+02  0.46969962805E+02  0.17284146959E+03  0.00000000000E+00 0.  1.
         13    1    4    4    0    0  0.10764164374E+03 -0.28544742724E+02  0.94967559825E+02  0.14635697190E+03  0.00000000000E+00 0. -1.
          2    1    1    2  501    0 -0.30830877250E+03 -0.59108037866E+02  0.20637298451E+03  0.37568320175E+03  0.00000000000E+00 0. -1.
<scales pt_clust_5="13000.00000" pt_clust_6="13000.00000" pt_clust_7="13000.00000" pt_clust_8="13000.00000" pt_clust_9="288.93552"></scales>
<clustering>
<clus scale="   89.860">  7  8 -1 -1</clus>
<clus scale="   92.473">  5  6 -1 -1</clus>
<clus scale="  115.508">  1  5  2 -1</clus>
<clus scale="  288.936">  2  9  1 -1</clus>
<clus scale="  288.936">  2  5  1 -1</clus>
</clustering>
</event>
<event>
 9    1  0.1504846E-005  0.2205972E+03  0.7546771E-02  0.1153848E+00
         21   -1    0    0  501  502  0.00000000000E+00  0.00000000000E+00  0.40585296211E+03  0.40585296211E+03  0.00000000000E+00 0. -1.
         -1   -1    0    0    0  501 -0.00000000000E+00 -0.00000000000E+00 -0.28762574797E+03  0.28762574797E+03  0.00000000000E+00 0.  1.
         23    2    1    2    0    0 -0.74504136573E+02  0.66137417940E+02 -0.79300965862E+02  0.15679410582E+03  0.91491660899E+02 0.  0.
         23    2    1    2    0    0  0.22331878258E+03 -0.23796143443E+02  0.27379911809E+03  0.36418579735E+03  0.85016485628E+02 0.  0.
        -11    1    3    3    0    0 -0.32317303474E+02  0.81153538398E+02 -0.35924261274E+02  0.94450290876E+02  0.00000000000E+00 0. -1.
         11    1    3    3    0    0 -0.42186833098E+02 -0.15016120458E+02 -0.43376704588E+02  0.62343814941E+02  0.00000000000E+00 0.  1.
        -11    1    4    4    0    0  0.55346480625E+01 -0.19967605831E+02  0.37263519804E+02  0.42636926718E+02  0.00000000000E+00 0.  1.
         11    1    4    4    0    0  0.21778413452E+03 -0.38285376125E+01  0.23653559828E+03  0.32154887063E+03  0.00000000000E+00 0. -1.
         -1    1    1    2    0  502 -0.14881464601E+03 -0.42341274497E+02 -0.76270938085E+02  0.17249880692E+03  0.00000000000E+00 0.  1.
<scales pt_clust_5="13000.00000" pt_clust_6="13000.00000" pt_clust_7="13000.00000" pt_clust_8="13000.00000" pt_clust_9="203.55674"></scales>
<clustering>
<clus scale="   85.016">  7  8 -1 -1</clus>
<clus scale="   91.492">  5  6 -1 -1</clus>
<clus scale="  135.262">  2  5  1 -1</clus>
<clus scale="  203.557">  1  9  2 -1</clus>
<clus scale="  203.557">  1  5  2 -1</clus>
</clustering>
</event>
<event>
 9    1  0.1504846E-005  0.9464909E+02  0.7546771E-02  0.1292328E+00
          1   -1    0    0  502    0 -0.00000000000E+00  0.00000000000E+00  0.50677893000E+03  0.50677893000E+03  0.00000000000E+00 0. -1.
         21   -1    0    0  501  502  0.00000000000E+00 -0.00000000000E+00 -0.68450866970E+02  0.68450866970E+02  0.00000000000E+00 0. -1.
         23    2    1    2    0    0 -0.22967947056E+02  0.16868955067E+02  0.28632796265E+03  0.30185988046E+03  0.91233749207E+02 0.  0.
         23    2    1    2    0    0  0.20610807092E+02  0.97515266348E+01  0.19839617354E+03  0.21982739361E+03  0.91886580435E+02 0.  0.
        -11    1    3    3    0    0 -0.13998553881E+01 -0.27820886873E+02  0.30675369189E+02  0.41435970079E+02  0.00000000000E+00 0.  1.
         11    1    3    3    0    0 -0.21568091667E+02  0.44689841940E+02  0.25565259346E+03  0.26042391038E+03  0.00000000000E+00 0. -1.
        -13    1    4    4    0    0  0.37112924258E+02 -0.32299533545E+02  0.11214387588E+03  0.12246174060E+03  0.00000000000E+00 0.  1.
         13    1    4    4    0    0 -0.16502117166E+02  0.42051060180E+02  0.86252297662E+02  0.97365653006E+02  0.00000000000E+00 0. -1.
          1    1    1    2  501    0  0.23571399634E+01 -0.26620481701E+02 -0.46396073160E+02  0.53542522909E+02  0.00000000000E+00 0. -1.
<scales pt_clust_5="13000.00000" pt_clust_6="13000.00000" pt_clust_7="13000.00000" pt_clust_8="13000.00000" pt_clust_9="26.72464"></scales>
<clustering>
<clus scale="   26.725">  2  9  1 -1</clus>
<clus scale="   91.234">  5  6 -1 -1</clus>
<clus scale="   91.887">  7  8 -1 -1</clus>
<clus scale="   94.015">  1  5  2 -1</clus>
<clus scale="   26.725">  2  5  1 -1</clus>
</clustering>
</event>
<event>
 9    1  0.1504846E-005  0.2056261E+03  0.7546771E-02  0.1161218E+00
         21   -1    0    0  501  502  0.00000000000E+00  0.00000000000E+00  0.15113122678E+03  0.15113122678E+03  0.00000000000E+00 0. -1.
          2   -1    0    0  502    0 -0.00000000000E+00 -0.00000000000E+00 -0.67252598613E+03  0.67252598613E+03  0.00000000000E+00 0. -1.
         23    2    1    2    0    0 -0.77826798464E+01  0.10892736137E+03 -0.68423973086E+02  0.15634024694E+03  0.88513798691E+02 0.  0.
         23    2    1    2    0    0  0.45704463145E+02  0.78993788353E+02 -0.45366263408E+03  0.47560651029E+03  0.10983100889E+03 0.  0.
        -11    1    4    4    0    0 -0.11069006276E+02 -0.20832740975E+02 -0.41424002526E+02  0.47670472850E+02  0.00000000000E+00 0.  1.
         11    1    4    4    0    0  0.56773469421E+02  0.99826529328E+02 -0.41223863156E+03  0.42793603744E+03  0.00000000000E+00 0. -1.
        -13    1    3    3    0    0 -0.47332121610E+02  0.63283303860E+02 -0.48603874031E+02  0.92776305458E+02  0.00000000000E+00 0.  1.
         13    1    3    3    0    0  0.39549441764E+02  0.45644057512E+02 -0.19820099055E+02  0.63563941481E+02  0.00000000000E+00 0. -1.
          2    1    1    2  501    0 -0.37921783299E+02 -0.18792114973E+03  0.69184782246E+00  0.19171045568E+03  0.00000000000E+00 0. -1.
<scales pt_clust_5="13000.00000" pt_clust_6="13000.00000" pt_clust_7="13000.00000" pt_clust_8="13000.00000" pt_clust_9="173.83685"></scales>
<clustering>
<clus scale="   88.514">  7  8 -1 -1</clus>
<clus scale="  109.831">  5  6 -1 -1</clus>
<clus scale="  140.572">  2  7  1 -1</clus>
<clus scale="  173.837">  1  9  2 -1</clus>
<clus scale="  173.837">  1  5  2 -1</clus>
</clustering>
</event>
<event>
 9    1  0.1504846E-005  0.1223556E+03  0.7546771E-02  0.1240667E+00
          2   -1    0    0  502    0 -0.00000000000E+00  0.00000000000E+00  0.29238325472E+03  0.29238325472E+03  0.00000000000E+00 0. -1.
         21   -1    0    0  501  502  0.00000000000E+00 -0.00000000000E+00 -0.10256426279E+03  0.10256426279E+03  0.00000000000E+00 0. -1.
         23    2    1    2    0    0  0.42932491758E+02  0.70766277787E+02  0.13482978231E+03  0.18367615502E+03  0.93310207408E+02 0.  0.
         23    2    1    2    0    0  0.15132608638E+02 -0.72352709650E+02  0.81809468441E+02  0.14729168655E+03  0.97663408512E+02 0.  0.
        -11    1    4    4    0    0 -0.31489957033E+01  0.21657156369E+02  0.87488005810E+00  0.21902374553E+02  0.00000000000E+00 0. -1.
         11    1    4    4    0    0  0.18281604342E+02 -0.94009866020E+02  0.80934588383E+02  0.12538931200E+03  0.00000000000E+00 0.  1.
        -13    1    3    3    0    0 -0.18557115791E+02  0.58450185158E+02  0.76350629151E+02  0.97929613821E+02  0.00000000000E+00 0.  1.
         13    1    3    3    0    0  0.61489607549E+02  0.12316092629E+02  0.58479153159E+02  0.85746541203E+02  0.00000000000E+00 0. -1.
          2    1    1    2  501    0 -0.58065100397E+02  0.15864318629E+01 -0.26820258820E+02  0.63979675939E+02  0.00000000000E+00 0. -1.
<scales pt_clust_5="13000.00000" pt_clust_6="13000.00000" pt_clust_7="13000.00000" pt_clust_8="13000.00000" pt_clust_9="58.08677"></scales>
<clustering>
<clus scale="   58.087">  2  9  1 -1</clus>
<clus scale="   93.310">  7  8 -1 -1</clus>
<clus scale="   97.663">  5  6 -1 -1</clus>
<clus scale="  118.910">  1  7  2 -1</clus>
<clus scale="   58.087">  2  5  1 -1</clus>
</clustering>
</event>
<event>
 9    1  0.1504846E-005  0.1136683E+03  0.7546771E-02  0.1254073E+00
          3   -1    0    0  502    0 -0.00000000000E+00  0.00000000000E+00  0.64313874205E+02  0.64313874205E+02  0.00000000000E+00 0. -1.
         21   -1    0    0  501  502  0.00000000000E+00 -0.00000000000E+00 -0.41360934916E+03  0.41360934916E+03  0.00000000000E+00 0.  1.
         23    2    1    2    0    0  0.66279027153E+02 -0.25948813777E+02 -0.60231618848E+02  0.13048603960E+03  0.91282573608E+02 0.  0.
         23    2    1    2    0    0 -0.69398728107E+02 -0.36072862097E+02 -0.24005295959E+03  0.26832657266E+03  0.90864136733E+02 0.  0.
        -13    1    4    4    0    0 -0.48769758385E+02  0.24963204925E+02 -0.12460239043E+03  0.13611541659E+03  0.00000000000E+00 0.  1.
         13    1    4    4    0    0 -0.20628969721E+02 -0.61036067021E+02 -0.11545056915E+03  0.13221115606E+03  0.00000000000E+00 0. -1.
        -13    1    3    3    0    0  0.28574479365E+01 -0.28089733082E+02 -0.60788747016E+02  0.67025889603E+02  0.00000000000E+00 0.  1.
         13    1    3    3    0    0  0.63421579216E+02  0.21409193051E+01  0.55712816759E+00  0.63460149996E+02  0.00000000000E+00 0. -1.
          3    1    1    2  501    0  0.31197009540E+01  0.62021675874E+02 -0.49010896515E+02  0.79110611105E+02  0.00000000000E+00 0. -1.
<scales pt_clust_5="13000.00000" pt_clust_6="13000.00000" pt_clust_7="13000.00000" pt_clust_8="13000.00000" pt_clust_9="62.10012"></scales>
<clustering>
<clus scale="   62.100">  2  9  1 -1</clus>
<clus scale="   90.864">  5  6 -1 -1</clus>
<clus scale="   91.283">  7  8 -1 -1</clus>
<clus scale="  113.333">  2  5  1 -1</clus>
<clus scale="   62.100">  2  5  1 -1</clus>
</clustering>
</event>
<event>
 9    1  0.1504846E-005  0.1133717E+03  0.7546771E-02  0.1257370E+00
         -3   -1    0    0    0  501 -0.00000000000E+00  0.00000000000E+00  0.20716975293E+03  0.20716975293E+03  0.00000000000E+00 0.  1.
         21   -1    0    0  501  502  0.00000000000E+00 -0.00000000000E+00 -0.12300843684E+03  0.12300843684E+03  0.00000000000E+00 0. -1.
         23    2    1    2    0    0 -0.44696572536E+02 -0.61271341689E+01  0.87978322689E+02  0.13484113375E+03  0.91687625771E+02 0.  0.
         23    2    1    2    0    0  0.71721143492E+02  0.11864932295E+02  0.51726553525E+02  0.13330209141E+03  0.99040962196E+02 0.  0.
        -13    1    3    3    0    0 -0.21876533780E+02  0.20700888984E+02  0.94357238539E+02  0.99047453271E+02  0.00000000000E+00 0.  1.
         13    1    3    3    0    0 -0.22820038757E+02 -0.26828023153E+02 -0.63789158496E+01  0.35793680483E+02  0.00000000000E+00 0. -1.
        -13    1    4    4    0    0  0.35651597304E+02 -0.43070552659E+01 -0.27187266003E+02  0.45041475866E+02  0.00000000000E+00 0. -1.
         13    1    4    4    0    0  0.36069546188E+02  0.16171987561E+02  0.78913819529E+02  0.88260615545E+02  0.00000000000E+00 0.  1.
         -3    1    1    2    0  502 -0.27024570956E+02 -0.57377981258E+01 -0.55543560123E+02  0.62034964608E+02  0.00000000000E+00 0.  1.
<scales pt_clust_5="13000.00000" pt_clust_6="13000.00000" pt_clust_7="13000.00000" pt_clust_8="13000.00000" pt_clust_9="27.62698"></scales>
<clustering>
<clus scale="   27.627">  2  9  1 -1</clus>
<clus scale="   91.688">  5  6 -1 -1</clus>
<clus scale="   99.041">  7  8 -1 -1</clus>
<clus scale="  107.008">  1  5  2 -1</clus>
<clus scale="   27.627">  2  5  1 -1</clus>
</clustering>
</event>
<event>
 9    1  0.1504846E-005  0.9562744E+02  0.7546771E-02  0.1290688E+00
         21   -1    0    0  501  502  0.00000000000E+00  0.00000000000E+00  0.30267018239E+02  0.30267018239E+02  0.00000000000E+00 0. -1.
          1   -1    0    0  502    0 -0.00000000000E+00 -0.00000000000E+00 -0.56318524303E+03  0.56318524303E+03  0.00000000000E+00 0. -1.
         23    2    1    2    0    0  0.16428516845E+02  0.13594400491E+02 -0.37174507481E+03  0.38308614453E+03  0.90032714023E+02 0.  0.
         23    2    1    2    0    0 -0.33483037406E+02 -0.35338508454E+02 -0.10456878119E+03  0.14737629638E+03  0.91734501477E+02 0.  0.
        -11    1    3    3    0    0 -0.81144563122E+01 -0.33882115304E+02 -0.94071767911E+02  0.10031619838E+03  0.00000000000E+00 0.  1.
         11    1    3    3    0    0  0.24542973157E+02  0.47476515795E+02 -0.27767330690E+03  0.28276994615E+03  0.00000000000E+00 0. -1.
        -11    1    4    4    0    0 -0.15580035820E+02  0.30126771393E+02 -0.21711367147E+02  0.40270874513E+02  0.00000000000E+00 0.  1.
         11    1    4    4    0    0 -0.17903001587E+02 -0.65465279846E+02 -0.82857414040E+02  0.10710542186E+03  0.00000000000E+00 0. -1.
          1    1    1    2  501    0  0.17054520561E+02  0.21744107962E+02 -0.56604368792E+02  0.62989820360E+02  0.00000000000E+00 0. -1.
<scales pt_clust_5="13000.00000" pt_clust_6="13000.00000" pt_clust_7="13000.00000" pt_clust_8="13000.00000" pt_clust_9="27.63447"></scales>
<clustering>
<clus scale="   27.634">  1  9  2 -1</clus>
<clus scale="   90.033">  5  6 -1 -1</clus>
<clus scale="   91.735">  7  8 -1 -1</clus>
<clus scale="   93.996">  2  5  1 -1</clus>
<clus scale="   27.634">  1  5  2 -1</clus>
</clustering>
</event>
<event>
 9    1  0.1504846E-005  0.1353502E+03  0.7546771E-02  0.1221584E+00
          2   -1    0    0  502    0 -0.00000000000E+00  0.00000000000E+00  0.25317901241E+03  0.25317901241E+03  0.00000000000E+00 0. -1.
         21   -1    0    0  501  502  0.00000000000E+00 -0.00000000000E+00 -0.19062915959E+03  0.19062915959E+03  0.00000000000E+00 0.  1.
         23    2    1    2    0    0 -0.65713990424E+02  0.60218440801E+02  0.16493274896E+03  0.21013034679E+03  0.94907122035E+02 0.  0.
         23    2    1    2    0    0  0.97136897983E+02 -0.94907933476E+02 -0.66240116424E+02  0.17454187550E+03  0.87372881916E+02 0.  0.
        -11    1    4    4    0    0  0.20529716819E+02 -0.54668277237E+02  0.99617908597E+01  0.59239573647E+02  0.00000000000E+00 0. -1.
         11    1    4    4    0    0  0.76607181164E+02 -0.40239656239E+02 -0.76201907283E+02  0.11530230186E+03  0.00000000000E+00 0.  1.
        -13    1    3    3    0    0  0.50295058349E+01  0.52226311283E+02  0.38667452991E+02  0.65177108251E+02  0.00000000000E+00 0.  1.
         13    1    3    3    0    0 -0.70743496259E+02  0.79921295183E+01  0.12626529597E+03  0.14495323854E+03  0.00000000000E+00 0. -1.
          2    1    1    2  501    0 -0.31422907559E+02  0.34689492675E+02 -0.36142779723E+02  0.59135949706E+02  0.00000000000E+00 0. -1.
<scales pt_clust_5="13000.00000" pt_clust_6="13000.00000" pt_clust_7="13000.00000" pt_clust_8="13000.00000" pt_clust_9="46.80556"></scales>
<clustering>
<clus scale="   46.806">  2  9  1 -1</clus>
<clus scale="   87.373">  5  6 -1 -1</clus>
<clus scale="   94.907">  7  8 -1 -1</clus>
<clus scale="  130.178">  2  5  1 -1</clus>
<clus scale="   46.806">  2  5  1 -1</clus>
</clustering>
</event>
<event>
 9    1  0.1504846E-005  0.2446242E+03  0.7546771E-02  0.1116988E+00
         21   -1    0    0  501  502  0.00000000000E+00  0.00000000000E+00  0.73317853156E+03  0.73317853156E+03  0.00000000000E+00 0.  1.
          1   -1    0    0  502    0 -0.00000000000E+00 -0.00000000000E+00 -0.15697482402E+03  0.15697482402E+03  0.00000000000E+00 0. -1.
         23    2    1    2    0    0 -0.77283186835E+02 -0.19116128800E+03  0.59018273963E+02  0.23396983471E+03  0.93506138278E+02 0.  0.
         23    2    1    2    0    0  0.10045851969E+03  0.24670700108E+03  0.23117433078E+03  0.36390835392E+03  0.89618414850E+02 0.  0.
        -11    1    4    4    0    0  0.91988803427E+02  0.11173128022E+03  0.13539763641E+03  0.19818763554E+03  0.00000000000E+00 0. -1.
         11    1    4    4    0    0  0.84697162614E+01  0.13497572086E+03  0.95776694368E+02  0.16572071838E+03  0.00000000000E+00 0.  1.
        -13    1    3    3    0    0  0.59850491194E+01 -0.25561513908E+02  0.39719938213E+02  0.47611818889E+02  0.00000000000E+00 0.  1.
         13    1    3    3    0    0 -0.83268235954E+02 -0.16559977409E+03  0.19298335750E+02  0.18635801582E+03  0.00000000000E+00 0. -1.
          1    1    1    2  501    0 -0.23175332854E+02 -0.55545713078E+02  0.28601110280E+03  0.29227516695E+03  0.00000000000E+00 0. -1.
<scales pt_clust_5="13000.00000" pt_clust_6="13000.00000" pt_clust_7="13000.00000" pt_clust_8="13000.00000" pt_clust_9="60.18656"></scales>
<clustering>
<clus scale="   60.187">  1  9  2 -1</clus>
<clus scale="   89.618">  5  6 -1 -1</clus>
<clus scale="   93.506">  7  8 -1 -1</clus>
<clus scale="  243.165">  1  5  2 -1</clus>
<clus scale="   60.187">  1  5  2 -1</clus>
</clustering>
</event>
<event>
 9    1  0.1504846E-005  0.9282241E+02  0.7546771E-02  0.1296324E+00
          1   -1    0    0  502    0 -0.00000000000E+00  0.00000000000E+00  0.26246690164E+03  0.26246690164E+03  0.00000000000E+00 0. -1.
         21   -1    0    0  501  502  0.00000000000E+00 -0.00000000000E+00 -0.26270907091E+03  0.26270907091E+03  0.00000000000E+00 0. -1.
         23    2    1    2    0    0 -0.11240239928E+02 -0.97838937011E+00  0.20273174207E+03  0.22251388086E+03  0.91021797921E+02 0.  0.
         23    2    1    2    0    0  0.67095239661E+02  0.21094744056E+02 -0.28384974791E+02  0.11825562357E+03  0.90729963625E+02 0.  0.
        -11    1    3    3    0    0 -0.34144144202E+02  0.33186568477E+02  0.80277661951E+02  0.93336348327E+02  0.00000000000E+00 0.  1.
         11    1    3    3    0    0  0.22903904274E+02 -0.34164957847E+02  0.12245408012E+03  0.12917753254E+03  0.00000000000E+00 0. -1.
        -11    1    4    4    0    0 -0.21280470673E+02  0.12612557396E+02 -0.13668378956E+02  0.28262335703E+02  0.00000000000E+00 0.  1.
         11    1    4    4    0    0  0.88375710334E+02  0.84821866596E+01 -0.14716595835E+02  0.89993287864E+02  0.00000000000E+00 0. -1.
          1    1    1    2  501    0 -0.55854999733E+02 -0.20116354686E+02 -0.17458893654E+03  0.18440646812E+03  0.00000000000E+00 0. -1.
<scales pt_clust_5="13000.00000" pt_clust_6="13000.00000" pt_clust_7="13000.00000" pt_clust_8="13000.00000" pt_clust_9="59.36707"></scales>
<clustering>
<clus scale="   59.367">  2  9  1 -1</clus>
<clus scale="   90.730">  7  8 -1 -1</clus>
<clus scale="   91.022">  5  6 -1 -1</clus>
<clus scale="   92.536">  2  7  1 -1</clus>
<clus scale="   59.367">  2  5  1 -1</clus>
</clustering>
</event>
<event>
 9    1  0.1504846E-005  0.1035980E+03  0.7546771E-02  0.1273723E+00
          2   -1    0    0  502    0 -0.00000000000E+00  0.00000000000E+00  0.63259963234E+03  0.63259963234E+03  0.00000000000E+00 0. -1.
         21   -1    0    0  501  502  0.00000000000E+00 -0.00000000000E+00 -0.11998382335E+03  0.11998382335E+03  0.00000000000E+00 0. -1.
         23    2    1    2    0    0 -0.48507182423E+02 -0.14726408148E+02  0.56813156713E+03  0.57724935918E+03  0.88732920913E+02 0.  0.
         23    2    1    2    0    0  0.24923215626E+02  0.62115075535E+02 -0.29897630107E+02  0.11652782328E+03  0.90583751452E+02 0.  0.
        -13    1    3    3    0    0 -0.93066030625E+01 -0.49082032207E+02  0.29151050641E+03  0.29576009550E+03  0.00000000000E+00 0. -1.
         13    1    3    3    0    0 -0.39200579361E+02  0.34355624060E+02  0.27662106073E+03  0.28148926367E+03  0.00000000000E+00 0.  1.
        -13    1    4    4    0    0  0.34539892927E+02 -0.95465638792E+00  0.15857329641E+02  0.38018028297E+02  0.00000000000E+00 0.  1.
         13    1    4    4    0    0 -0.96166773018E+01  0.63069731923E+02 -0.45754959748E+02  0.78509794985E+02  0.00000000000E+00 0. -1.
          2    1    1    2  501    0  0.23583966797E+02 -0.47388667387E+02 -0.25618128037E+02  0.58806273226E+02  0.00000000000E+00 0. -1.
<scales pt_clust_5="13000.00000" pt_clust_6="13000.00000" pt_clust_7="13000.00000" pt_clust_8="13000.00000" pt_clust_9="52.93288"></scales>
<clustering>
<clus scale="   52.933">  2  9  1 -1</clus>
<clus scale="   88.733">  5  6 -1 -1</clus>
<clus scale="   90.584">  7  8 -1 -1</clus>
<clus scale="  101.984">  1  5  2 -1</clus>
<clus scale="   52.933">  2  5  1 -1</clus>
</clustering>
</event>
<event>
 9    1  0.1504846E-005  0.3724809E+03  0.7546771E-02  0.1053966E+00
         21   -1    0    0  501  502  0.00000000000E+00  0.00000000000E+00  0.16711661146E+03  0.16711661146E+03  0.00000000000E+00 0. -1.
          2   -1    0    0  502    0 -0.00000000000E+00 -0.00000000000E+00 -0.12529765205E+04  0.12529765205E+04  0.00000000000E+00 0. -1.
         23    2    1    2    0    0 -0.36378810483E+03  0.21320688356E+03 -0.76592666289E+03  0.87812624355E+03  0.81627729748E+02 0.  0.
         23    2    1    2    0    0  0.24839220136E+03 -0.12849873155E+03 -0.21054475128E+03  0.36180715828E+03  0.91458831087E+02 0.  0.
        -11    1    4    4    0    0  0.52109454825E+02 -0.73815896381E+02 -0.59881076121E+02  0.10839707154E+03  0.00000000000E+00 0.  1.
         11    1    4    4    0    0  0.19628274653E+03 -0.54682835168E+02 -0.15066367516E+03  0.25341008674E+03  0.00000000000E+00 0. -1.
        -13    1    3    3    0    0 -0.44124893987E+02  0.48079073164E+01 -0.11943213192E+03  0.12741332889E+03  0.00000000000E+00 0.  1.
         13    1    3    3    0    0 -0.31966321084E+03  0.20839897624E+03 -0.64649453097E+03  0.75071291466E+03  0.00000000000E+00 0. -1.
          2    1    1    2  501    0  0.11539590347E+03 -0.84708152010E+02 -0.10938849485E+03  0.18015973013E+03  0.00000000000E+00 0. -1.
<scales pt_clust_5="13000.00000" pt_clust_6="13000.00000" pt_clust_7="13000.00000" pt_clust_8="13000.00000" pt_clust_9="143.14917"></scales>
<clustering>
<clus scale="   81.628">  7  8 -1 -1</clus>
<clus scale="   91.459">  5  6 -1 -1</clus>
<clus scale="  143.149">  1  9  2 -1</clus>
<clus scale="  370.190">  2  7  1 -1</clus>
<clus scale="  143.149">  1  5  2 -1</clus>
</clustering>
</event>
<event>
 9    1  0.1504846E-005  0.9605203E+02  0.7546771E-02  0.1291969E+00
         21   -1    0    0  501  502  0.00000000000E+00  0.00000000000E+00  0.13323844663E+03  0.13323844663E+03  0.00000000000E+00 0.  1.
          2   -1    0    0  502    0 -0.00000000000E+00 -0.00000000000E+00 -0.10861064696E+03  0.10861064696E+03  0.00000000000E+00 0.  1.
         23    2    1    2    0    0  0.17320492755E+02 -0.14297510112E+02 -0.31241021702E+02  0.99238802800E+02  0.91476337265E+02 0.  0.
         23    2    1    2    0    0 -0.23783686276E+02  0.33381393336E+02  0.13829957776E+02  0.95992337999E+02  0.85692940599E+02 0.  0.
        -11    1    4    4    0    0  0.12467698218E+02  0.32967604559E+02 -0.24737085822E+02  0.43060769433E+02  0.00000000000E+00 0. -1.
         11    1    4    4    0    0 -0.36251384494E+02  0.41378877700E+00  0.38567043598E+02  0.52931568566E+02  0.00000000000E+00 0.  1.
        -13    1    3    3    0    0 -0.16449115237E+02  0.28208239227E+02 -0.30890875188E+02  0.44950242739E+02  0.00000000000E+00 0.  1.
         13    1    3    3    0    0  0.33769607993E+02 -0.42505749339E+02 -0.35014651379E+00  0.54288560061E+02  0.00000000000E+00 0. -1.
          2    1    1    2  501    0  0.64631935211E+01 -0.19083883224E+02  0.42038863601E+02  0.46617952790E+02  0.00000000000E+00 0.  1.
<scales pt_clust_5="13000.00000" pt_clust_6="13000.00000" pt_clust_7="13000.00000" pt_clust_8="13000.00000" pt_clust_9="20.14863"></scales>
<clustering>
<clus scale="   20.149">  1  9  2 -1</clus>
<clus scale="   85.693">  5  6 -1 -1</clus>
<clus scale="   90.561">  1  5  2 -1</clus>
<clus scale="   91.476">  7  8 -1 -1</clus>
<clus scale="   20.149">  1  5  2 -1</clus>
</clustering>
</event>
<event>
 9    1  0.1504846E-005  0.1068137E+03  0.7546771E-02  0.1268716E+00
         21   -1    0    0  501  502  0.00000000000E+00  0.00000000000E+00  0.28313485425E+03  0.28313485425E+03  0.00000000000E+00 0. -1.
          1   -1    0    0  502    0 -0.00000000000E+00 -0.00000000000E+00 -0.28605439472E+03  0.28605439472E+03  0.00000000000E+00 0. -1.
         23    2    1    2    0    0  0.52974784104E+02 -0.48175530954E+01 -0.24103304804E+03  0.26235687724E+03  0.88908178588E+02 0.  0.
         23    2    1    2    0    0 -0.21776280177E+02 -0.65318567596E+02  0.13443926262E+03  0.17783325879E+03  0.93861765109E+02 0.  0.
        -11    1    4    4    0    0 -0.24681946289E+02 -0.32197262546E+02  0.13851684059E+03  0.14433564118E+03  0.00000000000E+00 0. -1.
         11    1    4    4    0    0  0.29056661113E+01 -0.33121305049E+02 -0.40775779724E+01  0.33497617614E+02  0.00000000000E+00 0.  1.
        -11    1    3    3    0    0  0.64478224943E+02 -0.33304116698E+02 -0.17837156742E+03  0.19256952444E+03  0.00000000000E+00 0. -1.
         11    1    3    3    0    0 -0.11503440839E+02  0.28486563602E+02 -0.62661480626E+02  0.69787352803E+02  0.00000000000E+00 0.  1.
          1    1    1    2  501    0 -0.31198503926E+02  0.70136120691E+02  0.10367424495E+03  0.12899911294E+03  0.00000000000E+00 0. -1.
<scales pt_clust_5="13000.00000" pt_clust_6="13000.00000" pt_clust_7="13000.00000" pt_clust_8="13000.00000" pt_clust_9="76.76211"></scales>
<clustering>
<clus scale="   76.762">  1  9  2 -1</clus>
<clus scale="   88.908">  7  8 -1 -1</clus>
<clus scale="   93.862">  5  6 -1 -1</clus>
<clus scale="  102.488">  2  7  1 -1</clus>
<clus scale="   76.762">  1  5  2 -1</clus>
</clustering>
</event>
<event>
 9    1  0.1504846E-005  0.9944824E+02  0.7546771E-02  0.1284597E+00
         21   -1    0    0  501  502  0.00000000000E+00  0.00000000000E+00  0.71417913557E+02  0.71417913557E+02  0.00000000000E+00 0. -1.
          1   -1    0    0  502    0 -0.00000000000E+00 -0.00000000000E+00 -0.27085223535E+03  0.27085223535E+03  0.00000000000E+00 0. -1.
         23    2    1    2    0    0  0.41170959516E+02  0.42048078437E+01 -0.14799630640E+03  0.18090594996E+03  0.95453274988E+02 0.  0.
         23    2    1    2    0    0 -0.11384982512E+02  0.27554775241E+01 -0.79200368658E+02  0.12005562530E+03  0.89461971178E+02 0.  0.
        -11    1    3    3    0    0  0.26705999507E+02  0.47612470575E+02 -0.10386135583E+03  0.11733430444E+03  0.00000000000E+00 0. -1.
         11    1    3    3    0    0  0.14464960010E+02 -0.43407662732E+02 -0.44134950570E+02  0.63571645517E+02  0.00000000000E+00 0.  1.
        -13    1    4    4    0    0 -0.53813107899E+01 -0.37399141936E+02 -0.88139449899E+01  0.38798710670E+02  0.00000000000E+00 0.  1.
         13    1    4    4    0    0 -0.60036717221E+01  0.40154619460E+02 -0.70386423668E+02  0.81256914629E+02  0.00000000000E+00 0. -1.
          1    1    1    2  501    0 -0.29785977004E+02 -0.69602853678E+01  0.27762353263E+02  0.41308573653E+02  0.00000000000E+00 0. -1.
<scales pt_clust_5="13000.00000" pt_clust_6="13000.00000" pt_clust_7="13000.00000" pt_clust_8="13000.00000" pt_clust_9="30.58840"></scales>
<clustering>
<clus scale="   30.588">  1  9  2 -1</clus>
<clus scale="   89.462">  7  8 -1 -1</clus>
<clus scale="   93.713">  1  7  2 -1</clus>
<clus scale="   95.453">  5  6 -1 -1</clus>
<clus scale="   30.588">  1  5  2 -1</clus>
</clustering>
</event>
<event>
 9    1  0.1504846E-005  0.1061807E+03  0.7546771E-02  0.1269040E+00
         21   -1    0    0  501  502  0.00000000000E+00  0.00000000000E+00  0.10857587424E+03  0.10857587424E+03  0.00000000000E+00 0.  1.
          1   -1    0    0  502    0 -0.00000000000E+00 -0.00000000000E+00 -0.28789110458E+03  0.28789110458E+03  0.00000000000E+00 0. -1.
         23    2    1    2    0    0  0.46088021528E+02 -0.32371325442E+02 -0.17977540095E+03  0.21175008223E+03  0.96679336454E+02 0.  0.
         23    2    1    2    0    0 -0.14127846441E+02  0.19550956962E+02 -0.60789170476E+02  0.11445099857E+03  0.93924820277E+02 0.  0.
        -13    1    4    4    0    0  0.12816824432E+02 -0.33962247133E+02 -0.29979913170E+02  0.47079724007E+02  0.00000000000E+00 0. -1.
         13    1    4    4    0    0 -0.26944670873E+02  0.53513204095E+02 -0.30809257306E+02  0.67371274567E+02  0.00000000000E+00 0.  1.
        -13    1    3    3    0    0 -0.26558326869E+02 -0.16713919861E+02 -0.25227020620E+02  0.40262916096E+02  0.00000000000E+00 0.  1.
         13    1    3    3    0    0  0.72646348397E+02 -0.15657405581E+02 -0.15454838033E+03  0.17148716613E+03  0.00000000000E+00 0. -1.
          1    1    1    2  501    0 -0.31960175087E+02  0.12820368479E+02  0.61249341090E+02  0.70265898013E+02  0.00000000000E+00 0. -1.
<scales pt_clust_5="13000.00000" pt_clust_6="13000.00000" pt_clust_7="13000.00000" pt_clust_8="13000.00000" pt_clust_9="34.43566"></scales>
<clustering>
<clus scale="   34.436">  1  9  2 -1</clus>
<clus scale="   93.925">  5  6 -1 -1</clus>
<clus scale="   96.679">  7  8 -1 -1</clus>
<clus scale="  103.679">  1  5  2 -1</clus>
<clus scale="   34.436">  1  5  2 -1</clus>
</clustering>
</event>
<event>
 9    1  0.1504846E-005  0.1206235E+03  0.7546771E-02  0.1244271E+00
          1   -1    0    0  502    0 -0.00000000000E+00  0.00000000000E+00  0.10010059742E+04  0.10010059742E+04  0.00000000000E+00 0. -1.
         21   -1    0    0  501  502  0.00000000000E+00 -0.00000000000E+00 -0.21892924515E+02  0.21892924515E+02  0.00000000000E+00 0.  1.
         23    2    1    2    0    0 -0.40879637277E+02 -0.47500226806E+02  0.55760530507E+03  0.56929983616E+03  0.96183215393E+02 0.  0.
         23    2    1    2    0    0  0.63362884273E+02  0.72764135340E+02  0.30282019497E+03  0.33018716722E+03  0.89521061306E+02 0.  0.
        -11    1    4    4    0    0  0.11073330235E+02  0.77168459469E+02  0.20214904029E+03  0.21666062003E+03  0.00000000000E+00 0.  1.
         11    1    4    4    0    0  0.52289554038E+02 -0.44043241292E+01  0.10067115468E+03  0.11352654719E+03  0.00000000000E+00 0. -1.
        -11    1    3    3    0    0  0.29655509980E+02 -0.11647323107E+02  0.10152642187E+03  0.10640828795E+03  0.00000000000E+00 0.  1.
         11    1    3    3    0    0 -0.70535147257E+02 -0.35852903700E+02  0.45607888320E+03  0.46289154821E+03  0.00000000000E+00 0. -1.
          1    1    1    2  501    0 -0.22483246996E+02 -0.25263908534E+02  0.11868754968E+03  0.12341189537E+03  0.00000000000E+00 0. -1.
<scales pt_clust_5="13000.00000" pt_clust_6="13000.00000" pt_clust_7="13000.00000" pt_clust_8="13000.00000" pt_clust_9="33.81956"></scales>
<clustering>
<clus scale="   33.820">  2  9  1 -1</clus>
<clus scale="   89.521">  5  6 -1 -1</clus>
<clus scale="   96.183">  7  8 -1 -1</clus>
<clus scale="  115.381">  2  5  1 -1</clus>
<clus scale="   33.820">  2  5  1 -1</clus>
</clustering>
</event>
<event>
 9    1  0.1504846E-005  0.1243671E+03  0.7546771E-02  0.1236947E+00
         -2   -1    0    0    0  501 -0.00000000000E+00  0.00000000000E+00  0.24133096630E+03  0.24133096630E+03  0.00000000000E+00 0.  1.
         21   -1    0    0  501  502  0.00000000000E+00 -0.00000000000E+00 -0.11299956050E+03  0.11299956050E+03  0.00000000000E+00 0. -1.
         23    2    1    2    0    0 -0.62623569173E+02  0.37430380145E+02  0.88924922208E+02  0.14607063591E+03  0.90034682834E+02 0.  0.
         23    2    1    2    0    0  0.87822803292E+02 -0.37060780034E+02  0.83688270740E+02  0.15730879004E+03  0.93037533119E+02 0.  0.
        -11    1    4    4    0    0  0.73358634859E+02  0.59949528604E+00  0.11007414958E+02  0.74182288230E+02  0.00000000000E+00 0. -1.
         11    1    4    4    0    0  0.14464168433E+02 -0.37660275320E+02  0.72680855782E+02  0.83126501808E+02  0.00000000000E+00 0.  1.
        -13    1    3    3    0    0 -0.17640955564E+02  0.60422284107E+02  0.34366432666E+02  0.71715461541E+02  0.00000000000E+00 0. -1.
         13    1    3    3    0    0 -0.44982613609E+02 -0.22991903962E+02  0.54558489543E+02  0.74355174374E+02  0.00000000000E+00 0.  1.
         -2    1    1    2    0  502 -0.25199234118E+02 -0.36960011120E+00 -0.44281787153E+02  0.50951100850E+02  0.00000000000E+00 0.  1.
<scales pt_clust_5="13000.00000" pt_clust_6="13000.00000" pt_clust_7="13000.00000" pt_clust_8="13000.00000" pt_clust_9="25.20194"></scales>
<clustering>
<clus scale="   25.202">  2  9  1 -1</clus>
<clus scale="   90.035">  7  8 -1 -1</clus>
<clus scale="   93.038">  5  6 -1 -1</clus>
<clus scale="  122.137">  1  7  2 -1</clus>
<clus scale="   25.202">  2  5  1 -1</clus>
</clustering>
</event>
<event>
 9    1  0.1504846E-005  0.1030307E+03  0.7546771E-02  0.1275076E+00
         -2   -1    0    0    0  501 -0.00000000000E+00  0.00000000000E+00  0.12280878606E+03  0.12280878606E+03  0.00000000000E+00 0.  1.
         21   -1    0    0  501  502  0.00000000000E+00 -0.00000000000E+00 -0.20041192723E+03  0.20041192723E+03  0.00000000000E+00 0. -1.
         23    2    1    2    0    0 -0.25116375232E+02 -0.42927164094E+02  0.36818523733E+02  0.11185103995E+03  0.93174447817E+02 0.  0.
         23    2    1    2    0    0 -0.21184284429E+02  0.43947755501E+02 -0.18495287961E+02  0.10484895946E+03  0.90945310505E+02 0.  0.
        -11    1    3    3    0    0  0.15802355257E+02 -0.23134619016E+02 -0.23330553437E+02  0.36458740411E+02  0.00000000000E+00 0. -1.
         11    1    3    3    0    0 -0.40918730489E+02 -0.19792545078E+02  0.60149077170E+02  0.75392299539E+02  0.00000000000E+00 0.  1.
        -13    1    4    4    0    0 -0.53761107203E+02  0.40530647219E+02 -0.24308872857E+02  0.71581501181E+02  0.00000000000E+00 0. -1.
         13    1    4    4    0    0  0.32576822774E+02  0.34171082819E+01  0.58135848965E+01  0.33267458280E+02  0.00000000000E+00 0.  1.
         -2    1    1    2    0  502  0.46300659661E+02 -0.10205914073E+01 -0.95926376941E+02  0.10652071388E+03  0.00000000000E+00 0.  1.
<scales pt_clust_5="13000.00000" pt_clust_6="13000.00000" pt_clust_7="13000.00000" pt_clust_8="13000.00000" pt_clust_9="46.31191"></scales>
<clustering>
<clus scale="   46.312">  2  9  1 -1</clus>
<clus scale="   90.945">  7  8 -1 -1</clus>
<clus scale="   93.174">  5  6 -1 -1</clus>
<clus scale="  101.019">  2  7  1 -1</clus>
<clus scale="   46.312">  2  5  1 -1</clus>
</clustering>
</event>
<event>
 9    1  0.1504846E-005  0.9873920E+02  0.7546771E-02  0.1284321E+00
         21   -1    0    0  501  502  0.00000000000E+00  0.00000000000E+00  0.98560636786E+02  0.98560636786E+02  0.00000000000E+00 0.  1.
         -3   -1    0    0    0  501 -0.00000000000E+00 -0.00000000000E+00 -0.24152901761E+03  0.24152901761E+03  0.00000000000E+00 0.  1.
         23    2    1    2    0    0  0.30694580218E+02 -0.21861242443E+02 -0.15746052898E+03  0.18654883405E+03  0.92663790799E+02 0.  0.
         23    2    1    2    0    0 -0.61299773013E+01  0.31716237420E+02 -0.31328317753E+02  0.10062526745E+03  0.90002692283E+02 0.  0.
        -13    1    4    4    0    0  0.13992785111E+02  0.45246752009E+02 -0.50854020840E+02  0.69492431517E+02  0.00000000000E+00 0.  1.
         13    1    4    4    0    0 -0.20122762412E+02 -0.13530514589E+02  0.19525703087E+02  0.31132835932E+02  0.00000000000E+00 0. -1.
        -13    1    3    3    0    0  0.40669630996E+02  0.88468347072E+01 -0.14673937559E+03  0.15252779982E+03  0.00000000000E+00 0. -1.
         13    1    3    3    0    0 -0.99750507786E+01 -0.30708077150E+02 -0.10721153385E+02  0.34021034231E+02  0.00000000000E+00 0.  1.
         -3    1    1    2    0  502 -0.24564602916E+02 -0.98549949777E+01  0.45820465904E+02  0.52915552894E+02  0.00000000000E+00 0.  1.
<scales pt_clust_5="13000.00000" pt_clust_6="13000.00000" pt_clust_7="13000.00000" pt_clust_8="13000.00000" pt_clust_9="26.46773"></scales>
<clustering>
<clus scale="   26.468">  1  9  2 -1</clus>
<clus scale="   90.003">  5  6 -1 -1</clus>
<clus scale="   92.664">  7  8 -1 -1</clus>
<clus scale="   96.246">  1  5  2 -1</clus>
<clus scale="   26.468">  1  5  2 -1</clus>
</clustering>
</event>
<event>
 9    1  0.1504846E-005  0.1044865E+03  0.7546771E-02  0.1271528E+00
          2   -1    0    0  502    0 -0.00000000000E+00  0.00000000000E+00  0.11006385900E+03  0.11006385900E+03  0.00000000000E+00 0. -1.
         21   -1    0    0  501  502  0.00000000000E+00 -0.00000000000E+00 -0.26617272724E+03  0.26617272724E+03  0.00000000000E+00 0. -1.
         23    2    1    2    0    0 -0.38640301795E+02  0.26206995428E+02  0.56962323641E+02  0.12038875697E+03  0.95230598859E+02 0.  0.
         23    2    1    2    0    0  0.35562641805E+02  0.71315226767E+01 -0.11982696018E+03  0.15677505033E+03  0.94362894786E+02 0.  0.
        -11    1    4    4    0    0  0.67814012681E+02  0.92398596932E+01 -0.75314184021E+02  0.10176611242E+03  0.00000000000E+00 0.  1.
         11    1    4    4    0    0 -0.32251370876E+02 -0.21083370165E+01 -0.44512776158E+02  0.55008937907E+02  0.00000000000E+00 0. -1.
        -11    1    3    3    0    0 -0.18253890244E+02  0.51861320249E+02  0.66477225474E+02  0.86267158025E+02  0.00000000000E+00 0. -1.
         11    1    3    3    0    0 -0.20386411552E+02 -0.25654324821E+02 -0.95149018327E+01  0.34121598949E+02  0.00000000000E+00 0.  1.
          2    1    1    2  501    0  0.30776599904E+01 -0.33338518105E+02 -0.93244231701E+02  0.99072778935E+02  0.00000000000E+00 0. -1.
<scales pt_clust_5="13000.00000" pt_clust_6="13000.00000" pt_clust_7="13000.00000" pt_clust_8="13000.00000" pt_clust_9="33.48027"></scales>
<clustering>
<clus scale="   33.480">  2  9  1 -1</clus>
<clus scale="   94.363">  5  6 -1 -1</clus>
<clus scale="   95.231">  7  8 -1 -1</clus>
<clus scale="  103.696">  2  5  1 -1</clus>
<clus scale="   33.480">  2  5  1 -1</clus>
</clustering>
</event>
<event>
 9    1  0.1504846E-005  0.9921340E+02  0.7546771E-02  0.1282242E+00
         21   -1    0    0  501  502  0.00000000000E+00  0.00000000000E+00  0.75303449391E+03  0.75303449391E+03  0.00000000000E+00 0.  1.
          3   -1    0    0  502    0 -0.00000000000E+00 -0.00000000000E+00 -0.20676871144E+02  0.20676871144E+02  0.00000000000E+00 0. -1.
         23    2    1    2    0    0  0.13882826371E+02  0.30818944412E+02  0.25383114619E+03  0.27142149569E+03  0.89982427988E+02 0.  0.
         23    2    1    2    0    0  0.82202771910E+01 -0.55687654653E+02  0.43278334172E+03  0.44572632702E+03  0.90564065091E+02 0.  0.
        -11    1    3    3    0    0 -0.30487216977E+02  0.22424914717E+02  0.18682178259E+03  0.19061669824E+03  0.00000000000E+00 0.  1.
         11    1    3    3    0    0  0.44370043347E+02  0.83940296950E+01  0.67009363597E+02  0.80804797450E+02  0.00000000000E+00 0. -1.
        -13    1    4    4    0    0 -0.96369121507E+01 -0.77694770327E+02  0.31893674534E+03  0.32840522977E+03  0.00000000000E+00 0.  1.
         13    1    4    4    0    0  0.17857189342E+02  0.22007115674E+02  0.11384659639E+03  0.11732109725E+03  0.00000000000E+00 0. -1.
          3    1    1    2  501    0 -0.22103103562E+02  0.24868710241E+02  0.45743134857E+02  0.56563542345E+02  0.00000000000E+00 0. -1.
<scales pt_clust_5="13000.00000" pt_clust_6="13000.00000" pt_clust_7="13000.00000" pt_clust_8="13000.00000" pt_clust_9="33.27163"></scales>
<clustering>
<clus scale="   33.272">  1  9  2 -1</clus>
<clus scale="   89.982">  5  6 -1 -1</clus>
<clus scale="   90.564">  7  8 -1 -1</clus>
<clus scale="   98.683">  2  5  1 -1</clus>
<clus scale="   33.272">  1  5  2 -1</clus>
</clustering>
</event>
<event>
 9    1  0.1504846E-005  0.1160459E+03  0.7546771E-02  0.1251685E+00
         -1   -1    0    0    0  501 -0.00000000000E+00  0.00000000000E+00  0.40955463343E+03  0.40955463343E+03  0.00000000000E+00 0.  1.
         21   -1    0    0  501  502  0.00000000000E+00 -0.00000000000E+00 -0.11274423450E+03  0.11274423450E+03  0.00000000000E+00 0.  1.
         23    2    1    2    0    0  0.48358664333E+02 -0.43645394193E+02  0.28714121741E+03  0.30889054929E+03  0.93379932812E+02 0.  0.
         23    2    1    2    0    0 -0.72164253686E+02  0.38867086500E+02  0.76386661225E+02  0.14241000594E+03  0.87905391501E+02 0.  0.
        -11    1    4    4    0    0 -0.64688462920E+02  0.67391015788E+01  0.86210491144E+02  0.10799195113E+03  0.00000000000E+00 0.  1.
         11    1    4    4    0    0 -0.74757907667E+01  0.32127984921E+02 -0.98238299184E+01  0.34418054811E+02  0.00000000000E+00 0. -1.
        -13    1    3    3    0    0  0.19514572431E+02 -0.67958401576E+02  0.13807905588E+03  0.15512894171E+03  0.00000000000E+00 0.  1.
         13    1    3    3    0    0  0.28844091902E+02  0.24313007383E+02  0.14906216153E+03  0.15376160758E+03  0.00000000000E+00 0. -1.
         -1    1    1    2    0  502  0.23805589353E+02  0.47783076929E+01 -0.66717479705E+02  0.70998312706E+02  0.00000000000E+00 0.  1.
<scales pt_clust_5="13000.00000" pt_clust_6="13000.00000" pt_clust_7="13000.00000" pt_clust_8="13000.00000" pt_clust_9="24.28041"></scales>
<clustering>
<clus scale="   24.280">  2  9  1 -1</clus>
<clus scale="   87.905">  5  6 -1 -1</clus>
<clus scale="   93.380">  7  8 -1 -1</clus>
<clus scale="  111.688">  2  5  1 -1</clus>
<clus scale="   24.280">  2  5  1 -1</clus>
</clustering>
</event>
<event>
 9    1  0.1504846E-005  0.1544547E+03  0.7546771E-02  0.1210827E+00
         -1   -1    0    0    0  501 -0.00000000000E+00  0.00000000000E+00  0.63086926222E+03  0.63086926222E+03  0.00000000000E+00 0.  1.
         21   -1    0    0  501  502  0.00000000000E+00 -0.00000000000E+00 -0.15931399194E+03  0.15931399194E+03  0.00000000000E+00 0.  1.
         23    2    1    2    0    0  0.24574830672E+02 -0.56706325718E+02  0.14186711575E+03  0.17949209264E+03  0.90948354081E+02 0.  0.
         23    2    1    2    0    0  0.99440758306E+02  0.28441877750E+02  0.42819798760E+03  0.44980942688E+03  0.90981311811E+02 0.  0.
        -11    1    4    4    0    0  0.86558574351E+02  0.57719541980E+02  0.35492587213E+03  0.36985984782E+03  0.00000000000E+00 0.  1.
         11    1    4    4    0    0  0.12882183955E+02 -0.29277664229E+02  0.73272115474E+02  0.79949579062E+02  0.00000000000E+00 0. -1.
        -13    1    3    3    0    0 -0.17851412310E+02 -0.40966298361E+02  0.19002862535E+02  0.48559440971E+02  0.00000000000E+00 0. -1.
         13    1    3    3    0    0  0.42426242982E+02 -0.15740027356E+02  0.12286425322E+03  0.13093265167E+03  0.00000000000E+00 0.  1.
         -1    1    1    2    0  502 -0.12401558898E+03  0.28264447967E+02 -0.98509833071E+02  0.16088173464E+03  0.00000000000E+00 0.  1.
<scales pt_clust_5="13000.00000" pt_clust_6="13000.00000" pt_clust_7="13000.00000" pt_clust_8="13000.00000" pt_clust_9="124.81448"></scales>
<clustering>
<clus scale="   90.948">  7  8 -1 -1</clus>
<clus scale="   90.981">  5  6 -1 -1</clus>
<clus scale="  109.960">  1  7  2 -1</clus>
<clus scale="  124.814">  2  9  1 -1</clus>
<clus scale="  124.814">  2  5  1 -1</clus>
</clustering>
</event>
<event>
 9    1  0.1504846E-005  0.2089316E+03  0.7546771E-02  0.1142602E+00
         21   -1    0    0  501  502  0.00000000000E+00  0.00000000000E+00  0.11541319639E+03  0.11541319639E+03  0.00000000000E+00 0. -1.
          1   -1    0    0  502    0 -0.00000000000E+00 -0.00000000000E+00 -0.54621709659E+03  0.54621709659E+03  0.00000000000E+00 0. -1.
         23    2    1    2    0    0 -0.11394195735E+03  0.13370055913E+03 -0.29213337817E+03  0.35287603822E+03  0.91219397900E+02 0.  0.
         23    2    1    2    0    0  0.12335692264E+03 -0.17226208027E+03 -0.13700938179E+03  0.26902527452E+03  0.93337414614E+02 0.  0.
        -13    1    3    3    0    0 -0.12215890826E+03  0.95682616181E+02 -0.25829581517E+03  0.30132157248E+03  0.00000000000E+00 0. -1.
         13    1    3    3    0    0  0.82169509134E+01  0.38017942944E+02 -0.33837563003E+02  0.51554465742E+02  0.00000000000E+00 0.  1.
        -13    1    4    4    0    0  0.25441693603E+02  0.76387214679E+01 -0.12824029226E+02  0.29497212829E+02  0.00000000000E+00 0.  1.
         13    1    4    4    0    0  0.97915229035E+02 -0.17990080174E+03 -0.12418535256E+03  0.23952806169E+03  0.00000000000E+00 0. -1.
          1    1    1    2  501    0 -0.94149652919E+01  0.38561521148E+02 -0.16611402460E+01  0.39728980249E+02  0.00000000000E+00 0. -1.
<scales pt_clust_5="13000.00000" pt_clust_6="13000.00000" pt_clust_7="13000.00000" pt_clust_8="13000.00000" pt_clust_9="39.69424"></scales>
<clustering>
<clus scale="   39.694">  1  9  2 -1</clus>
<clus scale="   91.219">  5  6 -1 -1</clus>
<clus scale="   93.337">  7  8 -1 -1</clus>
<clus scale="  207.994">  2  5  1 -1</clus>
<clus scale="   39.694">  1  5  2 -1</clus>
</clustering>
</event>
<event>
 9    1  0.1504846E-005  0.1073404E+03  0.7546771E-02  0.1267124E+00
         -3   -1    0    0    0  501 -0.00000000000E+00  0.00000000000E+00  0.11337506545E+03  0.11337506545E+03  0.00000000000E+00 0.  1.
         21   -1    0    0  501  502  0.00000000000E+00 -0.00000000000E+00 -0.19135295396E+03  0.19135295396E+03  0.00000000000E+00 0.  1.
         23    2    1    2    0    0  0.51942173638E+02  0.41263750414E+02  0.25471061608E+02  0.11490034402E+03  0.90291902057E+02 0.  0.
         23    2    1    2    0    0  0.48379645105E+01 -0.31880018342E+02 -0.80572931576E+02  0.12789746677E+03  0.93946917098E+02 0.  0.
        -11    1    3    3    0    0  0.64978873649E+02 -0.31863143951E+01  0.21001709683E+02  0.68362843927E+02  0.00000000000E+00 0.  1.
         11    1    3    3    0    0 -0.13036700011E+02  0.44450064809E+02  0.44693519246E+01  0.46537500098E+02  0.00000000000E+00 0. -1.
        -13    1    4    4    0    0  0.36106535409E+02 -0.13964444920E+02  0.99255698787E+00  0.38725608976E+02  0.00000000000E+00 0.  1.
         13    1    4    4    0    0 -0.31268570899E+02 -0.17915573423E+02 -0.81565488564E+02  0.89171857791E+02  0.00000000000E+00 0. -1.
         -3    1    1    2    0  502 -0.56780138148E+02 -0.93837320718E+01 -0.22876018538E+02  0.61930208622E+02  0.00000000000E+00 0.  1.
<scales pt_clust_5="13000.00000" pt_clust_6="13000.00000" pt_clust_7="13000.00000" pt_clust_8="13000.00000" pt_clust_9="57.55031"></scales>
<clustering>
<clus scale="   57.550">  2  9  1 -1</clus>
<clus scale="   90.292">  5  6 -1 -1</clus>
<clus scale="   93.947">  7  8 -1 -1</clus>
<clus scale="  104.156">  1  5  2 -1</clus>
<clus scale="   57.550">  2  5  1 -1</clus>
</clustering>
</event>
<event>
 9    1  0.1504846E-005  0.1088372E+03  0.7546771E-02  0.1263258E+00
          1   -1    0    0  502    0 -0.00000000000E+00  0.00000000000E+00  0.59211877577E+03  0.59211877577E+03  0.00000000000E+00 0. -1.
         21   -1    0    0  501  502  0.00000000000E+00 -0.00000000000E+00 -0.25104095626E+02  0.25104095626E+02  0.00000000000E+00 0. -1.
         23    2    1    2    0    0 -0.42070196260E+02 -0.36381337635E+02  0.26746410620E+03  0.28786045842E+03  0.90736388935E+02 0.  0.
         23    2    1    2    0    0  0.59212793967E+02  0.22623538524E+02  0.21900460731E+03  0.24587110544E+03  0.92041311388E+02 0.  0.
        -11    1    3    3    0    0 -0.51091546848E+02  0.15644169155E+02  0.12589126462E+03  0.13676145910E+03  0.00000000000E+00 0.  1.
         11    1    3    3    0    0  0.90213505879E+01 -0.52025506790E+02  0.14157284158E+03  0.15109899932E+03  0.00000000000E+00 0. -1.
        -13    1    4    4    0    0 -0.62187357127E+01  0.42414210924E+02  0.96288059842E+02  0.10539937585E+03  0.00000000000E+00 0.  1.
         13    1    4    4    0    0  0.65431529679E+02 -0.19790672400E+02  0.12271654747E+03  0.14047172958E+03  0.00000000000E+00 0. -1.
          1    1    1    2  501    0 -0.17142597706E+02  0.13757799110E+02  0.80545966640E+02  0.83491307538E+02  0.00000000000E+00 0. -1.
<scales pt_clust_5="13000.00000" pt_clust_6="13000.00000" pt_clust_7="13000.00000" pt_clust_8="13000.00000" pt_clust_9="21.98059"></scales>
<clustering>
<clus scale="   21.981">  2  9  1 -1</clus>
<clus scale="   90.736">  5  6 -1 -1</clus>
<clus scale="   92.041">  7  8 -1 -1</clus>
<clus scale="  107.736">  1  5  2 -1</clus>
<clus scale="   21.981">  2  5  1 -1</clus>
</clustering>
</event>
<event>
 9    1  0.1504846E-005  0.2040547E+03  0.7546771E-02  0.1155679E+00
          1   -1    0    0  502    0 -0.00000000000E+00  0.00000000000E+00  0.27546888546E+03  0.27546888546E+03  0.00000000000E+00 0. -1.
         21   -1    0    0  501  502  0.00000000000E+00 -0.00000000000E+00 -0.43893261428E+03  0.43893261428E+03  0.00000000000E+00 0. -1.
         23    2    1    2    0    0  0.43842550966E+02  0.12771687139E+03  0.11566232972E+03  0.20043876644E+03  0.92542725621E+02 0.  0.
         23    2    1    2    0    0 -0.18894000491E+03  0.76371576935E+00 -0.54419889216E+02  0.21722481029E+03  0.92337344255E+02 0.  0.
        -13    1    3    3    0    0 -0.66020082212E+01  0.94641814524E+02  0.38232321326E+02  0.10228572707E+03  0.00000000000E+00 0. -1.
         13    1    3    3    0    0  0.50444559188E+02  0.33075056865E+02  0.77430008391E+02  0.98153039371E+02  0.00000000000E+00 0.  1.
        -13    1    4    4    0    0 -0.87340448432E+02  0.13754798350E+02 -0.71088063280E+02  0.11345069921E+03  0.00000000000E+00 0.  1.
         13    1    4    4    0    0 -0.10159955648E+03 -0.12991082580E+02  0.16668174065E+02  0.10377411108E+03  0.00000000000E+00 0. -1.
          1    1    1    2  501    0  0.14509745394E+03 -0.12848058716E+03 -0.22470616933E+03  0.29673792301E+03  0.00000000000E+00 0. -1.
<scales pt_clust_5="13000.00000" pt_clust_6="13000.00000" pt_clust_7="13000.00000" pt_clust_8="13000.00000" pt_clust_9="181.96745"></scales>
<clustering>
<clus scale="   92.337">  7  8 -1 -1</clus>
<clus scale="   92.543">  5  6 -1 -1</clus>
<clus scale="  163.701">  1  5  2 -1</clus>
<clus scale="  181.967">  2  9  1 -1</clus>
<clus scale="  181.967">  2  5  1 -1</clus>
</clustering>
</event>
<event>
 9    1  0.1504846E-005  0.1333024E+03  0.7546771E-02  0.1223454E+00
         -1   -1    0    0    0  501 -0.00000000000E+00  0.00000000000E+00  0.32815236414E+03  0.32815236414E+03  0.00000000000E+00 0.  1.
         21   -1    0    0  501  502  0.00000000000E+00 -0.00000000000E+00 -0.11786180806E+03  0.11786180806E+03  0.00000000000E+00 0.  1.
         23    2    1    2    0    0 -0.10278764849E+03 -0.27815010221E+02  0.19987657688E+03  0.24389169685E+03  0.90518165753E+02 0.  0.
         23    2    1    2    0    0  0.75009583337E+02 -0.38129130695E+02  0.26604368290E+02  0.12875777455E+03  0.93757687122E+02 0.  0.
        -11    1    4    4    0    0  0.42319152856E+02 -0.51654037084E+02 -0.20495983941E+02  0.69850809610E+02  0.00000000000E+00 0.  1.
         11    1    4    4    0    0  0.32690430481E+02  0.13524906389E+02  0.47100352231E+02  0.58906964937E+02  0.00000000000E+00 0. -1.
        -11    1    3    3    0    0 -0.58787219283E+02  0.66546890856E+01  0.32656054693E+02  0.67576918737E+02  0.00000000000E+00 0. -1.
         11    1    3    3    0    0 -0.44000429207E+02 -0.34469699306E+02  0.16722052219E+03  0.17631477811E+03  0.00000000000E+00 0.  1.
         -1    1    1    2    0  502  0.27778065153E+02  0.65944140916E+02 -0.16190389091E+02  0.73364700802E+02  0.00000000000E+00 0.  1.
<scales pt_clust_5="13000.00000" pt_clust_6="13000.00000" pt_clust_7="13000.00000" pt_clust_8="13000.00000" pt_clust_9="71.55593"></scales>
<clustering>
<clus scale="   71.556">  2  9  1 -1</clus>
<clus scale="   90.518">  7  8 -1 -1</clus>
<clus scale="   93.758">  5  6 -1 -1</clus>
<clus scale="  131.044">  1  7  2 -1</clus>
<clus scale="   71.556">  2  5  1 -1</clus>
</clustering>
</event>
<event>
 9    1  0.1504846E-005  0.1264333E+03  0.7546771E-02  0.1232953E+00
         21   -1    0    0  501  502  0.00000000000E+00  0.00000000000E+00  0.18481265747E+03  0.18481265747E+03  0.00000000000E+00 0.  1.
         -1   -1    0    0    0  501 -0.00000000000E+00 -0.00000000000E+00 -0.33267537418E+03  0.33267537418E+03  0.00000000000E+00 0.  1.
         23    2    1    2    0    0  0.78348086097E+02 -0.25198431572E+02 -0.16244324528E+03  0.20400726416E+03  0.91966147827E+02 0.  0.
         23    2    1    2    0    0 -0.66014604062E+02  0.76711643882E+02 -0.11155351679E+03  0.17667607743E+03  0.92345248778E+02 0.  0.
        -11    1    3    3    0    0  0.20867636970E+02  0.34196478902E+02 -0.43170491281E+02  0.58894386485E+02  0.00000000000E+00 0.  1.
         11    1    3    3    0    0  0.57480449127E+02 -0.59394910474E+02 -0.11927275399E+03  0.14511287768E+03  0.00000000000E+00 0. -1.
        -11    1    4    4    0    0 -0.42250715484E+02  0.85589179494E+02 -0.11672898769E+03  0.15078556686E+03  0.00000000000E+00 0.  1.
         11    1    4    4    0    0 -0.23763888579E+02 -0.88775356126E+01  0.51754708960E+01  0.25890510577E+02  0.00000000000E+00 0. -1.
         -1    1    1    2    0  502 -0.12333482035E+02 -0.51513212310E+02  0.12613404536E+03  0.13680469005E+03  0.00000000000E+00 0.  1.
<scales pt_clust_5="13000.00000" pt_clust_6="13000.00000" pt_clust_7="13000.00000" pt_clust_8="13000.00000" pt_clust_9="52.96910"></scales>
<clustering>
<clus scale="   52.969">  1  9  2 -1</clus>
<clus scale="   91.966">  5  6 -1 -1</clus>
<clus scale="   92.345">  7  8 -1 -1</clus>
<clus scale="  126.157">  2  5  1 -1</clus>
<clus scale="   52.969">  1  5  2 -1</clus>
</clustering>
</event>
<event>
 9    1  0.1504846E-005  0.1516827E+03  0.7546771E-02  0.1198821E+00
         21   -1    0    0  501  502  0.00000000000E+00  0.00000000000E+00  0.67881012847E+02  0.67881012847E+02  0.00000000000E+00 0.  1.
          1   -1    0    0  502    0 -0.00000000000E+00 -0.00000000000E+00 -0.54811061236E+03  0.54811061236E+03  0.00000000000E+00 0. -1.
         23    2    1    2    0    0 -0.99892131241E+02 -0.22790623107E+02 -0.19876297496E+03  0.24210507521E+03  0.92791685191E+02 0.  0.
         23    2    1    2    0    0  0.15291555375E+03 -0.15575887371E+02 -0.18248553239E+03  0.25522430214E+03  0.90623948420E+02 0.  0.
        -11    1    4    4    0    0  0.13435362089E+03 -0.42166148405E+02 -0.16932643759E+03  0.22022788648E+03  0.00000000000E+00 0.  1.
         11    1    4    4    0    0  0.18561932860E+02  0.26590261033E+02 -0.13159094803E+02  0.34996415665E+02  0.00000000000E+00 0. -1.
        -13    1    3    3    0    0 -0.87358605679E+02 -0.47748758467E+02 -0.10684911336E+03  0.14604178494E+03  0.00000000000E+00 0. -1.
         13    1    3    3    0    0 -0.12533525563E+02  0.24958135361E+02 -0.91913861599E+02  0.96063290272E+02  0.00000000000E+00 0.  1.
          1    1    1    2  501    0 -0.53023422505E+02  0.38366510478E+02 -0.98981092157E+02  0.11866224785E+03  0.00000000000E+00 0. -1.
<scales pt_clust_5="13000.00000" pt_clust_6="13000.00000" pt_clust_7="13000.00000" pt_clust_8="13000.00000" pt_clust_9="65.44828"></scales>
<clustering>
<clus scale="   65.448">  1  9  2 -1</clus>
<clus scale="   90.624">  5  6 -1 -1</clus>
<clus scale="   92.792">  7  8 -1 -1</clus>
<clus scale="  150.366">  1  5  2 -1</clus>
<clus scale="   65.448">  1  5  2 -1</clus>
</clustering>
</event>
<event>
 9    1  0.1504846E-005  0.1246744E+03  0.7546771E-02  0.1235891E+00
         21   -1    0    0  501  502  0.00000000000E+00  0.00000000000E+00  0.14048354529E+03  0.14048354529E+03  0.00000000000E+00 0.  1.
          1   -1    0    0  502    0 -0.00000000000E+00 -0.00000000000E+00 -0.23079166256E+03  0.23079166256E+03  0.00000000000E+00 0. -1.
         23    2    1    2    0    0  0.47665122329E+02  0.63741256243E+02 -0.16679531960E+03  0.20855485685E+03  0.96641285387E+02 0.  0.
         23    2    1    2    0    0 -0.26429022299E+02 -0.64951906301E+02  0.54087701969E+02  0.13183062400E+03  0.97655468699E+02 0.  0.
        -13    1    4    4    0    0 -0.16606450067E+01 -0.70143024548E+02  0.72226440963E+02  0.10069488770E+03  0.00000000000E+00 0.  1.
         13    1    4    4    0    0 -0.24768377293E+02  0.51911182476E+01 -0.18138738994E+02  0.31135736295E+02  0.00000000000E+00 0. -1.
        -13    1    3    3    0    0  0.77027054362E+02  0.37282895304E+02 -0.11021809751E+03  0.13953927908E+03  0.00000000000E+00 0. -1.
         13    1    3    3    0    0 -0.29361932033E+02  0.26458360940E+02 -0.56577222084E+02  0.69015577771E+02  0.00000000000E+00 0.  1.
          1    1    1    2  501    0 -0.21236100029E+02  0.12106500578E+01  0.22399500362E+02  0.30889727006E+02  0.00000000000E+00 0. -1.
<scales pt_clust_5="13000.00000" pt_clust_6="13000.00000" pt_clust_7="13000.00000" pt_clust_8="13000.00000" pt_clust_9="21.27058"></scales>
<clustering>
<clus scale="   21.271">  1  9  2 -1</clus>
<clus scale="   96.641">  7  8 -1 -1</clus>
<clus scale="   97.655">  5  6 -1 -1</clus>
<clus scale="  123.882">  2  7  1 -1</clus>
<clus scale="   21.271">  1  5  2 -1</clus>
</clustering>
</event>
<event>
 9    1  0.1504846E-005  0.1170700E+03  0.7546771E-02  0.1251365E+00
         21   -1    0    0  501  502  0.00000000000E+00  0.00000000000E+00  0.43025953195E+02  0.43025953195E+02  0.00000000000E+00 0. -1.
          1   -1    0    0  502    0 -0.00000000000E+00 -0.00000000000E+00 -0.77072671723E+03  0.77072671723E+03  0.00000000000E+00 0. -1.
         23    2    1    2    0    0  0.65488201496E+02  0.37500882465E+02 -0.62229743656E+03  0.63383408519E+03  0.93789803728E+02 0.  0.
         23    2    1    2    0    0 -0.26676783436E+02 -0.33446931606E+02 -0.37405380897E+02  0.10151908633E+03  0.84122615037E+02 0.  0.
        -11    1    3    3    0    0 -0.27851365608E+01  0.50193826796E+02 -0.29474881478E+03  0.29900508533E+03  0.00000000000E+00 0.  1.
         11    1    3    3    0    0  0.68273338057E+02 -0.12692944331E+02 -0.32754862177E+03  0.33482899986E+03  0.00000000000E+00 0. -1.
        -13    1    4    4    0    0 -0.14174640465E+02 -0.15362181873E+02  0.26607444783E+02  0.33835974673E+02  0.00000000000E+00 0. -1.
         13    1    4    4    0    0 -0.12502142971E+02 -0.18084749733E+02 -0.64012825681E+02  0.67683111656E+02  0.00000000000E+00 0.  1.
          1    1    1    2  501    0 -0.38811418060E+02 -0.40539508593E+01 -0.67997946582E+02  0.78399498907E+02  0.00000000000E+00 0. -1.
<scales pt_clust_5="13000.00000" pt_clust_6="13000.00000" pt_clust_7="13000.00000" pt_clust_8="13000.00000" pt_clust_9="39.02257"></scales>
<clustering>
<clus scale="   39.023">  1  9  2 -1</clus>
<clus scale="   84.123">  7  8 -1 -1</clus>
<clus scale="   93.790">  5  6 -1 -1</clus>
<clus scale="  109.478">  1  7  2 -1</clus>
<clus scale="   39.023">  1  5  2 -1</clus>
</clustering>
</event>
<event>
 9    1  0.1504846E-005  0.1184186E+03  0.7546771E-02  0.1248768E+00
          4   -1    0    0  502    0 -0.00000000000E+00  0.00000000000E+00  0.13877771662E+03  0.13877771662E+03  0.00000000000E+00 0. -1.
         21   -1    0    0  501  502  0.00000000000E+00 -0.00000000000E+00 -0.16713472539E+03  0.16713472539E+03  0.00000000000E+00 0.  1.
         23    2    1    2    0    0  0.54303813076E+02 -0.25954529821E+02  0.14417202834E+02  0.10216969821E+03  0.81291141969E+02 0.  0.
         23    2    1    2    0    0 -0.91504747574E+02  0.35340232633E+02  0.14979596922E+02  0.13440658192E+03  0.90656991290E+02 0.  0.
        -11    1    4    4    0    0 -0.67794645500E+02  0.38596116512E+02 -0.29899541385E+02  0.83544938466E+02  0.00000000000E+00 0.  1.
         11    1    4    4    0    0 -0.23710102074E+02 -0.32558838793E+01  0.44879138307E+02  0.50861643459E+02  0.00000000000E+00 0. -1.
        -11    1    3    3    0    0  0.64910301413E+02  0.81601043647E+01  0.95121774899E+01  0.66109122316E+02  0.00000000000E+00 0. -1.
         11    1    3    3    0    0 -0.10606488337E+02 -0.34114634186E+02  0.49050253436E+01  0.36060575898E+02  0.00000000000E+00 0.  1.
          4    1    1    2  501    0  0.37200934498E+02 -0.93857028121E+01 -0.57753808521E+02  0.69336161875E+02  0.00000000000E+00 0. -1.
<scales pt_clust_5="13000.00000" pt_clust_6="13000.00000" pt_clust_7="13000.00000" pt_clust_8="13000.00000" pt_clust_9="38.36666"></scales>
<clustering>
<clus scale="   38.367">  2  9  1 -1</clus>
<clus scale="   81.291">  7  8 -1 -1</clus>
<clus scale="   90.657">  5  6 -1 -1</clus>
<clus scale="  111.412">  1  7  2 -1</clus>
<clus scale="   38.367">  2  5  1 -1</clus>
</clustering>
</event>
<event>
 9    1  0.1504846E-005  0.2250150E+03  0.7546771E-02  0.1165490E+00
          2   -1    0    0  502    0 -0.00000000000E+00  0.00000000000E+00  0.97360914890E+02  0.97360914890E+02  0.00000000000E+00 0. -1.
         21   -1    0    0  501  502  0.00000000000E+00 -0.00000000000E+00 -0.10926288068E+04  0.10926288068E+04  0.00000000000E+00 0.  1.
         23    2    1    2    0    0  0.14347050317E+02 -0.27831706057E+02  0.66909043268E+01  0.97408134757E+02  0.91995297713E+02 0.  0.
         23    2    1    2    0    0  0.12859931640E+03 -0.12797896778E+03 -0.61770771282E+03  0.65399348296E+03  0.11501415960E+03 0.  0.
        -11    1    3    3    0    0  0.36379922735E+02 -0.42037286662E+02 -0.20859716998E+02  0.59378110793E+02  0.00000000000E+00 0. -1.
         11    1    3    3    0    0 -0.22032872418E+02  0.14205580605E+02  0.27550621324E+02  0.38030023964E+02  0.00000000000E+00 0.  1.
        -13    1    4    4    0    0  0.29656837360E+02 -0.89628645723E+02 -0.17604059317E+03  0.19975763460E+03  0.00000000000E+00 0. -1.
         13    1    4    4    0    0  0.98942479043E+02 -0.38350322062E+02 -0.44166711965E+03  0.45423584837E+03  0.00000000000E+00 0.  1.
          2    1    1    2  501    0 -0.14294636672E+03  0.15581067384E+03 -0.38425108346E+03  0.43858810401E+03  0.00000000000E+00 0. -1.
<scales pt_clust_5="13000.00000" pt_clust_6="13000.00000" pt_clust_7="13000.00000" pt_clust_8="13000.00000" pt_clust_9="193.39988"></scales>
<clustering>
<clus scale="   91.995">  5  6 -1 -1</clus>
<clus scale="   97.178">  1  5  2 -1</clus>
<clus scale="  115.014">  7  8 -1 -1</clus>
<clus scale="  193.400">  2  9  1 -1</clus>
<clus scale="  193.400">  2  5  1 -1</clus>
</clustering>
</event>
<event>
 9    1  0.1504846E-005  0.1883289E+03  0.7546771E-02  0.1187412E+00
          2   -1    0    0  502    0 -0.00000000000E+00  0.00000000000E+00  0.22606255687E+03  0.22606255687E+03  0.00000000000E+00 0. -1.
         21   -1    0    0  501  502  0.00000000000E+00 -0.00000000000E+00 -0.35889906635E+03  0.35889906635E+03  0.00000000000E+00 0. -1.
         23    2    1    2    0    0 -0.20047567526E+02  0.36632335901E+02  0.77206445858E+02  0.12708796640E+03  0.91905837274E+02 0.  0.
         23    2    1    2    0    0  0.79323550180E+02  0.12629708539E+03  0.15495369435E+02  0.17339663773E+03  0.87081043354E+02 0.  0.
        -11    1    3    3    0    0 -0.49424529394E+02 -0.16372905167E+01  0.55046461896E+02  0.73997147197E+02  0.00000000000E+00 0.  1.
         11    1    3    3    0    0  0.29376961868E+02  0.38269626418E+02  0.22159983962E+02  0.53090819206E+02  0.00000000000E+00 0. -1.
        -11    1    4    4    0    0  0.22662339108E+02  0.10996463937E+03  0.20816097184E+02  0.11418893741E+03  0.00000000000E+00 0. -1.
         11    1    4    4    0    0  0.56661211073E+02  0.16332446020E+02 -0.53207277492E+01  0.59207700319E+02  0.00000000000E+00 0.  1.
          2    1    1    2  501    0 -0.59275982654E+02 -0.16292942129E+03 -0.22553832477E+03  0.28447701908E+03  0.00000000000E+00 0. -1.
<scales pt_clust_5="13000.00000" pt_clust_6="13000.00000" pt_clust_7="13000.00000" pt_clust_8="13000.00000" pt_clust_9="166.98698"></scales>
<clustering>
<clus scale="   87.081">  7  8 -1 -1</clus>
<clus scale="   91.906">  5  6 -1 -1</clus>
<clus scale="  100.948">  1  5  2 -1</clus>
<clus scale="  166.987">  2  9  1 -1</clus>
<clus scale="  166.987">  2  5  1 -1</clus>
</clustering>
</event>
<event>
 9    1  0.1504846E-005  0.2722645E+03  0.7546771E-02  0.1100354E+00
          1   -1    0    0  502    0 -0.00000000000E+00  0.00000000000E+00  0.17871121961E+04  0.17871121961E+04  0.00000000000E+00 0. -1.
         21   -1    0    0  501  502  0.00000000000E+00 -0.00000000000E+00 -0.85839663487E+02  0.85839663487E+02  0.00000000000E+00 0.  1.
         23    2    1    2    0    0 -0.24566525195E+03  0.95621311308E+02  0.14349378143E+04  0.14617324506E+04  0.90113122896E+02 0.  0.
         23    2    1    2    0    0  0.21726917900E+03 -0.86059033138E+02  0.28368379950E+03  0.37659622688E+03  0.82074153547E+02 0.  0.
        -13    1    4    4    0    0  0.20610772461E+03 -0.66011271196E+02  0.21870221179E+03  0.30768253040E+03  0.00000000000E+00 0.  1.
         13    1    4    4    0    0  0.11161454385E+02 -0.20047761942E+02  0.64981587703E+02  0.68913696485E+02  0.00000000000E+00 0. -1.
        -13    1    3    3    0    0 -0.21696652947E+03  0.11329885907E+03  0.12466998401E+04  0.12705005304E+04  0.00000000000E+00 0. -1.
         13    1    3    3    0    0 -0.28698722481E+02 -0.17677547758E+02  0.18823797421E+03  0.19123192019E+03  0.00000000000E+00 0.  1.
          1    1    1    2  501    0  0.28396072954E+02 -0.95622781695E+01 -0.17349081191E+02  0.34623182135E+02  0.00000000000E+00 0. -1.
<scales pt_clust_5="13000.00000" pt_clust_6="13000.00000" pt_clust_7="13000.00000" pt_clust_8="13000.00000" pt_clust_9="29.96288"></scales>
<clustering>
<clus scale="   29.963">  2  9  1 -1</clus>
<clus scale="   82.074">  5  6 -1 -1</clus>
<clus scale="   90.113">  7  8 -1 -1</clus>
<clus scale="  269.710">  2  5  1 -1</clus>
<clus scale="   29.963">  2  5  1 -1</clus>
</clustering>
</event>
<event>
 9    1  0.1504846E-005  0.1011747E+03  0.7546771E-02  0.1278226E+00
         21   -1    0    0  501  502  0.00000000000E+00  0.00000000000E+00  0.45384689300E+03  0.45384689300E+03  0.00000000000E+00 0. -1.
          4   -1    0    0  502    0 -0.00000000000E+00 -0.00000000000E+00 -0.33283376231E+02  0.33283376231E+02  0.00000000000E+00 0. -1.
         23    2    1    2    0    0  0.43596471209E+02 -0.31616740960E+02  0.11277496512E+03  0.15457601023E+03  0.90968563640E+02 0.  0.
         23    2    1    2    0    0 -0.19613851602E+02  0.13113584308E+02  0.21530295935E+03  0.23523459176E+03  0.91778426582E+02 0.  0.
        -11    1    4    4    0    0 -0.42347089039E+02  0.39310618534E+02  0.10829154769E+03  0.12274225019E+03  0.00000000000E+00 0.  1.
         11    1    4    4    0    0  0.22733237436E+02 -0.26197034226E+02  0.10701141166E+03  0.11249234157E+03  0.00000000000E+00 0. -1.
        -13    1    3    3    0    0  0.79720939132E+01  0.27008818646E+02  0.78836729807E+01  0.29243509805E+02  0.00000000000E+00 0.  1.
         13    1    3    3    0    0  0.35624377296E+02 -0.58625559606E+02  0.10489129214E+03  0.12533250043E+03  0.00000000000E+00 0. -1.
          4    1    1    2  501    0 -0.23982619607E+02  0.18503156652E+02  0.92485592293E+02  0.97319667237E+02  0.00000000000E+00 0. -1.
<scales pt_clust_5="13000.00000" pt_clust_6="13000.00000" pt_clust_7="13000.00000" pt_clust_8="13000.00000" pt_clust_9="30.29080"></scales>
<clustering>
<clus scale="   30.291">  1  9  2 -1</clus>
<clus scale="   90.969">  7  8 -1 -1</clus>
<clus scale="   91.778">  5  6 -1 -1</clus>
<clus scale="  100.441">  2  7  1 -1</clus>
<clus scale="   30.291">  1  5  2 -1</clus>
</clustering>
</event>
<event>
 9    1  0.1504846E-005  0.9989222E+02  0.7546771E-02  0.1280769E+00
         21   -1    0    0  501  502  0.00000000000E+00  0.00000000000E+00  0.37332467705E+03  0.37332467705E+03  0.00000000000E+00 0. -1.
          3   -1    0    0  502    0 -0.00000000000E+00 -0.00000000000E+00 -0.58026503820E+02  0.58026503820E+02  0.00000000000E+00 0. -1.
         23    2    1    2    0    0  0.30482706426E+02  0.64789847194E+01  0.26108585909E+02  0.10174561008E+03  0.93270243261E+02 0.  0.
         23    2    1    2    0    0 -0.47894808658E+02  0.15767889118E+02  0.12786687057E+03  0.16582790553E+03  0.92770785480E+02 0.  0.
        -11    1    3    3    0    0 -0.25420667079E+02  0.24577926548E+02 -0.42369909832E+01  0.35612313611E+02  0.00000000000E+00 0.  1.
         11    1    3    3    0    0  0.55903373506E+02 -0.18098941829E+02  0.30345576892E+02  0.66133296467E+02  0.00000000000E+00 0. -1.
        -13    1    4    4    0    0 -0.36425622758E+02 -0.93748001695E+01  0.27695119726E+01  0.37714494138E+02  0.00000000000E+00 0. -1.
         13    1    4    4    0    0 -0.11469185900E+02  0.25142689287E+02  0.12509735860E+03  0.12811341139E+03  0.00000000000E+00 0.  1.
          3    1    1    2  501    0  0.17412102232E+02 -0.22246873837E+02  0.16132271675E+03  0.16377766527E+03  0.00000000000E+00 0. -1.
<scales pt_clust_5="13000.00000" pt_clust_6="13000.00000" pt_clust_7="13000.00000" pt_clust_8="13000.00000" pt_clust_9="28.25075"></scales>
<clustering>
<clus scale="   28.251">  1  9  2 -1</clus>
<clus scale="   92.771">  7  8 -1 -1</clus>
<clus scale="   93.270">  5  6 -1 -1</clus>
<clus scale="   99.426">  1  7  2 -1</clus>
<clus scale="   28.251">  1  5  2 -1</clus>
</clustering>
</event>
<event>
 9    1  0.1504846E-005  0.1349681E+03  0.7546771E-02  0.1223229E+00
         21   -1    0    0  501  502  0.00000000000E+00  0.00000000000E+00  0.48613058952E+02  0.48613058952E+02  0.00000000000E+00 0.  1.
         -4   -1    0    0    0  501 -0.00000000000E+00 -0.00000000000E+00 -0.96804588391E+03  0.96804588391E+03  0.00000000000E+00 0.  1.
         23    2    1    2    0    0 -0.60655924343E+02  0.45322169792E+02 -0.38770492129E+03  0.40258171708E+03  0.77612451972E+02 0.  0.
         23    2    1    2    0    0  0.14883232228E+03 -0.97438697086E+02 -0.40211016913E+03  0.44887442109E+03  0.90279000600E+02 0.  0.
        -11    1    4    4    0    0  0.68207185851E+02  0.50779960590E+01 -0.15621687509E+03  0.17053362809E+03  0.00000000000E+00 0. -1.
         11    1    4    4    0    0  0.80625136428E+02 -0.10251669314E+03 -0.24589329404E+03  0.27834079300E+03  0.00000000000E+00 0.  1.
        -13    1    3    3    0    0 -0.38784586452E+02  0.66266064570E+02 -0.30470770238E+03  0.31423274710E+03  0.00000000000E+00 0.  1.
         13    1    3    3    0    0 -0.21871337891E+02 -0.20943894779E+02 -0.82997218913E+02  0.88348969982E+02  0.00000000000E+00 0. -1.
         -4    1    1    2    0  502 -0.88176397936E+02  0.52116527294E+02 -0.12961773454E+03  0.16520280469E+03  0.00000000000E+00 0.  1.
<scales pt_clust_5="13000.00000" pt_clust_6="13000.00000" pt_clust_7="13000.00000" pt_clust_8="13000.00000" pt_clust_9="102.42661"></scales>
<clustering>
<clus scale="   77.612">  7  8 -1 -1</clus>
<clus scale="   90.279">  5  6 -1 -1</clus>
<clus scale="  102.427">  1  9  2 -1</clus>
<clus scale="  126.846">  2  7  1 -1</clus>
<clus scale="  102.427">  1  5  2 -1</clus>
</clustering>
</event>
<event>
 9    1  0.1504846E-005  0.9373993E+02  0.7546771E-02  0.1295748E+00
         21   -1    0    0  501  502  0.00000000000E+00  0.00000000000E+00  0.99299753240E+02  0.99299753240E+02  0.00000000000E+00 0.  1.
          2   -1    0    0  502    0 -0.00000000000E+00 -0.00000000000E+00 -0.17895489458E+03  0.17895489458E+03  0.00000000000E+00 0. -1.
         23    2    1    2    0    0 -0.48967700195E+01 -0.19255279755E+01 -0.11325936497E+03  0.14526477990E+03  0.90810167440E+02 0.  0.
         23    2    1    2    0    0 -0.14889580400E+02 -0.43264644074E+01  0.18183598686E+01  0.95030307772E+02  0.93739186384E+02 0.  0.
        -11    1    4    4    0    0 -0.38239652680E+02  0.33311770753E+02  0.14872846771E+01  0.50736152037E+02  0.00000000000E+00 0. -1.
         11    1    4    4    0    0  0.23350072280E+02 -0.37638235161E+02  0.33107519152E+00  0.44294155735E+02  0.00000000000E+00 0.  1.
        -11    1    3    3    0    0 -0.38747646859E+02 -0.21277649007E+02 -0.88913669281E+02  0.99296319516E+02  0.00000000000E+00 0.  1.
         11    1    3    3    0    0  0.33850876839E+02  0.19352121032E+02 -0.24345695688E+02  0.45968460380E+02  0.00000000000E+00 0. -1.
          2    1    1    2  501    0  0.19786350420E+02  0.62519923828E+01  0.31785863762E+02  0.37959560150E+02  0.00000000000E+00 0. -1.
<scales pt_clust_5="13000.00000" pt_clust_6="13000.00000" pt_clust_7="13000.00000" pt_clust_8="13000.00000" pt_clust_9="20.75059"></scales>
<clustering>
<clus scale="   20.751">  1  9  2 -1</clus>
<clus scale="   90.810">  7  8 -1 -1</clus>
<clus scale="   90.811">  2  7  1 -1</clus>
<clus scale="   93.739">  5  6 -1 -1</clus>
<clus scale="   20.751">  1  5  2 -1</clus>
</clustering>
</event>
<event>
 9    1  0.1504846E-005  0.1749075E+03  0.7546771E-02  0.1172931E+00
         21   -1    0    0  501  502  0.00000000000E+00  0.00000000000E+00  0.82400184581E+02  0.82400184581E+02  0.00000000000E+00 0. -1.
         -2   -1    0    0    0  501 -0.00000000000E+00 -0.00000000000E+00 -0.68042288904E+03  0.68042288904E+03  0.00000000000E+00 0.  1.
         23    2    1    2    0    0  0.13067682754E+03  0.12337147231E+02 -0.29541272645E+03  0.33619642189E+03  0.92361878971E+02 0.  0.
         23    2    1    2    0    0 -0.18302008281E+03  0.56501034777E+02 -0.23621654260E+03  0.31760096696E+03  0.91560917293E+02 0.  0.
        -11    1    3    3    0    0  0.79214593629E+02 -0.37003750991E+02 -0.18717412356E+03  0.20658746807E+03  0.00000000000E+00 0.  1.
         11    1    3    3    0    0  0.51462233907E+02  0.49340898223E+02 -0.10823860289E+03  0.12960895382E+03  0.00000000000E+00 0. -1.
        -13    1    4    4    0    0 -0.85398066679E+02 -0.16694933422E+01 -0.48657321758E+02  0.98301332449E+02  0.00000000000E+00 0. -1.
         13    1    4    4    0    0 -0.97622016127E+02  0.58170528119E+02 -0.18755922084E+03  0.21929963451E+03  0.00000000000E+00 0.  1.
         -2    1    1    2    0  502  0.52343255270E+02 -0.68838182009E+02 -0.66393435416E+02  0.10902568478E+03  0.00000000000E+00 0.  1.
<scales pt_clust_5="13000.00000" pt_clust_6="13000.00000" pt_clust_7="13000.00000" pt_clust_8="13000.00000" pt_clust_9="86.47839"></scales>
<clustering>
<clus scale="   86.478">  1  9  2 -1</clus>
<clus scale="   91.561">  7  8 -1 -1</clus>
<clus scale="   92.362">  5  6 -1 -1</clus>
<clus scale="  174.486">  1  7  2 -1</clus>
<clus scale="   86.478">  1  5  2 -1</clus>
</clustering>
</event>
<event>
 9    1  0.1504846E-005  0.1277643E+03  0.7546771E-02  0.1230985E+00
         21   -1    0    0  501  502  0.00000000000E+00  0.00000000000E+00  0.64560308171E+02  0.64560308171E+02  0.00000000000E+00 0. -1.
          2   -1    0    0  502    0 -0.00000000000E+00 -0.00000000000E+00 -0.66622845382E+03  0.66622845382E+03  0.00000000000E+00 0. -1.
         23    2    1    2    0    0 -0.40201361198E+02  0.45992010363E+02 -0.25879151401E+03  0.28140827062E+03  0.92120315850E+02 0.  0.
         23    2    1    2    0    0  0.84149205526E+02 -0.97576961493E+02 -0.34689027043E+03  0.38149434034E+03  0.92750847918E+02 0.  0.
        -11    1    3    3    0    0 -0.72707300545E+01  0.68843390847E+02 -0.18327976863E+03  0.19591771122E+03  0.00000000000E+00 0.  1.
         11    1    3    3    0    0 -0.32930631143E+02 -0.22851380484E+02 -0.75511745376E+02  0.85490559404E+02  0.00000000000E+00 0. -1.
        -11    1    4    4    0    0  0.68055305169E+02 -0.17784191485E+02 -0.21785824989E+03  0.22893234606E+03  0.00000000000E+00 0.  1.
         11    1    4    4    0    0  0.16093900357E+02 -0.79792770008E+02 -0.12903202054E+03  0.15256199428E+03  0.00000000000E+00 0. -1.
          2    1    1    2  501    0 -0.43947844328E+02  0.51584951130E+02  0.40136387936E+01  0.67886151022E+02  0.00000000000E+00 0. -1.
<scales pt_clust_5="13000.00000" pt_clust_6="13000.00000" pt_clust_7="13000.00000" pt_clust_8="13000.00000" pt_clust_9="67.76740"></scales>
<clustering>
<clus scale="   67.767">  1  9  2 -1</clus>
<clus scale="   92.120">  5  6 -1 -1</clus>
<clus scale="   92.751">  7  8 -1 -1</clus>
<clus scale="  127.307">  2  5  1 -1</clus>
<clus scale="   67.767">  1  5  2 -1</clus>
</clustering>
</event>
<event>
 9    1  0.1504846E-005  0.9906048E+02  0.7546771E-02  0.1282386E+00
         21   -1    0    0  501  502  0.00000000000E+00  0.00000000000E+00  0.85630439237E+02  0.85630439237E+02  0.00000000000E+00 0. -1.
          1   -1    0    0  502    0 -0.00000000000E+00 -0.00000000000E+00 -0.63796926716E+03  0.63796926716E+03  0.00000000000E+00 0. -1.
         23    2    1    2    0    0  0.11174739425E+02 -0.30989421295E+02 -0.40458907299E+03  0.41592410239E+03  0.90638413115E+02 0.  0.
         23    2    1    2    0    0  0.53885190931E+01  0.57298909259E+02 -0.21120824470E+03  0.23701082769E+03  0.90846071316E+02 0.  0.
        -11    1    3    3    0    0 -0.13891679648E+02  0.28588057213E+02 -0.13726628291E+03  0.14089814833E+03  0.00000000000E+00 0. -1.
         11    1    3    3    0    0  0.25066419072E+02 -0.59577478509E+02 -0.26732279008E+03  0.27502595406E+03  0.00000000000E+00 0.  1.
        -13    1    4    4    0    0 -0.24500245729E+02  0.70666021341E+02 -0.14816346838E+03  0.16597096726E+03  0.00000000000E+00 0. -1.
         13    1    4    4    0    0  0.29888764822E+02 -0.13367112082E+02 -0.63044776321E+02  0.71039860426E+02  0.00000000000E+00 0.  1.
          1    1    1    2  501    0 -0.16563258518E+02 -0.26309487964E+02  0.63458489761E+02  0.70664776321E+02  0.00000000000E+00 0. -1.
<scales pt_clust_5="13000.00000" pt_clust_6="13000.00000" pt_clust_7="13000.00000" pt_clust_8="13000.00000" pt_clust_9="31.08908"></scales>
<clustering>
<clus scale="   31.089">  1  9  2 -1</clus>
<clus scale="   90.638">  5  6 -1 -1</clus>
<clus scale="   90.846">  7  8 -1 -1</clus>
<clus scale="   98.870">  2  5  1 -1</clus>
<clus scale="   31.089">  1  5  2 -1</clus>
</clustering>
</event>
<event>
 9    1  0.1504846E-005  0.1364447E+03  0.7546771E-02  0.1218897E+00
         -2   -1    0    0    0  501 -0.00000000000E+00  0.00000000000E+00  0.12753438125E+03  0.12753438125E+03  0.00000000000E+00 0.  1.
         21   -1    0    0  501  502  0.00000000000E+00 -0.00000000000E+00 -0.38755332554E+03  0.38755332554E+03  0.00000000000E+00 0.  1.
         23    2    1    2    0    0 -0.11874554212E+03  0.40569847328E+02  0.38377945914E+02  0.15996333202E+03  0.91482154399E+02 0.  0.
         23    2    1    2    0    0  0.52865892453E+02 -0.13105309702E+01 -0.10526019615E+03  0.14731868489E+03  0.88467880876E+02 0.  0.
        -11    1    4    4    0    0  0.76985521577E+02  0.66566625410E+01 -0.73454752157E+02  0.10661464394E+03  0.00000000000E+00 0.  1.
         11    1    4    4    0    0 -0.24119629123E+02 -0.79671935112E+01 -0.31805443996E+02  0.40704040945E+02  0.00000000000E+00 0. -1.
        -11    1    3    3    0    0 -0.46358057169E+02 -0.28815978101E+02  0.78361928328E+01  0.55143775501E+02  0.00000000000E+00 0. -1.
         11    1    3    3    0    0 -0.72387484947E+02  0.69385825429E+02  0.30541753081E+02  0.10481955652E+03  0.00000000000E+00 0.  1.
         -2    1    1    2    0  502  0.65879649663E+02 -0.39259316358E+02 -0.19313669405E+03  0.20780568989E+03  0.00000000000E+00 0.  1.
<scales pt_clust_5="13000.00000" pt_clust_6="13000.00000" pt_clust_7="13000.00000" pt_clust_8="13000.00000" pt_clust_9="76.69043"></scales>
<clustering>
<clus scale="   76.690">  2  9  1 -1</clus>
<clus scale="   88.468">  5  6 -1 -1</clus>
<clus scale="   91.482">  7  8 -1 -1</clus>
<clus scale="  134.442">  2  5  1 -1</clus>
<clus scale="   76.690">  2  5  1 -1</clus>
</clustering>
</event>
<event>
 9    1  0.1504846E-005  0.9853999E+02  0.7546771E-02  0.1284046E+00
         21   -1    0    0  501  502  0.00000000000E+00  0.00000000000E+00  0.16892612645E+03  0.16892612645E+03  0.00000000000E+00 0. -1.
          2   -1    0    0  502    0 -0.00000000000E+00 -0.00000000000E+00 -0.31217840773E+03  0.31217840773E+03  0.00000000000E+00 0. -1.
         23    2    1    2    0    0  0.24382746321E+02  0.13695167970E+02 -0.19447247311E+03  0.21765139622E+03  0.93651009272E+02 0.  0.
         23    2    1    2    0    0 -0.40385679088E+02  0.35775895704E+01 -0.80858127396E+02  0.12929232244E+03  0.92383254182E+02 0.  0.
        -11    1    4    4    0    0 -0.49684843096E+02 -0.25512388732E+02 -0.16796130529E+02  0.58323028154E+02  0.00000000000E+00 0.  1.
         11    1    4    4    0    0  0.92991640079E+01  0.29089978303E+02 -0.64061996867E+02  0.70969294286E+02  0.00000000000E+00 0. -1.
        -13    1    3    3    0    0 -0.14311835565E+02  0.44826910724E+02 -0.11032791786E+03  0.11994386196E+03  0.00000000000E+00 0.  1.
         13    1    3    3    0    0  0.38694581886E+02 -0.31131742754E+02 -0.84144555242E+02  0.97707534260E+02  0.00000000000E+00 0. -1.
          2    1    1    2  501    0  0.16002932767E+02 -0.17272757540E+02  0.13207831923E+03  0.13416081552E+03  0.00000000000E+00 0. -1.
<scales pt_clust_5="13000.00000" pt_clust_6="13000.00000" pt_clust_7="13000.00000" pt_clust_8="13000.00000" pt_clust_9="23.54659"></scales>
<clustering>
<clus scale="   23.547">  1  9  2 -1</clus>
<clus scale="   92.383">  5  6 -1 -1</clus>
<clus scale="   93.651">  7  8 -1 -1</clus>
<clus scale="   97.336">  1  5  2 -1</clus>
<clus scale="   23.547">  1  5  2 -1</clus>
</clustering>
</event>
<event>
 9    1  0.1504846E-005  0.2574856E+03  0.7546771E-02  0.1108784E+00
         21   -1    0    0  501  502  0.00000000000E+00  0.00000000000E+00  0.17078582263E+04  0.17078582263E+04  0.00000000000E+00 0. -1.
         -1   -1    0    0    0  501 -0.00000000000E+00 -0.00000000000E+00 -0.63358719427E+02  0.63358719427E+02  0.00000000000E+00 0.  1.
         23    2    1    2    0    0 -0.54183674908E+02 -0.22737064308E+03  0.29692014592E+03  0.38881639518E+03  0.91560560000E+02 0.  0.
         23    2    1    2    0    0  0.68217601145E+02  0.25313284853E+03  0.12416841512E+04  0.12725168039E+04  0.93752892799E+02 0.  0.
        -13    1    4    4    0    0 -0.80000729532E+01  0.10087878187E+03  0.60765024053E+03  0.61601894827E+03  0.00000000000E+00 0. -1.
         13    1    4    4    0    0  0.76217674098E+02  0.15225406666E+03  0.63403391065E+03  0.65649785568E+03  0.00000000000E+00 0.  1.
        -13    1    3    3    0    0 -0.13222203887E+02 -0.20108916738E+03  0.22595243665E+03  0.30276423756E+03  0.00000000000E+00 0.  1.
         13    1    3    3    0    0 -0.40961471021E+02 -0.26281475694E+02  0.70967709267E+02  0.86052157622E+02  0.00000000000E+00 0. -1.
         -1    1    1    2    0  502 -0.14033926237E+02 -0.25762205453E+02  0.10589520973E+03  0.10988374657E+03  0.00000000000E+00 0.  1.
<scales pt_clust_5="13000.00000" pt_clust_6="13000.00000" pt_clust_7="13000.00000" pt_clust_8="13000.00000" pt_clust_9="29.33671"></scales>
<clustering>
<clus scale="   29.337">  1  9  2 -1</clus>
<clus scale="   91.561">  7  8 -1 -1</clus>
<clus scale="   93.753">  5  6 -1 -1</clus>
<clus scale="  256.695">  2  7  1 -1</clus>
<clus scale="   29.337">  1  5  2 -1</clus>
</clustering>
</event>
<event>
 9    1  0.1504846E-005  0.1033965E+03  0.7546771E-02  0.1275676E+00
         21   -1    0    0  501  502  0.00000000000E+00  0.00000000000E+00  0.75520550050E+02  0.75520550050E+02  0.00000000000E+00 0. -1.
          1   -1    0    0  502    0 -0.00000000000E+00 -0.00000000000E+00 -0.28048984718E+03  0.28048984718E+03  0.00000000000E+00 0. -1.
         23    2    1    2    0    0  0.72829020921E+01 -0.44390370579E+02 -0.19160318658E+03  0.21863993105E+03  0.95226533496E+02 0.  0.
         23    2    1    2    0    0  0.18681274958E+02  0.29685417595E+02 -0.32279817396E+02  0.10204197288E+03  0.90223963365E+02 0.  0.
        -13    1    3    3    0    0 -0.39066585267E+02 -0.97843980257E+01 -0.12008214396E+03  0.12665565059E+03  0.00000000000E+00 0. -1.
         13    1    3    3    0    0  0.46349487359E+02 -0.34605972553E+02 -0.71521042614E+02  0.91984280458E+02  0.00000000000E+00 0.  1.
        -13    1    4    4    0    0  0.52352095987E+02  0.64710442044E+01 -0.30871123574E+02  0.61119903780E+02  0.00000000000E+00 0. -1.
         13    1    4    4    0    0 -0.33670821030E+02  0.23214373390E+02 -0.14086938220E+01  0.40922069095E+02  0.00000000000E+00 0.  1.
          1    1    1    2  501    0 -0.25964177050E+02  0.14704952984E+02  0.18913706846E+02  0.35328493299E+02  0.00000000000E+00 0. -1.
<scales pt_clust_5="13000.00000" pt_clust_6="13000.00000" pt_clust_7="13000.00000" pt_clust_8="13000.00000" pt_clust_9="29.83914"></scales>
<clustering>
<clus scale="   29.839">  1  9  2 -1</clus>
<clus scale="   90.224">  7  8 -1 -1</clus>
<clus scale="   95.227">  5  6 -1 -1</clus>
<clus scale="   98.808">  1  7  2 -1</clus>
<clus scale="   29.839">  1  5  2 -1</clus>
</clustering>
</event>
<event>
 9    1  0.1504846E-005  0.9517051E+02  0.7546771E-02  0.1293500E+00
         21   -1    0    0  501  502  0.00000000000E+00  0.00000000000E+00  0.13492616151E+03  0.13492616151E+03  0.00000000000E+00 0. -1.
         -1   -1    0    0    0  501 -0.00000000000E+00 -0.00000000000E+00 -0.28180469774E+03  0.28180469774E+03  0.00000000000E+00 0.  1.
         23    2    1    2    0    0  0.42060944414E+00  0.21709759049E+02 -0.17009403432E+03  0.19392575634E+03  0.90574432994E+02 0.  0.
         23    2    1    2    0    0 -0.16694197669E+02 -0.92228388856E+02  0.61348247589E+02  0.14100159804E+03  0.85633353435E+02 0.  0.
        -13    1    4    4    0    0 -0.16752792570E+02 -0.62403843672E+02  0.82240959010E+02  0.10458714597E+03  0.00000000000E+00 0. -1.
         13    1    4    4    0    0  0.58594900230E-01 -0.29824545184E+02 -0.20892711420E+02  0.36414452066E+02  0.00000000000E+00 0.  1.
        -13    1    3    3    0    0  0.37982019091E+02  0.57280721823E+01 -0.13413358229E+03  0.13952513208E+03  0.00000000000E+00 0.  1.
         13    1    3    3    0    0 -0.37561409646E+02  0.15981686867E+02 -0.35960452030E+02  0.54400624260E+02  0.00000000000E+00 0. -1.
         -1    1    1    2    0  502  0.16273588225E+02  0.70518629807E+02 -0.38132749504E+02  0.81803504865E+02  0.00000000000E+00 0.  1.
<scales pt_clust_5="13000.00000" pt_clust_6="13000.00000" pt_clust_7="13000.00000" pt_clust_8="13000.00000" pt_clust_9="72.37204"></scales>
<clustering>
<clus scale="   72.372">  1  9  2 -1</clus>
<clus scale="   85.633">  5  6 -1 -1</clus>
<clus scale="   90.481">  1  5  2 -1</clus>
<clus scale="   90.574">  7  8 -1 -1</clus>
<clus scale="   72.372">  1  5  2 -1</clus>
</clustering>
</event>
<event>
 9    1  0.1504846E-005  0.1107077E+03  0.7546771E-02  0.1259667E+00
         21   -1    0    0  501  502  0.00000000000E+00  0.00000000000E+00  0.47309071920E+02  0.47309071920E+02  0.00000000000E+00 0. -1.
          2   -1    0    0  502    0 -0.00000000000E+00 -0.00000000000E+00 -0.43957496036E+03  0.43957496036E+03  0.00000000000E+00 0. -1.
         23    2    1    2    0    0  0.43004187561E+02 -0.11124821082E+02 -0.18191641848E+03  0.20798765883E+03  0.90510558071E+02 0.  0.
         23    2    1    2    0    0 -0.84122317227E+02  0.26166186849E+02 -0.19451183132E+03  0.23233701274E+03  0.91566376891E+02 0.  0.
        -11    1    3    3    0    0  0.55168884599E+02 -0.40839520693E+02 -0.12016442005E+03  0.13838699405E+03  0.00000000000E+00 0.  1.
         11    1    3    3    0    0 -0.12164697038E+02  0.29714699611E+02 -0.61751998437E+02  0.69600664781E+02  0.00000000000E+00 0. -1.
        -11    1    4    4    0    0 -0.21109912675E+02 -0.32884156051E+02 -0.44307193604E+02  0.59077267518E+02  0.00000000000E+00 0.  1.
         11    1    4    4    0    0 -0.63012404552E+02  0.59050342900E+02 -0.15020463771E+03  0.17325974522E+03  0.00000000000E+00 0. -1.
          2    1    1    2  501    0  0.41118129666E+02 -0.15041365767E+02 -0.15837638640E+02  0.46559360703E+02  0.00000000000E+00 0. -1.
<scales pt_clust_5="13000.00000" pt_clust_6="13000.00000" pt_clust_7="13000.00000" pt_clust_8="13000.00000" pt_clust_9="43.78291"></scales>
<clustering>
<clus scale="   43.783">  1  9  2 -1</clus>
<clus scale="   90.511">  5  6 -1 -1</clus>
<clus scale="   91.566">  7  8 -1 -1</clus>
<clus scale="  109.836">  2  5  1 -1</clus>
<clus scale="   43.783">  1  5  2 -1</clus>
</clustering>
</event>
<event>
 9    1  0.1504846E-005  0.1018542E+03  0.7546771E-02  0.1276494E+00
         21   -1    0    0  501  502  0.00000000000E+00  0.00000000000E+00  0.45387648607E+02  0.45387648607E+02  0.00000000000E+00 0. -1.
          1   -1    0    0  502    0 -0.00000000000E+00 -0.00000000000E+00 -0.60643991919E+03  0.60643991919E+03  0.00000000000E+00 0. -1.
         23    2    1    2    0    0 -0.25986476547E+02 -0.14479335577E+02 -0.26230808047E+03  0.27926535748E+03  0.91096996027E+02 0.  0.
         23    2    1    2    0    0  0.55734374553E+02  0.28572392398E+02 -0.31641572035E+03  0.33520133951E+03  0.91204867246E+02 0.  0.
        -13    1    3    3    0    0  0.22634753851E+02 -0.18217719268E+02 -0.29504645869E+02  0.41409437391E+02  0.00000000000E+00 0.  1.
         13    1    3    3    0    0 -0.48621230399E+02  0.37383836908E+01 -0.23280343460E+03  0.23785592009E+03  0.00000000000E+00 0. -1.
        -13    1    4    4    0    0  0.12468034745E+01  0.41605855665E+02 -0.21815960652E+03  0.22209505997E+03  0.00000000000E+00 0. -1.
         13    1    4    4    0    0  0.54487571079E+02 -0.13033463268E+02 -0.98256113832E+02  0.11310627954E+03  0.00000000000E+00 0.  1.
          1    1    1    2  501    0 -0.29747898006E+02 -0.14093056821E+02  0.17671530242E+02  0.37360870807E+02  0.00000000000E+00 0. -1.
<scales pt_clust_5="13000.00000" pt_clust_6="13000.00000" pt_clust_7="13000.00000" pt_clust_8="13000.00000" pt_clust_9="32.91735"></scales>
<clustering>
<clus scale="   32.917">  1  9  2 -1</clus>
<clus scale="   91.097">  5  6 -1 -1</clus>
<clus scale="   91.205">  7  8 -1 -1</clus>
<clus scale="  101.758">  2  5  1 -1</clus>
<clus scale="   32.917">  1  5  2 -1</clus>
</clustering>
</event>
<event>
 9    1  0.1504846E-005  0.1309878E+03  0.7546771E-02  0.1250356E+00
          1   -1    0    0  502    0 -0.00000000000E+00  0.00000000000E+00  0.70774535882E+03  0.70774535882E+03  0.00000000000E+00 0. -1.
         21   -1    0    0  501  502  0.00000000000E+00 -0.00000000000E+00 -0.49973081053E+02  0.49973081053E+02  0.00000000000E+00 0. -1.
         23    2    1    2    0    0  0.53348046107E+01 -0.15001610099E+02  0.34335170992E+03  0.35249111431E+03  0.78141413560E+02 0.  0.
         23    2    1    2    0    0 -0.60844015196E+01 -0.81873381463E+02  0.27396518727E+03  0.30024178512E+03  0.91367035421E+02 0.  0.
        -11    1    4    4    0    0  0.42519137809E+02 -0.43291520228E+02  0.12942510730E+03  0.14294366444E+03  0.00000000000E+00 0.  1.
         11    1    4    4    0    0 -0.48603539329E+02 -0.38581861235E+02  0.14454007997E+03  0.15729812068E+03  0.00000000000E+00 0. -1.
        -11    1    3    3    0    0 -0.32809221251E+02 -0.23775558352E+02  0.18295017484E+03  0.18738326673E+03  0.00000000000E+00 0. -1.
         11    1    3    3    0    0  0.38144025862E+02  0.87739482535E+01  0.16040153508E+03  0.16510784758E+03  0.00000000000E+00 0.  1.
          1    1    1    2  501    0  0.74959690884E+00  0.96874991561E+02  0.40455380575E+02  0.10498554045E+03  0.00000000000E+00 0. -1.
<scales pt_clust_5="13000.00000" pt_clust_6="13000.00000" pt_clust_7="13000.00000" pt_clust_8="13000.00000" pt_clust_9="93.86096"></scales>
<clustering>
<clus scale="   78.141">  7  8 -1 -1</clus>
<clus scale="   79.747">  1  7  2 -1</clus>
<clus scale="   91.367">  5  6 -1 -1</clus>
<clus scale="   93.861">  2  9  1 -1</clus>
<clus scale="   93.861">  2  5  1 -1</clus>
</clustering>
</event>
<event>
 9    1  0.1504846E-005  0.9605507E+02  0.7546771E-02  0.1289664E+00
         -1   -1    0    0    0  501 -0.00000000000E+00  0.00000000000E+00  0.56939901539E+02  0.56939901539E+02  0.00000000000E+00 0.  1.
         21   -1    0    0  501  502  0.00000000000E+00 -0.00000000000E+00 -0.24190645724E+03  0.24190645724E+03  0.00000000000E+00 0. -1.
         23    2    1    2    0    0 -0.16900917824E+01  0.40695366031E+02 -0.62405669308E+02  0.11707525979E+03  0.90294959248E+02 0.  0.
         23    2    1    2    0    0  0.22518764821E+02 -0.87088236638E+01 -0.76644176543E+02  0.12206082553E+03  0.91878054798E+02 0.  0.
        -11    1    4    4    0    0  0.39006417631E+02  0.13883380412E+02 -0.10042982018E+01  0.41415667120E+02  0.00000000000E+00 0.  1.
         11    1    4    4    0    0 -0.16487652810E+02 -0.22592204075E+02 -0.75639878342E+02  0.80645158415E+02  0.00000000000E+00 0. -1.
        -11    1    3    3    0    0  0.28356703480E+02 -0.26218066915E+01  0.75672586730E+01  0.29465910921E+02  0.00000000000E+00 0.  1.
         11    1    3    3    0    0 -0.30046795263E+02  0.43317172722E+02 -0.69972927981E+02  0.87609348864E+02  0.00000000000E+00 0. -1.
         -1    1    1    2    0  502 -0.20828673039E+02 -0.31986542367E+02 -0.45916709850E+02  0.59710273459E+02  0.00000000000E+00 0.  1.
<scales pt_clust_5="13000.00000" pt_clust_6="13000.00000" pt_clust_7="13000.00000" pt_clust_8="13000.00000" pt_clust_9="38.17031"></scales>
<clustering>
<clus scale="   38.170">  2  9  1 -1</clus>
<clus scale="   90.295">  7  8 -1 -1</clus>
<clus scale="   91.878">  5  6 -1 -1</clus>
<clus scale="   94.542">  1  7  2 -1</clus>
<clus scale="   38.170">  2  5  1 -1</clus>
</clustering>
</event>
<event>
 9    1  0.1504846E-005  0.1067461E+03  0.7546771E-02  0.1266887E+00
         21   -1    0    0  501  502  0.00000000000E+00  0.00000000000E+00  0.51680076506E+03  0.51680076506E+03  0.00000000000E+00 0.  1.
          3   -1    0    0  502    0 -0.00000000000E+00 -0.00000000000E+00 -0.40985187249E+02  0.40985187249E+02  0.00000000000E+00 0. -1.
         23    2    1    2    0    0  0.20862624054E+02 -0.44115290868E+02  0.68312426792E+02  0.12406065237E+03  0.91340296926E+02 0.  0.
         23    2    1    2    0    0 -0.44418727490E+02  0.61608017518E+02  0.33226019585E+03  0.35296399857E+03  0.91750615090E+02 0.  0.
        -13    1    4    4    0    0 -0.70526586948E+02  0.57815532816E+02  0.23170819117E+03  0.24900867687E+03  0.00000000000E+00 0.  1.
         13    1    4    4    0    0  0.26107859457E+02  0.37924847026E+01  0.10055200467E+03  0.10395532170E+03  0.00000000000E+00 0. -1.
        -13    1    3    3    0    0  0.51086107150E+02 -0.12546866200E+02  0.14168246693E+02  0.54478926288E+02  0.00000000000E+00 0. -1.
         13    1    3    3    0    0 -0.30223483096E+02 -0.31568424668E+02  0.54144180100E+02  0.69581726086E+02  0.00000000000E+00 0.  1.
          3    1    1    2  501    0  0.23556103436E+02 -0.17492726650E+02  0.75242955170E+02  0.80761301361E+02  0.00000000000E+00 0. -1.
<scales pt_clust_5="13000.00000" pt_clust_6="13000.00000" pt_clust_7="13000.00000" pt_clust_8="13000.00000" pt_clust_9="29.34085"></scales>
<clustering>
<clus scale="   29.341">  1  9  2 -1</clus>
<clus scale="   91.340">  7  8 -1 -1</clus>
<clus scale="   91.751">  5  6 -1 -1</clus>
<clus scale="  106.394">  2  7  1 -1</clus>
<clus scale="   29.341">  1  5  2 -1</clus>
</clustering>
</event>
<event>
 9    1  0.1504846E-005  0.1735743E+03  0.7546771E-02  0.1198413E+00
         21   -1    0    0  501  502  0.00000000000E+00  0.00000000000E+00  0.31277429541E+03  0.31277429541E+03  0.00000000000E+00 0. -1.
         -1   -1    0    0    0  501 -0.00000000000E+00 -0.00000000000E+00 -0.42604496641E+03  0.42604496641E+03  0.00000000000E+00 0.  1.
         23    2    1    2    0    0 -0.24169848154E+02 -0.37995344144E+02 -0.30903050366E+03  0.32519194418E+03  0.90675909867E+02 0.  0.
         23    2    1    2    0    0  0.14153554910E+03  0.10986108288E+03  0.39041876017E+02  0.20506099701E+03  0.91782216259E+02 0.  0.
        -11    1    3    3    0    0 -0.33868427355E+01 -0.61913706532E+02 -0.25612117871E+03  0.26352008641E+03  0.00000000000E+00 0. -1.
         11    1    3    3    0    0 -0.20783005418E+02  0.23918362388E+02 -0.52909324955E+02  0.61671857770E+02  0.00000000000E+00 0.  1.
        -13    1    4    4    0    0  0.48028363921E+02  0.74244178022E+02 -0.17485763577E+02  0.90136971543E+02  0.00000000000E+00 0.  1.
         13    1    4    4    0    0  0.93507185181E+02  0.35616904862E+02  0.56527639594E+02  0.11492402547E+03  0.00000000000E+00 0. -1.
         -1    1    1    2    0  502 -0.11736570095E+03 -0.71865738740E+02  0.15671795664E+03  0.20856632062E+03  0.00000000000E+00 0.  1.
<scales pt_clust_5="13000.00000" pt_clust_6="13000.00000" pt_clust_7="13000.00000" pt_clust_8="13000.00000" pt_clust_9="147.32295"></scales>
<clustering>
<clus scale="   90.676">  5  6 -1 -1</clus>
<clus scale="   91.782">  7  8 -1 -1</clus>
<clus scale="  101.242">  2  5  1 -1</clus>
<clus scale="  147.323">  1  9  2 -1</clus>
<clus scale="  147.323">  1  5  2 -1</clus>
</clustering>
</event>
<event>
 9    1  0.1504846E-005  0.1051121E+03  0.7546771E-02  0.1270091E+00
         21   -1    0    0  501  502  0.00000000000E+00  0.00000000000E+00  0.46705354381E+02  0.46705354381E+02  0.00000000000E+00 0. -1.
         -3   -1    0    0    0  501 -0.00000000000E+00 -0.00000000000E+00 -0.56515073059E+03  0.56515073059E+03  0.00000000000E+00 0.  1.
         23    2    1    2    0    0  0.17339480776E+02  0.50906465702E+02 -0.45696913276E+03  0.46911157596E+03  0.91393416356E+02 0.  0.
         23    2    1    2    0    0 -0.26297091999E+02 -0.32211229146E+02 -0.67295930844E+02  0.12121268535E+03  0.91840472839E+02 0.  0.
        -11    1    4    4    0    0 -0.22525533013E+02  0.28047094870E+02 -0.85546691898E+01  0.36975958853E+02  0.00000000000E+00 0.  1.
         11    1    4    4    0    0 -0.37715589858E+01 -0.60258324016E+02 -0.58741261655E+02  0.84236726498E+02  0.00000000000E+00 0. -1.
        -13    1    3    3    0    0 -0.30341785452E+02 -0.48397563586E+01 -0.97223389311E+02  0.10196290804E+03  0.00000000000E+00 0. -1.
         13    1    3    3    0    0  0.47681266227E+02  0.55746222061E+02 -0.35974574345E+03  0.36714866792E+03  0.00000000000E+00 0.  1.
         -3    1    1    2    0  502  0.89576112230E+01 -0.18695236556E+02  0.58196874025E+01  0.21531823661E+02  0.00000000000E+00 0.  1.
<scales pt_clust_5="13000.00000" pt_clust_6="13000.00000" pt_clust_7="13000.00000" pt_clust_8="13000.00000" pt_clust_9="20.73043"></scales>
<clustering>
<clus scale="   20.730">  1  9  2 -1</clus>
<clus scale="   91.393">  7  8 -1 -1</clus>
<clus scale="   91.840">  5  6 -1 -1</clus>
<clus scale="  104.722">  2  7  1 -1</clus>
<clus scale="   20.730">  1  5  2 -1</clus>
</clustering>
</event>
<event>
 9    1  0.1504846E-005  0.9661787E+02  0.7546771E-02  0.1287591E+00
          1   -1    0    0  502    0 -0.00000000000E+00  0.00000000000E+00  0.11048130345E+03  0.11048130345E+03  0.00000000000E+00 0. -1.
         21   -1    0    0  501  502  0.00000000000E+00 -0.00000000000E+00 -0.50050133639E+03  0.50050133639E+03  0.00000000000E+00 0.  1.
         23    2    1    2    0    0 -0.29549585108E+02  0.10268112323E+02  0.64276000945E+02  0.11486535267E+03  0.89911249769E+02 0.  0.
         23    2    1    2    0    0  0.85685039314E+02  0.26764254003E+02 -0.24071791475E+03  0.27220168175E+03  0.89946594224E+02 0.  0.
        -11    1    3    3    0    0 -0.30286002548E+02 -0.35681609238E+02  0.19496114162E+02  0.50700272736E+02  0.00000000000E+00 0. -1.
         11    1    3    3    0    0  0.73641744045E+00  0.45949721560E+02  0.44779886783E+02  0.64165079930E+02  0.00000000000E+00 0.  1.
        -13    1    4    4    0    0  0.41878289784E+02 -0.14893597536E+02 -0.18405487325E+03  0.18934573344E+03  0.00000000000E+00 0.  1.
         13    1    4    4    0    0  0.43806749529E+02  0.41657851539E+02 -0.56663041491E+02  0.82855948309E+02  0.00000000000E+00 0. -1.
          1    1    1    2  501    0 -0.56135454206E+02 -0.37032366326E+02 -0.21357811914E+03  0.22391560542E+03  0.00000000000E+00 0. -1.
<scales pt_clust_5="13000.00000" pt_clust_6="13000.00000" pt_clust_7="13000.00000" pt_clust_8="13000.00000" pt_clust_9="67.25017"></scales>
<clustering>
<clus scale="   67.250">  2  9  1 -1</clus>
<clus scale="   89.911">  5  6 -1 -1</clus>
<clus scale="   89.947">  7  8 -1 -1</clus>
<clus scale="   96.585">  1  5  2 -1</clus>
<clus scale="   67.250">  2  5  1 -1</clus>
</clustering>
</event>
<event>
 9    1  0.1504846E-005  0.1447343E+03  0.7546771E-02  0.1209114E+00
         -4   -1    0    0    0  501 -0.00000000000E+00  0.00000000000E+00  0.38145287306E+03  0.38145287306E+03  0.00000000000E+00 0.  1.
         21   -1    0    0  501  502  0.00000000000E+00 -0.00000000000E+00 -0.10042715414E+03  0.10042715414E+03  0.00000000000E+00 0. -1.
         23    2    1    2    0    0  0.10417008190E+03 -0.39109643071E+01  0.18386140632E+03  0.23059270061E+03  0.92202360263E+02 0.  0.
         23    2    1    2    0    0 -0.10031534737E+03 -0.42904957643E+02  0.62146681060E+01  0.14892313675E+03  0.10117052067E+03 0.  0.
        -13    1    3    3    0    0  0.59451691840E+02 -0.98218882657E+01  0.24632398689E+02  0.65097835732E+02  0.00000000000E+00 0. -1.
         13    1    3    3    0    0  0.44718390059E+02  0.59109239586E+01  0.15922900763E+03  0.16549486488E+03  0.00000000000E+00 0.  1.
        -13    1    4    4    0    0 -0.75175409511E+02 -0.25238717419E+02  0.51239520451E+02  0.94413047340E+02  0.00000000000E+00 0.  1.
         13    1    4    4    0    0 -0.25139937854E+02 -0.17666240225E+02 -0.45024852345E+02  0.54510089411E+02  0.00000000000E+00 0. -1.
         -4    1    1    2    0  502 -0.38547345338E+01  0.46815921950E+02  0.90949644496E+02  0.10236418983E+03  0.00000000000E+00 0.  1.
<scales pt_clust_5="13000.00000" pt_clust_6="13000.00000" pt_clust_7="13000.00000" pt_clust_8="13000.00000" pt_clust_9="46.97437"></scales>
<clustering>
<clus scale="   46.974">  2  9  1 -1</clus>
<clus scale="   92.202">  5  6 -1 -1</clus>
<clus scale="  101.171">  7  8 -1 -1</clus>
<clus scale="  138.614">  1  5  2 -1</clus>
<clus scale="   46.974">  2  5  1 -1</clus>
</clustering>
</event>
<event>
 9    1  0.1504846E-005  0.1003606E+03  0.7546771E-02  0.1281198E+00
         -1   -1    0    0    0  501 -0.00000000000E+00  0.00000000000E+00  0.10829217031E+03  0.10829217031E+03  0.00000000000E+00 0.  1.
         21   -1    0    0  501  502  0.00000000000E+00 -0.00000000000E+00 -0.22337941127E+03  0.22337941127E+03  0.00000000000E+00 0.  1.
         23    2    1    2    0    0  0.39021406801E+02  0.38756732851E+02  0.34866649412E+02  0.11141080227E+03  0.90398722846E+02 0.  0.
         23    2    1    2    0    0  0.25559604350E+02 -0.31594229629E+02 -0.96951790994E+02  0.13640834348E+03  0.86925817074E+02 0.  0.
        -11    1    3    3    0    0  0.68268135098E+02  0.25441743035E+02  0.30495997983E+02  0.78979911696E+02  0.00000000000E+00 0.  1.
         11    1    3    3    0    0 -0.29246728297E+02  0.13314989816E+02  0.43706514285E+01  0.32430890579E+02  0.00000000000E+00 0. -1.
        -11    1    4    4    0    0 -0.53307078143E+01 -0.56101511074E+02 -0.53006305884E+02  0.77365783484E+02  0.00000000000E+00 0. -1.
         11    1    4    4    0    0  0.30890312164E+02  0.24507281446E+02 -0.43945485110E+02  0.59042559997E+02  0.00000000000E+00 0.  1.
         -1    1    1    2    0  502 -0.64581011151E+02 -0.71625032227E+01 -0.53002099378E+02  0.83852435816E+02  0.00000000000E+00 0.  1.
<scales pt_clust_5="13000.00000" pt_clust_6="13000.00000" pt_clust_7="13000.00000" pt_clust_8="13000.00000" pt_clust_9="64.97698"></scales>
<clustering>
<clus scale="   64.977">  2  9  1 -1</clus>
<clus scale="   86.926">  7  8 -1 -1</clus>
<clus scale="   90.399">  5  6 -1 -1</clus>
<clus scale="   97.244">  2  7  1 -1</clus>
<clus scale="   64.977">  2  5  1 -1</clus>
</clustering>
</event>
<event>
 9    1  0.1504846E-005  0.1502199E+03  0.7546771E-02  0.1200649E+00
         21   -1    0    0  501  502  0.00000000000E+00  0.00000000000E+00  0.53879625941E+02  0.53879625941E+02  0.00000000000E+00 0.  1.
          1   -1    0    0  502    0 -0.00000000000E+00 -0.00000000000E+00 -0.60715422684E+03  0.60715422684E+03  0.00000000000E+00 0. -1.
         23    2    1    2    0    0  0.98430850898E+02 -0.42012125800E+02 -0.30097747084E+03  0.33174107367E+03  0.89504474102E+02 0.  0.
         23    2    1    2    0    0 -0.13230522273E+03  0.42851674603E+02 -0.24205085282E+03  0.29389272111E+03  0.91887856597E+02 0.  0.
        -11    1    3    3    0    0  0.61548069616E+02 -0.41276483980E+02 -0.85578577684E+02  0.11320603324E+03  0.00000000000E+00 0.  1.
         11    1    3    3    0    0  0.36882781283E+02 -0.73564181949E+00 -0.21539889315E+03  0.21853504043E+03  0.00000000000E+00 0. -1.
        -13    1    4    4    0    0 -0.78322091515E+02 -0.18903968340E+02 -0.87640996174E+02  0.11904895736E+03  0.00000000000E+00 0.  1.
         13    1    4    4    0    0 -0.53983131218E+02  0.61755642944E+02 -0.15440985665E+03  0.17484376375E+03  0.00000000000E+00 0. -1.
          1    1    1    2  501    0  0.33874371835E+02 -0.83954880383E+00 -0.10246277241E+02  0.35400058004E+02  0.00000000000E+00 0. -1.
<scales pt_clust_5="13000.00000" pt_clust_6="13000.00000" pt_clust_7="13000.00000" pt_clust_8="13000.00000" pt_clust_9="33.88477"></scales>
<clustering>
<clus scale="   33.885">  1  9  2 -1</clus>
<clus scale="   89.504">  5  6 -1 -1</clus>
<clus scale="   91.888">  7  8 -1 -1</clus>
<clus scale="  148.774">  2  5  1 -1</clus>
<clus scale="   33.885">  1  5  2 -1</clus>
</clustering>
</event>
<event>
 9    1  0.1504846E-005  0.1199990E+03  0.7546771E-02  0.1254694E+00
          1   -1    0    0  502    0 -0.00000000000E+00  0.00000000000E+00  0.12335880024E+03  0.12335880024E+03  0.00000000000E+00 0. -1.
         21   -1    0    0  501  502  0.00000000000E+00 -0.00000000000E+00 -0.14353883275E+03  0.14353883275E+03  0.00000000000E+00 0.  1.
         23    2    1    2    0    0  0.62518896845E+02 -0.16485774465E+02  0.42779716209E+02  0.12633773119E+03  0.99753320647E+02 0.  0.
         23    2    1    2    0    0 -0.72376021598E+02 -0.47705905617E+01 -0.38045089734E+02  0.10635849548E+03  0.67850229703E+02 0.  0.
        -11    1    3    3    0    0  0.23843130444E+02 -0.33369917831E+02 -0.23868434728E+02  0.47452591729E+02  0.00000000000E+00 0.  1.
         11    1    3    3    0    0  0.38675766401E+02  0.16884143367E+02  0.66648150937E+02  0.78885139457E+02  0.00000000000E+00 0. -1.
        -13    1    4    4    0    0 -0.44075726187E+02  0.28384063606E+02 -0.34210944437E+02  0.62599627994E+02  0.00000000000E+00 0.  1.
         13    1    4    4    0    0 -0.28300295412E+02 -0.33154654168E+02 -0.38341452972E+01  0.43758867485E+02  0.00000000000E+00 0. -1.
          1    1    1    2  501    0  0.98571247536E+01  0.21256365026E+02 -0.24914658983E+02  0.34201406327E+02  0.00000000000E+00 0. -1.
<scales pt_clust_5="13000.00000" pt_clust_6="13000.00000" pt_clust_7="13000.00000" pt_clust_8="13000.00000" pt_clust_9="23.43066"></scales>
<clustering>
<clus scale="   23.431">  2  9  1 -1</clus>
<clus scale="   67.850">  7  8 -1 -1</clus>
<clus scale="   95.146">  2  7  1 -1</clus>
<clus scale="   99.753">  5  6 -1 -1</clus>
<clus scale="   23.431">  2  5  1 -1</clus>
</clustering>
</event>
<event>
 9    1  0.1504846E-005  0.1190509E+03  0.7546771E-02  0.1245057E+00
         21   -1    0    0  501  502  0.00000000000E+00  0.00000000000E+00  0.14329725686E+03  0.14329725686E+03  0.00000000000E+00 0. -1.
          4   -1    0    0  502    0 -0.00000000000E+00 -0.00000000000E+00 -0.20069268606E+03  0.20069268606E+03  0.00000000000E+00 0. -1.
         23    2    1    2    0    0 -0.43273183547E+02  0.73117097641E+02 -0.11628531580E+03  0.17005534731E+03  0.90431565805E+02 0.  0.
         23    2    1    2    0    0  0.52966660500E+02 -0.20948812549E+02  0.53987367870E+02  0.12064737242E+03  0.91634233295E+02 0.  0.
        -11    1    4    4    0    0  0.36259094216E+02 -0.39201219214E+02  0.72286896072E+02  0.89871312692E+02  0.00000000000E+00 0.  1.
         11    1    4    4    0    0  0.16707566283E+02  0.18252406664E+02 -0.18299528203E+02  0.30776059732E+02  0.00000000000E+00 0. -1.
        -13    1    3    3    0    0 -0.62214792263E+01  0.83978726183E+02 -0.68037212041E+02  0.10825985164E+03  0.00000000000E+00 0.  1.
         13    1    3    3    0    0 -0.37051704321E+02 -0.10861628543E+02 -0.48248103763E+02  0.61795495664E+02  0.00000000000E+00 0. -1.
          4    1    1    2  501    0 -0.96934769526E+01 -0.52168285091E+02  0.49025187342E+01  0.53287223185E+02  0.00000000000E+00 0. -1.
<scales pt_clust_5="13000.00000" pt_clust_6="13000.00000" pt_clust_7="13000.00000" pt_clust_8="13000.00000" pt_clust_9="53.06122"></scales>
<clustering>
<clus scale="   53.061">  1  9  2 -1</clus>
<clus scale="   90.432">  7  8 -1 -1</clus>
<clus scale="   91.634">  5  6 -1 -1</clus>
<clus scale="  118.128">  2  7  1 -1</clus>
<clus scale="   53.061">  1  5  2 -1</clus>
</clustering>
</event>
<event>
 9    1  0.1941885E-005  0.9372372E+02  0.7546771E-02  0.1294271E+00
          1   -1    0    0  502    0 -0.00000000000E+00  0.00000000000E+00  0.25850676142E+03  0.25850676142E+03  0.00000000000E+00 0. -1.
         21   -1    0    0  501  502  0.00000000000E+00 -0.00000000000E+00 -0.13105768500E+03  0.13105768500E+03  0.00000000000E+00 0. -1.
         23    2    1    2    0    0 -0.13642661071E+02 -0.24372485572E+01  0.21083640015E+03  0.23084673282E+03  0.92984751690E+02 0.  0.
         23    2    1    2    0    0 -0.69056088585E+01  0.17377625296E+02 -0.29282633106E+02  0.98945112830E+02  0.92644446442E+02 0.  0.
        -11    1    3    3    0    0  0.15496733925E+02 -0.37653606619E+02  0.54916067233E+02  0.68364590938E+02  0.00000000000E+00 0.  1.
         11    1    3    3    0    0 -0.29139394996E+02  0.35216358062E+02  0.15592033291E+03  0.16248214189E+03  0.00000000000E+00 0. -1.
        -11    1    4    4    0    0 -0.72143042223E+01 -0.38186618809E+02 -0.99848066011E+01  0.40124311886E+02  0.00000000000E+00 0.  1.
         11    1    4    4    0    0  0.30869536378E+00  0.55564244105E+02 -0.19297826505E+02  0.58820800943E+02  0.00000000000E+00 0. -1.
          1    1    1    2  501    0  0.20548269930E+02 -0.14940376739E+02 -0.54104690624E+02  0.59772600761E+02  0.00000000000E+00 0. -1.
<scales pt_clust_5="13000.00000" pt_clust_6="13000.00000" pt_clust_7="13000.00000" pt_clust_8="13000.00000" pt_clust_9="25.40563"></scales>
<clustering>
<clus scale="   25.406">  2  9  1 -1</clus>
<clus scale="   92.644">  7  8 -1 -1</clus>
<clus scale="   92.985">  5  6 -1 -1</clus>
<clus scale="   93.386">  2  7  1 -1</clus>
<clus scale="   25.406">  2  5  1 -1</clus>
</clustering>
</event>
<event>
 9    1  0.1504846E-005  0.1233179E+03  0.7546771E-02  0.1238108E+00
          2   -1    0    0  502    0 -0.00000000000E+00  0.00000000000E+00  0.75117609488E+03  0.75117609488E+03  0.00000000000E+00 0. -1.
         21   -1    0    0  501  502  0.00000000000E+00 -0.00000000000E+00 -0.42188640069E+02  0.42188640069E+02  0.00000000000E+00 0. -1.
         23    2    1    2    0    0 -0.43003369982E+02  0.10608433344E+03  0.45373855491E+03  0.47649007838E+03  0.89782754215E+02 0.  0.
         23    2    1    2    0    0  0.44028552862E+02 -0.23990802052E+02  0.16341146912E+03  0.19368978498E+03  0.91095293594E+02 0.  0.
        -11    1    4    4    0    0  0.64205270330E+02 -0.35119516931E+02  0.15032066209E+03  0.16718851234E+03  0.00000000000E+00 0. -1.
         11    1    4    4    0    0 -0.20176717468E+02  0.11128714879E+02  0.13090807025E+02  0.26501272633E+02  0.00000000000E+00 0.  1.
        -11    1    3    3    0    0  0.22824008319E+02  0.41331168258E+02  0.95376776849E+02  0.10642335452E+03  0.00000000000E+00 0.  1.
         11    1    3    3    0    0 -0.65827378300E+02  0.64753165180E+02  0.35836177806E+03  0.37006672386E+03  0.00000000000E+00 0. -1.
          2    1    1    2  501    0 -0.10251828801E+01 -0.82093531387E+02  0.91837430784E+02  0.12318487159E+03  0.00000000000E+00 0. -1.
<scales pt_clust_5="13000.00000" pt_clust_6="13000.00000" pt_clust_7="13000.00000" pt_clust_8="13000.00000" pt_clust_9="82.09993"></scales>
<clustering>
<clus scale="   82.100">  2  9  1 -1</clus>
<clus scale="   89.783">  7  8 -1 -1</clus>
<clus scale="   91.095">  5  6 -1 -1</clus>
<clus scale="  122.352">  1  7  2 -1</clus>
<clus scale="   82.100">  2  5  1 -1</clus>
</clustering>
</event>
<event>
 9    1  0.1504846E-005  0.1398585E+03  0.7546771E-02  0.1233628E+00
         21   -1    0    0  501  502  0.00000000000E+00  0.00000000000E+00  0.63593230674E+02  0.63593230674E+02  0.00000000000E+00 0. -1.
          1   -1    0    0  502    0 -0.00000000000E+00 -0.00000000000E+00 -0.52373871787E+03  0.52373871787E+03  0.00000000000E+00 0. -1.
         23    2    1    2    0    0 -0.15576116137E+02  0.25993742915E+02 -0.17380277956E+03  0.19661240961E+03  0.86779855746E+02 0.  0.
         23    2    1    2    0    0  0.26905139497E+02  0.84768765980E+02 -0.23608089464E+03  0.26856009398E+03  0.92090743546E+02 0.  0.
        -11    1    4    4    0    0  0.22316496482E+02 -0.89477249017E+01 -0.14864027921E+02  0.28267067803E+02  0.00000000000E+00 0. -1.
         11    1    4    4    0    0  0.45886430150E+01  0.93716490882E+02 -0.22121686672E+03  0.24029302617E+03  0.00000000000E+00 0.  1.
        -13    1    3    3    0    0  0.40577591313E+01 -0.21248864664E+02 -0.79484964511E+01  0.23046870818E+02  0.00000000000E+00 0.  1.
         13    1    3    3    0    0 -0.19633875268E+02  0.47242607579E+02 -0.16585428311E+03  0.17356553879E+03  0.00000000000E+00 0. -1.
          1    1    1    2  501    0 -0.11329023360E+02 -0.11076250890E+03 -0.50261812997E+02  0.12215944496E+03  0.00000000000E+00 0. -1.
<scales pt_clust_5="13000.00000" pt_clust_6="13000.00000" pt_clust_7="13000.00000" pt_clust_8="13000.00000" pt_clust_9="105.26018"></scales>
<clustering>
<clus scale="   86.780">  7  8 -1 -1</clus>
<clus scale="   91.919">  2  7  1 -1</clus>
<clus scale="   92.091">  5  6 -1 -1</clus>
<clus scale="  105.260">  1  9  2 -1</clus>
<clus scale="  105.260">  1  5  2 -1</clus>
</clustering>
</event>
<event>
 9    1  0.1504846E-005  0.1985089E+03  0.7546771E-02  0.1182819E+00
          1   -1    0    0  502    0 -0.00000000000E+00  0.00000000000E+00  0.12721497180E+04  0.12721497180E+04  0.00000000000E+00 0. -1.
         21   -1    0    0  501  502  0.00000000000E+00 -0.00000000000E+00 -0.49637040895E+02  0.49637040895E+02  0.00000000000E+00 0. -1.
         23    2    1    2    0    0 -0.28774095671E+02 -0.11071221170E+02  0.10317813461E+03  0.14058348657E+03  0.90374048904E+02 0.  0.
         23    2    1    2    0    0 -0.10413613739E+03  0.13588653735E+03  0.62763438566E+03  0.65678641768E+03  0.90188636985E+02 0.  0.
        -11    1    4    4    0    0 -0.22134502882E+02  0.13976143402E+02  0.23950817487E+02  0.35481128231E+02  0.00000000000E+00 0.  1.
         11    1    4    4    0    0 -0.82001634506E+02  0.12191039395E+03  0.60368356817E+03  0.62130528945E+03  0.00000000000E+00 0. -1.
        -13    1    3    3    0    0 -0.45909776777E+02 -0.38328997902E+02  0.47948066639E+02  0.76654006929E+02  0.00000000000E+00 0. -1.
         13    1    3    3    0    0  0.17135681106E+02  0.27257776731E+02  0.55230067975E+02  0.63929479646E+02  0.00000000000E+00 0.  1.
          1    1    1    2  501    0  0.13291023306E+03 -0.12481531618E+03  0.49170015687E+03  0.52441685468E+03  0.00000000000E+00 0. -1.
<scales pt_clust_5="13000.00000" pt_clust_6="13000.00000" pt_clust_7="13000.00000" pt_clust_8="13000.00000" pt_clust_9="176.83828"></scales>
<clustering>
<clus scale="   90.189">  5  6 -1 -1</clus>
<clus scale="   90.374">  7  8 -1 -1</clus>
<clus scale="   95.488">  1  7  2 -1</clus>
<clus scale="  176.838">  2  9  1 -1</clus>
<clus scale="  176.838">  2  5  1 -1</clus>
</clustering>
</event>
<event>
 9    1  0.1504846E-005  0.9807600E+02  0.7546771E-02  0.1287293E+00
         21   -1    0    0  501  502  0.00000000000E+00  0.00000000000E+00  0.52321742996E+02  0.52321742996E+02  0.00000000000E+00 0. -1.
          1   -1    0    0  502    0 -0.00000000000E+00 -0.00000000000E+00 -0.52808120215E+03  0.52808120215E+03  0.00000000000E+00 0. -1.
         23    2    1    2    0    0 -0.20937223759E+02  0.78093115669E+01 -0.40106833440E+03  0.41167292304E+03  0.90107902067E+02 0.  0.
         23    2    1    2    0    0  0.31596207990E+02  0.34960478631E+02 -0.45028043609E+02  0.11560030085E+03  0.95474339065E+02 0.  0.
        -11    1    3    3    0    0 -0.46953051988E+02 -0.22734570433E+02 -0.24854699651E+03  0.25396271234E+03  0.00000000000E+00 0.  1.
         11    1    3    3    0    0  0.26015828228E+02  0.30543882000E+02 -0.15252133789E+03  0.15771021070E+03  0.00000000000E+00 0. -1.
        -13    1    4    4    0    0  0.12277081961E+02 -0.21763104844E+02 -0.49563314697E+02  0.55505690138E+02  0.00000000000E+00 0.  1.
         13    1    4    4    0    0  0.19319126029E+02  0.56723583475E+02  0.45352710876E+01  0.60094610712E+02  0.00000000000E+00 0. -1.
          1    1    1    2  501    0 -0.10658984231E+02 -0.42769790198E+02 -0.29663081145E+02  0.53129721263E+02  0.00000000000E+00 0. -1.
<scales pt_clust_5="13000.00000" pt_clust_6="13000.00000" pt_clust_7="13000.00000" pt_clust_8="13000.00000" pt_clust_9="44.07799"></scales>
<clustering>
<clus scale="   44.078">  1  9  2 -1</clus>
<clus scale="   90.108">  5  6 -1 -1</clus>
<clus scale="   92.860">  2  5  1 -1</clus>
<clus scale="   95.474">  7  8 -1 -1</clus>
<clus scale="   44.078">  1  5  2 -1</clus>
</clustering>
</event>
<event>
 9    1  0.1504846E-005  0.1015853E+03  0.7546771E-02  0.1277634E+00
          1   -1    0    0  502    0 -0.00000000000E+00  0.00000000000E+00  0.53181566011E+03  0.53181566011E+03  0.00000000000E+00 0. -1.
         21   -1    0    0  501  502  0.00000000000E+00 -0.00000000000E+00 -0.32425793051E+02  0.32425793051E+02  0.00000000000E+00 0.  1.
         23    2    1    2    0    0 -0.28916814088E+02 -0.20659882808E+02  0.35039039400E+03  0.36423545616E+03  0.92903317619E+02 0.  0.
         23    2    1    2    0    0  0.51007876898E+02  0.24184122998E+02  0.13831207036E+03  0.17521374213E+03  0.91558458452E+02 0.  0.
        -11    1    4    4    0    0  0.20812853565E+02  0.19504377153E+02  0.14163450698E+03  0.14447812696E+03  0.00000000000E+00 0. -1.
         11    1    4    4    0    0  0.30195023333E+02  0.46797458455E+01 -0.33224366182E+01  0.30735615178E+02  0.00000000000E+00 0.  1.
        -11    1    3    3    0    0  0.30994996933E+02  0.89792049371E+01  0.12897491007E+03  0.13295052984E+03  0.00000000000E+00 0.  1.
         11    1    3    3    0    0 -0.59911811021E+02 -0.29639087745E+02  0.22141548392E+03  0.23128492632E+03  0.00000000000E+00 0. -1.
          1    1    1    2  501    0 -0.22091062810E+02 -0.35242401900E+01  0.10687402705E+02  0.24792254871E+02  0.00000000000E+00 0. -1.
<scales pt_clust_5="13000.00000" pt_clust_6="13000.00000" pt_clust_7="13000.00000" pt_clust_8="13000.00000" pt_clust_9="22.37041"></scales>
<clustering>
<clus scale="   22.370">  2  9  1 -1</clus>
<clus scale="   91.558">  5  6 -1 -1</clus>
<clus scale="   92.903">  7  8 -1 -1</clus>
<clus scale="  100.357">  2  5  1 -1</clus>
<clus scale="   22.370">  2  5  1 -1</clus>
</clustering>
</event>
<event>
 9    1  0.1504846E-005  0.2436218E+03  0.7546771E-02  0.1118211E+00
         21   -1    0    0  501  502  0.00000000000E+00  0.00000000000E+00  0.57127020374E+03  0.57127020374E+03  0.00000000000E+00 0. -1.
         -4   -1    0    0    0  501 -0.00000000000E+00 -0.00000000000E+00 -0.66529747444E+03  0.66529747444E+03  0.00000000000E+00 0.  1.
         23    2    1    2    0    0 -0.22184839952E+03  0.32786897128E+02 -0.57876558083E+03  0.62540622978E+03  0.76626768850E+02 0.  0.
         23    2    1    2    0    0  0.26105422372E+03  0.35449673072E+02  0.29517509372E+03  0.40591150522E+03  0.90718394324E+02 0.  0.
        -13    1    3    3    0    0 -0.31349296577E+02 -0.22492825517E+02 -0.89739150346E+02  0.97682243527E+02  0.00000000000E+00 0. -1.
         13    1    3    3    0    0 -0.19049910294E+03  0.55279722645E+02 -0.48902643048E+03  0.52772398625E+03  0.00000000000E+00 0.  1.
        -13    1    4    4    0    0  0.15060423685E+03 -0.19490798781E+02  0.13100077953E+03  0.20055605609E+03  0.00000000000E+00 0.  1.
         13    1    4    4    0    0  0.11044998687E+03  0.54940471853E+02  0.16417431419E+03  0.20535544913E+03  0.00000000000E+00 0. -1.
         -4    1    1    2    0  502 -0.39205824206E+02 -0.68236570200E+02  0.18956321640E+03  0.20524994319E+03  0.00000000000E+00 0.  1.
<scales pt_clust_5="13000.00000" pt_clust_6="13000.00000" pt_clust_7="13000.00000" pt_clust_8="13000.00000" pt_clust_9="78.69769"></scales>
<clustering>
<clus scale="   76.627">  5  6 -1 -1</clus>
<clus scale="   78.698">  1  9  2 -1</clus>
<clus scale="   90.718">  7  8 -1 -1</clus>
<clus scale="  238.733">  2  5  1 -1</clus>
<clus scale="   78.698">  1  5  2 -1</clus>
</clustering>
</event>
<event>
 9    1  0.1504846E-005  0.9630112E+02  0.7546771E-02  0.1288383E+00
         -4   -1    0    0    0  501 -0.00000000000E+00  0.00000000000E+00  0.30853960127E+03  0.30853960127E+03  0.00000000000E+00 0.  1.
         21   -1    0    0  501  502  0.00000000000E+00 -0.00000000000E+00 -0.56538855472E+02  0.56538855472E+02  0.00000000000E+00 0. -1.
         23    2    1    2    0    0 -0.29245951113E+01  0.44501166393E+02  0.16852928488E+03  0.19642993397E+03  0.90519014753E+02 0.  0.
         23    2    1    2    0    0  0.29139031253E+02 -0.70140039613E+01  0.77093625706E+02  0.12246236910E+03  0.90306839864E+02 0.  0.
        -13    1    4    4    0    0 -0.22943576108E+02 -0.17893906482E+02  0.59821483466E+02  0.66522247842E+02  0.00000000000E+00 0.  1.
         13    1    4    4    0    0  0.52082607361E+02  0.10879902521E+02  0.17272142240E+02  0.55940121254E+02  0.00000000000E+00 0. -1.
        -13    1    3    3    0    0 -0.31785882511E+02  0.59274673614E+00  0.17004808105E+02  0.36053532066E+02  0.00000000000E+00 0.  1.
         13    1    3    3    0    0  0.28861287400E+02  0.43908419657E+02  0.15152447678E+03  0.16037640191E+03  0.00000000000E+00 0. -1.
         -4    1    1    2    0  502 -0.26214436141E+02 -0.37487162432E+02  0.63778352154E+01  0.46186153676E+02  0.00000000000E+00 0.  1.
<scales pt_clust_5="13000.00000" pt_clust_6="13000.00000" pt_clust_7="13000.00000" pt_clust_8="13000.00000" pt_clust_9="45.74368"></scales>
<clustering>
<clus scale="   45.744">  2  9  1 -1</clus>
<clus scale="   90.307">  5  6 -1 -1</clus>
<clus scale="   90.519">  7  8 -1 -1</clus>
<clus scale="   96.102">  2  5  1 -1</clus>
<clus scale="   45.744">  2  5  1 -1</clus>
</clustering>
</event>
<event>
 9    1  0.1504846E-005  0.1395393E+03  0.7546771E-02  0.1217572E+00
         21   -1    0    0  501  502  0.00000000000E+00  0.00000000000E+00  0.14531071065E+03  0.14531071065E+03  0.00000000000E+00 0. -1.
          2   -1    0    0  502    0 -0.00000000000E+00 -0.00000000000E+00 -0.32231647632E+03  0.32231647632E+03  0.00000000000E+00 0. -1.
         23    2    1    2    0    0  0.66054865607E+02 -0.86620294880E+02 -0.22515334192E+03  0.26142734794E+03  0.76052022442E+02 0.  0.
         23    2    1    2    0    0 -0.76486805479E+02  0.54210770431E+02 -0.16925134767E+02  0.13275829517E+03  0.92462239356E+02 0.  0.
        -11    1    3    3    0    0  0.22035422899E+02 -0.84269002740E+02 -0.16811739712E+03  0.18934171199E+03  0.00000000000E+00 0. -1.
         11    1    3    3    0    0  0.44019442707E+02 -0.23512921403E+01 -0.57035944802E+02  0.72085635951E+02  0.00000000000E+00 0.  1.
        -13    1    4    4    0    0 -0.45182279798E+02 -0.20978188224E+02 -0.13261246638E+01  0.49832533505E+02  0.00000000000E+00 0.  1.
         13    1    4    4    0    0 -0.31304525681E+02  0.75188958655E+02 -0.15599010103E+02  0.82925761666E+02  0.00000000000E+00 0. -1.
          2    1    1    2  501    0  0.10431939872E+02  0.32409524450E+02  0.65072711020E+02  0.73441543857E+02  0.00000000000E+00 0. -1.
<scales pt_clust_5="13000.00000" pt_clust_6="13000.00000" pt_clust_7="13000.00000" pt_clust_8="13000.00000" pt_clust_9="34.04707"></scales>
<clustering>
<clus scale="   34.047">  1  9  2 -1</clus>
<clus scale="   76.052">  5  6 -1 -1</clus>
<clus scale="   92.462">  7  8 -1 -1</clus>
<clus scale="  129.251">  2  5  1 -1</clus>
<clus scale="   34.047">  1  5  2 -1</clus>
</clustering>
</event>
<event>
 9    1  0.1504846E-005  0.1554901E+03  0.7546771E-02  0.1221046E+00
         21   -1    0    0  501  502  0.00000000000E+00  0.00000000000E+00  0.74546004441E+02  0.74546004441E+02  0.00000000000E+00 0. -1.
          1   -1    0    0  502    0 -0.00000000000E+00 -0.00000000000E+00 -0.50218711644E+03  0.50218711644E+03  0.00000000000E+00 0. -1.
         23    2    1    2    0    0  0.51849642648E+01 -0.84233626254E-01 -0.23018751572E+03  0.24602187484E+03  0.86680906540E+02 0.  0.
         23    2    1    2    0    0  0.45968844971E+02  0.98231060188E+02 -0.11773128468E+03  0.19431051756E+03  0.11015192212E+03 0.  0.
        -13    1    3    3    0    0 -0.24688953642E+02 -0.31688905480E+02 -0.14379429769E+03  0.14930013801E+03  0.00000000000E+00 0.  1.
         13    1    3    3    0    0  0.29873917907E+02  0.31604671854E+02 -0.86393218030E+02  0.96721736831E+02  0.00000000000E+00 0. -1.
        -13    1    4    4    0    0  0.31172020178E+02  0.44690777246E+02  0.96578868279E+01  0.55337466429E+02  0.00000000000E+00 0.  1.
         13    1    4    4    0    0  0.14796824793E+02  0.53540282943E+02 -0.12738917151E+03  0.13897305113E+03  0.00000000000E+00 0. -1.
          1    1    1    2  501    0 -0.51153809236E+02 -0.98146826562E+02 -0.79722311596E+02  0.13640072848E+03  0.00000000000E+00 0. -1.
<scales pt_clust_5="13000.00000" pt_clust_6="13000.00000" pt_clust_7="13000.00000" pt_clust_8="13000.00000" pt_clust_9="109.74387"></scales>
<clustering>
<clus scale="   86.681">  5  6 -1 -1</clus>
<clus scale="   86.836">  2  5  1 -1</clus>
<clus scale="  109.744">  1  9  2 -1</clus>
<clus scale="  110.152">  7  8 -1 -1</clus>
<clus scale="  109.744">  1  5  2 -1</clus>
</clustering>
</event>
<event>
 9    1  0.1504846E-005  0.3447348E+03  0.7546771E-02  0.1065201E+00
         21   -1    0    0  501  502  0.00000000000E+00  0.00000000000E+00  0.41890354135E+03  0.41890354135E+03  0.00000000000E+00 0.  1.
          3   -1    0    0  502    0 -0.00000000000E+00 -0.00000000000E+00 -0.41472569400E+03  0.41472569400E+03  0.00000000000E+00 0. -1.
         23    2    1    2    0    0 -0.29239277597E+03  0.16065694644E+03 -0.18761352413E+03  0.39678238837E+03  0.10456213182E+03 0.  0.
         23    2    1    2    0    0  0.28408422848E+03 -0.14207621212E+03  0.10355054682E+03  0.34628902686E+03  0.91125602630E+02 0.  0.
        -11    1    4    4    0    0  0.24707543301E+03 -0.82938820044E+02  0.79057042984E+02  0.27235112174E+03  0.00000000000E+00 0.  1.
         11    1    4    4    0    0  0.37008795475E+02 -0.59137392073E+02  0.24493503840E+02  0.73937905124E+02  0.00000000000E+00 0. -1.
        -11    1    3    3    0    0 -0.18732020948E+03  0.15621896114E+03 -0.12080098606E+03  0.27218762450E+03  0.00000000000E+00 0.  1.
         11    1    3    3    0    0 -0.10507256648E+03  0.44379853044E+01 -0.66812538073E+02  0.12459476387E+03  0.00000000000E+00 0. -1.
          3    1    1    2  501    0  0.83085474847E+01 -0.18580734323E+02  0.88240824649E+02  0.90557820115E+02  0.00000000000E+00 0. -1.
<scales pt_clust_5="13000.00000" pt_clust_6="13000.00000" pt_clust_7="13000.00000" pt_clust_8="13000.00000" pt_clust_9="20.35376"></scales>
<clustering>
<clus scale="   20.354">  1  9  2 -1</clus>
<clus scale="   91.126">  5  6 -1 -1</clus>
<clus scale="  104.562">  7  8 -1 -1</clus>
<clus scale="  340.900">  1  5  2 -1</clus>
<clus scale="   20.354">  1  5  2 -1</clus>
</clustering>
</event>
<event>
 9    1  0.1504846E-005  0.1443452E+03  0.7546771E-02  0.1225777E+00
         21   -1    0    0  501  502  0.00000000000E+00  0.00000000000E+00  0.44506016129E+03  0.44506016129E+03  0.00000000000E+00 0. -1.
          1   -1    0    0  502    0 -0.00000000000E+00 -0.00000000000E+00 -0.13405448786E+03  0.13405448786E+03  0.00000000000E+00 0. -1.
         23    2    1    2    0    0  0.50776088743E+01 -0.42545431122E+02 -0.59303000762E+02  0.11483272655E+03  0.88508832134E+02 0.  0.
         23    2    1    2    0    0  0.36607152147E+02 -0.72653764415E+02  0.72293637010E+02  0.14206858281E+03  0.91315164124E+02 0.  0.
        -11    1    4    4    0    0  0.38987550358E+02 -0.93421540995E+02  0.62637857394E+02  0.11904249066E+03  0.00000000000E+00 0.  1.
         11    1    4    4    0    0 -0.23803982110E+01  0.20767776580E+02  0.96557796159E+01  0.23026092150E+02  0.00000000000E+00 0. -1.
        -13    1    3    3    0    0  0.34828500824E+01  0.27770929622E+02 -0.16082741464E+02  0.32280169605E+02  0.00000000000E+00 0.  1.
         13    1    3    3    0    0  0.15947587919E+01 -0.70316360744E+02 -0.43220259299E+02  0.82552556942E+02  0.00000000000E+00 0. -1.
          1    1    1    2  501    0 -0.41684761022E+02  0.11519919554E+03  0.29801503718E+03  0.32221333979E+03  0.00000000000E+00 0. -1.
<scales pt_clust_5="13000.00000" pt_clust_6="13000.00000" pt_clust_7="13000.00000" pt_clust_8="13000.00000" pt_clust_9="111.79027"></scales>
<clustering>
<clus scale="   88.509">  7  8 -1 -1</clus>
<clus scale="   91.315">  5  6 -1 -1</clus>
<clus scale="   98.335">  2  7  1 -1</clus>
<clus scale="  111.790">  1  9  2 -1</clus>
<clus scale="  111.790">  1  5  2 -1</clus>
</clustering>
</event>
<event>
 9    1  0.1504846E-005  0.1103978E+03  0.7546771E-02  0.1260227E+00
         21   -1    0    0  501  502  0.00000000000E+00  0.00000000000E+00  0.10038190705E+03  0.10038190705E+03  0.00000000000E+00 0.  1.
          4   -1    0    0  502    0 -0.00000000000E+00 -0.00000000000E+00 -0.19093489018E+03  0.19093489018E+03  0.00000000000E+00 0. -1.
         23    2    1    2    0    0 -0.18265529852E+01  0.56769481836E+02 -0.10794495014E+03  0.15355339163E+03  0.93276049747E+02 0.  0.
         23    2    1    2    0    0  0.22494501569E+02 -0.63559645755E+02  0.97085648211E+01  0.11469166762E+03  0.92271833298E+02 0.  0.
        -11    1    3    3    0    0 -0.74203600610E+01  0.76562079155E+02 -0.10847362113E+03  0.13297872081E+03  0.00000000000E+00 0. -1.
         11    1    3    3    0    0  0.55938070758E+01 -0.19792597319E+02  0.52867098837E+00  0.20574670818E+02  0.00000000000E+00 0.  1.
        -13    1    4    4    0    0  0.37899219678E+02 -0.35334920110E+02  0.43785738803E+02  0.67838767338E+02  0.00000000000E+00 0.  1.
         13    1    4    4    0    0 -0.15404718109E+02 -0.28224725646E+02 -0.34077173982E+02  0.46852900278E+02  0.00000000000E+00 0. -1.
          4    1    1    2  501    0 -0.20667948584E+02  0.67901639199E+01  0.76834021791E+01  0.23071737988E+02  0.00000000000E+00 0. -1.
<scales pt_clust_5="13000.00000" pt_clust_6="13000.00000" pt_clust_7="13000.00000" pt_clust_8="13000.00000" pt_clust_9="21.75478"></scales>
<clustering>
<clus scale="   21.755">  1  9  2 -1</clus>
<clus scale="   92.272">  7  8 -1 -1</clus>
<clus scale="   93.276">  5  6 -1 -1</clus>
<clus scale="  109.551">  1  7  2 -1</clus>
<clus scale="   21.755">  1  5  2 -1</clus>
</clustering>
</event>
<event>
 9    1  0.1504846E-005  0.1607936E+03  0.7546771E-02  0.1188081E+00
         21   -1    0    0  501  502  0.00000000000E+00  0.00000000000E+00  0.51303941331E+03  0.51303941331E+03  0.00000000000E+00 0. -1.
          3   -1    0    0  502    0 -0.00000000000E+00 -0.00000000000E+00 -0.12918302203E+03  0.12918302203E+03  0.00000000000E+00 0. -1.
         23    2    1    2    0    0 -0.53308615567E+02 -0.11651077137E+03 -0.40355218369E+02  0.16279625448E+03  0.91964713266E+02 0.  0.
         23    2    1    2    0    0  0.38488010811E+02  0.14785139814E+03  0.28301726241E+03  0.33403798015E+03  0.90228811641E+02 0.  0.
        -11    1    3    3    0    0  0.23475084641E+02 -0.14870050832E+02  0.36474215920E+01  0.28026803152E+02  0.00000000000E+00 0.  1.
         11    1    3    3    0    0 -0.76783700209E+02 -0.10164072054E+03 -0.44002639961E+02  0.13476945133E+03  0.00000000000E+00 0. -1.
        -13    1    4    4    0    0  0.44124157363E+02  0.34996750680E+02  0.14570649491E+03  0.15621170404E+03  0.00000000000E+00 0.  1.
         13    1    4    4    0    0 -0.56361465520E+01  0.11285464746E+03  0.13731076750E+03  0.17782627610E+03  0.00000000000E+00 0. -1.
          3    1    1    2  501    0  0.14820604756E+02 -0.31340626772E+02  0.14119434724E+03  0.14538820070E+03  0.00000000000E+00 0. -1.
<scales pt_clust_5="13000.00000" pt_clust_6="13000.00000" pt_clust_7="13000.00000" pt_clust_8="13000.00000" pt_clust_9="34.66822"></scales>
<clustering>
<clus scale="   34.668">  1  9  2 -1</clus>
<clus scale="   90.229">  7  8 -1 -1</clus>
<clus scale="   91.965">  5  6 -1 -1</clus>
<clus scale="  159.807">  1  7  2 -1</clus>
<clus scale="   34.668">  1  5  2 -1</clus>
</clustering>
</event>
<event>
 9    1  0.1504846E-005  0.1202921E+03  0.7546771E-02  0.1242815E+00
         -3   -1    0    0    0  501 -0.00000000000E+00  0.00000000000E+00  0.40735529081E+03  0.40735529081E+03  0.00000000000E+00 0.  1.
         21   -1    0    0  501  502  0.00000000000E+00 -0.00000000000E+00 -0.13886653743E+03  0.13886653743E+03  0.00000000000E+00 0.  1.
         23    2    1    2    0    0  0.52220717650E+02 -0.52174717519E+02  0.20660905439E+03  0.23777424479E+03  0.91651981060E+02 0.  0.
         23    2    1    2    0    0 -0.75316180409E+02  0.37456643805E+02  0.16206338425E+03  0.20458809718E+03  0.92283377690E+02 0.  0.
        -13    1    4    4    0    0 -0.27053065566E+02 -0.24288551565E+02  0.17955332913E+02  0.40548687693E+02  0.00000000000E+00 0. -1.
         13    1    4    4    0    0 -0.48263114843E+02  0.61745195370E+02  0.14410805134E+03  0.16403940949E+03  0.00000000000E+00 0.  1.
        -13    1    3    3    0    0  0.23479386094E+01  0.25356580525E+02  0.47005555543E+02  0.53460183721E+02  0.00000000000E+00 0.  1.
         13    1    3    3    0    0  0.49872779041E+02 -0.77531298043E+02  0.15960349885E+03  0.18431406107E+03  0.00000000000E+00 0. -1.
         -3    1    1    2    0  502  0.23095462759E+02  0.14718073714E+02 -0.10018368527E+03  0.10385948627E+03  0.00000000000E+00 0.  1.
<scales pt_clust_5="13000.00000" pt_clust_6="13000.00000" pt_clust_7="13000.00000" pt_clust_8="13000.00000" pt_clust_9="27.38653"></scales>
<clustering>
<clus scale="   27.387">  2  9  1 -1</clus>
<clus scale="   91.652">  7  8 -1 -1</clus>
<clus scale="   92.283">  5  6 -1 -1</clus>
<clus scale="  119.808">  1  7  2 -1</clus>
<clus scale="   27.387">  2  5  1 -1</clus>
</clustering>
</event>
<event>
 9    1  0.1504846E-005  0.1023291E+03  0.7546771E-02  0.1279674E+00
         21   -1    0    0  501  502  0.00000000000E+00  0.00000000000E+00  0.52543207166E+03  0.52543207166E+03  0.00000000000E+00 0.  1.
         -1   -1    0    0    0  501 -0.00000000000E+00 -0.00000000000E+00 -0.60811033567E+02  0.60811033567E+02  0.00000000000E+00 0.  1.
         23    2    1    2    0    0  0.78215303044E+01 -0.91761652145E+01  0.20643952460E+02  0.10192995046E+03  0.99086647355E+02 0.  0.
         23    2    1    2    0    0 -0.61714204402E+02  0.49737396449E+02  0.22644690002E+03  0.25656545345E+03  0.90913044967E+02 0.  0.
        -11    1    3    3    0    0  0.46016288364E+02  0.20771632991E+02  0.16939087097E+02  0.53253095718E+02  0.00000000000E+00 0.  1.
         11    1    3    3    0    0 -0.38194758059E+02 -0.29947798205E+02  0.37048653637E+01  0.48676854746E+02  0.00000000000E+00 0. -1.
        -11    1    4    4    0    0 -0.15336687082E+02  0.68494664963E+02  0.12185166052E+03  0.14062204760E+03  0.00000000000E+00 0.  1.
         11    1    4    4    0    0 -0.46377517320E+02 -0.18757268513E+02  0.10459523950E+03  0.11594340585E+03  0.00000000000E+00 0. -1.
         -1    1    1    2    0  502  0.53892674098E+02 -0.40561231235E+02  0.21753018561E+03  0.22774770131E+03  0.00000000000E+00 0.  1.
<scales pt_clust_5="13000.00000" pt_clust_6="13000.00000" pt_clust_7="13000.00000" pt_clust_8="13000.00000" pt_clust_9="67.45097"></scales>
<clustering>
<clus scale="   67.451">  1  9  2 -1</clus>
<clus scale="   90.913">  7  8 -1 -1</clus>
<clus scale="   94.437">  1  7  2 -1</clus>
<clus scale="   99.087">  5  6 -1 -1</clus>
<clus scale="   67.451">  1  5  2 -1</clus>
</clustering>
</event>
<event>
 9    1  0.1504846E-005  0.1913701E+03  0.7546771E-02  0.1157520E+00
          2   -1    0    0  502    0 -0.00000000000E+00  0.00000000000E+00  0.10126403701E+04  0.10126403701E+04  0.00000000000E+00 0. -1.
         21   -1    0    0  501  502  0.00000000000E+00 -0.00000000000E+00 -0.11319039149E+03  0.11319039149E+03  0.00000000000E+00 0.  1.
         23    2    1    2    0    0  0.13533107651E+03 -0.92384029259E+02  0.81917112686E+03  0.84053571364E+03  0.92788154896E+02 0.  0.
         23    2    1    2    0    0 -0.18033670030E+03  0.86327688559E+02  0.36689272402E+02  0.22234874652E+03  0.90105865958E+02 0.  0.
        -13    1    3    3    0    0  0.14289588041E+03 -0.60119975154E+02  0.68679922721E+03  0.70407870480E+03  0.00000000000E+00 0. -1.
         13    1    3    3    0    0 -0.75648039004E+01 -0.32264054104E+02  0.13237189965E+03  0.13645700884E+03  0.00000000000E+00 0.  1.
        -13    1    4    4    0    0 -0.20120145631E+02  0.58714549288E+01  0.37618075882E+02  0.43062906036E+02  0.00000000000E+00 0. -1.
         13    1    4    4    0    0 -0.16021655467E+03  0.80456233630E+02 -0.92880348004E+00  0.17928584048E+03  0.00000000000E+00 0.  1.
          2    1    1    2  501    0  0.45005623797E+02  0.60563406996E+01  0.43589579318E+02  0.62946301410E+02  0.00000000000E+00 0. -1.
<scales pt_clust_5="13000.00000" pt_clust_6="13000.00000" pt_clust_7="13000.00000" pt_clust_8="13000.00000" pt_clust_9="45.41129"></scales>
<clustering>
<clus scale="   45.411">  2  9  1 -1</clus>
<clus scale="   90.106">  7  8 -1 -1</clus>
<clus scale="   92.788">  5  6 -1 -1</clus>
<clus scale="  190.084">  2  7  1 -1</clus>
<clus scale="   45.411">  2  5  1 -1</clus>
</clustering>
</event>
<event>
 9    1  0.1504846E-005  0.9689740E+02  0.7546771E-02  0.1287524E+00
         21   -1    0    0  501  502  0.00000000000E+00  0.00000000000E+00  0.42770440947E+02  0.42770440947E+02  0.00000000000E+00 0.  1.
          2   -1    0    0  502    0 -0.00000000000E+00 -0.00000000000E+00 -0.63532740414E+03  0.63532740414E+03  0.00000000000E+00 0. -1.
         23    2    1    2    0    0 -0.56316498032E+00 -0.24764249091E+02 -0.20498454644E+03  0.22777806082E+03  0.96180016239E+02 0.  0.
         23    2    1    2    0    0 -0.33371372221E+02 -0.64901861253E+02 -0.12149448409E+03  0.16749646414E+03  0.89265086996E+02 0.  0.
        -13    1    3    3    0    0 -0.17294463123E+02  0.26254458473E+02 -0.25639166226E+02  0.40567990944E+02  0.00000000000E+00 0.  1.
         13    1    3    3    0    0  0.16731298143E+02 -0.51018707564E+02 -0.17934538022E+03  0.18721006988E+03  0.00000000000E+00 0. -1.
        -13    1    4    4    0    0  0.96011451813E+01  0.18844911839E+02 -0.21035628224E+02  0.29829688999E+02  0.00000000000E+00 0. -1.
         13    1    4    4    0    0 -0.42972517402E+02 -0.83746773092E+02 -0.10045885587E+03  0.13766677514E+03  0.00000000000E+00 0.  1.
          2    1    1    2  501    0  0.33934537201E+02  0.89666110344E+02 -0.26607793266E+03  0.28282332013E+03  0.00000000000E+00 0. -1.
<scales pt_clust_5="13000.00000" pt_clust_6="13000.00000" pt_clust_7="13000.00000" pt_clust_8="13000.00000" pt_clust_9="95.87269"></scales>
<clustering>
<clus scale="   89.265">  7  8 -1 -1</clus>
<clus scale="   95.873">  1  9  2 -1</clus>
<clus scale="   95.873">  1  7  2 -1</clus>
<clus scale="   96.180">  5  6 -1 -1</clus>
<clus scale="   95.873">  1  5  2 -1</clus>
</clustering>
</event>
<event>
 9    1  0.1504846E-005  0.2181582E+03  0.7546771E-02  0.1135422E+00
          1   -1    0    0  502    0 -0.00000000000E+00  0.00000000000E+00  0.15240150569E+04  0.15240150569E+04  0.00000000000E+00 0. -1.
         21   -1    0    0  501  502  0.00000000000E+00 -0.00000000000E+00 -0.51513881866E+02  0.51513881866E+02  0.00000000000E+00 0. -1.
         23    2    1    2    0    0 -0.77843597306E+01  0.15457392049E+03  0.47045770589E+03  0.50351436635E+03  0.90788605737E+02 0.  0.
         23    2    1    2    0    0  0.19776986015E+01 -0.25852216499E+03  0.77513793215E+03  0.82236466241E+03  0.92775013034E+02 0.  0.
        -11    1    3    3    0    0 -0.25267597522E+02  0.45661236311E+02  0.65202530375E+02  0.83515088178E+02  0.00000000000E+00 0. -1.
         11    1    3    3    0    0  0.17483237791E+02  0.10891268417E+03  0.40525517552E+03  0.41999927817E+03  0.00000000000E+00 0.  1.
        -13    1    4    4    0    0 -0.22685804809E+02 -0.23033775063E+03  0.59621973528E+03  0.63956868110E+03  0.00000000000E+00 0. -1.
         13    1    4    4    0    0  0.24663503411E+02 -0.28184414363E+02  0.17891819687E+03  0.18279598131E+03  0.00000000000E+00 0.  1.
          1    1    1    2  501    0  0.58066611291E+01  0.10394824451E+03  0.22690553699E+03  0.24964991001E+03  0.00000000000E+00 0. -1.
<scales pt_clust_5="13000.00000" pt_clust_6="13000.00000" pt_clust_7="13000.00000" pt_clust_8="13000.00000" pt_clust_9="104.11030"></scales>
<clustering>
<clus scale="   90.789">  5  6 -1 -1</clus>
<clus scale="   92.775">  7  8 -1 -1</clus>
<clus scale="  104.110">  2  9  1 -1</clus>
<clus scale="  217.321">  1  5  2 -1</clus>
<clus scale="  104.110">  2  5  1 -1</clus>
</clustering>
</event>
<event>
 9    1  0.1504846E-005  0.1313386E+03  0.7546771E-02  0.1231798E+00
         -3   -1    0    0    0  501 -0.00000000000E+00  0.00000000000E+00  0.18854319817E+03  0.18854319817E+03  0.00000000000E+00 0.  1.
         21   -1    0    0  501  502  0.00000000000E+00 -0.00000000000E+00 -0.20595190806E+03  0.20595190806E+03  0.00000000000E+00 0.  1.
         23    2    1    2    0    0 -0.56796382088E+02  0.49875511892E+01  0.66872626690E+02  0.12627276774E+03  0.90676121369E+02 0.  0.
         23    2    1    2    0    0  0.10092790998E+03 -0.13794589147E+02  0.22917824884E+02  0.15196049656E+03  0.11040847846E+03 0.  0.
        -11    1    3    3    0    0  0.16245668481E+02 -0.20555056000E+02  0.32112604271E+02  0.41444558444E+02  0.00000000000E+00 0. -1.
         11    1    3    3    0    0 -0.73042050569E+02  0.25542607189E+02  0.34760022419E+02  0.84828209293E+02  0.00000000000E+00 0.  1.
        -13    1    4    4    0    0  0.58469514384E+02 -0.51486745987E+02  0.46223664400E+02  0.90588058127E+02  0.00000000000E+00 0.  1.
         13    1    4    4    0    0  0.42458395597E+02  0.37692156841E+02 -0.23305839516E+02  0.61372438435E+02  0.00000000000E+00 0. -1.
         -3    1    1    2    0  502 -0.44131527893E+02  0.88070379575E+01 -0.10719916146E+03  0.11626184193E+03  0.00000000000E+00 0.  1.
<scales pt_clust_5="13000.00000" pt_clust_6="13000.00000" pt_clust_7="13000.00000" pt_clust_8="13000.00000" pt_clust_9="45.00173"></scales>
<clustering>
<clus scale="   45.002">  2  9  1 -1</clus>
<clus scale="   90.676">  5  6 -1 -1</clus>
<clus scale="  110.408">  7  8 -1 -1</clus>
<clus scale="  115.247">  1  5  2 -1</clus>
<clus scale="   45.002">  2  5  1 -1</clus>
</clustering>
</event>
<event>
 9    1  0.1504846E-005  0.1130055E+03  0.7546771E-02  0.1255382E+00
         -1   -1    0    0    0  501 -0.00000000000E+00  0.00000000000E+00  0.14117870482E+03  0.14117870482E+03  0.00000000000E+00 0.  1.
         21   -1    0    0  501  502  0.00000000000E+00 -0.00000000000E+00 -0.44317970228E+03  0.44317970228E+03  0.00000000000E+00 0.  1.
         23    2    1    2    0    0 -0.14358667616E+02 -0.57305357402E+02  0.83177042719E+02  0.13676683156E+03  0.91086060719E+02 0.  0.
         23    2    1    2    0    0  0.23822207685E+02  0.11716132889E+03 -0.18617848882E+03  0.23956965998E+03  0.91852695767E+02 0.  0.
        -11    1    4    4    0    0  0.55206955673E+02  0.70914993167E+02 -0.14320078974E+03  0.16906569845E+03  0.00000000000E+00 0.  1.
         11    1    4    4    0    0 -0.31384747987E+02  0.46246335719E+02 -0.42977699085E+02  0.70503961536E+02  0.00000000000E+00 0. -1.
        -13    1    3    3    0    0 -0.45948318046E+02 -0.59130686813E+02  0.69944277222E+02  0.10246896101E+03  0.00000000000E+00 0.  1.
         13    1    3    3    0    0  0.31589650430E+02  0.18253294115E+01  0.13232765497E+02  0.34297870553E+02  0.00000000000E+00 0. -1.
         -1    1    1    2    0  502 -0.94635400697E+01 -0.59855971484E+02 -0.19899955136E+03  0.20802191556E+03  0.00000000000E+00 0.  1.
<scales pt_clust_5="13000.00000" pt_clust_6="13000.00000" pt_clust_7="13000.00000" pt_clust_8="13000.00000" pt_clust_9="60.59947"></scales>
<clustering>
<clus scale="   60.599">  2  9  1 -1</clus>
<clus scale="   91.086">  7  8 -1 -1</clus>
<clus scale="   91.853">  5  6 -1 -1</clus>
<clus scale="  112.383">  1  7  2 -1</clus>
<clus scale="   60.599">  2  5  1 -1</clus>
</clustering>
</event>
<event>
 9    1  0.1504846E-005  0.1327540E+03  0.7546771E-02  0.1223973E+00
         21   -1    0    0  501  502  0.00000000000E+00  0.00000000000E+00  0.42492510381E+03  0.42492510381E+03  0.00000000000E+00 0. -1.
         -1   -1    0    0    0  501 -0.00000000000E+00 -0.00000000000E+00 -0.70006512132E+02  0.70006512132E+02  0.00000000000E+00 0.  1.
         23    2    1    2    0    0 -0.10063543176E+03  0.10295964697E+02  0.43178776688E+02  0.14385497778E+03  0.92716508030E+02 0.  0.
         23    2    1    2    0    0  0.73019694445E+02 -0.37323688381E+02  0.24983833614E+03  0.27810458954E+03  0.90543000996E+02 0.  0.
        -11    1    3    3    0    0 -0.23099314579E+02  0.28038169335E+02 -0.20725010508E+02  0.41823956463E+02  0.00000000000E+00 0.  1.
         11    1    3    3    0    0 -0.77536117184E+02 -0.17742204638E+02  0.63903787196E+02  0.10203102132E+03  0.00000000000E+00 0. -1.
        -13    1    4    4    0    0 -0.10130118356E+02 -0.37060875319E+02  0.66708570107E+02  0.76981563397E+02  0.00000000000E+00 0.  1.
         13    1    4    4    0    0  0.83149812801E+02 -0.26281306171E+00  0.18312976603E+03  0.20112302615E+03  0.00000000000E+00 0. -1.
         -1    1    1    2    0  502  0.27615737318E+02  0.27027723684E+02  0.61901478852E+02  0.72972048616E+02  0.00000000000E+00 0.  1.
<scales pt_clust_5="13000.00000" pt_clust_6="13000.00000" pt_clust_7="13000.00000" pt_clust_8="13000.00000" pt_clust_9="38.64100"></scales>
<clustering>
<clus scale="   38.641">  1  9  2 -1</clus>
<clus scale="   90.543">  7  8 -1 -1</clus>
<clus scale="   92.717">  5  6 -1 -1</clus>
<clus scale="  131.245">  1  7  2 -1</clus>
<clus scale="   38.641">  1  5  2 -1</clus>
</clustering>
</event>
<event>
 9    1  0.1504846E-005  0.1452283E+03  0.7546771E-02  0.1206583E+00
          4   -1    0    0  502    0 -0.00000000000E+00  0.00000000000E+00  0.41331536492E+03  0.41331536492E+03  0.00000000000E+00 0. -1.
         21   -1    0    0  501  502  0.00000000000E+00 -0.00000000000E+00 -0.98403253233E+02  0.98403253233E+02  0.00000000000E+00 0.  1.
         23    2    1    2    0    0  0.49621853230E+02  0.10553260667E+03  0.26133061072E+03  0.30042858999E+03  0.91455946731E+02 0.  0.
         23    2    1    2    0    0 -0.68270064873E+02 -0.83039539560E+02  0.88110729251E+02  0.16605772255E+03  0.90858679949E+02 0.  0.
        -11    1    3    3    0    0  0.34473552953E+02  0.74064572686E+02  0.25107214941E+03  0.26402880712E+03  0.00000000000E+00 0. -1.
         11    1    3    3    0    0  0.15148300277E+02  0.31468033983E+02  0.10258461310E+02  0.36399782864E+02  0.00000000000E+00 0.  1.
        -13    1    4    4    0    0 -0.28524287118E+02 -0.93934283728E+02  0.51132389158E+02  0.11068787574E+03  0.00000000000E+00 0. -1.
         13    1    4    4    0    0 -0.39745777755E+02  0.10894744168E+02  0.36978340094E+02  0.55369846812E+02  0.00000000000E+00 0.  1.
          4    1    1    2  501    0  0.18648211644E+02 -0.22493067109E+02 -0.34529228284E+02  0.45232305616E+02  0.00000000000E+00 0. -1.
<scales pt_clust_5="13000.00000" pt_clust_6="13000.00000" pt_clust_7="13000.00000" pt_clust_8="13000.00000" pt_clust_9="29.21804"></scales>
<clustering>
<clus scale="   29.218">  2  9  1 -1</clus>
<clus scale="   90.859">  7  8 -1 -1</clus>
<clus scale="   91.456">  5  6 -1 -1</clus>
<clus scale="  144.853">  2  7  1 -1</clus>
<clus scale="   29.218">  2  5  1 -1</clus>
</clustering>
</event>
<event>
 9    1  0.1504846E-005  0.1090816E+03  0.7546771E-02  0.1264447E+00
         -1   -1    0    0    0  501 -0.00000000000E+00  0.00000000000E+00  0.31442475096E+03  0.31442475096E+03  0.00000000000E+00 0.  1.
         21   -1    0    0  501  502  0.00000000000E+00 -0.00000000000E+00 -0.24011903444E+03  0.24011903444E+03  0.00000000000E+00 0.  1.
         23    2    1    2    0    0  0.47758434107E+02 -0.50683591707E+02  0.23512831844E+03  0.25946934755E+03  0.84789867839E+02 0.  0.
         23    2    1    2    0    0  0.46008329913E+02  0.57395185967E+02 -0.94143999300E+01  0.11685632664E+03  0.90309447767E+02 0.  0.
        -11    1    3    3    0    0  0.45881724220E+02 -0.41674544119E+01  0.47580363114E+02  0.66229836537E+02  0.00000000000E+00 0. -1.
         11    1    3    3    0    0  0.18767098863E+01 -0.46516137296E+02  0.18754795532E+03  0.19323951101E+03  0.00000000000E+00 0.  1.
        -13    1    4    4    0    0  0.48564571491E+02  0.78396725941E+02 -0.18111593860E+02  0.93981881629E+02  0.00000000000E+00 0. -1.
         13    1    4    4    0    0 -0.25562415776E+01 -0.21001539974E+02  0.86971939299E+01  0.22874445010E+02  0.00000000000E+00 0.  1.
         -1    1    1    2    0  502 -0.93766764020E+02 -0.67115942599E+01 -0.15140820199E+03  0.17821811121E+03  0.00000000000E+00 0.  1.
<scales pt_clust_5="13000.00000" pt_clust_6="13000.00000" pt_clust_7="13000.00000" pt_clust_8="13000.00000" pt_clust_9="94.00666"></scales>
<clustering>
<clus scale="   84.790">  5  6 -1 -1</clus>
<clus scale="   90.309">  7  8 -1 -1</clus>
<clus scale="   94.007">  2  9  1 -1</clus>
<clus scale="  104.558">  1  5  2 -1</clus>
<clus scale="   94.007">  2  5  1 -1</clus>
</clustering>
</event>
<event>
 9    1  0.1504846E-005  0.1219533E+03  0.7546771E-02  0.1243338E+00
         -1   -1    0    0    0  501 -0.00000000000E+00  0.00000000000E+00  0.40759189363E+02  0.40759189363E+02  0.00000000000E+00 0.  1.
         21   -1    0    0  501  502  0.00000000000E+00 -0.00000000000E+00 -0.80201856842E+03  0.80201856842E+03  0.00000000000E+00 0.  1.
         23    2    1    2    0    0 -0.41359622096E+02  0.35574828889E+02 -0.10234498662E+03  0.14695462778E+03  0.90249540444E+02 0.  0.
         23    2    1    2    0    0  0.76982574185E+02 -0.79432998178E+02 -0.33186429428E+03  0.36392811582E+03  0.10036854956E+03 0.  0.
        -11    1    4    4    0    0  0.24042806572E+02 -0.76928277155E+02 -0.27332846070E+03  0.28496396931E+03  0.00000000000E+00 0.  1.
         11    1    4    4    0    0  0.52939767613E+02 -0.25047210230E+01 -0.58535833577E+02  0.78964146515E+02  0.00000000000E+00 0. -1.
        -13    1    3    3    0    0 -0.41477206349E+02 -0.22433014043E+02 -0.40467833894E+02  0.62138911687E+02  0.00000000000E+00 0. -1.
         13    1    3    3    0    0  0.11758425277E+00  0.58007842931E+02 -0.61877152722E+02  0.84815716094E+02  0.00000000000E+00 0.  1.
         -1    1    1    2    0  502 -0.35622952089E+02  0.43858169289E+02 -0.32705009816E+03  0.33189501418E+03  0.00000000000E+00 0.  1.
<scales pt_clust_5="13000.00000" pt_clust_6="13000.00000" pt_clust_7="13000.00000" pt_clust_8="13000.00000" pt_clust_9="56.50251"></scales>
<clustering>
<clus scale="   56.503">  2  9  1 -1</clus>
<clus scale="   90.250">  7  8 -1 -1</clus>
<clus scale="  100.369">  5  6 -1 -1</clus>
<clus scale="  113.771">  1  7  2 -1</clus>
<clus scale="   56.503">  2  5  1 -1</clus>
</clustering>
</event>
<event>
 9    1  0.1504846E-005  0.1174034E+03  0.7546771E-02  0.1248335E+00
         21   -1    0    0  501  502  0.00000000000E+00  0.00000000000E+00  0.61986270186E+02  0.61986270186E+02  0.00000000000E+00 0. -1.
          1   -1    0    0  502    0 -0.00000000000E+00 -0.00000000000E+00 -0.57860351643E+03  0.57860351643E+03  0.00000000000E+00 0. -1.
         23    2    1    2    0    0  0.80334392236E+02  0.16390195028E+02 -0.38270104143E+03  0.40243139239E+03  0.93641259063E+02 0.  0.
         23    2    1    2    0    0 -0.52667822943E+02 -0.86362227330E+01 -0.16498586091E+03  0.19583952522E+03  0.91018137871E+02 0.  0.
        -11    1    3    3    0    0  0.98597675943E+01  0.40083395567E+02 -0.21588897447E+03  0.21979977915E+03  0.00000000000E+00 0. -1.
         11    1    3    3    0    0  0.70474624642E+02 -0.23693200540E+02 -0.16681206697E+03  0.18263161325E+03  0.00000000000E+00 0.  1.
        -13    1    4    4    0    0  0.15182517949E+02 -0.21941518881E+02 -0.14823488940E+02  0.30523350511E+02  0.00000000000E+00 0.  1.
         13    1    4    4    0    0 -0.67850340892E+02  0.13305296147E+02 -0.15016237197E+03  0.16531617471E+03  0.00000000000E+00 0. -1.
          1    1    1    2  501    0 -0.27666569293E+02 -0.77539722945E+01  0.31069656105E+02  0.42318868999E+02  0.00000000000E+00 0. -1.
<scales pt_clust_5="13000.00000" pt_clust_6="13000.00000" pt_clust_7="13000.00000" pt_clust_8="13000.00000" pt_clust_9="28.73261"></scales>
<clustering>
<clus scale="   28.733">  1  9  2 -1</clus>
<clus scale="   91.018">  7  8 -1 -1</clus>
<clus scale="   93.641">  5  6 -1 -1</clus>
<clus scale="  115.322">  1  7  2 -1</clus>
<clus scale="   28.733">  1  5  2 -1</clus>
</clustering>
</event>
<event>
 9    1  0.1504846E-005  0.1243617E+03  0.7546771E-02  0.1236544E+00
         21   -1    0    0  501  502  0.00000000000E+00  0.00000000000E+00  0.26237154919E+03  0.26237154919E+03  0.00000000000E+00 0.  1.
         -4   -1    0    0    0  501 -0.00000000000E+00 -0.00000000000E+00 -0.12524247916E+03  0.12524247916E+03  0.00000000000E+00 0.  1.
         23    2    1    2    0    0  0.37619231704E+02  0.41072684110E+02  0.20555066335E+02  0.10805661204E+03  0.90285927357E+02 0.  0.
         23    2    1    2    0    0 -0.46044320678E+02 -0.11776972092E+03  0.22578685750E+02  0.15794928594E+03  0.91915141543E+02 0.  0.
        -11    1    3    3    0    0 -0.27570248319E+02  0.11645615038E+02  0.20948634532E+02  0.36531961770E+02  0.00000000000E+00 0.  1.
         11    1    3    3    0    0  0.65189480023E+02  0.29427069071E+02 -0.39356819650E+00  0.71524650266E+02  0.00000000000E+00 0. -1.
        -11    1    4    4    0    0 -0.38230382280E+02  0.68106053512E-01  0.55969458187E+01  0.38637967988E+02  0.00000000000E+00 0. -1.
         11    1    4    4    0    0 -0.78139383982E+01 -0.11783782697E+03  0.16981739932E+02  0.11931131795E+03  0.00000000000E+00 0.  1.
         -4    1    1    2    0  502  0.84250889745E+01  0.76697036812E+02  0.93995317939E+02  0.12160813038E+03  0.00000000000E+00 0.  1.
<scales pt_clust_5="13000.00000" pt_clust_6="13000.00000" pt_clust_7="13000.00000" pt_clust_8="13000.00000" pt_clust_9="77.15839"></scales>
<clustering>
<clus scale="   77.158">  1  9  2 -1</clus>
<clus scale="   90.286">  5  6 -1 -1</clus>
<clus scale="   91.915">  7  8 -1 -1</clus>
<clus scale="  123.162">  2  5  1 -1</clus>
<clus scale="   77.158">  1  5  2 -1</clus>
</clustering>
</event>
<event>
 9    1  0.1504846E-005  0.9914410E+02  0.7546771E-02  0.1282728E+00
          4   -1    0    0  502    0 -0.00000000000E+00  0.00000000000E+00  0.48092259904E+02  0.48092259904E+02  0.00000000000E+00 0. -1.
         21   -1    0    0  501  502  0.00000000000E+00 -0.00000000000E+00 -0.31246910465E+03  0.31246910465E+03  0.00000000000E+00 0. -1.
         23    2    1    2    0    0  0.18914480788E+02 -0.27826490566E+02 -0.59701892445E+02  0.11459760401E+03  0.91848917920E+02 0.  0.
         23    2    1    2    0    0 -0.40510770321E+02  0.21456517271E+02 -0.11455694868E+03  0.15307548971E+03  0.90594185320E+02 0.  0.
        -11    1    3    3    0    0  0.20134931772E+01 -0.58169129010E+02 -0.19303634498E+02  0.61321546208E+02  0.00000000000E+00 0. -1.
         11    1    3    3    0    0  0.16900987610E+02  0.30342638444E+02 -0.40398257947E+02  0.53276057804E+02  0.00000000000E+00 0.  1.
        -13    1    4    4    0    0 -0.18765617639E+02  0.43296556998E+02 -0.11272297664E+03  0.12220151274E+03  0.00000000000E+00 0.  1.
         13    1    4    4    0    0 -0.21745152682E+02 -0.21840039728E+02 -0.18339720384E+01  0.30873976969E+02  0.00000000000E+00 0. -1.
          4    1    1    2  501    0  0.21596289533E+02  0.63699732954E+01 -0.90118003621E+02  0.92888270831E+02  0.00000000000E+00 0. -1.
<scales pt_clust_5="13000.00000" pt_clust_6="13000.00000" pt_clust_7="13000.00000" pt_clust_8="13000.00000" pt_clust_9="22.51613"></scales>
<clustering>
<clus scale="   22.516">  2  9  1 -1</clus>
<clus scale="   90.594">  7  8 -1 -1</clus>
<clus scale="   91.849">  5  6 -1 -1</clus>
<clus scale="   97.983">  2  7  1 -1</clus>
<clus scale="   22.516">  2  5  1 -1</clus>
</clustering>
</event>
<event>
 9    1  0.1504846E-005  0.1777913E+03  0.7546771E-02  0.1194992E+00
         21   -1    0    0  501  502  0.00000000000E+00  0.00000000000E+00  0.51725019503E+03  0.51725019503E+03  0.00000000000E+00 0. -1.
          1   -1    0    0  502    0 -0.00000000000E+00 -0.00000000000E+00 -0.40795342230E+03  0.40795342230E+03  0.00000000000E+00 0. -1.
         23    2    1    2    0    0 -0.39045311223E+02  0.22905809021E+02 -0.27115036086E+03  0.28953063987E+03  0.90863968738E+02 0.  0.
         23    2    1    2    0    0 -0.83671170463E+02  0.74518137716E+02 -0.68292895910E+02  0.16036426268E+03  0.92189801492E+02 0.  0.
        -11    1    4    4    0    0 -0.36888021602E+02  0.33757736551E+02 -0.82721310800E+02  0.96659847792E+02  0.00000000000E+00 0. -1.
         11    1    4    4    0    0 -0.46783148861E+02  0.40760401165E+02  0.14428414890E+02  0.63704414892E+02  0.00000000000E+00 0.  1.
        -13    1    3    3    0    0 -0.30385911461E+02 -0.32730207960E+02 -0.10516571023E+03  0.11425583896E+03  0.00000000000E+00 0.  1.
         13    1    3    3    0    0 -0.86593997620E+01  0.55636016981E+02 -0.16598465063E+03  0.17527480091E+03  0.00000000000E+00 0. -1.
          1    1    1    2  501    0  0.12271648169E+03 -0.97423946737E+02  0.44874002949E+03  0.47530871478E+03  0.00000000000E+00 0. -1.
<scales pt_clust_5="13000.00000" pt_clust_6="13000.00000" pt_clust_7="13000.00000" pt_clust_8="13000.00000" pt_clust_9="152.02230"></scales>
<clustering>
<clus scale="   90.864">  7  8 -1 -1</clus>
<clus scale="   92.190">  5  6 -1 -1</clus>
<clus scale="  101.516">  2  7  1 -1</clus>
<clus scale="  152.022">  1  9  2 -1</clus>
<clus scale="  152.022">  1  5  2 -1</clus>
</clustering>
</event>
<event>
 9    1  0.1504846E-005  0.3733652E+03  0.7546771E-02  0.1053429E+00
         21   -1    0    0  501  502  0.00000000000E+00  0.00000000000E+00  0.22810620908E+03  0.22810620908E+03  0.00000000000E+00 0. -1.
          1   -1    0    0  502    0 -0.00000000000E+00 -0.00000000000E+00 -0.12534312661E+04  0.12534312661E+04  0.00000000000E+00 0. -1.
         23    2    1    2    0    0 -0.82650020723E+02 -0.35850321505E+03 -0.10194556372E+04  0.10876688217E+04  0.91531898459E+02 0.  0.
         23    2    1    2    0    0  0.44020724939E+02  0.33108246574E+03 -0.10340459229E+02  0.34628598670E+03  0.90849524735E+02 0.  0.
        -11    1    4    4    0    0  0.11574055755E+02  0.58696306256E+02  0.33384875460E+02  0.68511057824E+02  0.00000000000E+00 0.  1.
         11    1    4    4    0    0  0.32446669185E+02  0.27238615948E+03 -0.43725334689E+02  0.27777492888E+03  0.00000000000E+00 0. -1.
        -13    1    3    3    0    0 -0.41122809948E+02 -0.31032138000E+03 -0.88965385138E+03  0.94311951504E+03  0.00000000000E+00 0. -1.
         13    1    3    3    0    0 -0.41527210774E+02 -0.48181835053E+02 -0.12980178582E+03  0.14454930670E+03  0.00000000000E+00 0.  1.
          1    1    1    2  501    0  0.38629295783E+02  0.27420749313E+02  0.44710393638E+01  0.47582666787E+02  0.00000000000E+00 0. -1.
<scales pt_clust_5="13000.00000" pt_clust_6="13000.00000" pt_clust_7="13000.00000" pt_clust_8="13000.00000" pt_clust_9="47.37214"></scales>
<clustering>
<clus scale="   47.372">  1  9  2 -1</clus>
<clus scale="   90.850">  5  6 -1 -1</clus>
<clus scale="   91.532">  7  8 -1 -1</clus>
<clus scale="  373.198">  1  5  2 -1</clus>
<clus scale="   47.372">  1  5  2 -1</clus>
</clustering>
</event>
<event>
 9    1  0.1504846E-005  0.9266494E+02  0.7546771E-02  0.1296573E+00
         21   -1    0    0  501  502  0.00000000000E+00  0.00000000000E+00  0.11685932519E+03  0.11685932519E+03  0.00000000000E+00 0. -1.
          1   -1    0    0  502    0 -0.00000000000E+00 -0.00000000000E+00 -0.38786827725E+03  0.38786827725E+03  0.00000000000E+00 0. -1.
         23    2    1    2    0    0 -0.11620794378E+02  0.14152644197E+02 -0.31433460104E+03  0.32786768417E+03  0.91409171914E+02 0.  0.
         23    2    1    2    0    0 -0.74699099462E+01 -0.22332477087E+01 -0.32775342656E+02  0.97500684825E+02  0.91495210286E+02 0.  0.
        -11    1    4    4    0    0 -0.43366104480E+02 -0.17879930685E+02 -0.74858243111E+00  0.46913444925E+02  0.00000000000E+00 0.  1.
         11    1    4    4    0    0  0.35896194534E+02  0.15646682976E+02 -0.32026760225E+02  0.50587239900E+02  0.00000000000E+00 0. -1.
        -13    1    3    3    0    0  0.39157778912E+02  0.12358036832E+02 -0.16865198082E+03  0.17357863739E+03  0.00000000000E+00 0.  1.
         13    1    3    3    0    0 -0.50778573290E+02  0.17946073651E+01 -0.14568262022E+03  0.15428904677E+03  0.00000000000E+00 0. -1.
          1    1    1    2  501    0  0.19090704324E+02 -0.11919396488E+02  0.76100991639E+02  0.79359233443E+02  0.00000000000E+00 0. -1.
<scales pt_clust_5="13000.00000" pt_clust_6="13000.00000" pt_clust_7="13000.00000" pt_clust_8="13000.00000" pt_clust_9="22.50615"></scales>
<clustering>
<clus scale="   22.506">  1  9  2 -1</clus>
<clus scale="   91.409">  7  8 -1 -1</clus>
<clus scale="   91.495">  5  6 -1 -1</clus>
<clus scale="   92.580">  2  7  1 -1</clus>
<clus scale="   22.506">  1  5  2 -1</clus>
</clustering>
</event>
<event>
 9    1  0.1504846E-005  0.1065187E+03  0.7546771E-02  0.1267586E+00
         21   -1    0    0  501  502  0.00000000000E+00  0.00000000000E+00  0.73506939612E+02  0.73506939612E+02  0.00000000000E+00 0. -1.
         -1   -1    0    0    0  501 -0.00000000000E+00 -0.00000000000E+00 -0.29708850012E+03  0.29708850012E+03  0.00000000000E+00 0.  1.
         23    2    1    2    0    0 -0.36194694013E+02 -0.41800737665E+02 -0.21813247118E+03  0.24313235510E+03  0.92055470073E+02 0.  0.
         23    2    1    2    0    0  0.14292060192E+02  0.48641780455E+02 -0.72473443293E+01  0.10444659151E+03  0.91029010140E+02 0.  0.
        -13    1    4    4    0    0 -0.30306380040E+02 -0.43454904520E+01 -0.16156675487E+02  0.34617887301E+02  0.00000000000E+00 0.  1.
         13    1    4    4    0    0  0.44598440232E+02  0.52987270907E+02  0.89093311573E+01  0.69828704205E+02  0.00000000000E+00 0. -1.
        -13    1    3    3    0    0  0.26009088465E+02 -0.64375751381E+01 -0.23059628899E+02  0.35350552207E+02  0.00000000000E+00 0. -1.
         13    1    3    3    0    0 -0.62203782478E+02 -0.35363162527E+02 -0.19507284228E+03  0.20778180290E+03  0.00000000000E+00 0.  1.
         -1    1    1    2    0  502  0.21902633822E+02 -0.68410427898E+01  0.17982549998E+01  0.23016493126E+02  0.00000000000E+00 0.  1.
<scales pt_clust_5="13000.00000" pt_clust_6="13000.00000" pt_clust_7="13000.00000" pt_clust_8="13000.00000" pt_clust_9="22.94614"></scales>
<clustering>
<clus scale="   22.946">  1  9  2 -1</clus>
<clus scale="   91.029">  5  6 -1 -1</clus>
<clus scale="   92.055">  7  8 -1 -1</clus>
<clus scale="  105.633">  1  5  2 -1</clus>
<clus scale="   22.946">  1  5  2 -1</clus>
</clustering>
</event>
<event>
 9    1  0.1504846E-005  0.1035711E+03  0.7546771E-02  0.1274667E+00
         21   -1    0    0  501  502  0.00000000000E+00  0.00000000000E+00  0.86897249188E+02  0.86897249188E+02  0.00000000000E+00 0.  1.
          1   -1    0    0  502    0 -0.00000000000E+00 -0.00000000000E+00 -0.46369475637E+03  0.46369475637E+03  0.00000000000E+00 0. -1.
         23    2    1    2    0    0  0.36915128087E+01 -0.35403111372E+02 -0.21521801967E+03  0.23560556563E+03  0.89017857764E+02 0.  0.
         23    2    1    2    0    0 -0.29362641018E+02  0.54254696202E+02 -0.22104362879E+03  0.24752998603E+03  0.92763524124E+02 0.  0.
        -13    1    4    4    0    0  0.21391165053E+02 -0.84392617116E+01 -0.18494399263E+02  0.29510098012E+02  0.00000000000E+00 0.  1.
         13    1    4    4    0    0 -0.50753806071E+02  0.62693957914E+02 -0.20254922953E+03  0.21801988802E+03  0.00000000000E+00 0. -1.
        -13    1    3    3    0    0  0.74504523722E+01  0.28512337182E+02 -0.94090245536E+02  0.98597347414E+02  0.00000000000E+00 0. -1.
         13    1    3    3    0    0 -0.37589395635E+01 -0.63915448554E+02 -0.12112777413E+03  0.13700821821E+03  0.00000000000E+00 0.  1.
          1    1    1    2  501    0  0.25671128209E+02 -0.18851584830E+02  0.59464141282E+02  0.67456453899E+02  0.00000000000E+00 0. -1.
<scales pt_clust_5="13000.00000" pt_clust_6="13000.00000" pt_clust_7="13000.00000" pt_clust_8="13000.00000" pt_clust_9="31.84948"></scales>
<clustering>
<clus scale="   31.849">  1  9  2 -1</clus>
<clus scale="   89.018">  7  8 -1 -1</clus>
<clus scale="   92.764">  5  6 -1 -1</clus>
<clus scale="  100.230">  2  7  1 -1</clus>
<clus scale="   31.849">  1  5  2 -1</clus>
</clustering>
</event>
<event>
 9    1  0.1504846E-005  0.1046062E+03  0.7546771E-02  0.1273056E+00
         -1   -1    0    0    0  501 -0.00000000000E+00  0.00000000000E+00  0.16847838272E+03  0.16847838272E+03  0.00000000000E+00 0.  1.
         21   -1    0    0  501  502  0.00000000000E+00 -0.00000000000E+00 -0.18216998260E+03  0.18216998260E+03  0.00000000000E+00 0.  1.
         23    2    1    2    0    0  0.20021680482E+02  0.41474972986E+02  0.95555044339E+02  0.14303673488E+03  0.95956760848E+02 0.  0.
         23    2    1    2    0    0 -0.27210340901E+02 -0.21930372674E+02 -0.13885653483E+01  0.97761580742E+02  0.91291043689E+02 0.  0.
        -11    1    4    4    0    0  0.25533438476E+02 -0.31222032312E+02  0.12875674996E+02  0.42338573295E+02  0.00000000000E+00 0. -1.
         11    1    4    4    0    0 -0.52743779377E+02  0.92916596379E+01 -0.14264240345E+02  0.55423007447E+02  0.00000000000E+00 0.  1.
        -13    1    3    3    0    0  0.25551930354E+02  0.71387406715E+02  0.72030938045E+02  0.10458259424E+03  0.00000000000E+00 0.  1.
         13    1    3    3    0    0 -0.55302498724E+01 -0.29912433729E+02  0.23524106294E+02  0.38454140638E+02  0.00000000000E+00 0. -1.
         -1    1    1    2    0  502  0.71886604195E+01 -0.19544600312E+02 -0.10785807888E+03  0.10985004970E+03  0.00000000000E+00 0.  1.
<scales pt_clust_5="13000.00000" pt_clust_6="13000.00000" pt_clust_7="13000.00000" pt_clust_8="13000.00000" pt_clust_9="20.82470"></scales>
<clustering>
<clus scale="   20.825">  2  9  1 -1</clus>
<clus scale="   91.291">  5  6 -1 -1</clus>
<clus scale="   95.957">  7  8 -1 -1</clus>
<clus scale="  100.343">  2  5  1 -1</clus>
<clus scale="   20.825">  2  5  1 -1</clus>
</clustering>
</event>
<event>
 9    1  0.1504846E-005  0.1668176E+03  0.7546771E-02  0.1181479E+00
         21   -1    0    0  501  502  0.00000000000E+00  0.00000000000E+00  0.13835278704E+03  0.13835278704E+03  0.00000000000E+00 0. -1.
          3   -1    0    0  502    0 -0.00000000000E+00 -0.00000000000E+00 -0.29154598202E+03  0.29154598202E+03  0.00000000000E+00 0. -1.
         23    2    1    2    0    0 -0.73174265208E+01 -0.15266210940E+03 -0.14196114181E+03  0.22837637273E+03  0.92970626855E+02 0.  0.
         23    2    1    2    0    0 -0.90070339474E+01  0.11940004539E+03 -0.38725837943E+02  0.15538389709E+03  0.91142566615E+02 0.  0.
        -11    1    4    4    0    0 -0.37741707989E+02  0.11369035625E+03 -0.39326311775E+02  0.12608129292E+03  0.00000000000E+00 0.  1.
         11    1    4    4    0    0  0.28734674041E+02  0.57096891463E+01  0.60047383193E+00  0.29302604171E+02  0.00000000000E+00 0. -1.
        -11    1    3    3    0    0 -0.27691851447E+02 -0.79749831052E+02 -0.23222346326E+02  0.87556562052E+02  0.00000000000E+00 0.  1.
         11    1    3    3    0    0  0.20374424927E+02 -0.72912278348E+02 -0.11873879549E+03  0.14081981068E+03  0.00000000000E+00 0. -1.
          3    1    1    2  501    0  0.16324460468E+02  0.33262064007E+02  0.27493784778E+02  0.46138499250E+02  0.00000000000E+00 0. -1.
<scales pt_clust_5="13000.00000" pt_clust_6="13000.00000" pt_clust_7="13000.00000" pt_clust_8="13000.00000" pt_clust_9="37.05203"></scales>
<clustering>
<clus scale="   37.052">  1  9  2 -1</clus>
<clus scale="   91.143">  5  6 -1 -1</clus>
<clus scale="   92.971">  7  8 -1 -1</clus>
<clus scale="  165.806">  1  5  2 -1</clus>
<clus scale="   37.052">  1  5  2 -1</clus>
</clustering>
</event>
<event>
 9    1  0.1504846E-005  0.1229735E+03  0.7546771E-02  0.1238940E+00
         -2   -1    0    0    0  501 -0.00000000000E+00  0.00000000000E+00  0.81264768439E+03  0.81264768439E+03  0.00000000000E+00 0.  1.
         21   -1    0    0  501  502  0.00000000000E+00 -0.00000000000E+00 -0.49414491988E+02  0.49414491988E+02  0.00000000000E+00 0.  1.
         23    2    1    2    0    0 -0.70394614171E+02 -0.16688177618E+02  0.47387747842E+03  0.48789453889E+03  0.90814754018E+02 0.  0.
         23    2    1    2    0    0  0.10035835869E+03 -0.98021100529E+01  0.30242800416E+03  0.33209096822E+03  0.93025974600E+02 0.  0.
        -11    1    3    3    0    0  0.21853366495E+02 -0.82940982720E+01  0.87409633814E+02  0.90480969142E+02  0.00000000000E+00 0.  1.
         11    1    3    3    0    0 -0.92247980666E+02 -0.83940793463E+01  0.38646784460E+03  0.39741356974E+03  0.00000000000E+00 0. -1.
        -13    1    4    4    0    0  0.77798691191E+01 -0.22770609985E+02  0.11804252185E+02  0.26802376988E+02  0.00000000000E+00 0. -1.
         13    1    4    4    0    0  0.92578489575E+02  0.12968499932E+02  0.29062375198E+03  0.30528859123E+03  0.00000000000E+00 0.  1.
         -2    1    1    2    0  502 -0.29963744523E+02  0.26490287671E+02 -0.13072290175E+02  0.42076669274E+02  0.00000000000E+00 0.  1.
<scales pt_clust_5="13000.00000" pt_clust_6="13000.00000" pt_clust_7="13000.00000" pt_clust_8="13000.00000" pt_clust_9="39.99452"></scales>
<clustering>
<clus scale="   39.995">  2  9  1 -1</clus>
<clus scale="   90.815">  5  6 -1 -1</clus>
<clus scale="   93.026">  7  8 -1 -1</clus>
<clus scale="  121.309">  1  5  2 -1</clus>
<clus scale="   39.995">  2  5  1 -1</clus>
</clustering>
</event>
<event>
 9    1  0.1504846E-005  0.1363343E+03  0.7546771E-02  0.1218526E+00
         -1   -1    0    0    0  501 -0.00000000000E+00  0.00000000000E+00  0.37408338170E+03  0.37408338170E+03  0.00000000000E+00 0.  1.
         21   -1    0    0  501  502  0.00000000000E+00 -0.00000000000E+00 -0.82240088442E+02  0.82240088442E+02  0.00000000000E+00 0.  1.
         23    2    1    2    0    0  0.11043648752E+03 -0.35363937307E+02  0.23679691912E+03  0.27898198625E+03  0.91166561357E+02 0.  0.
         23    2    1    2    0    0 -0.76907803900E+02  0.87764066784E+01  0.61664970793E+02  0.13404165442E+03  0.90403323406E+02 0.  0.
        -11    1    3    3    0    0  0.66124946142E+02  0.22968861743E+02  0.82621629859E+02  0.10828855356E+03  0.00000000000E+00 0.  1.
         11    1    3    3    0    0  0.44311541382E+02 -0.58332799050E+02  0.15417528926E+03  0.17069343269E+03  0.00000000000E+00 0. -1.
        -13    1    4    4    0    0 -0.82558237943E+02  0.30460987767E+02  0.67477272886E+02  0.11089146398E+03  0.00000000000E+00 0. -1.
         13    1    4    4    0    0  0.56504340426E+01 -0.21684581088E+02 -0.58123020938E+01  0.23150190442E+02  0.00000000000E+00 0.  1.
         -1    1    1    2    0  502 -0.33528683623E+02  0.26587530629E+02 -0.66185966524E+01  0.43299829469E+02  0.00000000000E+00 0.  1.
<scales pt_clust_5="13000.00000" pt_clust_6="13000.00000" pt_clust_7="13000.00000" pt_clust_8="13000.00000" pt_clust_9="42.79100"></scales>
<clustering>
<clus scale="   42.791">  2  9  1 -1</clus>
<clus scale="   90.403">  7  8 -1 -1</clus>
<clus scale="   91.167">  5  6 -1 -1</clus>
<clus scale="  135.825">  2  7  1 -1</clus>
<clus scale="   42.791">  2  5  1 -1</clus>
</clustering>
</event>
<event>
 9    1  0.1504846E-005  0.1051554E+03  0.7546771E-02  0.1270278E+00
          1   -1    0    0  502    0 -0.00000000000E+00  0.00000000000E+00  0.37942863741E+03  0.37942863741E+03  0.00000000000E+00 0. -1.
         21   -1    0    0  501  502  0.00000000000E+00 -0.00000000000E+00 -0.13127571767E+03  0.13127571767E+03  0.00000000000E+00 0.  1.
         23    2    1    2    0    0  0.40731981997E+02  0.24786190637E+02  0.32845798037E+03  0.34486089645E+03  0.93653315098E+02 0.  0.
         23    2    1    2    0    0 -0.23140082033E+02 -0.54967302141E+02 -0.59549274767E+02  0.12520878030E+03  0.92597272299E+02 0.  0.
        -11    1    3    3    0    0  0.65275023736E+02 -0.51857802878E+01  0.22712122586E+03  0.23637210554E+03  0.00000000000E+00 0. -1.
         11    1    3    3    0    0 -0.24543041740E+02  0.29971970925E+02  0.10133675451E+03  0.10848879092E+03  0.00000000000E+00 0.  1.
        -11    1    4    4    0    0 -0.51025642577E+02 -0.52738394878E+01 -0.39708357151E+02  0.64870511105E+02  0.00000000000E+00 0.  1.
         11    1    4    4    0    0  0.27885560545E+02 -0.49693462653E+02 -0.19840917616E+02  0.60338269193E+02  0.00000000000E+00 0. -1.
          1    1    1    2  501    0 -0.17591899964E+02  0.30181111504E+02 -0.20755785869E+02  0.40634678330E+02  0.00000000000E+00 0. -1.
<scales pt_clust_5="13000.00000" pt_clust_6="13000.00000" pt_clust_7="13000.00000" pt_clust_8="13000.00000" pt_clust_9="34.93386"></scales>
<clustering>
<clus scale="   34.934">  2  9  1 -1</clus>
<clus scale="   92.597">  7  8 -1 -1</clus>
<clus scale="   93.653">  5  6 -1 -1</clus>
<clus scale="  104.216">  2  7  1 -1</clus>
<clus scale="   34.934">  2  5  1 -1</clus>
</clustering>
</event>
<event>
 9    1  0.1504846E-005  0.9626593E+02  0.7546771E-02  0.1288804E+00
         21   -1    0    0  501  502  0.00000000000E+00  0.00000000000E+00  0.44578037653E+02  0.44578037653E+02  0.00000000000E+00 0.  1.
         -1   -1    0    0    0  501 -0.00000000000E+00 -0.00000000000E+00 -0.29585283723E+03  0.29585283723E+03  0.00000000000E+00 0.  1.
         23    2    1    2    0    0 -0.38718316529E+02 -0.11974632444E+02 -0.13657977174E+03  0.16896634269E+03  0.90846524745E+02 0.  0.
         23    2    1    2    0    0  0.16828467075E+02  0.58850567767E+01 -0.11571603761E+03  0.14872050217E+03  0.91704717472E+02 0.  0.
        -13    1    3    3    0    0 -0.19029050505E+02  0.17460922480E+02  0.20284529875E+01  0.25905659584E+02  0.00000000000E+00 0. -1.
         13    1    3    3    0    0 -0.19689266023E+02 -0.29435554923E+02 -0.13860822472E+03  0.14306068311E+03  0.00000000000E+00 0.  1.
        -13    1    4    4    0    0  0.23781833357E+02 -0.26800984046E+02 -0.10886229435E+03  0.11460744948E+03  0.00000000000E+00 0. -1.
         13    1    4    4    0    0 -0.69533662825E+01  0.32686040823E+02 -0.68537432626E+01  0.34113052693E+02  0.00000000000E+00 0.  1.
         -1    1    1    2    0  502  0.21889849454E+02  0.60895756671E+01  0.10210097701E+01  0.22744030027E+02  0.00000000000E+00 0.  1.
<scales pt_clust_5="13000.00000" pt_clust_6="13000.00000" pt_clust_7="13000.00000" pt_clust_8="13000.00000" pt_clust_9="22.72110"></scales>
<clustering>
<clus scale="   22.721">  1  9  2 -1</clus>
<clus scale="   90.847">  5  6 -1 -1</clus>
<clus scale="   91.705">  7  8 -1 -1</clus>
<clus scale="   95.449">  2  5  1 -1</clus>
<clus scale="   22.721">  1  5  2 -1</clus>
</clustering>
</event>
<event>
 9    1  0.1504846E-005  0.1164543E+03  0.7546771E-02  0.1249495E+00
         21   -1    0    0  501  502  0.00000000000E+00  0.00000000000E+00  0.23393049245E+03  0.23393049245E+03  0.00000000000E+00 0. -1.
         -4   -1    0    0    0  501 -0.00000000000E+00 -0.00000000000E+00 -0.69454805158E+02  0.69454805158E+02  0.00000000000E+00 0.  1.
         23    2    1    2    0    0 -0.22787407863E+02  0.71357070537E+02  0.59963657279E+02  0.13293843690E+03  0.92010272999E+02 0.  0.
         23    2    1    2    0    0  0.22663074622E+01 -0.68655506819E+02  0.85568629808E+02  0.14238859242E+03  0.90740322228E+02 0.  0.
        -13    1    4    4    0    0  0.27301392555E+02 -0.86567748689E+01 -0.67977261581E+01  0.29436624594E+02  0.00000000000E+00 0.  1.
         13    1    4    4    0    0 -0.25035085093E+02 -0.59998731950E+02  0.92366355966E+02  0.11295196783E+03  0.00000000000E+00 0. -1.
        -13    1    3    3    0    0 -0.34161863550E+02  0.89861294115E+02  0.54625913407E+02  0.11057158549E+03  0.00000000000E+00 0. -1.
         13    1    3    3    0    0  0.11374455687E+02 -0.18504223577E+02  0.53377438718E+01  0.22366851411E+02  0.00000000000E+00 0.  1.
         -4    1    1    2    0  502  0.20521100401E+02 -0.27015637183E+01  0.18943400204E+02  0.28058268291E+02  0.00000000000E+00 0.  1.
<scales pt_clust_5="13000.00000" pt_clust_6="13000.00000" pt_clust_7="13000.00000" pt_clust_8="13000.00000" pt_clust_9="20.69816"></scales>
<clustering>
<clus scale="   20.698">  1  9  2 -1</clus>
<clus scale="   90.740">  5  6 -1 -1</clus>
<clus scale="   92.010">  7  8 -1 -1</clus>
<clus scale="  115.454">  1  5  2 -1</clus>
<clus scale="   20.698">  1  5  2 -1</clus>
</clustering>
</event>
<event>
 9    1  0.1504846E-005  0.1785899E+03  0.7546771E-02  0.1169233E+00
          1   -1    0    0  502    0 -0.00000000000E+00  0.00000000000E+00  0.66090597109E+03  0.66090597109E+03  0.00000000000E+00 0. -1.
         21   -1    0    0  501  502  0.00000000000E+00 -0.00000000000E+00 -0.76415516635E+02  0.76415516635E+02  0.00000000000E+00 0.  1.
         23    2    1    2    0    0 -0.93450900758E+01 -0.15193734127E+03  0.31353786360E+03  0.36047078658E+03  0.91983203268E+02 0.  0.
         23    2    1    2    0    0  0.45193944997E+02  0.14955090973E+03  0.28551290420E+03  0.33808424426E+03  0.91517050242E+02 0.  0.
        -11    1    3    3    0    0  0.22237147627E+02 -0.14025133928E+03  0.27339069034E+03  0.30807044401E+03  0.00000000000E+00 0.  1.
         11    1    3    3    0    0 -0.31582237703E+02 -0.11686001990E+02  0.40147173257E+02  0.52400342569E+02  0.00000000000E+00 0. -1.
        -13    1    4    4    0    0 -0.72132037322E+01  0.12095232145E+03  0.19848655131E+03  0.23254764119E+03  0.00000000000E+00 0. -1.
         13    1    4    4    0    0  0.52407148729E+02  0.28598588278E+02  0.87026352894E+02  0.10553660307E+03  0.00000000000E+00 0.  1.
          1    1    1    2  501    0 -0.35848854921E+02  0.23864315416E+01 -0.14560313351E+02  0.38766456886E+02  0.00000000000E+00 0. -1.
<scales pt_clust_5="13000.00000" pt_clust_6="13000.00000" pt_clust_7="13000.00000" pt_clust_8="13000.00000" pt_clust_9="35.92820"></scales>
<clustering>
<clus scale="   35.928">  2  9  1 -1</clus>
<clus scale="   91.517">  7  8 -1 -1</clus>
<clus scale="   91.983">  5  6 -1 -1</clus>
<clus scale="  178.350">  2  7  1 -1</clus>
<clus scale="   35.928">  2  5  1 -1</clus>
</clustering>
</event>
<event>
 9    1  0.1504846E-005  0.1140269E+03  0.7546771E-02  0.1262576E+00
          4   -1    0    0  502    0 -0.00000000000E+00  0.00000000000E+00  0.36421933278E+03  0.36421933278E+03  0.00000000000E+00 0. -1.
         21   -1    0    0  501  502  0.00000000000E+00 -0.00000000000E+00 -0.59547594198E+02  0.59547594198E+02  0.00000000000E+00 0. -1.
         23    2    1    2    0    0 -0.54510162241E+01 -0.65525407395E+01  0.17610006396E+03  0.20979717811E+03  0.11371444080E+03 0.  0.
         23    2    1    2    0    0  0.29448973611E+01 -0.19015038120E+02  0.15144016705E+03  0.17957571353E+03  0.94567798959E+02 0.  0.
        -11    1    3    3    0    0 -0.40285364744E+02  0.32336478615E+02  0.13095797256E+03  0.14077836851E+03  0.00000000000E+00 0.  1.
         11    1    3    3    0    0  0.34834348520E+02 -0.38889019355E+02  0.45142091403E+02  0.69018809606E+02  0.00000000000E+00 0. -1.
        -13    1    4    4    0    0 -0.22036659313E+02  0.66353970139E+01 -0.95206695484E+00  0.23033655348E+02  0.00000000000E+00 0.  1.
         13    1    4    4    0    0  0.24981556674E+02 -0.25650435134E+02  0.15239223400E+03  0.15654205818E+03  0.00000000000E+00 0. -1.
          4    1    1    2  501    0  0.25061188630E+01  0.25567578860E+02 -0.22868492430E+02  0.34394035334E+02  0.00000000000E+00 0. -1.
<scales pt_clust_5="13000.00000" pt_clust_6="13000.00000" pt_clust_7="13000.00000" pt_clust_8="13000.00000" pt_clust_9="25.69011"></scales>
<clustering>
<clus scale="   25.690">  2  9  1 -1</clus>
<clus scale="   94.568">  7  8 -1 -1</clus>
<clus scale="   94.943">  2  7  1 -1</clus>
<clus scale="  113.714">  5  6 -1 -1</clus>
<clus scale="   25.690">  2  5  1 -1</clus>
</clustering>
</event>
<event>
 9    1  0.1504846E-005  0.2641380E+03  0.7546771E-02  0.1104813E+00
          2   -1    0    0  502    0 -0.00000000000E+00  0.00000000000E+00  0.44764488727E+02  0.44764488727E+02  0.00000000000E+00 0. -1.
         21   -1    0    0  501  502  0.00000000000E+00 -0.00000000000E+00 -0.18011895555E+04  0.18011895555E+04  0.00000000000E+00 0.  1.
         23    2    1    2    0    0 -0.22965743061E+03 -0.34926824179E+02 -0.71581580875E+03  0.75790328586E+03  0.89792539668E+02 0.  0.
         23    2    1    2    0    0  0.26377769713E+03  0.35586621790E+02 -0.88581507664E+03  0.92953935023E+03  0.92357850031E+02 0.  0.
        -11    1    3    3    0    0 -0.24856165243E+02  0.23863809351E+02 -0.13190303026E+03  0.13632945294E+03  0.00000000000E+00 0.  1.
         11    1    3    3    0    0 -0.20480126537E+03 -0.58790633529E+02 -0.58391277849E+03  0.62157383292E+03  0.00000000000E+00 0. -1.
        -11    1    4    4    0    0  0.10148001248E+03 -0.27752900806E+02 -0.27772221648E+03  0.29698155829E+03  0.00000000000E+00 0. -1.
         11    1    4    4    0    0  0.16229768465E+03  0.63339522595E+02 -0.60809286016E+03  0.63255779194E+03  0.00000000000E+00 0.  1.
          2    1    1    2  501    0 -0.34120266522E+02 -0.65979761101E+00 -0.15479418137E+03  0.15851140813E+03  0.00000000000E+00 0. -1.
<scales pt_clust_5="13000.00000" pt_clust_6="13000.00000" pt_clust_7="13000.00000" pt_clust_8="13000.00000" pt_clust_9="34.12665"></scales>
<clustering>
<clus scale="   34.127">  2  9  1 -1</clus>
<clus scale="   89.793">  5  6 -1 -1</clus>
<clus scale="   92.358">  7  8 -1 -1</clus>
<clus scale="  263.252">  1  5  2 -1</clus>
<clus scale="   34.127">  2  5  1 -1</clus>
</clustering>
</event>
<event>
 9    1  0.1504846E-005  0.1500141E+03  0.7546771E-02  0.1201395E+00
         21   -1    0    0  501  502  0.00000000000E+00  0.00000000000E+00  0.66980321401E+02  0.66980321401E+02  0.00000000000E+00 0. -1.
          4   -1    0    0  502    0 -0.00000000000E+00 -0.00000000000E+00 -0.68118143518E+03  0.68118143518E+03  0.00000000000E+00 0. -1.
         23    2    1    2    0    0  0.83140821115E+02  0.55106856628E+02 -0.28038052973E+03  0.31048267106E+03  0.88527316648E+02 0.  0.
         23    2    1    2    0    0 -0.15076607426E+03 -0.78651637112E+02 -0.16651728821E+03  0.25569577763E+03  0.93465684933E+02 0.  0.
        -11    1    4    4    0    0 -0.12996851236E+03 -0.67255424687E+02 -0.17709025592E+03  0.22973041831E+03  0.00000000000E+00 0.  1.
         11    1    4    4    0    0 -0.20797561901E+02 -0.11396212425E+02  0.10572967712E+02  0.25965359326E+02  0.00000000000E+00 0. -1.
        -11    1    3    3    0    0  0.14757349074E+02 -0.23857669659E+02 -0.74756256504E+02  0.79846513009E+02  0.00000000000E+00 0.  1.
         11    1    3    3    0    0  0.68383472041E+02  0.78964526287E+02 -0.20562427322E+03  0.23063615805E+03  0.00000000000E+00 0. -1.
          4    1    1    2  501    0  0.67625253143E+02  0.23544780484E+02 -0.16730329584E+03  0.18198330789E+03  0.00000000000E+00 0. -1.
<scales pt_clust_5="13000.00000" pt_clust_6="13000.00000" pt_clust_7="13000.00000" pt_clust_8="13000.00000" pt_clust_9="71.60682"></scales>
<clustering>
<clus scale="   71.607">  1  9  2 -1</clus>
<clus scale="   88.527">  7  8 -1 -1</clus>
<clus scale="   93.466">  5  6 -1 -1</clus>
<clus scale="  146.988">  2  7  1 -1</clus>
<clus scale="   71.607">  1  5  2 -1</clus>
</clustering>
</event>
<event>
 9    1  0.1504846E-005  0.1340431E+03  0.7546771E-02  0.1237676E+00
         21   -1    0    0  501  502  0.00000000000E+00  0.00000000000E+00  0.13826073862E+03  0.13826073862E+03  0.00000000000E+00 0.  1.
         -2   -1    0    0    0  501 -0.00000000000E+00 -0.00000000000E+00 -0.43452219428E+03  0.43452219428E+03  0.00000000000E+00 0.  1.
         23    2    1    2    0    0 -0.26497019184E+02  0.11890683889E+02  0.11661569300E+02  0.96816318352E+02  0.91618376496E+02 0.  0.
         23    2    1    2    0    0 -0.69013086575E+02  0.23499450490E+02 -0.34779311082E+03  0.36658532885E+03  0.90054012137E+02 0.  0.
        -11    1    4    4    0    0 -0.48023489819E+02  0.52438192077E+02 -0.29032093160E+03  0.29890176126E+03  0.00000000000E+00 0.  1.
         11    1    4    4    0    0 -0.20989596756E+02 -0.28938741587E+02 -0.57472179224E+02  0.67683567588E+02  0.00000000000E+00 0. -1.
        -11    1    3    3    0    0 -0.44039136842E+02  0.42197033301E+02  0.95535950886E+01  0.61735778705E+02  0.00000000000E+00 0.  1.
         11    1    3    3    0    0  0.17542117659E+02 -0.30306349412E+02  0.21079742117E+01  0.35080539647E+02  0.00000000000E+00 0. -1.
         -2    1    1    2    0  502  0.95510105759E+02 -0.35390134378E+02  0.39870085857E+02  0.10938128569E+03  0.00000000000E+00 0.  1.
<scales pt_clust_5="13000.00000" pt_clust_6="13000.00000" pt_clust_7="13000.00000" pt_clust_8="13000.00000" pt_clust_9="99.28655"></scales>
<clustering>
<clus scale="   90.054">  5  6 -1 -1</clus>
<clus scale="   91.618">  7  8 -1 -1</clus>
<clus scale="   96.111">  2  7  1 -1</clus>
<clus scale="   99.287">  1  9  2 -1</clus>
<clus scale="   99.287">  1  5  2 -1</clus>
</clustering>
</event>
<event>
 9    1  0.1504846E-005  0.9741953E+02  0.7546771E-02  0.1287935E+00
         21   -1    0    0  501  502  0.00000000000E+00  0.00000000000E+00  0.79857223109E+02  0.79857223109E+02  0.00000000000E+00 0.  1.
          3   -1    0    0  502    0 -0.00000000000E+00 -0.00000000000E+00 -0.17301734210E+03  0.17301734210E+03  0.00000000000E+00 0. -1.
         23    2    1    2    0    0 -0.30493775285E+02 -0.11285497201E+02 -0.96784152690E+02  0.13593768711E+03  0.89747700733E+02 0.  0.
         23    2    1    2    0    0  0.10327838432E+02  0.38105505878E+01  0.89533459367E+01  0.94779680511E+02  0.93711476842E+02 0.  0.
        -13    1    4    4    0    0 -0.27557602433E+02 -0.17365216700E+01  0.37820571529E+02  0.46827690421E+02  0.00000000000E+00 0.  1.
         13    1    4    4    0    0  0.37885440866E+02  0.55470722577E+01 -0.28867225592E+02  0.47951990090E+02  0.00000000000E+00 0. -1.
        -13    1    3    3    0    0 -0.55262318488E+02 -0.30396474139E+02 -0.54612121814E+02  0.83428732064E+02  0.00000000000E+00 0.  1.
         13    1    3    3    0    0  0.24768543203E+02  0.19110976937E+02 -0.42172030877E+02  0.52508955047E+02  0.00000000000E+00 0. -1.
          3    1    1    2  501    0  0.20165936853E+02  0.74749466137E+01 -0.53293122385E+01  0.22157197589E+02  0.00000000000E+00 0. -1.
<scales pt_clust_5="13000.00000" pt_clust_6="13000.00000" pt_clust_7="13000.00000" pt_clust_8="13000.00000" pt_clust_9="21.50674"></scales>
<clustering>
<clus scale="   21.507">  1  9  2 -1</clus>
<clus scale="   89.748">  7  8 -1 -1</clus>
<clus scale="   93.613">  2  7  1 -1</clus>
<clus scale="   93.711">  5  6 -1 -1</clus>
<clus scale="   21.507">  1  5  2 -1</clus>
</clustering>
</event>
<event>
 9    1  0.1504846E-005  0.9656126E+02  0.7546771E-02  0.1289270E+00
         21   -1    0    0  501  502  0.00000000000E+00  0.00000000000E+00  0.17712715837E+03  0.17712715837E+03  0.00000000000E+00 0.  1.
         -3   -1    0    0    0  501 -0.00000000000E+00 -0.00000000000E+00 -0.13266985358E+03  0.13266985358E+03  0.00000000000E+00 0.  1.
         23    2    1    2    0    0  0.12262199241E+02 -0.12890536796E+02 -0.70089102959E+02  0.11717666262E+03  0.92202822300E+02 0.  0.
         23    2    1    2    0    0 -0.27678872823E+02 -0.17219747738E+02  0.35392521665E+02  0.10654107923E+03  0.95056463542E+02 0.  0.
        -11    1    3    3    0    0 -0.32640465483E+02 -0.19968615839E+02 -0.61950804678E+01  0.38762412560E+02  0.00000000000E+00 0. -1.
         11    1    3    3    0    0  0.44902664725E+02  0.70780790428E+01 -0.63894022491E+02  0.78414250060E+02  0.00000000000E+00 0.  1.
        -13    1    4    4    0    0 -0.25283494224E+02  0.20392916577E+02  0.55136739082E+02  0.63993641272E+02  0.00000000000E+00 0. -1.
         13    1    4    4    0    0 -0.23953785988E+01 -0.37612664315E+02 -0.19744217417E+02  0.42547437959E+02  0.00000000000E+00 0.  1.
         -3    1    1    2    0  502  0.15416673581E+02  0.30110284534E+02  0.79153886084E+02  0.86079270101E+02  0.00000000000E+00 0.  1.
<scales pt_clust_5="13000.00000" pt_clust_6="13000.00000" pt_clust_7="13000.00000" pt_clust_8="13000.00000" pt_clust_9="33.82755"></scales>
<clustering>
<clus scale="   33.828">  1  9  2 -1</clus>
<clus scale="   92.203">  5  6 -1 -1</clus>
<clus scale="   93.753">  2  5  1 -1</clus>
<clus scale="   95.056">  7  8 -1 -1</clus>
<clus scale="   33.828">  1  5  2 -1</clus>
</clustering>
</event>
<event>
 9    1  0.1504846E-005  0.1083349E+03  0.7546771E-02  0.1274316E+00
         21   -1    0    0  501  502  0.00000000000E+00  0.00000000000E+00  0.17373906915E+03  0.17373906915E+03  0.00000000000E+00 0.  1.
          1   -1    0    0  502    0 -0.00000000000E+00 -0.00000000000E+00 -0.97534811060E+02  0.97534811060E+02  0.00000000000E+00 0. -1.
         23    2    1    2    0    0  0.12886130049E+01  0.35956891078E+02 -0.25342307270E+02  0.11074393957E+03  0.10162395916E+03 0.  0.
         23    2    1    2    0    0  0.29471616545E+02 -0.38472876007E+02  0.79301368782E+02  0.12248561553E+03  0.79782708345E+02 0.  0.
        -11    1    3    3    0    0 -0.34931834456E+02  0.54835020757E+02 -0.25662995568E+02  0.69897796113E+02  0.00000000000E+00 0. -1.
         11    1    3    3    0    0  0.36220447461E+02 -0.18878129679E+02  0.32068829840E+00  0.40846143459E+02  0.00000000000E+00 0.  1.
        -13    1    4    4    0    0  0.37884121340E+02  0.18607857582E+01  0.60042678970E+01  0.38402088567E+02  0.00000000000E+00 0.  1.
         13    1    4    4    0    0 -0.84125047952E+01 -0.40333661765E+02  0.73297100885E+02  0.84083526963E+02  0.00000000000E+00 0. -1.
          1    1    1    2  501    0 -0.30760229549E+02  0.25159849284E+01  0.22245196573E+02  0.38044325104E+02  0.00000000000E+00 0. -1.
<scales pt_clust_5="13000.00000" pt_clust_6="13000.00000" pt_clust_7="13000.00000" pt_clust_8="13000.00000" pt_clust_9="30.86295"></scales>
<clustering>
<clus scale="   30.863">  1  9  2 -1</clus>
<clus scale="   79.783">  7  8 -1 -1</clus>
<clus scale="   88.172">  1  7  2 -1</clus>
<clus scale="  101.624">  5  6 -1 -1</clus>
<clus scale="   30.863">  1  5  2 -1</clus>
</clustering>
</event>
<event>
 9    1  0.1504846E-005  0.3273603E+03  0.7546771E-02  0.1072367E+00
         -3   -1    0    0    0  501 -0.00000000000E+00  0.00000000000E+00  0.20790736305E+03  0.20790736305E+03  0.00000000000E+00 0.  1.
         21   -1    0    0  501  502  0.00000000000E+00 -0.00000000000E+00 -0.95572889126E+03  0.95572889126E+03  0.00000000000E+00 0. -1.
         23    2    1    2    0    0  0.28499187476E+03 -0.13856833425E+03 -0.28753537494E+01  0.32960688346E+03  0.90613895338E+02 0.  0.
         23    2    1    2    0    0 -0.28572235818E+03  0.10666053311E+03 -0.73483585536E+03  0.80055012457E+03  0.88786442273E+02 0.  0.
        -11    1    4    4    0    0 -0.90809573322E+02  0.70245919387E+02 -0.33737214145E+03  0.35637175762E+03  0.00000000000E+00 0.  1.
         11    1    4    4    0    0 -0.19491278485E+03  0.36414613725E+02 -0.39746371391E+03  0.44417836695E+03  0.00000000000E+00 0. -1.
        -13    1    3    3    0    0  0.23567314977E+03 -0.87322849026E+02  0.26361400072E+02  0.25270939218E+03  0.00000000000E+00 0.  1.
         13    1    3    3    0    0  0.49318724995E+02 -0.51245485223E+02 -0.29236753822E+02  0.76897491279E+02  0.00000000000E+00 0. -1.
         -3    1    1    2    0  502  0.73048341213E+00  0.31907801137E+02 -0.10110319096E+02  0.33479246283E+02  0.00000000000E+00 0.  1.
<scales pt_clust_5="13000.00000" pt_clust_6="13000.00000" pt_clust_7="13000.00000" pt_clust_8="13000.00000" pt_clust_9="31.91618"></scales>
<clustering>
<clus scale="   31.916">  2  9  1 -1</clus>
<clus scale="   88.786">  5  6 -1 -1</clus>
<clus scale="   90.614">  7  8 -1 -1</clus>
<clus scale="  326.859">  2  5  1 -1</clus>
<clus scale="   31.916">  2  5  1 -1</clus>
</clustering>
</event>
<event>
 9    1  0.1504846E-005  0.9800332E+02  0.7546771E-02  0.1290051E+00
         21   -1    0    0  501  502  0.00000000000E+00  0.00000000000E+00  0.37072186899E+03  0.37072186899E+03  0.00000000000E+00 0.  1.
          3   -1    0    0  502    0 -0.00000000000E+00 -0.00000000000E+00 -0.49673831861E+02  0.49673831861E+02  0.00000000000E+00 0. -1.
         23    2    1    2    0    0  0.13283196873E+02 -0.74792936535E+01  0.60213940256E+02  0.10785622563E+03  0.88175187287E+02 0.  0.
         23    2    1    2    0    0  0.10004215864E+02  0.29360486203E+01  0.71236823637E+02  0.12146338911E+03  0.97826198610E+02 0.  0.
        -11    1    4    4    0    0  0.21652948236E+02  0.41422503294E+02  0.66056249736E+02  0.80920344015E+02  0.00000000000E+00 0.  1.
         11    1    4    4    0    0 -0.11648732373E+02 -0.38486454673E+02  0.51805739011E+01  0.40543045090E+02  0.00000000000E+00 0. -1.
        -13    1    3    3    0    0  0.61751494839E+01 -0.38312836096E+02  0.65149066143E+02  0.75831436094E+02  0.00000000000E+00 0. -1.
         13    1    3    3    0    0  0.71080473893E+01  0.30833542442E+02 -0.49351258869E+01  0.32024789535E+02  0.00000000000E+00 0.  1.
          3    1    1    2  501    0 -0.23287412737E+02  0.45432450332E+01  0.18959727323E+03  0.19107608611E+03  0.00000000000E+00 0. -1.
<scales pt_clust_5="13000.00000" pt_clust_6="13000.00000" pt_clust_7="13000.00000" pt_clust_8="13000.00000" pt_clust_9="23.72646"></scales>
<clustering>
<clus scale="   23.726">  1  9  2 -1</clus>
<clus scale="   88.175">  7  8 -1 -1</clus>
<clus scale="   88.372">  2  7  1 -1</clus>
<clus scale="   97.826">  5  6 -1 -1</clus>
<clus scale="   23.726">  1  5  2 -1</clus>
</clustering>
</event>
<event>
 9    1  0.1504846E-005  0.9401262E+02  0.7546771E-02  0.1295037E+00
         -1   -1    0    0    0  501 -0.00000000000E+00  0.00000000000E+00  0.19288974290E+03  0.19288974290E+03  0.00000000000E+00 0.  1.
         21   -1    0    0  501  502  0.00000000000E+00 -0.00000000000E+00 -0.73643544844E+02  0.73643544844E+02  0.00000000000E+00 0. -1.
         23    2    1    2    0    0  0.10129138296E+02  0.30269132270E+01  0.98938624678E+02  0.13607393465E+03  0.92819731692E+02 0.  0.
         23    2    1    2    0    0 -0.27945570481E+02  0.11704072427E+02 -0.63623026734E+01  0.95164743270E+02  0.89988383947E+02 0.  0.
        -11    1    3    3    0    0 -0.15897981778E+02 -0.38269352944E+02  0.28189941634E+02  0.50119477339E+02  0.00000000000E+00 0.  1.
         11    1    3    3    0    0  0.26027120074E+02  0.41296266171E+02  0.70748683044E+02  0.85954457310E+02  0.00000000000E+00 0. -1.
        -13    1    4    4    0    0  0.28177204623E+02  0.17155530727E+02  0.13127012489E+02  0.35504725767E+02  0.00000000000E+00 0.  1.
         13    1    4    4    0    0 -0.56122775104E+02 -0.54514582994E+01 -0.19489315163E+02  0.59660017503E+02  0.00000000000E+00 0. -1.
         -1    1    1    2    0  502  0.17816432185E+02 -0.14730985654E+02  0.26669876055E+02  0.35294609829E+02  0.00000000000E+00 0.  1.
<scales pt_clust_5="13000.00000" pt_clust_6="13000.00000" pt_clust_7="13000.00000" pt_clust_8="13000.00000" pt_clust_9="23.11769"></scales>
<clustering>
<clus scale="   23.118">  2  9  1 -1</clus>
<clus scale="   89.988">  7  8 -1 -1</clus>
<clus scale="   91.218">  2  7  1 -1</clus>
<clus scale="   92.820">  5  6 -1 -1</clus>
<clus scale="   23.118">  2  5  1 -1</clus>
</clustering>
</event>
<event>
 9    1  0.1504846E-005  0.1050029E+03  0.7546771E-02  0.1272186E+00
          2   -1    0    0  502    0 -0.00000000000E+00  0.00000000000E+00  0.18133722256E+03  0.18133722256E+03  0.00000000000E+00 0. -1.
         21   -1    0    0  501  502  0.00000000000E+00 -0.00000000000E+00 -0.15422265412E+03  0.15422265412E+03  0.00000000000E+00 0.  1.
         23    2    1    2    0    0 -0.32523837698E+02  0.32143161771E+02  0.92394886801E+02  0.13774741358E+03  0.91359465709E+02 0.  0.
         23    2    1    2    0    0  0.56347916055E+01 -0.43082258014E+02  0.20503473692E+02  0.10725008898E+03  0.95887211452E+02 0.  0.
        -11    1    4    4    0    0 -0.60819928324E+01  0.25341003494E+02 -0.14158453025E+02  0.29658369594E+02  0.00000000000E+00 0. -1.
         11    1    4    4    0    0  0.11716784438E+02 -0.68423261508E+02  0.34661926717E+02  0.77591719383E+02  0.00000000000E+00 0.  1.
        -11    1    3    3    0    0 -0.32244555429E+02  0.10519870949E+02 -0.81669887366E+01  0.34886655681E+02  0.00000000000E+00 0.  1.
         11    1    3    3    0    0 -0.27928226956E+00  0.21623290821E+02  0.10056187554E+03  0.10286075790E+03  0.00000000000E+00 0. -1.
          2    1    1    2  501    0  0.26889046093E+02  0.10939096243E+02 -0.85783792058E+02  0.90562374120E+02  0.00000000000E+00 0. -1.
<scales pt_clust_5="13000.00000" pt_clust_6="13000.00000" pt_clust_7="13000.00000" pt_clust_8="13000.00000" pt_clust_9="29.02903"></scales>
<clustering>
<clus scale="   29.029">  2  9  1 -1</clus>
<clus scale="   91.359">  7  8 -1 -1</clus>
<clus scale="   95.887">  5  6 -1 -1</clus>
<clus scale="  100.885">  1  7  2 -1</clus>
<clus scale="   29.029">  2  5  1 -1</clus>
</clustering>
</event>
<event>
 9    1  0.1504846E-005  0.9200568E+02  0.7546771E-02  0.1322733E+00
         21   -1    0    0  501  502  0.00000000000E+00  0.00000000000E+00  0.23546778633E+02  0.23546778633E+02  0.00000000000E+00 0.  1.
          3   -1    0    0  502    0 -0.00000000000E+00 -0.00000000000E+00 -0.35219439742E+03  0.35219439742E+03  0.00000000000E+00 0. -1.
         23    2    1    2    0    0 -0.24725042429E+01  0.41552553808E+01 -0.16990741903E+03  0.19216397728E+03  0.89638628386E+02 0.  0.
         23    2    1    2    0    0  0.69880007173E+01 -0.31700490050E+02 -0.11802338236E+03  0.13421133120E+03  0.55040071015E+02 0.  0.
        -11    1    4    4    0    0 -0.18613803093E+02 -0.17873670433E+02 -0.22112330800E+02  0.33983774565E+02  0.00000000000E+00 0.  1.
         11    1    4    4    0    0  0.25601803810E+02 -0.13826819617E+02 -0.95911051557E+02  0.10022755664E+03  0.00000000000E+00 0. -1.
        -13    1    3    3    0    0  0.20774402052E+02 -0.35761035393E+02 -0.59289399153E+02  0.72288728616E+02  0.00000000000E+00 0.  1.
         13    1    3    3    0    0 -0.23246906295E+02  0.39916290773E+02 -0.11061801987E+03  0.11987524866E+03  0.00000000000E+00 0. -1.
          3    1    1    2  501    0 -0.45154964744E+01  0.27545234669E+02 -0.40716817402E+02  0.49365867568E+02  0.00000000000E+00 0. -1.
<scales pt_clust_5="13000.00000" pt_clust_6="13000.00000" pt_clust_7="13000.00000" pt_clust_8="13000.00000" pt_clust_9="27.91289"></scales>
<clustering>
<clus scale="   27.913">  1  9  2 -1</clus>
<clus scale="   55.040">  5  6 -1 -1</clus>
<clus scale="   58.816">  1  5  2 -1</clus>
<clus scale="   89.639">  7  8 -1 -1</clus>
<clus scale="   27.913">  1  5  2 -1</clus>
</clustering>
</event>
<event>
 9    1  0.1504846E-005  0.9914470E+02  0.7546771E-02  0.1283011E+00
          4   -1    0    0  502    0 -0.00000000000E+00  0.00000000000E+00  0.11331197518E+03  0.11331197518E+03  0.00000000000E+00 0. -1.
         21   -1    0    0  501  502  0.00000000000E+00 -0.00000000000E+00 -0.89438357586E+03  0.89438357586E+03  0.00000000000E+00 0. -1.
         23    2    1    2    0    0 -0.36138374703E+02  0.16810523811E+02  0.78524922820E+02  0.12785115313E+03  0.92688607805E+02 0.  0.
         23    2    1    2    0    0 -0.45108381742E+02 -0.39975468683E+01 -0.38452156444E+03  0.39770186240E+03  0.90880093268E+02 0.  0.
        -11    1    4    4    0    0 -0.66105971874E+02 -0.25403935536E+02 -0.29085926287E+03  0.29935676083E+03  0.00000000000E+00 0. -1.
         11    1    4    4    0    0  0.20997590132E+02  0.21406388667E+02 -0.93662301572E+02  0.98345101570E+02  0.00000000000E+00 0.  1.
        -13    1    3    3    0    0 -0.24798263824E+02  0.52939828206E+02  0.28297379520E+02  0.64948602655E+02  0.00000000000E+00 0.  1.
         13    1    3    3    0    0 -0.11340110879E+02 -0.36129304395E+02  0.50227543300E+02  0.62902550479E+02  0.00000000000E+00 0. -1.
          4    1    1    2  501    0  0.81246756445E+02 -0.12812976942E+02 -0.47507495907E+03  0.48214253551E+03  0.00000000000E+00 0. -1.
<scales pt_clust_5="13000.00000" pt_clust_6="13000.00000" pt_clust_7="13000.00000" pt_clust_8="13000.00000" pt_clust_9="82.25088"></scales>
<clustering>
<clus scale="   82.251">  2  9  1 -1</clus>
<clus scale="   90.880">  5  6 -1 -1</clus>
<clus scale="   92.689">  7  8 -1 -1</clus>
<clus scale="   97.456">  2  5  1 -1</clus>
<clus scale="   82.251">  2  5  1 -1</clus>
</clustering>
</event>
<event>
 9    1  0.1504846E-005  0.1083599E+03  0.7546771E-02  0.1264252E+00
         21   -1    0    0  501  502  0.00000000000E+00  0.00000000000E+00  0.22949505225E+02  0.22949505225E+02  0.00000000000E+00 0. -1.
         -3   -1    0    0    0  501 -0.00000000000E+00 -0.00000000000E+00 -0.83196413003E+03  0.83196413003E+03  0.00000000000E+00 0.  1.
         23    2    1    2    0    0  0.28704394078E+02  0.46507904045E+02 -0.49216055128E+03  0.50333787622E+03  0.90222403101E+02 0.  0.
         23    2    1    2    0    0 -0.15169504931E+02 -0.63108976683E+02 -0.30892826001E+03  0.32873703410E+03  0.91752443756E+02 0.  0.
        -11    1    4    4    0    0  0.20943173243E+02 -0.73094923151E+01 -0.13594445624E+02  0.26016420492E+02  0.00000000000E+00 0. -1.
         11    1    4    4    0    0 -0.36112678174E+02 -0.55799484367E+02 -0.29533381439E+03  0.30272061361E+03  0.00000000000E+00 0.  1.
        -13    1    3    3    0    0 -0.31036511546E+02  0.30771683716E+02 -0.20473502952E+03  0.20934802096E+03  0.00000000000E+00 0.  1.
         13    1    3    3    0    0  0.59740905624E+02  0.15736220329E+02 -0.28742552175E+03  0.29398985525E+03  0.00000000000E+00 0. -1.
         -3    1    1    2    0  502 -0.13534889147E+02  0.16601072638E+02 -0.79258135112E+01  0.22838724937E+02  0.00000000000E+00 0.  1.
<scales pt_clust_5="13000.00000" pt_clust_6="13000.00000" pt_clust_7="13000.00000" pt_clust_8="13000.00000" pt_clust_9="21.41936"></scales>
<clustering>
<clus scale="   21.419">  1  9  2 -1</clus>
<clus scale="   90.222">  7  8 -1 -1</clus>
<clus scale="   91.752">  5  6 -1 -1</clus>
<clus scale="  107.067">  2  7  1 -1</clus>
<clus scale="   21.419">  1  5  2 -1</clus>
</clustering>
</event>
<event>
 9    1  0.1504846E-005  0.1244181E+03  0.7546771E-02  0.1236011E+00
         -2   -1    0    0    0  501 -0.00000000000E+00  0.00000000000E+00  0.96115120021E+03  0.96115120021E+03  0.00000000000E+00 0.  1.
         21   -1    0    0  501  502  0.00000000000E+00 -0.00000000000E+00 -0.22739928008E+02  0.22739928008E+02  0.00000000000E+00 0. -1.
         23    2    1    2    0    0  0.87855788974E+02  0.24775823378E+02  0.49340537557E+03  0.50999211079E+03  0.91162532597E+02 0.  0.
         23    2    1    2    0    0 -0.60995426141E+02 -0.53376699849E+02  0.36338159102E+03  0.38333403250E+03  0.91264920365E+02 0.  0.
        -11    1    3    3    0    0  0.22835346502E+02 -0.33968657191E+02  0.13788052687E+03  0.14382754399E+03  0.00000000000E+00 0.  1.
         11    1    3    3    0    0  0.65020442472E+02  0.58744480568E+02  0.35552484870E+03  0.36616456680E+03  0.00000000000E+00 0. -1.
        -11    1    4    4    0    0 -0.81138375878E+02 -0.36244156924E+02  0.32348792602E+03  0.33547207519E+03  0.00000000000E+00 0. -1.
         11    1    4    4    0    0  0.20142949737E+02 -0.17132542925E+02  0.39893664999E+02  0.47861957317E+02  0.00000000000E+00 0.  1.
         -2    1    1    2    0  502 -0.26860362833E+02  0.28600876471E+02  0.81624305620E+02  0.90564984925E+02  0.00000000000E+00 0.  1.
<scales pt_clust_5="13000.00000" pt_clust_6="13000.00000" pt_clust_7="13000.00000" pt_clust_8="13000.00000" pt_clust_9="39.23633"></scales>
<clustering>
<clus scale="   39.236">  2  9  1 -1</clus>
<clus scale="   91.163">  5  6 -1 -1</clus>
<clus scale="   91.265">  7  8 -1 -1</clus>
<clus scale="  124.343">  1  5  2 -1</clus>
<clus scale="   39.236">  2  5  1 -1</clus>
</clustering>
</event>
<event>
 9    1  0.1504846E-005  0.1891692E+03  0.7546771E-02  0.1169221E+00
          3   -1    0    0  502    0 -0.00000000000E+00  0.00000000000E+00  0.45076947236E+03  0.45076947236E+03  0.00000000000E+00 0. -1.
         21   -1    0    0  501  502  0.00000000000E+00 -0.00000000000E+00 -0.80432435579E+03  0.80432435579E+03  0.00000000000E+00 0. -1.
         23    2    1    2    0    0 -0.11330088694E+03 -0.54234807897E+02  0.11416393431E+03  0.18859193227E+03  0.82188853567E+02 0.  0.
         23    2    1    2    0    0  0.65104181738E+02 -0.99802238332E+02  0.26939247083E+03  0.31192692562E+03  0.10260147334E+03 0.  0.
        -11    1    4    4    0    0  0.46138998536E+02  0.69895184363E+01  0.59018339362E+02  0.75238453831E+02  0.00000000000E+00 0.  1.
         11    1    4    4    0    0  0.18965183203E+02 -0.10679175677E+03  0.21037413147E+03  0.23668847179E+03  0.00000000000E+00 0. -1.
        -11    1    3    3    0    0 -0.76822826232E+02 -0.71399286774E+02  0.59217248882E+02  0.12044204975E+03  0.00000000000E+00 0. -1.
         11    1    3    3    0    0 -0.36478060711E+02  0.17164478877E+02  0.54946685430E+02  0.68149882525E+02  0.00000000000E+00 0.  1.
          3    1    1    2  501    0  0.48196705205E+02  0.15403704623E+03 -0.73711128857E+03  0.75457497026E+03  0.00000000000E+00 0. -1.
<scales pt_clust_5="13000.00000" pt_clust_6="13000.00000" pt_clust_7="13000.00000" pt_clust_8="13000.00000" pt_clust_9="158.92742"></scales>
<clustering>
<clus scale="   82.189">  7  8 -1 -1</clus>
<clus scale="  102.601">  5  6 -1 -1</clus>
<clus scale="  150.112">  1  7  2 -1</clus>
<clus scale="  158.927">  2  9  1 -1</clus>
<clus scale="  158.927">  2  5  1 -1</clus>
</clustering>
</event>
<event>
 9    1  0.1504846E-005  0.1080328E+03  0.7546771E-02  0.1266414E+00
          1   -1    0    0  502    0 -0.00000000000E+00  0.00000000000E+00  0.22049277969E+03  0.22049277969E+03  0.00000000000E+00 0. -1.
         21   -1    0    0  501  502  0.00000000000E+00 -0.00000000000E+00 -0.14951670164E+03  0.14951670164E+03  0.00000000000E+00 0.  1.
         23    2    1    2    0    0  0.48310400404E+02  0.50787365426E+02  0.13525901383E+03  0.17874897725E+03  0.93503715282E+02 0.  0.
         23    2    1    2    0    0  0.25096225902E+02 -0.36008952403E+02 -0.10755158167E+02  0.99216181850E+02  0.88327301022E+02 0.  0.
        -13    1    3    3    0    0  0.59991433811E+02  0.18617954217E+00  0.97736750853E+02  0.11467989911E+03  0.00000000000E+00 0.  1.
         13    1    3    3    0    0 -0.11681033407E+02  0.50601185884E+02  0.37522262981E+02  0.64069078139E+02  0.00000000000E+00 0. -1.
        -13    1    4    4    0    0 -0.72489470100E+01 -0.33893460647E+02 -0.41822420130E+02  0.54317849119E+02  0.00000000000E+00 0.  1.
         13    1    4    4    0    0  0.32345172912E+02 -0.21154917563E+01  0.31067261963E+02  0.44898332731E+02  0.00000000000E+00 0. -1.
          1    1    1    2  501    0 -0.73406626306E+02 -0.14778413023E+02 -0.53527777617E+02  0.92044322225E+02  0.00000000000E+00 0. -1.
<scales pt_clust_5="13000.00000" pt_clust_6="13000.00000" pt_clust_7="13000.00000" pt_clust_8="13000.00000" pt_clust_9="74.87946"></scales>
<clustering>
<clus scale="   74.879">  2  9  1 -1</clus>
<clus scale="   88.327">  7  8 -1 -1</clus>
<clus scale="   93.504">  5  6 -1 -1</clus>
<clus scale="  103.585">  2  7  1 -1</clus>
<clus scale="   74.879">  2  5  1 -1</clus>
</clustering>
</event>
<event>
 9    1  0.1504846E-005  0.1281859E+03  0.7546771E-02  0.1230393E+00
         21   -1    0    0  501  502  0.00000000000E+00  0.00000000000E+00  0.45445488934E+02  0.45445488934E+02  0.00000000000E+00 0. -1.
          1   -1    0    0  502    0 -0.00000000000E+00 -0.00000000000E+00 -0.69260374944E+03  0.69260374944E+03  0.00000000000E+00 0. -1.
         23    2    1    2    0    0 -0.58147604215E+02  0.75976617241E+02 -0.47927507965E+03  0.49707873775E+03  0.90714272880E+02 0.  0.
         23    2    1    2    0    0  0.47326674628E+02 -0.52472524833E+02 -0.58243513801E+02  0.12831886296E+03  0.89890175758E+02 0.  0.
        -11    1    4    4    0    0 -0.26212869806E+02 -0.23184568925E+02 -0.14507824045E+02  0.37882921459E+02  0.00000000000E+00 0.  1.
         11    1    4    4    0    0  0.73539544435E+02 -0.29287955908E+02 -0.43735689756E+02  0.90435941502E+02  0.00000000000E+00 0. -1.
        -13    1    3    3    0    0 -0.23772392510E+02 -0.85257253555E+01 -0.32892854265E+02  0.41469922837E+02  0.00000000000E+00 0.  1.
         13    1    3    3    0    0 -0.34375211706E+02  0.84502342596E+02 -0.44638222539E+03  0.45560881491E+03  0.00000000000E+00 0. -1.
          1    1    1    2  501    0  0.10820929587E+02 -0.23504092407E+02 -0.10963966705E+03  0.11265163766E+03  0.00000000000E+00 0. -1.
<scales pt_clust_5="13000.00000" pt_clust_6="13000.00000" pt_clust_7="13000.00000" pt_clust_8="13000.00000" pt_clust_9="25.87538"></scales>
<clustering>
<clus scale="   25.875">  1  9  2 -1</clus>
<clus scale="   89.890">  5  6 -1 -1</clus>
<clus scale="   90.714">  7  8 -1 -1</clus>
<clus scale="  127.604">  1  5  2 -1</clus>
<clus scale="   25.875">  1  5  2 -1</clus>
</clustering>
</event>
<event>
 9    1  0.1504846E-005  0.9295287E+02  0.7546771E-02  0.1296387E+00
          1   -1    0    0  502    0 -0.00000000000E+00  0.00000000000E+00  0.45559883449E+03  0.45559883449E+03  0.00000000000E+00 0. -1.
         21   -1    0    0  501  502  0.00000000000E+00 -0.00000000000E+00 -0.45054061061E+02  0.45054061061E+02  0.00000000000E+00 0.  1.
         23    2    1    2    0    0  0.23180899339E+02 -0.16481043380E+02  0.27180829512E+03  0.28754132635E+03  0.89393994089E+02 0.  0.
         23    2    1    2    0    0 -0.19286536133E+02 -0.31152304770E+02  0.13311174603E+03  0.16498943776E+03  0.90334606179E+02 0.  0.
        -11    1    4    4    0    0  0.60761592763E+01 -0.36003145892E+02  0.81805277380E+01  0.37417472653E+02  0.00000000000E+00 0.  1.
         11    1    4    4    0    0 -0.25362695410E+02  0.48508411217E+01  0.12493121829E+03  0.12757196511E+03  0.00000000000E+00 0. -1.
        -11    1    3    3    0    0 -0.30431865223E+02 -0.67919918394E+01  0.48310412078E+02  0.57498917288E+02  0.00000000000E+00 0. -1.
         11    1    3    3    0    0  0.53612764562E+02 -0.96890515408E+01  0.22349788304E+03  0.23004240906E+03  0.00000000000E+00 0.  1.
          1    1    1    2  501    0 -0.38943632056E+01  0.47633348150E+02  0.56247322789E+01  0.48122131436E+02  0.00000000000E+00 0. -1.
<scales pt_clust_5="13000.00000" pt_clust_6="13000.00000" pt_clust_7="13000.00000" pt_clust_8="13000.00000" pt_clust_9="47.79228"></scales>
<clustering>
<clus scale="   47.792">  2  9  1 -1</clus>
<clus scale="   89.394">  7  8 -1 -1</clus>
<clus scale="   90.335">  5  6 -1 -1</clus>
<clus scale="   92.039">  1  7  2 -1</clus>
<clus scale="   47.792">  2  5  1 -1</clus>
</clustering>
</event>
<event>
 9    1  0.1504846E-005  0.1259415E+03  0.7546771E-02  0.1234663E+00
         21   -1    0    0  501  502  0.00000000000E+00  0.00000000000E+00  0.21387931732E+03  0.21387931732E+03  0.00000000000E+00 0.  1.
         -4   -1    0    0    0  501 -0.00000000000E+00 -0.00000000000E+00 -0.15826448513E+03  0.15826448513E+03  0.00000000000E+00 0.  1.
         23    2    1    2    0    0 -0.83532450828E+02  0.38142113498E+02 -0.75461319603E+02  0.14902570800E+03  0.89898608029E+02 0.  0.
         23    2    1    2    0    0  0.58506333595E+02 -0.36901434703E+02  0.31656823504E+02  0.12058981219E+03  0.93568378073E+02 0.  0.
        -11    1    3    3    0    0 -0.75578887994E+02  0.65497236882E+02 -0.59484293746E+02  0.11636338579E+03  0.00000000000E+00 0.  1.
         11    1    3    3    0    0 -0.79535628338E+01 -0.27355123384E+02 -0.15977025856E+02  0.32662322212E+02  0.00000000000E+00 0. -1.
        -13    1    4    4    0    0  0.73578687626E+02 -0.10533493084E+02 -0.31493092309E+01  0.74395536815E+02  0.00000000000E+00 0. -1.
         13    1    4    4    0    0 -0.15072354031E+02 -0.26367941619E+02  0.34806132735E+02  0.46194275373E+02  0.00000000000E+00 0.  1.
         -4    1    1    2    0  502  0.25026117232E+02 -0.12406787957E+01  0.99419328287E+02  0.10252828227E+03  0.00000000000E+00 0.  1.
<scales pt_clust_5="13000.00000" pt_clust_6="13000.00000" pt_clust_7="13000.00000" pt_clust_8="13000.00000" pt_clust_9="25.05685"></scales>
<clustering>
<clus scale="   25.057">  1  9  2 -1</clus>
<clus scale="   89.899">  5  6 -1 -1</clus>
<clus scale="   93.568">  7  8 -1 -1</clus>
<clus scale="  123.240">  2  5  1 -1</clus>
<clus scale="   25.057">  1  5  2 -1</clus>
</clustering>
</event>
<event>
 9    1  0.1504846E-005  0.1029494E+03  0.7546771E-02  0.1283909E+00
         21   -1    0    0  501  502  0.00000000000E+00  0.00000000000E+00  0.10340407550E+03  0.10340407550E+03  0.00000000000E+00 0. -1.
          1   -1    0    0  502    0 -0.00000000000E+00 -0.00000000000E+00 -0.54074650312E+03  0.54074650312E+03  0.00000000000E+00 0. -1.
         23    2    1    2    0    0  0.54978320620E+02  0.15976016669E+02 -0.32866249804E+03  0.34089160981E+03  0.70072841908E+02 0.  0.
         23    2    1    2    0    0 -0.27630612109E+02 -0.22973004543E+02 -0.19201024818E+03  0.21527716955E+03  0.90471623494E+02 0.  0.
        -11    1    4    4    0    0  0.30777909380E+02  0.59566313132E+00 -0.92703361343E+02  0.97680846253E+02  0.00000000000E+00 0. -1.
         11    1    4    4    0    0 -0.58408521489E+02 -0.23568667674E+02 -0.99306886841E+02  0.11759632329E+03  0.00000000000E+00 0.  1.
        -13    1    3    3    0    0  0.28020441589E+02 -0.22191704263E+02 -0.21576936227E+03  0.21870993252E+03  0.00000000000E+00 0.  1.
         13    1    3    3    0    0  0.26957879031E+02  0.38167720932E+02 -0.11289313577E+03  0.12218167730E+03  0.00000000000E+00 0. -1.
          1    1    1    2  501    0 -0.27347708511E+02  0.69969878736E+01  0.83330318614E+02  0.87981799257E+02  0.00000000000E+00 0. -1.
<scales pt_clust_5="13000.00000" pt_clust_6="13000.00000" pt_clust_7="13000.00000" pt_clust_8="13000.00000" pt_clust_9="28.22862"></scales>
<clustering>
<clus scale="   28.229">  1  9  2 -1</clus>
<clus scale="   70.073">  7  8 -1 -1</clus>
<clus scale="   85.578">  2  7  1 -1</clus>
<clus scale="   90.472">  5  6 -1 -1</clus>
<clus scale="   28.229">  1  5  2 -1</clus>
</clustering>
</event>
<event>
 9    1  0.1504846E-005  0.1400389E+03  0.7546771E-02  0.1232807E+00
         21   -1    0    0  501  502  0.00000000000E+00  0.00000000000E+00  0.61234245037E+02  0.61234245037E+02  0.00000000000E+00 0. -1.
          1   -1    0    0  502    0 -0.00000000000E+00 -0.00000000000E+00 -0.57129312816E+03  0.57129312816E+03  0.00000000000E+00 0. -1.
         23    2    1    2    0    0  0.13241626755E+02  0.19404060889E+02 -0.22268093675E+03  0.24136779604E+03  0.90109683799E+02 0.  0.
         23    2    1    2    0    0  0.66157527956E+02 -0.86639765259E+02 -0.23370291496E+03  0.27408748523E+03  0.92863500209E+02 0.  0.
        -11    1    4    4    0    0  0.15963133813E+02 -0.56217332375E+02 -0.37844226415E+02  0.69623240182E+02  0.00000000000E+00 0.  1.
         11    1    4    4    0    0  0.50194394143E+02 -0.30422432885E+02 -0.19585868854E+03  0.20446424505E+03  0.00000000000E+00 0. -1.
        -11    1    3    3    0    0 -0.14302527466E+02  0.33992756222E+02 -0.19855917036E+03  0.20195497988E+03  0.00000000000E+00 0.  1.
         11    1    3    3    0    0  0.27544154221E+02 -0.14588695333E+02 -0.24121766394E+02  0.39412816154E+02  0.00000000000E+00 0. -1.
          1    1    1    2  501    0 -0.79399154711E+02  0.67235704370E+02 -0.53675031417E+02  0.11707209193E+03  0.00000000000E+00 0. -1.
<scales pt_clust_5="13000.00000" pt_clust_6="13000.00000" pt_clust_7="13000.00000" pt_clust_8="13000.00000" pt_clust_9="104.82021"></scales>
<clustering>
<clus scale="   90.110">  7  8 -1 -1</clus>
<clus scale="   92.864">  5  6 -1 -1</clus>
<clus scale="   93.121">  2  7  1 -1</clus>
<clus scale="  104.820">  1  9  2 -1</clus>
<clus scale="  104.820">  1  5  2 -1</clus>
</clustering>
</event>
<event>
 9    1  0.1504846E-005  0.1198636E+03  0.7546771E-02  0.1243514E+00
          2   -1    0    0  502    0 -0.00000000000E+00  0.00000000000E+00  0.59126300226E+03  0.59126300226E+03  0.00000000000E+00 0. -1.
         21   -1    0    0  501  502  0.00000000000E+00 -0.00000000000E+00 -0.73347413362E+02  0.73347413362E+02  0.00000000000E+00 0. -1.
         23    2    1    2    0    0 -0.68822127442E+02  0.21835665697E+02  0.29248179872E+03  0.31488103999E+03  0.91603412851E+02 0.  0.
         23    2    1    2    0    0  0.10897066205E+03  0.63350351662E+02  0.77452018098E+02  0.17432365379E+03  0.92206555722E+02 0.  0.
        -13    1    4    4    0    0  0.21368644662E+02  0.44881928473E+02  0.68094722575E+02  0.84308349057E+02  0.00000000000E+00 0.  1.
         13    1    4    4    0    0  0.87602017391E+02  0.18468423189E+02  0.93572955232E+01  0.90015304730E+02  0.00000000000E+00 0. -1.
        -13    1    3    3    0    0 -0.23368869918E+02 -0.35743888953E+02  0.92932941007E+02  0.10227541837E+03  0.00000000000E+00 0. -1.
         13    1    3    3    0    0 -0.45453257524E+02  0.57579554649E+02  0.19954885771E+03  0.21260562162E+03  0.00000000000E+00 0.  1.
          2    1    1    2  501    0 -0.40148534612E+02 -0.85186017358E+02  0.14798177208E+03  0.17540572184E+03  0.00000000000E+00 0. -1.
<scales pt_clust_5="13000.00000" pt_clust_6="13000.00000" pt_clust_7="13000.00000" pt_clust_8="13000.00000" pt_clust_9="94.17309"></scales>
<clustering>
<clus scale="   91.603">  7  8 -1 -1</clus>
<clus scale="   92.207">  5  6 -1 -1</clus>
<clus scale="   94.173">  2  9  1 -1</clus>
<clus scale="  119.400">  1  7  2 -1</clus>
<clus scale="   94.173">  2  5  1 -1</clus>
</clustering>
</event>
<event>
 9    1  0.1504846E-005  0.1201628E+03  0.7546771E-02  0.1243173E+00
          2   -1    0    0  502    0 -0.00000000000E+00  0.00000000000E+00  0.17677224973E+03  0.17677224973E+03  0.00000000000E+00 0. -1.
         21   -1    0    0  501  502  0.00000000000E+00 -0.00000000000E+00 -0.27086925115E+03  0.27086925115E+03  0.00000000000E+00 0.  1.
         23    2    1    2    0    0 -0.27826476465E+02 -0.75343500425E+02  0.12684991288E+03  0.17507565783E+03  0.90053482548E+02 0.  0.
         23    2    1    2    0    0 -0.10677962627E+02  0.72198934281E+02 -0.13604255947E+03  0.17928546142E+03  0.91153681729E+02 0.  0.
        -11    1    4    4    0    0  0.26840137676E+02  0.69213315421E+02 -0.11284654914E+03  0.13507486693E+03  0.00000000000E+00 0.  1.
         11    1    4    4    0    0 -0.37518100303E+02  0.29856188596E+01 -0.23196010325E+02  0.44210594492E+02  0.00000000000E+00 0. -1.
        -13    1    3    3    0    0 -0.40198095097E+02 -0.19810095068E+02  0.10493918599E+03  0.11410766614E+03  0.00000000000E+00 0. -1.
         13    1    3    3    0    0  0.12371618632E+02 -0.55533405358E+02  0.21910726893E+02  0.60967991694E+02  0.00000000000E+00 0.  1.
          2    1    1    2  501    0  0.38504439092E+02  0.31445661446E+01 -0.84904354838E+02  0.93280381627E+02  0.00000000000E+00 0. -1.
<scales pt_clust_5="13000.00000" pt_clust_6="13000.00000" pt_clust_7="13000.00000" pt_clust_8="13000.00000" pt_clust_9="38.63263"></scales>
<clustering>
<clus scale="   38.633">  2  9  1 -1</clus>
<clus scale="   90.053">  7  8 -1 -1</clus>
<clus scale="   91.154">  5  6 -1 -1</clus>
<clus scale="  119.330">  1  7  2 -1</clus>
<clus scale="   38.633">  2  5  1 -1</clus>
</clustering>
</event>
<event>
 9    1  0.1660377E-005  0.1077856E+03  0.7546771E-02  0.1266179E+00
          1   -1    0    0  502    0 -0.00000000000E+00  0.00000000000E+00  0.50468664370E+03  0.50468664370E+03  0.00000000000E+00 0. -1.
         21   -1    0    0  501  502  0.00000000000E+00 -0.00000000000E+00 -0.11370222688E+03  0.11370222688E+03  0.00000000000E+00 0. -1.
         23    2    1    2    0    0  0.29893259042E+02  0.52163140446E+02  0.31872131121E+03  0.33659239401E+03  0.89980916467E+02 0.  0.
         23    2    1    2    0    0  0.22524148290E+02 -0.52417904994E+02  0.15141460468E+03  0.18686171317E+03  0.93466268356E+02 0.  0.
        -11    1    4    4    0    0 -0.21769442193E+02 -0.32983717239E+02  0.15248554708E+02  0.42359799775E+02  0.00000000000E+00 0.  1.
         11    1    4    4    0    0  0.44293590483E+02 -0.19434187755E+02  0.13616604997E+03  0.14450191340E+03  0.00000000000E+00 0. -1.
        -13    1    3    3    0    0 -0.26795106325E+02  0.26544241313E+02  0.63124659584E+02  0.73534326117E+02  0.00000000000E+00 0. -1.
         13    1    3    3    0    0  0.56688365368E+02  0.25618899132E+02  0.25559665163E+03  0.26305806790E+03  0.00000000000E+00 0.  1.
          1    1    1    2  501    0 -0.52417407333E+02  0.25476454819E+00 -0.79151499065E+02  0.94934763394E+02  0.00000000000E+00 0. -1.
<scales pt_clust_5="13000.00000" pt_clust_6="13000.00000" pt_clust_7="13000.00000" pt_clust_8="13000.00000" pt_clust_9="52.41803"></scales>
<clustering>
<clus scale="   52.418">  2  9  1 -1</clus>
<clus scale="   89.981">  7  8 -1 -1</clus>
<clus scale="   93.466">  5  6 -1 -1</clus>
<clus scale="  104.778">  1  7  2 -1</clus>
<clus scale="   52.418">  2  5  1 -1</clus>
</clustering>
</event>
<event>
 9    1  0.1504846E-005  0.9724684E+02  0.7546771E-02  0.1287896E+00
         21   -1    0    0  501  502  0.00000000000E+00  0.00000000000E+00  0.40829823632E+02  0.40829823632E+02  0.00000000000E+00 0. -1.
         -4   -1    0    0    0  501 -0.00000000000E+00 -0.00000000000E+00 -0.36699683347E+03  0.36699683347E+03  0.00000000000E+00 0.  1.
         23    2    1    2    0    0  0.81787492699E+01 -0.21148225112E+02 -0.19958986319E+03  0.22082479372E+03  0.91724242515E+02 0.  0.
         23    2    1    2    0    0 -0.24598452041E+02  0.42212672692E+02 -0.12429494205E+03  0.16019652719E+03  0.88468644865E+02 0.  0.
        -11    1    4    4    0    0 -0.31488042848E+02 -0.43045828558E+01 -0.52646945242E+01  0.32214023102E+02  0.00000000000E+00 0. -1.
         11    1    4    4    0    0  0.68895908072E+01  0.46517255548E+02 -0.11903024753E+03  0.12798250408E+03  0.00000000000E+00 0.  1.
        -13    1    3    3    0    0  0.36746766419E+02 -0.16884894200E+01 -0.17392491193E+03  0.17777246927E+03  0.00000000000E+00 0.  1.
         13    1    3    3    0    0 -0.28568017149E+02 -0.19459735692E+02 -0.25664951259E+02  0.43052324446E+02  0.00000000000E+00 0. -1.
         -4    1    1    2    0  502  0.16419702771E+02 -0.21064447580E+02 -0.22822045915E+01  0.26805336199E+02  0.00000000000E+00 0.  1.
<scales pt_clust_5="13000.00000" pt_clust_6="13000.00000" pt_clust_7="13000.00000" pt_clust_8="13000.00000" pt_clust_9="26.70801"></scales>
<clustering>
<clus scale="   26.708">  1  9  2 -1</clus>
<clus scale="   88.469">  5  6 -1 -1</clus>
<clus scale="   91.724">  7  8 -1 -1</clus>
<clus scale="   94.182">  1  5  2 -1</clus>
<clus scale="   26.708">  1  5  2 -1</clus>
</clustering>
</event>
<event>
 9    1  0.1504846E-005  0.9665805E+02  0.7546771E-02  0.1288982E+00
         -2   -1    0    0    0  501 -0.00000000000E+00  0.00000000000E+00  0.10007316289E+03  0.10007316289E+03  0.00000000000E+00 0.  1.
         21   -1    0    0  501  502  0.00000000000E+00 -0.00000000000E+00 -0.25463219334E+03  0.25463219334E+03  0.00000000000E+00 0.  1.
         23    2    1    2    0    0  0.13892369141E+02 -0.34029087076E+02  0.17543180636E+02  0.97196358418E+02  0.88251868055E+02 0.  0.
         23    2    1    2    0    0  0.25546374837E+02  0.29543934675E+02 -0.21052236576E+02  0.10133081139E+03  0.91100358549E+02 0.  0.
        -13    1    4    4    0    0  0.16143518638E+02 -0.32369040941E+02 -0.11680277440E+02  0.38010483903E+02  0.00000000000E+00 0.  1.
         13    1    4    4    0    0  0.94028561998E+01  0.61912975617E+02 -0.93719591360E+01  0.63320327482E+02  0.00000000000E+00 0. -1.
        -13    1    3    3    0    0  0.51316792879E+02 -0.25073182486E+02  0.10935191102E+02  0.58152008700E+02  0.00000000000E+00 0.  1.
         13    1    3    3    0    0 -0.37424423739E+02 -0.89559045897E+01  0.66079895339E+01  0.39044349718E+02  0.00000000000E+00 0. -1.
         -2    1    1    2    0  502 -0.39438743978E+02  0.44851524009E+01 -0.15104997450E+03  0.15617818643E+03  0.00000000000E+00 0.  1.
<scales pt_clust_5="13000.00000" pt_clust_6="13000.00000" pt_clust_7="13000.00000" pt_clust_8="13000.00000" pt_clust_9="39.69296"></scales>
<clustering>
<clus scale="   39.693">  2  9  1 -1</clus>
<clus scale="   88.252">  7  8 -1 -1</clus>
<clus scale="   91.100">  5  6 -1 -1</clus>
<clus scale="   93.978">  1  7  2 -1</clus>
<clus scale="   39.693">  2  5  1 -1</clus>
</clustering>
</event>
<event>
 9    1  0.1504846E-005  0.3398075E+03  0.7546771E-02  0.1095881E+00
         21   -1    0    0  501  502  0.00000000000E+00  0.00000000000E+00  0.11988831500E+03  0.11988831500E+03  0.00000000000E+00 0. -1.
          2   -1    0    0  502    0 -0.00000000000E+00 -0.00000000000E+00 -0.24099889158E+04  0.24099889158E+04  0.00000000000E+00 0.  1.
         23    2    1    2    0    0 -0.19959178712E+02 -0.12408955009E+03 -0.46150119698E+03  0.48711128855E+03  0.92181708437E+02 0.  0.
         23    2    1    2    0    0  0.27794278999E+03  0.20125989188E+03 -0.23120015314E+03  0.42282916216E+03  0.87024427497E+02 0.  0.
        -11    1    3    3    0    0 -0.20747484478E+02 -0.40579208914E+02 -0.51845987781E+02  0.69029969993E+02  0.00000000000E+00 0.  1.
         11    1    3    3    0    0  0.78830576674E+00 -0.83510341176E+02 -0.40965520920E+03  0.41808131856E+03  0.00000000000E+00 0. -1.
        -13    1    4    4    0    0  0.58778151089E+02  0.90391823949E+02 -0.59461400137E+02  0.12313086936E+03  0.00000000000E+00 0. -1.
         13    1    4    4    0    0  0.21916463890E+03  0.11086806793E+03 -0.17173875300E+03  0.29969829281E+03  0.00000000000E+00 0.  1.
          2    1    1    2  501    0 -0.25798361128E+03 -0.77170341787E+02 -0.15973992507E+04  0.16199367801E+04  0.00000000000E+00 0.  1.
<scales pt_clust_5="13000.00000" pt_clust_6="13000.00000" pt_clust_7="13000.00000" pt_clust_8="13000.00000" pt_clust_9="328.47525"></scales>
<clustering>
<clus scale="   87.024">  7  8 -1 -1</clus>
<clus scale="   92.182">  5  6 -1 -1</clus>
<clus scale="  155.865">  2  5  1 -1</clus>
<clus scale="  328.475">  1  9  2 -1</clus>
<clus scale="  328.475">  1  5  2 -1</clus>
</clustering>
</event>
<event>
 9    1  0.1504846E-005  0.9831993E+02  0.7546771E-02  0.1287459E+00
         21   -1    0    0  501  502  0.00000000000E+00  0.00000000000E+00  0.25952043229E+03  0.25952043229E+03  0.00000000000E+00 0.  1.
          4   -1    0    0  502    0 -0.00000000000E+00 -0.00000000000E+00 -0.46935797820E+02  0.46935797820E+02  0.00000000000E+00 0. -1.
         23    2    1    2    0    0  0.33456163986E+02 -0.17484045519E+02  0.89419522406E+02  0.13331770759E+03  0.91393399178E+02 0.  0.
         23    2    1    2    0    0 -0.13800224397E+02  0.37475752052E+02  0.89917954988E+02  0.12964831966E+03  0.84430859146E+02 0.  0.
        -11    1    4    4    0    0  0.25670641732E+02  0.37801335998E+02  0.74242919766E+02  0.87177600251E+02  0.00000000000E+00 0. -1.
         11    1    4    4    0    0 -0.39470866129E+02 -0.32558394562E+00  0.15675035222E+02  0.42470719409E+02  0.00000000000E+00 0.  1.
        -13    1    3    3    0    0  0.17462710107E+02 -0.55143221172E+02  0.49042713858E+02  0.75834747102E+02  0.00000000000E+00 0. -1.
         13    1    3    3    0    0  0.15993453879E+02  0.37659175653E+02  0.40376808549E+02  0.57482960488E+02  0.00000000000E+00 0.  1.
          4    1    1    2  501    0 -0.19655939589E+02 -0.19991706533E+02  0.33247157080E+02  0.43490202864E+02  0.00000000000E+00 0. -1.
<scales pt_clust_5="13000.00000" pt_clust_6="13000.00000" pt_clust_7="13000.00000" pt_clust_8="13000.00000" pt_clust_9="28.03612"></scales>
<clustering>
<clus scale="   28.036">  1  9  2 -1</clus>
<clus scale="   84.431">  5  6 -1 -1</clus>
<clus scale="   91.393">  7  8 -1 -1</clus>
<clus scale="   91.884">  1  5  2 -1</clus>
<clus scale="   28.036">  1  5  2 -1</clus>
</clustering>
</event>
<event>
 9    1  0.1504846E-005  0.1893524E+03  0.7546771E-02  0.1178359E+00
         21   -1    0    0  501  502  0.00000000000E+00  0.00000000000E+00  0.81728903510E+02  0.81728903510E+02  0.00000000000E+00 0.  1.
          1   -1    0    0  502    0 -0.00000000000E+00 -0.00000000000E+00 -0.71595241461E+03  0.71595241461E+03  0.00000000000E+00 0. -1.
         23    2    1    2    0    0 -0.33728813776E+02  0.72490492325E+02 -0.14341584821E+03  0.18803592286E+03  0.91634591801E+02 0.  0.
         23    2    1    2    0    0  0.17581532989E+03 -0.66608414329E+02 -0.23158996325E+03  0.31398174732E+03  0.97994466620E+02 0.  0.
        -11    1    4    4    0    0  0.23982285863E+02 -0.38186083875E+02 -0.10497757752E+03  0.11425243463E+03  0.00000000000E+00 0. -1.
         11    1    4    4    0    0  0.15183304403E+03 -0.28422330454E+02 -0.12661238572E+03  0.19972931268E+03  0.00000000000E+00 0.  1.
        -11    1    3    3    0    0  0.30779943505E+02  0.32018770025E+02 -0.65021906215E+02  0.78742966949E+02  0.00000000000E+00 0.  1.
         11    1    3    3    0    0 -0.64508757281E+02  0.40471722300E+02 -0.78393941991E+02  0.10929295592E+03  0.00000000000E+00 0. -1.
          1    1    1    2  501    0 -0.14208651611E+03 -0.58820779957E+01 -0.25921769965E+03  0.29566364794E+03  0.00000000000E+00 0. -1.
<scales pt_clust_5="13000.00000" pt_clust_6="13000.00000" pt_clust_7="13000.00000" pt_clust_8="13000.00000" pt_clust_9="162.02294"></scales>
<clustering>
<clus scale="   91.635">  7  8 -1 -1</clus>
<clus scale="   97.994">  5  6 -1 -1</clus>
<clus scale="  121.612">  2  7  1 -1</clus>
<clus scale="  162.023">  1  9  2 -1</clus>
<clus scale="  162.023">  1  5  2 -1</clus>
</clustering>
</event>
<event>
 9    1  0.1504846E-005  0.1097171E+03  0.7546771E-02  0.1264230E+00
          3   -1    0    0  502    0 -0.00000000000E+00  0.00000000000E+00  0.48573760899E+03  0.48573760899E+03  0.00000000000E+00 0. -1.
         21   -1    0    0  501  502  0.00000000000E+00 -0.00000000000E+00 -0.32791955774E+02  0.32791955774E+02  0.00000000000E+00 0.  1.
         23    2    1    2    0    0  0.81661455255E+01  0.41971450289E+02  0.25509733227E+03  0.27392618961E+03  0.90181039290E+02 0.  0.
         23    2    1    2    0    0 -0.64075905426E+01 -0.66135491630E+02  0.14922498134E+03  0.19027821926E+03  0.97584554092E+02 0.  0.
        -11    1    3    3    0    0 -0.29408124921E+02  0.46699598688E+02  0.19693263962E+03  0.20451932642E+03  0.00000000000E+00 0. -1.
         11    1    3    3    0    0  0.37574270446E+02 -0.47281483982E+01  0.58164692651E+02  0.69406863191E+02  0.00000000000E+00 0.  1.
        -11    1    4    4    0    0 -0.40368960534E+02 -0.37769541474E+01  0.86514175498E+02  0.95543816750E+02  0.00000000000E+00 0. -1.
         11    1    4    4    0    0  0.33961369991E+02 -0.62358537482E+02  0.62710805844E+02  0.94734402506E+02  0.00000000000E+00 0.  1.
          3    1    1    2  501    0 -0.17585549828E+01  0.24164041340E+02  0.48623339596E+02  0.54325155895E+02  0.00000000000E+00 0. -1.
<scales pt_clust_5="13000.00000" pt_clust_6="13000.00000" pt_clust_7="13000.00000" pt_clust_8="13000.00000" pt_clust_9="24.22796"></scales>
<clustering>
<clus scale="   24.228">  2  9  1 -1</clus>
<clus scale="   90.181">  5  6 -1 -1</clus>
<clus scale="   97.585">  7  8 -1 -1</clus>
<clus scale="  103.188">  1  5  2 -1</clus>
<clus scale="   24.228">  2  5  1 -1</clus>
</clustering>
</event>
<event>
 9    1  0.1504846E-005  0.1064004E+03  0.7546771E-02  0.1268813E+00
         21   -1    0    0  501  502  0.00000000000E+00  0.00000000000E+00  0.57572690258E+03  0.57572690258E+03  0.00000000000E+00 0. -1.
          1   -1    0    0  502    0 -0.00000000000E+00 -0.00000000000E+00 -0.12636659715E+03  0.12636659715E+03  0.00000000000E+00 0. -1.
         23    2    1    2    0    0  0.63244935174E+02  0.13347967174E+02 -0.66365880747E+02  0.12920046926E+03  0.90056876905E+02 0.  0.
         23    2    1    2    0    0 -0.11250034710E+02 -0.58994387802E+02  0.81595993293E+02  0.13328401126E+03  0.86601503815E+02 0.  0.
        -13    1    3    3    0    0 -0.25171263330E+01  0.30540455356E+02 -0.51023010998E+02  0.59518089600E+02  0.00000000000E+00 0. -1.
         13    1    3    3    0    0  0.65762061507E+02 -0.17192488182E+02 -0.15342869749E+02  0.69682379664E+02  0.00000000000E+00 0.  1.
        -13    1    4    4    0    0 -0.28746067474E+02  0.10243725511E+02  0.41087617732E+02  0.51180686186E+02  0.00000000000E+00 0.  1.
         13    1    4    4    0    0  0.17496032764E+02 -0.69238113313E+02  0.40508375561E+02  0.82103325074E+02  0.00000000000E+00 0. -1.
          1    1    1    2  501    0 -0.51994900464E+02  0.45646420628E+02  0.43413019289E+03  0.43960901920E+03  0.00000000000E+00 0. -1.
<scales pt_clust_5="13000.00000" pt_clust_6="13000.00000" pt_clust_7="13000.00000" pt_clust_8="13000.00000" pt_clust_9="69.18862"></scales>
<clustering>
<clus scale="   69.189">  1  9  2 -1</clus>
<clus scale="   86.602">  7  8 -1 -1</clus>
<clus scale="   90.057">  5  6 -1 -1</clus>
<clus scale="  103.492">  1  7  2 -1</clus>
<clus scale="   69.189">  1  5  2 -1</clus>
</clustering>
</event>
<event>
 9    1  0.1504846E-005  0.1869123E+03  0.7546771E-02  0.1161778E+00
          3   -1    0    0  502    0 -0.00000000000E+00  0.00000000000E+00  0.30738082344E+03  0.30738082344E+03  0.00000000000E+00 0. -1.
         21   -1    0    0  501  502  0.00000000000E+00 -0.00000000000E+00 -0.20402542736E+03  0.20402542736E+03  0.00000000000E+00 0.  1.
         23    2    1    2    0    0 -0.70492582587E+00 -0.15980164479E+03  0.10988014722E+03  0.21192438606E+03  0.85447270621E+02 0.  0.
         23    2    1    2    0    0  0.66233643577E+02  0.16393317791E+03  0.58720360854E+02  0.20691833492E+03  0.90034072350E+02 0.  0.
        -11    1    4    4    0    0  0.58956059702E+02  0.98727502458E+02  0.77504450566E+02  0.13867183050E+03  0.00000000000E+00 0.  1.
         11    1    4    4    0    0  0.72775838750E+01  0.65205675453E+02 -0.18784089712E+02  0.68246504414E+02  0.00000000000E+00 0. -1.
        -11    1    3    3    0    0  0.92427553936E+01 -0.52022146277E+02 -0.62135793004E+01  0.53200947343E+02  0.00000000000E+00 0.  1.
         11    1    3    3    0    0 -0.99476812195E+01 -0.10777949851E+03  0.11609372652E+03  0.15872343871E+03  0.00000000000E+00 0. -1.
          3    1    1    2  501    0 -0.65528717751E+02 -0.41315331251E+01 -0.65245111988E+02  0.92563529829E+02  0.00000000000E+00 0. -1.
<scales pt_clust_5="13000.00000" pt_clust_6="13000.00000" pt_clust_7="13000.00000" pt_clust_8="13000.00000" pt_clust_9="65.65883"></scales>
<clustering>
<clus scale="   65.659">  2  9  1 -1</clus>
<clus scale="   85.447">  7  8 -1 -1</clus>
<clus scale="   90.034">  5  6 -1 -1</clus>
<clus scale="  184.747">  1  7  2 -1</clus>
<clus scale="   65.659">  2  5  1 -1</clus>
</clustering>
</event>
<event>
 9    1  0.1504846E-005  0.1518076E+03  0.7546771E-02  0.1198473E+00
         21   -1    0    0  501  502  0.00000000000E+00  0.00000000000E+00  0.24123589039E+03  0.24123589039E+03  0.00000000000E+00 0. -1.
         -4   -1    0    0    0  501 -0.00000000000E+00 -0.00000000000E+00 -0.27953149107E+03  0.27953149107E+03  0.00000000000E+00 0.  1.
         23    2    1    2    0    0  0.14197297233E+02 -0.93886318014E+02 -0.43412887155E+02  0.13925607435E+03  0.92148638151E+02 0.  0.
         23    2    1    2    0    0 -0.10071591209E+02  0.20847044677E+03  0.83599491539E+02  0.24256527255E+03  0.91036653798E+02 0.  0.
        -11    1    4    4    0    0 -0.34016831500E+02  0.24559628212E+02  0.20195167493E+02  0.46563558211E+02  0.00000000000E+00 0.  1.
         11    1    4    4    0    0  0.23945240291E+02  0.18391081855E+03  0.63404324046E+02  0.19600171433E+03  0.00000000000E+00 0. -1.
        -13    1    3    3    0    0 -0.89057778503E+01 -0.65334183271E+02  0.17415319769E+02  0.68199426284E+02  0.00000000000E+00 0. -1.
         13    1    3    3    0    0  0.23103075084E+02 -0.28552134743E+02 -0.60828206924E+02  0.71056648065E+02  0.00000000000E+00 0.  1.
         -4    1    1    2    0  502 -0.41257060242E+01 -0.11458412875E+03 -0.78482205063E+02  0.13894603457E+03  0.00000000000E+00 0.  1.
<scales pt_clust_5="13000.00000" pt_clust_6="13000.00000" pt_clust_7="13000.00000" pt_clust_8="13000.00000" pt_clust_9="114.65844"></scales>
<clustering>
<clus scale="   91.037">  5  6 -1 -1</clus>
<clus scale="   92.149">  7  8 -1 -1</clus>
<clus scale="  114.658">  1  9  2 -1</clus>
<clus scale="  151.135">  1  5  2 -1</clus>
<clus scale="  114.658">  1  5  2 -1</clus>
</clustering>
</event>
<event>
 9    1  0.1504846E-005  0.1057962E+03  0.7546771E-02  0.1269168E+00
         -2   -1    0    0    0  501 -0.00000000000E+00  0.00000000000E+00  0.45145935282E+03  0.45145935282E+03  0.00000000000E+00 0.  1.
         21   -1    0    0  501  502  0.00000000000E+00 -0.00000000000E+00 -0.36666414359E+02  0.36666414359E+02  0.00000000000E+00 0. -1.
         23    2    1    2    0    0  0.24032769352E+02 -0.32074213744E+02  0.18431362412E+03  0.20891289962E+03  0.89815134599E+02 0.  0.
         23    2    1    2    0    0 -0.55254649875E+02  0.43884668462E+02  0.21123989959E+03  0.24068433600E+03  0.91256309143E+02 0.  0.
        -11    1    3    3    0    0  0.48530645267E+02 -0.22202613774E+02  0.17139332859E+03  0.17951003502E+03  0.00000000000E+00 0. -1.
         11    1    3    3    0    0 -0.24497875915E+02 -0.98715999699E+01  0.12920295533E+02  0.29402864605E+02  0.00000000000E+00 0.  1.
        -13    1    4    4    0    0  0.87693618120E+01  0.36232610972E+02  0.28567830284E+02  0.46966208401E+02  0.00000000000E+00 0. -1.
         13    1    4    4    0    0 -0.64024011687E+02  0.76520574901E+01  0.18267206930E+03  0.19371812760E+03  0.00000000000E+00 0.  1.
         -2    1    1    2    0  502  0.31221880523E+02 -0.11810454717E+02  0.19239414759E+02  0.38528531561E+02  0.00000000000E+00 0.  1.
<scales pt_clust_5="13000.00000" pt_clust_6="13000.00000" pt_clust_7="13000.00000" pt_clust_8="13000.00000" pt_clust_9="33.38102"></scales>
<clustering>
<clus scale="   33.381">  2  9  1 -1</clus>
<clus scale="   89.815">  5  6 -1 -1</clus>
<clus scale="   91.256">  7  8 -1 -1</clus>
<clus scale="  104.556">  1  5  2 -1</clus>
<clus scale="   33.381">  2  5  1 -1</clus>
</clustering>
</event>
<event>
 9    1  0.1832089E-005  0.2573877E+03  0.7546771E-02  0.1123720E+00
          2   -1    0    0  502    0 -0.00000000000E+00  0.00000000000E+00  0.67568949057E+03  0.67568949057E+03  0.00000000000E+00 0. -1.
         21   -1    0    0  501  502  0.00000000000E+00 -0.00000000000E+00 -0.20128961549E+03  0.20128961549E+03  0.00000000000E+00 0. -1.
         23    2    1    2    0    0  0.13130426952E+03 -0.30501951758E+02  0.93907908579E+02  0.19986378186E+03  0.11382291400E+03 0.  0.
         23    2    1    2    0    0 -0.32188452841E+03  0.86814180995E+02  0.30712523738E+03  0.46527911582E+03  0.10493994723E+03 0.  0.
        -11    1    4    4    0    0 -0.20807439792E+02 -0.47214874374E+01 -0.51493475517E+01  0.21948981173E+02  0.00000000000E+00 0.  1.
         11    1    4    4    0    0 -0.30107708862E+03  0.91535668433E+02  0.31227458494E+03  0.44333013464E+03  0.00000000000E+00 0. -1.
        -13    1    3    3    0    0  0.92829383128E+02 -0.73705554384E+02  0.65194631663E+02  0.13527802156E+03  0.00000000000E+00 0.  1.
         13    1    3    3    0    0  0.38474886391E+02  0.43203602626E+02  0.28713276916E+02  0.64585760303E+02  0.00000000000E+00 0. -1.
          2    1    1    2  501    0  0.19058025889E+03 -0.56312229237E+02  0.73366729125E+02  0.21183620838E+03  0.00000000000E+00 0. -1.
<scales pt_clust_5="13000.00000" pt_clust_6="13000.00000" pt_clust_7="13000.00000" pt_clust_8="13000.00000" pt_clust_9="235.02353"></scales>
<clustering>
<clus scale="  104.940">  5  6 -1 -1</clus>
<clus scale="  113.823">  7  8 -1 -1</clus>
<clus scale="  176.428">  1  7  2 -1</clus>
<clus scale="  235.024">  2  9  1 -1</clus>
<clus scale="  235.024">  2  5  1 -1</clus>
</clustering>
</event>
<event>
 9    1  0.1504846E-005  0.1405473E+03  0.7546771E-02  0.1212735E+00
         21   -1    0    0  501  502  0.00000000000E+00  0.00000000000E+00  0.69365162194E+02  0.69365162194E+02  0.00000000000E+00 0. -1.
         -3   -1    0    0    0  501 -0.00000000000E+00 -0.00000000000E+00 -0.42784463901E+03  0.42784463901E+03  0.00000000000E+00 0.  1.
         23    2    1    2    0    0  0.37294476535E+02 -0.99840879370E+02 -0.20745059421E+03  0.25068311384E+03  0.91908625011E+02 0.  0.
         23    2    1    2    0    0 -0.57307829907E+02  0.90678182847E+02 -0.16764063754E+03  0.21895061581E+03  0.91264826720E+02 0.  0.
        -11    1    3    3    0    0 -0.15576296206E+02 -0.72314809967E+02 -0.15302443902E+03  0.16996626630E+03  0.00000000000E+00 0.  1.
         11    1    3    3    0    0  0.52870772741E+02 -0.27526069404E+02 -0.54426155199E+02  0.80716847540E+02  0.00000000000E+00 0. -1.
        -13    1    4    4    0    0 -0.19919948674E+02  0.47269168215E+02 -0.11412553898E+02  0.52549262653E+02  0.00000000000E+00 0.  1.
         13    1    4    4    0    0 -0.37387881233E+02  0.43409014631E+02 -0.15622808364E+03  0.16640135316E+03  0.00000000000E+00 0. -1.
         -3    1    1    2    0  502  0.20013353372E+02  0.91626965235E+01  0.16611754931E+02  0.27576071559E+02  0.00000000000E+00 0.  1.
<scales pt_clust_5="13000.00000" pt_clust_6="13000.00000" pt_clust_7="13000.00000" pt_clust_8="13000.00000" pt_clust_9="22.01112"></scales>
<clustering>
<clus scale="   22.011">  1  9  2 -1</clus>
<clus scale="   91.265">  7  8 -1 -1</clus>
<clus scale="   91.909">  5  6 -1 -1</clus>
<clus scale="  140.127">  1  7  2 -1</clus>
<clus scale="   22.011">  1  5  2 -1</clus>
</clustering>
</event>
<event>
 9    1  0.1504846E-005  0.1324360E+03  0.7546771E-02  0.1224569E+00
         21   -1    0    0  501  502  0.00000000000E+00  0.00000000000E+00  0.35859861806E+03  0.35859861806E+03  0.00000000000E+00 0. -1.
          1   -1    0    0  502    0 -0.00000000000E+00 -0.00000000000E+00 -0.81928831463E+02  0.81928831463E+02  0.00000000000E+00 0. -1.
         23    2    1    2    0    0 -0.48980974399E+02 -0.95237310656E+02  0.31434818572E+02  0.14370648060E+03  0.90521398315E+02 0.  0.
         23    2    1    2    0    0  0.39149525843E+02  0.60459492728E+02  0.12713858728E+03  0.17331830035E+03  0.93203954990E+02 0.  0.
        -11    1    3    3    0    0 -0.31300640983E+02 -0.30290256445E+02  0.56971481998E+02  0.71714569806E+02  0.00000000000E+00 0.  1.
         11    1    3    3    0    0 -0.17680333415E+02 -0.64947054210E+02 -0.25536663426E+02  0.71991910790E+02  0.00000000000E+00 0. -1.
        -13    1    4    4    0    0  0.60988196151E+02  0.12481630013E+02  0.49788093767E+02  0.79713270152E+02  0.00000000000E+00 0.  1.
         13    1    4    4    0    0 -0.21838670307E+02  0.47977862715E+02  0.77350493511E+02  0.93605030195E+02  0.00000000000E+00 0. -1.
          1    1    1    2  501    0  0.98314485553E+01  0.34777817928E+02  0.11809638075E+03  0.12350266858E+03  0.00000000000E+00 0. -1.
<scales pt_clust_5="13000.00000" pt_clust_6="13000.00000" pt_clust_7="13000.00000" pt_clust_8="13000.00000" pt_clust_9="36.14075"></scales>
<clustering>
<clus scale="   36.141">  1  9  2 -1</clus>
<clus scale="   90.521">  5  6 -1 -1</clus>
<clus scale="   93.204">  7  8 -1 -1</clus>
<clus scale="  130.562">  2  5  1 -1</clus>
<clus scale="   36.141">  1  5  2 -1</clus>
</clustering>
</event>
<event>
 9    1  0.1504846E-005  0.1022807E+03  0.7546771E-02  0.1278363E+00
          1   -1    0    0  502    0 -0.00000000000E+00  0.00000000000E+00  0.29756639342E+03  0.29756639342E+03  0.00000000000E+00 0. -1.
         21   -1    0    0  501  502  0.00000000000E+00 -0.00000000000E+00 -0.55276347291E+02  0.55276347291E+02  0.00000000000E+00 0.  1.
         23    2    1    2    0    0  0.19319277961E+02 -0.27709712471E+02  0.18947919173E+03  0.21287137659E+03  0.90943917919E+02 0.  0.
         23    2    1    2    0    0 -0.23482691825E+00  0.38032894656E+02  0.56141675251E+02  0.11801962776E+03  0.96592901484E+02 0.  0.
        -11    1    4    4    0    0  0.31050401359E+02  0.33174426519E+02 -0.83279609985E+01  0.46195507723E+02  0.00000000000E+00 0.  1.
         11    1    4    4    0    0 -0.31285228277E+02  0.48584681372E+01  0.64469636249E+02  0.71824120037E+02  0.00000000000E+00 0. -1.
        -13    1    3    3    0    0 -0.42577213859E+01  0.28436375843E+02  0.27350977100E+02  0.39684148105E+02  0.00000000000E+00 0.  1.
         13    1    3    3    0    0  0.23576999347E+02 -0.56146088315E+02  0.16212821463E+03  0.17318722848E+03  0.00000000000E+00 0. -1.
          1    1    1    2  501    0 -0.19084451043E+02 -0.10323182185E+02 -0.33308208446E+01  0.21951736367E+02  0.00000000000E+00 0. -1.
<scales pt_clust_5="13000.00000" pt_clust_6="13000.00000" pt_clust_7="13000.00000" pt_clust_8="13000.00000" pt_clust_9="21.69757"></scales>
<clustering>
<clus scale="   21.698">  2  9  1 -1</clus>
<clus scale="   90.944">  7  8 -1 -1</clus>
<clus scale="   96.593">  5  6 -1 -1</clus>
<clus scale="   96.964">  1  7  2 -1</clus>
<clus scale="   21.698">  2  5  1 -1</clus>
</clustering>
</event>
<event>
 9    1  0.1504846E-005  0.1462240E+03  0.7546771E-02  0.1219655E+00
         21   -1    0    0  501  502  0.00000000000E+00  0.00000000000E+00  0.30293089138E+03  0.30293089138E+03  0.00000000000E+00 0.  1.
         -1   -1    0    0    0  501 -0.00000000000E+00 -0.00000000000E+00 -0.23206399128E+03  0.23206399128E+03  0.00000000000E+00 0.  1.
         23    2    1    2    0    0  0.47318153878E+02 -0.48095275285E+02  0.24356788974E+00  0.10750508681E+03  0.83696601921E+02 0.  0.
         23    2    1    2    0    0 -0.50321890761E+01  0.15252421697E+03 -0.11434904644E+03  0.21090658425E+03  0.90093968533E+02 0.  0.
        -13    1    3    3    0    0  0.49058363355E+02  0.43341469777E+01 -0.17286724590E+02  0.52195197980E+02  0.00000000000E+00 0.  1.
         13    1    3    3    0    0 -0.17402094764E+01 -0.52429422263E+02  0.17530292480E+02  0.55309888829E+02  0.00000000000E+00 0. -1.
        -13    1    4    4    0    0  0.30314527945E+02  0.13243923204E+03 -0.79883752289E+02  0.15760880263E+03  0.00000000000E+00 0.  1.
         13    1    4    4    0    0 -0.35346717022E+02  0.20084984938E+02 -0.34465294151E+02  0.53297781615E+02  0.00000000000E+00 0. -1.
         -1    1    1    2    0  502 -0.42285964802E+02 -0.10442894169E+03  0.18497237866E+03  0.21658321160E+03  0.00000000000E+00 0.  1.
<scales pt_clust_5="13000.00000" pt_clust_6="13000.00000" pt_clust_7="13000.00000" pt_clust_8="13000.00000" pt_clust_9="115.17175"></scales>
<clustering>
<clus scale="   83.697">  5  6 -1 -1</clus>
<clus scale="   90.094">  7  8 -1 -1</clus>
<clus scale="  107.505">  2  5  1 -1</clus>
<clus scale="  115.172">  1  9  2 -1</clus>
<clus scale="  115.172">  1  5  2 -1</clus>
</clustering>
</event>
<event>
 9    1  0.1504846E-005  0.3176194E+03  0.7546771E-02  0.1076776E+00
         21   -1    0    0  501  502  0.00000000000E+00  0.00000000000E+00  0.72105484463E+03  0.72105484463E+03  0.00000000000E+00 0. -1.
          4   -1    0    0  502    0 -0.00000000000E+00 -0.00000000000E+00 -0.15486762307E+03  0.15486762307E+03  0.00000000000E+00 0. -1.
         23    2    1    2    0    0 -0.11208986170E+03 -0.28341158772E+03  0.20997886516E+03  0.38108824511E+03  0.90834253452E+02 0.  0.
         23    2    1    2    0    0  0.92041797921E+02  0.28941658635E+03  0.30738035441E+03  0.44171022945E+03  0.91605630292E+02 0.  0.
        -11    1    3    3    0    0 -0.43801942226E+02 -0.26638741120E+02  0.22974829557E+02  0.56178959268E+02  0.00000000000E+00 0.  1.
         11    1    3    3    0    0 -0.68287919469E+02 -0.25677284660E+03  0.18700403560E+03  0.32490928584E+03  0.00000000000E+00 0. -1.
        -13    1    4    4    0    0 -0.17938390720E+02  0.27946939544E+02  0.38826628034E+02  0.51091333277E+02  0.00000000000E+00 0.  1.
         13    1    4    4    0    0  0.10998018864E+03  0.26146964680E+03  0.26855372638E+03  0.39061889617E+03  0.00000000000E+00 0. -1.
          4    1    1    2  501    0  0.20048063775E+02 -0.60049986314E+01  0.48828001986E+02  0.53123993145E+02  0.00000000000E+00 0. -1.
<scales pt_clust_5="13000.00000" pt_clust_6="13000.00000" pt_clust_7="13000.00000" pt_clust_8="13000.00000" pt_clust_9="20.92809"></scales>
<clustering>
<clus scale="   20.928">  1  9  2 -1</clus>
<clus scale="   90.834">  5  6 -1 -1</clus>
<clus scale="   91.606">  7  8 -1 -1</clus>
<clus scale="  317.398">  2  5  1 -1</clus>
<clus scale="   20.928">  1  5  2 -1</clus>
</clustering>
</event>
<event>
 9    1  0.1504846E-005  0.1177760E+03  0.7546771E-02  0.1254424E+00
         21   -1    0    0  501  502  0.00000000000E+00  0.00000000000E+00  0.44678286568E+03  0.44678286568E+03  0.00000000000E+00 0. -1.
          3   -1    0    0  502    0 -0.00000000000E+00 -0.00000000000E+00 -0.46915545673E+02  0.46915545673E+02  0.00000000000E+00 0. -1.
         23    2    1    2    0    0 -0.15976530269E+01  0.32247553964E+02  0.88419822763E+02  0.14518681524E+03  0.11053817906E+03 0.  0.
         23    2    1    2    0    0 -0.10415466831E+02 -0.51826243616E+02  0.14246056458E+03  0.17797062289E+03  0.92650357115E+02 0.  0.
        -13    1    4    4    0    0 -0.28627150081E+02 -0.65341884905E+02  0.13727763843E+03  0.15470690242E+03  0.00000000000E+00 0.  1.
         13    1    4    4    0    0  0.18211683251E+02  0.13515641289E+02  0.51829261492E+01  0.23263720462E+02  0.00000000000E+00 0. -1.
        -13    1    3    3    0    0 -0.31841682521E+02 -0.26722494145E+02  0.10461121891E+02  0.42865131638E+02  0.00000000000E+00 0.  1.
         13    1    3    3    0    0  0.30244029494E+02  0.58970048109E+02  0.77958700872E+02  0.10232168360E+03  0.00000000000E+00 0. -1.
          3    1    1    2  501    0  0.12013119858E+02  0.19578689652E+02  0.16898693267E+03  0.17054097323E+03  0.00000000000E+00 0. -1.
<scales pt_clust_5="13000.00000" pt_clust_6="13000.00000" pt_clust_7="13000.00000" pt_clust_8="13000.00000" pt_clust_9="22.97042"></scales>
<clustering>
<clus scale="   22.970">  1  9  2 -1</clus>
<clus scale="   92.650">  5  6 -1 -1</clus>
<clus scale="  101.176">  1  5  2 -1</clus>
<clus scale="  110.538">  7  8 -1 -1</clus>
<clus scale="   22.970">  1  5  2 -1</clus>
</clustering>
</event>
<event>
 9    1  0.1504846E-005  0.1043591E+03  0.7546771E-02  0.1271735E+00
         -3   -1    0    0    0  501 -0.00000000000E+00  0.00000000000E+00  0.42661666046E+03  0.42661666046E+03  0.00000000000E+00 0.  1.
         21   -1    0    0  501  502  0.00000000000E+00 -0.00000000000E+00 -0.37690809342E+02  0.37690809342E+02  0.00000000000E+00 0. -1.
         23    2    1    2    0    0 -0.34307941610E+02  0.25728983847E+02  0.21123232034E+03  0.23397476223E+03  0.91027911867E+02 0.  0.
         23    2    1    2    0    0  0.37286289836E+02 -0.46576345365E+02  0.17832762624E+03  0.20926412628E+03  0.91821070074E+02 0.  0.
        -11    1    4    4    0    0  0.62995795696E+02 -0.38601096579E+02  0.87438716248E+02  0.11447289649E+03  0.00000000000E+00 0. -1.
         11    1    4    4    0    0 -0.25709505860E+02 -0.79752487853E+01  0.90888909989E+02  0.94791229783E+02  0.00000000000E+00 0.  1.
        -13    1    3    3    0    0 -0.58429483765E+02 -0.73431431296E+01  0.10982417685E+03  0.12461651634E+03  0.00000000000E+00 0. -1.
         13    1    3    3    0    0  0.24121542156E+02  0.33072126977E+02  0.10140814349E+03  0.10935824590E+03  0.00000000000E+00 0.  1.
         -3    1    1    2    0  502 -0.29783482269E+01  0.20847361518E+02 -0.63409546263E+00  0.21068581287E+02  0.00000000000E+00 0.  1.
<scales pt_clust_5="13000.00000" pt_clust_6="13000.00000" pt_clust_7="13000.00000" pt_clust_8="13000.00000" pt_clust_9="21.05904"></scales>
<clustering>
<clus scale="   21.059">  2  9  1 -1</clus>
<clus scale="   91.028">  7  8 -1 -1</clus>
<clus scale="   91.821">  5  6 -1 -1</clus>
<clus scale="  103.662">  1  7  2 -1</clus>
<clus scale="   21.059">  2  5  1 -1</clus>
</clustering>
</event>
<event>
 9    1  0.1504846E-005  0.1116564E+03  0.7546771E-02  0.1258263E+00
          1   -1    0    0  502    0 -0.00000000000E+00  0.00000000000E+00  0.42009246945E+03  0.42009246945E+03  0.00000000000E+00 0. -1.
         21   -1    0    0  501  502  0.00000000000E+00 -0.00000000000E+00 -0.96255501790E+02  0.96255501790E+02  0.00000000000E+00 0.  1.
         23    2    1    2    0    0  0.15219349041E+02  0.59909521190E+02  0.17232980654E+03  0.20415562154E+03  0.90339228850E+02 0.  0.
         23    2    1    2    0    0  0.39621307507E+02 -0.69158752912E+02  0.20370790130E+03  0.23591677579E+03  0.88357427144E+02 0.  0.
        -13    1    3    3    0    0 -0.37966172267E+02  0.30150856255E+02  0.78930985165E+02  0.92631553958E+02  0.00000000000E+00 0.  1.
         13    1    3    3    0    0  0.53185521308E+02  0.29758664935E+02  0.93398821379E+02  0.11152406758E+03  0.00000000000E+00 0. -1.
        -13    1    4    4    0    0  0.86649940538E+01 -0.45393828532E+02  0.18841699052E+03  0.19400166007E+03  0.00000000000E+00 0. -1.
         13    1    4    4    0    0  0.30956313453E+02 -0.23764924381E+02  0.15290910781E+02  0.41915115721E+02  0.00000000000E+00 0.  1.
          1    1    1    2  501    0 -0.54840656548E+02  0.92492317221E+01 -0.52200740192E+02  0.76275573906E+02  0.00000000000E+00 0. -1.
<scales pt_clust_5="13000.00000" pt_clust_6="13000.00000" pt_clust_7="13000.00000" pt_clust_8="13000.00000" pt_clust_9="55.61516"></scales>
<clustering>
<clus scale="   55.615">  2  9  1 -1</clus>
<clus scale="   88.357">  7  8 -1 -1</clus>
<clus scale="   90.339">  5  6 -1 -1</clus>
<clus scale="  110.059">  2  7  1 -1</clus>
<clus scale="   55.615">  2  5  1 -1</clus>
</clustering>
</event>
<event>
 9    1  0.1504846E-005  0.9621135E+02  0.7546771E-02  0.1288879E+00
         21   -1    0    0  501  502  0.00000000000E+00  0.00000000000E+00  0.42734500016E+03  0.42734500016E+03  0.00000000000E+00 0.  1.
         -1   -1    0    0    0  501 -0.00000000000E+00 -0.00000000000E+00 -0.95204934325E+02  0.95204934325E+02  0.00000000000E+00 0.  1.
         23    2    1    2    0    0  0.52000481951E+01  0.26039655242E+02 -0.51794831626E+02  0.10848708447E+03  0.91551290363E+02 0.  0.
         23    2    1    2    0    0 -0.47871815928E+02 -0.18546023618E+02  0.21342158427E+03  0.23813154452E+03  0.92315730582E+02 0.  0.
        -13    1    4    4    0    0 -0.20560674719E+02 -0.54694731057E+02  0.14200059619E+03  0.15355267587E+03  0.00000000000E+00 0. -1.
         13    1    4    4    0    0 -0.27311141209E+02  0.36148707438E+02  0.71420988081E+02  0.84578868650E+02  0.00000000000E+00 0.  1.
        -13    1    3    3    0    0  0.88860129158E+01  0.48376107133E+02  0.29217478508E+01  0.49272158238E+02  0.00000000000E+00 0.  1.
         13    1    3    3    0    0 -0.36859647208E+01 -0.22336451891E+02 -0.54716579476E+02  0.59214926232E+02  0.00000000000E+00 0. -1.
         -1    1    1    2    0  502  0.42671767733E+02 -0.74936316235E+01  0.17051331320E+03  0.17593130550E+03  0.00000000000E+00 0.  1.
<scales pt_clust_5="13000.00000" pt_clust_6="13000.00000" pt_clust_7="13000.00000" pt_clust_8="13000.00000" pt_clust_9="43.32475"></scales>
<clustering>
<clus scale="   43.325">  1  9  2 -1</clus>
<clus scale="   91.551">  7  8 -1 -1</clus>
<clus scale="   92.316">  5  6 -1 -1</clus>
<clus scale="   95.478">  2  7  1 -1</clus>
<clus scale="   43.325">  1  5  2 -1</clus>
</clustering>
</event>
<event>
 9    1  0.1504846E-005  0.2551765E+03  0.7546771E-02  0.1110258E+00
         21   -1    0    0  501  502  0.00000000000E+00  0.00000000000E+00  0.40101138089E+03  0.40101138089E+03  0.00000000000E+00 0.  1.
         -2   -1    0    0    0  501 -0.00000000000E+00 -0.00000000000E+00 -0.35914029042E+03  0.35914029042E+03  0.00000000000E+00 0.  1.
         23    2    1    2    0    0 -0.72483956439E+02  0.23383028935E+03 -0.23290382064E+03  0.35061692716E+03  0.93581578207E+02 0.  0.
         23    2    1    2    0    0  0.80591879143E+02 -0.19629088238E+03  0.14088334545E+03  0.27024405228E+03  0.90324798813E+02 0.  0.
        -11    1    3    3    0    0 -0.76241257951E+02  0.15924616351E+03 -0.11385332071E+03  0.21008248057E+03  0.00000000000E+00 0.  1.
         11    1    3    3    0    0  0.37573015118E+01  0.74584125840E+02 -0.11905049994E+03  0.14053444659E+03  0.00000000000E+00 0. -1.
        -13    1    4    4    0    0  0.46532122295E+02 -0.31170619910E+02  0.10197292882E+02  0.56928294661E+02  0.00000000000E+00 0.  1.
         13    1    4    4    0    0  0.34059756848E+02 -0.16512026247E+03  0.13068605257E+03  0.21331575762E+03  0.00000000000E+00 0. -1.
         -2    1    1    2    0  502 -0.81079227036E+01 -0.37539406975E+02  0.13389156566E+03  0.13929069187E+03  0.00000000000E+00 0.  1.
<scales pt_clust_5="13000.00000" pt_clust_6="13000.00000" pt_clust_7="13000.00000" pt_clust_8="13000.00000" pt_clust_9="38.40502"></scales>
<clustering>
<clus scale="   38.405">  1  9  2 -1</clus>
<clus scale="   90.325">  7  8 -1 -1</clus>
<clus scale="   93.582">  5  6 -1 -1</clus>
<clus scale="  254.000">  1  7  2 -1</clus>
<clus scale="   38.405">  1  5  2 -1</clus>
</clustering>
</event>
<event>
 9    1  0.1504846E-005  0.1020933E+03  0.7546771E-02  0.1276138E+00
         -1   -1    0    0    0  501 -0.00000000000E+00  0.00000000000E+00  0.18296935914E+03  0.18296935914E+03  0.00000000000E+00 0.  1.
         21   -1    0    0  501  502  0.00000000000E+00 -0.00000000000E+00 -0.20437210305E+03  0.20437210305E+03  0.00000000000E+00 0.  1.
         23    2    1    2    0    0  0.86294984727E+01  0.76545624570E+02  0.87155845858E+02  0.14825131507E+03  0.91916321006E+02 0.  0.
         23    2    1    2    0    0 -0.18076485583E+02  0.28825992587E+01  0.12321378838E+02  0.94141690370E+02  0.91519248138E+02 0.  0.
        -11    1    3    3    0    0  0.38332084021E+02  0.33621211704E+02  0.54274421955E+01  0.51275644029E+02  0.00000000000E+00 0.  1.
         11    1    3    3    0    0 -0.29702585548E+02  0.42924412866E+02  0.81728403663E+02  0.96975671039E+02  0.00000000000E+00 0. -1.
        -13    1    4    4    0    0 -0.48044750473E+02 -0.48225949197E+00  0.32365418913E+02  0.57931433295E+02  0.00000000000E+00 0. -1.
         13    1    4    4    0    0  0.29968264889E+02  0.33648587506E+01 -0.20044040075E+02  0.36210257075E+02  0.00000000000E+00 0.  1.
         -1    1    1    2    0  502  0.94469871108E+01 -0.79428223828E+02 -0.12087996860E+03  0.14494845675E+03  0.00000000000E+00 0.  1.
<scales pt_clust_5="13000.00000" pt_clust_6="13000.00000" pt_clust_7="13000.00000" pt_clust_8="13000.00000" pt_clust_9="79.98805"></scales>
<clustering>
<clus scale="   79.988">  2  9  1 -1</clus>
<clus scale="   91.519">  7  8 -1 -1</clus>
<clus scale="   91.916">  5  6 -1 -1</clus>
<clus scale="  101.736">  2  7  1 -1</clus>
<clus scale="   79.988">  2  5  1 -1</clus>
</clustering>
</event>
<event>
 9    1  0.1504846E-005  0.1318478E+03  0.7546771E-02  0.1224767E+00
          1   -1    0    0  502    0 -0.00000000000E+00  0.00000000000E+00  0.41062342092E+03  0.41062342092E+03  0.00000000000E+00 0. -1.
         21   -1    0    0  501  502  0.00000000000E+00 -0.00000000000E+00 -0.23395005039E+03  0.23395005039E+03  0.00000000000E+00 0. -1.
         23    2    1    2    0    0  0.88215417613E+02  0.21692784191E+02  0.31940309753E+03  0.34416280880E+03  0.90427669769E+02 0.  0.
         23    2    1    2    0    0 -0.14142686453E+03  0.67149399978E+01 -0.27264034389E+02  0.17013870451E+03  0.90317234075E+02 0.  0.
        -13    1    4    4    0    0 -0.94806837283E+02 -0.37503213006E+02 -0.47916413287E+01  0.10206756198E+03  0.00000000000E+00 0. -1.
         13    1    4    4    0    0 -0.46620027243E+02  0.44218153004E+02 -0.22472393060E+02  0.68071142529E+02  0.00000000000E+00 0.  1.
        -13    1    3    3    0    0  0.10111667971E+01 -0.27748666399E+02  0.62286350625E+02  0.68195310832E+02  0.00000000000E+00 0.  1.
         13    1    3    3    0    0  0.87204250816E+02  0.49441450590E+02  0.25711674690E+03  0.27596749797E+03  0.00000000000E+00 0. -1.
          1    1    1    2  501    0  0.53211446914E+02 -0.28407724188E+02 -0.11546569260E+03  0.13027195801E+03  0.00000000000E+00 0. -1.
<scales pt_clust_5="13000.00000" pt_clust_6="13000.00000" pt_clust_7="13000.00000" pt_clust_8="13000.00000" pt_clust_9="60.31962"></scales>
<clustering>
<clus scale="   60.320">  2  9  1 -1</clus>
<clus scale="   90.317">  5  6 -1 -1</clus>
<clus scale="   90.428">  7  8 -1 -1</clus>
<clus scale="  131.772">  2  5  1 -1</clus>
<clus scale="   60.320">  2  5  1 -1</clus>
</clustering>
</event>
<event>
 9    1  0.1504846E-005  0.9561102E+02  0.7546771E-02  0.1292080E+00
         21   -1    0    0  501  502  0.00000000000E+00  0.00000000000E+00  0.15523745243E+02  0.15523745243E+02  0.00000000000E+00 0.  1.
          2   -1    0    0  502    0 -0.00000000000E+00 -0.00000000000E+00 -0.77994825908E+03  0.77994825908E+03  0.00000000000E+00 0. -1.
         23    2    1    2    0    0  0.21276094696E+02 -0.12152680254E+02 -0.39286183534E+03  0.40442844093E+03  0.92852476165E+02 0.  0.
         23    2    1    2    0    0 -0.54999389288E+01  0.24745302179E+02 -0.22649731828E+03  0.24458053067E+03  0.88746951978E+02 0.  0.
        -11    1    4    4    0    0 -0.35857373131E+02  0.17642881820E+02 -0.19911539771E+03  0.20308610019E+03  0.00000000000E+00 0.  1.
         11    1    4    4    0    0  0.30357434202E+02  0.71024203594E+01 -0.27381920574E+02  0.41494430477E+02  0.00000000000E+00 0. -1.
        -11    1    3    3    0    0 -0.22175032157E+02 -0.35574427119E+02 -0.24457888036E+03  0.24814532160E+03  0.00000000000E+00 0. -1.
         11    1    3    3    0    0  0.43451126853E+02  0.23421746865E+02 -0.14828295498E+03  0.15628311933E+03  0.00000000000E+00 0.  1.
          2    1    1    2  501    0 -0.15776155767E+02 -0.12592621925E+02 -0.14506536022E+03  0.14646303272E+03  0.00000000000E+00 0. -1.
<scales pt_clust_5="13000.00000" pt_clust_6="13000.00000" pt_clust_7="13000.00000" pt_clust_8="13000.00000" pt_clust_9="20.18568"></scales>
<clustering>
<clus scale="   20.186">  1  9  2 -1</clus>
<clus scale="   88.747">  5  6 -1 -1</clus>
<clus scale="   91.629">  1  5  2 -1</clus>
<clus scale="   92.852">  7  8 -1 -1</clus>
<clus scale="   20.186">  1  5  2 -1</clus>
</clustering>
</event>
<event>
 9    1  0.1504846E-005  0.2472122E+03  0.7546771E-02  0.1137398E+00
          3   -1    0    0  502    0 -0.00000000000E+00  0.00000000000E+00  0.10110554010E+03  0.10110554010E+03  0.00000000000E+00 0. -1.
         21   -1    0    0  501  502  0.00000000000E+00 -0.00000000000E+00 -0.12751299579E+04  0.12751299579E+04  0.00000000000E+00 0.  1.
         23    2    1    2    0    0  0.74625602470E+02  0.82518836779E+02 -0.55459195590E+02  0.15277481552E+03  0.88803619932E+02 0.  0.
         23    2    1    2    0    0 -0.23818765924E+03 -0.17236654371E+03 -0.71953324508E+03  0.78294771374E+03  0.93997049294E+02 0.  0.
        -11    1    4    4    0    0 -0.32084756551E+02 -0.36771926575E+02 -0.52140270768E+02  0.71415782728E+02  0.00000000000E+00 0. -1.
         11    1    4    4    0    0 -0.20610290269E+03 -0.13559461713E+03 -0.66739297431E+03  0.71153193101E+03  0.00000000000E+00 0.  1.
        -11    1    3    3    0    0 -0.28802501997E+00  0.25711123567E+02 -0.52791167381E+02  0.58720117395E+02  0.00000000000E+00 0.  1.
         11    1    3    3    0    0  0.74913627490E+02  0.56807713212E+02 -0.26680282096E+01  0.94054698121E+02  0.00000000000E+00 0. -1.
          3    1    1    2  501    0  0.16356205677E+03  0.89847706927E+02 -0.39903197716E+03  0.44051296876E+03  0.00000000000E+00 0. -1.
<scales pt_clust_5="13000.00000" pt_clust_6="13000.00000" pt_clust_7="13000.00000" pt_clust_8="13000.00000" pt_clust_9="228.64475"></scales>
<clustering>
<clus scale="   88.804">  7  8 -1 -1</clus>
<clus scale="   93.997">  5  6 -1 -1</clus>
<clus scale="  142.353">  1  7  2 -1</clus>
<clus scale="  228.645">  2  9  1 -1</clus>
<clus scale="  228.645">  2  5  1 -1</clus>
</clustering>
</event>
<event>
 9    1  0.1504846E-005  0.1040983E+03  0.7546771E-02  0.1272078E+00
         21   -1    0    0  501  502  0.00000000000E+00  0.00000000000E+00  0.68421794642E+02  0.68421794642E+02  0.00000000000E+00 0.  1.
         -1   -1    0    0    0  501 -0.00000000000E+00 -0.00000000000E+00 -0.40406544663E+03  0.40406544663E+03  0.00000000000E+00 0.  1.
         23    2    1    2    0    0  0.60488499466E+02 -0.19285265219E+02 -0.26931556529E+03  0.29136075069E+03  0.91265729137E+02 0.  0.
         23    2    1    2    0    0 -0.25597617263E+02 -0.15441633878E+02 -0.84949593852E+02  0.12849482985E+03  0.91655909441E+02 0.  0.
        -11    1    3    3    0    0  0.15428896336E+02  0.31988483901E+02 -0.47688823413E+02  0.59460388688E+02  0.00000000000E+00 0. -1.
         11    1    3    3    0    0  0.45059603130E+02 -0.51273749120E+02 -0.22162674188E+03  0.23190036201E+03  0.00000000000E+00 0.  1.
        -13    1    4    4    0    0  0.18669355829E+02 -0.36093877544E+02 -0.62938670545E+02  0.74917214932E+02  0.00000000000E+00 0.  1.
         13    1    4    4    0    0 -0.44266973092E+02  0.20652243666E+02 -0.22010923307E+02  0.53577614915E+02  0.00000000000E+00 0. -1.
         -1    1    1    2    0  502 -0.34890882203E+02  0.34726899097E+02  0.18621507160E+02  0.52631660725E+02  0.00000000000E+00 0.  1.
<scales pt_clust_5="13000.00000" pt_clust_6="13000.00000" pt_clust_7="13000.00000" pt_clust_8="13000.00000" pt_clust_9="49.22734"></scales>
<clustering>
<clus scale="   49.227">  1  9  2 -1</clus>
<clus scale="   91.266">  5  6 -1 -1</clus>
<clus scale="   91.656">  7  8 -1 -1</clus>
<clus scale="  103.755">  2  5  1 -1</clus>
<clus scale="   49.227">  1  5  2 -1</clus>
</clustering>
</event>
<event>
 9    1  0.1504846E-005  0.1974625E+03  0.7546771E-02  0.1151956E+00
          1   -1    0    0  502    0 -0.00000000000E+00  0.00000000000E+00  0.15495246367E+04  0.15495246367E+04  0.00000000000E+00 0. -1.
         21   -1    0    0  501  502  0.00000000000E+00 -0.00000000000E+00 -0.41226414719E+02  0.41226414719E+02  0.00000000000E+00 0.  1.
         23    2    1    2    0    0 -0.16669598171E+03 -0.73850643590E+02  0.97119172798E+03  0.99239439140E+03  0.91606701179E+02 0.  0.
         23    2    1    2    0    0  0.15986399197E+03  0.41048678717E+02  0.53207765238E+03  0.56447548193E+03  0.91018962754E+02 0.  0.
        -11    1    3    3    0    0  0.12489414675E+01 -0.27523155846E+02  0.89086844723E+02  0.93249932253E+02  0.00000000000E+00 0.  1.
         11    1    3    3    0    0 -0.16794492318E+03 -0.46327487744E+02  0.88210488326E+03  0.89914445914E+03  0.00000000000E+00 0. -1.
        -11    1    4    4    0    0  0.54915125663E+02  0.59804707147E+02  0.20657777083E+03  0.22196091868E+03  0.00000000000E+00 0. -1.
         11    1    4    4    0    0  0.10494886631E+03 -0.18756028430E+02  0.32549988156E+03  0.34251456325E+03  0.00000000000E+00 0.  1.
          1    1    1    2  501    0  0.68319897432E+01  0.32801964873E+02  0.50288416598E+01  0.33881178135E+02  0.00000000000E+00 0. -1.
<scales pt_clust_5="13000.00000" pt_clust_6="13000.00000" pt_clust_7="13000.00000" pt_clust_8="13000.00000" pt_clust_9="33.50589"></scales>
<clustering>
<clus scale="   33.506">  2  9  1 -1</clus>
<clus scale="   91.019">  7  8 -1 -1</clus>
<clus scale="   91.607">  5  6 -1 -1</clus>
<clus scale="  197.191">  2  7  1 -1</clus>
<clus scale="   33.506">  2  5  1 -1</clus>
</clustering>
</event>
<event>
 9    1  0.1504846E-005  0.1468300E+03  0.7546771E-02  0.1208609E+00
         21   -1    0    0  501  502  0.00000000000E+00  0.00000000000E+00  0.66075019804E+02  0.66075019804E+02  0.00000000000E+00 0.  1.
         -1   -1    0    0    0  501 -0.00000000000E+00 -0.00000000000E+00 -0.43967948451E+03  0.43967948451E+03  0.00000000000E+00 0.  1.
         23    2    1    2    0    0 -0.26107196489E+02 -0.90126164555E+02 -0.20596170478E+03  0.25130562795E+03  0.10922446409E+03 0.  0.
         23    2    1    2    0    0  0.62654869374E+02  0.85749882602E+02 -0.16642770158E+03  0.21762007509E+03  0.91551309137E+02 0.  0.
        -13    1    3    3    0    0 -0.27173043258E+02 -0.13535242885E+02  0.12562819286E+01  0.30383471232E+02  0.00000000000E+00 0. -1.
         13    1    3    3    0    0  0.10658467687E+01 -0.76590921670E+02 -0.20721798671E+03  0.22092215671E+03  0.00000000000E+00 0.  1.
        -13    1    4    4    0    0  0.60670842836E+02  0.36315711579E+02 -0.14941690740E+03  0.16530334024E+03  0.00000000000E+00 0.  1.
         13    1    4    4    0    0  0.19840265380E+01  0.49434171023E+02 -0.17010794177E+02  0.52316734842E+02  0.00000000000E+00 0. -1.
         -1    1    1    2    0  502 -0.36547672884E+02  0.43762819526E+01 -0.12150583459E+01  0.36828801281E+02  0.00000000000E+00 0.  1.
<scales pt_clust_5="13000.00000" pt_clust_6="13000.00000" pt_clust_7="13000.00000" pt_clust_8="13000.00000" pt_clust_9="36.80875"></scales>
<clustering>
<clus scale="   36.809">  1  9  2 -1</clus>
<clus scale="   91.551">  7  8 -1 -1</clus>
<clus scale="  109.224">  5  6 -1 -1</clus>
<clus scale="  134.204">  1  7  2 -1</clus>
<clus scale="   36.809">  1  5  2 -1</clus>
</clustering>
</event>
<event>
 9    1  0.1504846E-005  0.1646229E+03  0.7546771E-02  0.1206827E+00
          1   -1    0    0  502    0 -0.00000000000E+00  0.00000000000E+00  0.12378911752E+04  0.12378911752E+04  0.00000000000E+00 0. -1.
         21   -1    0    0  501  502  0.00000000000E+00 -0.00000000000E+00 -0.34627727880E+02  0.34627727880E+02  0.00000000000E+00 0. -1.
         23    2    1    2    0    0 -0.40381790082E+02 -0.16674364597E+02  0.20919200365E+03  0.23140608372E+03  0.88762366932E+02 0.  0.
         23    2    1    2    0    0 -0.87753871561E+02  0.82961842741E+02  0.65394838178E+03  0.67165852616E+03  0.94304190776E+02 0.  0.
        -11    1    3    3    0    0 -0.68432723661E+02 -0.13177233127E+02  0.16266422121E+03  0.17696419412E+03  0.00000000000E+00 0.  1.
         11    1    3    3    0    0  0.28050933579E+02 -0.34971314700E+01  0.46527782445E+02  0.54441889593E+02  0.00000000000E+00 0. -1.
        -13    1    4    4    0    0 -0.46445035474E+02 -0.13065701619E+02  0.23078644220E+03  0.23577581679E+03  0.00000000000E+00 0.  1.
         13    1    4    4    0    0 -0.41308836087E+02  0.96027544360E+02  0.42316193958E+03  0.43588270937E+03  0.00000000000E+00 0. -1.
          1    1    1    2  501    0  0.12813566164E+03 -0.66287478144E+02  0.34012306186E+03  0.36945429319E+03  0.00000000000E+00 0. -1.
<scales pt_clust_5="13000.00000" pt_clust_6="13000.00000" pt_clust_7="13000.00000" pt_clust_8="13000.00000" pt_clust_9="134.93486"></scales>
<clustering>
<clus scale="   88.762">  5  6 -1 -1</clus>
<clus scale="   94.304">  7  8 -1 -1</clus>
<clus scale="   98.932">  1  5  2 -1</clus>
<clus scale="  134.935">  2  9  1 -1</clus>
<clus scale="  134.935">  2  5  1 -1</clus>
</clustering>
</event>
<event>
 9    1  0.1504846E-005  0.1023218E+03  0.7546771E-02  0.1276235E+00
          4   -1    0    0  502    0 -0.00000000000E+00  0.00000000000E+00  0.26332070147E+02  0.26332070147E+02  0.00000000000E+00 0. -1.
         21   -1    0    0  501  502  0.00000000000E+00 -0.00000000000E+00 -0.75048938842E+03  0.75048938842E+03  0.00000000000E+00 0. -1.
         23    2    1    2    0    0 -0.57719261130E+02 -0.14565513147E+02 -0.15867056364E+03  0.19275203691E+03  0.91833178567E+02 0.  0.
         23    2    1    2    0    0  0.22880246318E+02 -0.15998532633E+02 -0.29820471106E+03  0.31279906083E+03  0.90209445428E+02 0.  0.
        -13    1    4    4    0    0  0.53458013313E+02  0.98404918507E+01 -0.17629520013E+03  0.18448466618E+03  0.00000000000E+00 0.  1.
         13    1    4    4    0    0 -0.30577766995E+02 -0.25839024484E+02 -0.12190951093E+03  0.12831439465E+03  0.00000000000E+00 0. -1.
        -13    1    3    3    0    0  0.89475946872E+01 -0.37575309258E+02 -0.49592699116E+02  0.62860155282E+02  0.00000000000E+00 0.  1.
         13    1    3    3    0    0 -0.66666855818E+02  0.23009796112E+02 -0.10907786453E+03  0.12989188162E+03  0.00000000000E+00 0. -1.
          4    1    1    2  501    0  0.34839014812E+02  0.30564045780E+02 -0.26728204357E+03  0.27127036083E+03  0.00000000000E+00 0. -1.
<scales pt_clust_5="13000.00000" pt_clust_6="13000.00000" pt_clust_7="13000.00000" pt_clust_8="13000.00000" pt_clust_9="46.34563"></scales>
<clustering>
<clus scale="   46.346">  2  9  1 -1</clus>
<clus scale="   90.209">  5  6 -1 -1</clus>
<clus scale="   91.833">  7  8 -1 -1</clus>
<clus scale="  100.867">  2  5  1 -1</clus>
<clus scale="   46.346">  2  5  1 -1</clus>
</clustering>
</event>
<event>
 9    1  0.1504846E-005  0.1697878E+03  0.7546771E-02  0.1178135E+00
          1   -1    0    0  502    0 -0.00000000000E+00  0.00000000000E+00  0.63697673714E+03  0.63697673714E+03  0.00000000000E+00 0. -1.
         21   -1    0    0  501  502  0.00000000000E+00 -0.00000000000E+00 -0.15725394261E+03  0.15725394261E+03  0.00000000000E+00 0. -1.
         23    2    1    2    0    0 -0.27267406323E+02  0.14767781001E+03  0.55575692317E+03  0.58298939382E+03  0.91970803142E+02 0.  0.
         23    2    1    2    0    0  0.34025186872E+02 -0.90423138589E+02 -0.28950754647E+02  0.13680601805E+03  0.92432045559E+02 0.  0.
        -13    1    4    4    0    0 -0.31173310398E+02 -0.17777686098E+02 -0.44126500417E+01  0.36156505425E+02  0.00000000000E+00 0.  1.
         13    1    4    4    0    0  0.65198497271E+02 -0.72645452491E+02 -0.24538104605E+02  0.10064951262E+03  0.00000000000E+00 0. -1.
        -13    1    3    3    0    0  0.41344070512E+00  0.14698720653E+03  0.43741596710E+03  0.46145220564E+03  0.00000000000E+00 0. -1.
         13    1    3    3    0    0 -0.27680847028E+02  0.69060348078E+00  0.11834095607E+03  0.12153718818E+03  0.00000000000E+00 0.  1.
          1    1    1    2  501    0 -0.67577805493E+01 -0.57254671424E+02 -0.47083373993E+02  0.74435267880E+02  0.00000000000E+00 0. -1.
<scales pt_clust_5="13000.00000" pt_clust_6="13000.00000" pt_clust_7="13000.00000" pt_clust_8="13000.00000" pt_clust_9="57.65210"></scales>
<clustering>
<clus scale="   57.652">  2  9  1 -1</clus>
<clus scale="   91.971">  7  8 -1 -1</clus>
<clus scale="   92.432">  5  6 -1 -1</clus>
<clus scale="  169.537">  1  7  2 -1</clus>
<clus scale="   57.652">  2  5  1 -1</clus>
</clustering>
</event>
<event>
 9    1  0.1504846E-005  0.2074765E+03  0.7546771E-02  0.1144086E+00
         21   -1    0    0  501  502  0.00000000000E+00  0.00000000000E+00  0.13207885704E+03  0.13207885704E+03  0.00000000000E+00 0.  1.
         -3   -1    0    0    0  501 -0.00000000000E+00 -0.00000000000E+00 -0.67165214483E+03  0.67165214483E+03  0.00000000000E+00 0.  1.
         23    2    1    2    0    0  0.58860969332E+02  0.14961657679E+03 -0.29678643760E+03  0.34827009583E+03  0.85791236980E+02 0.  0.
         23    2    1    2    0    0 -0.59888073172E+02 -0.22871718194E+03 -0.27133141664E+03  0.37136124521E+03  0.91598614438E+02 0.  0.
        -11    1    3    3    0    0 -0.14384737752E+02  0.49433286881E+02 -0.48669845716E+02  0.70847190586E+02  0.00000000000E+00 0.  1.
         11    1    3    3    0    0  0.73245707084E+02  0.10018328991E+03 -0.24811659189E+03  0.27742290524E+03  0.00000000000E+00 0. -1.
        -13    1    4    4    0    0 -0.31633732825E+02 -0.82501203971E+02 -0.16889420285E+03  0.19061058067E+03  0.00000000000E+00 0.  1.
         13    1    4    4    0    0 -0.28254340347E+02 -0.14621597797E+03 -0.10243721380E+03  0.18075066454E+03  0.00000000000E+00 0. -1.
         -3    1    1    2    0  502  0.10271038401E+01  0.79100605148E+02  0.28544566452E+02  0.84099660826E+02  0.00000000000E+00 0.  1.
<scales pt_clust_5="13000.00000" pt_clust_6="13000.00000" pt_clust_7="13000.00000" pt_clust_8="13000.00000" pt_clust_9="79.10727"></scales>
<clustering>
<clus scale="   79.107">  1  9  2 -1</clus>
<clus scale="   85.791">  5  6 -1 -1</clus>
<clus scale="   91.599">  7  8 -1 -1</clus>
<clus scale="  204.979">  2  5  1 -1</clus>
<clus scale="   79.107">  1  5  2 -1</clus>
</clustering>
</event>
<event>
 9    1  0.1504846E-005  0.1054835E+03  0.7546771E-02  0.1270610E+00
         21   -1    0    0  501  502  0.00000000000E+00  0.00000000000E+00  0.74734498361E+02  0.74734498361E+02  0.00000000000E+00 0.  1.
          4   -1    0    0  502    0 -0.00000000000E+00 -0.00000000000E+00 -0.19704667372E+03  0.19704667372E+03  0.00000000000E+00 0. -1.
         23    2    1    2    0    0  0.30870658162E+02 -0.25454173458E+02 -0.87478464370E+02  0.13233517740E+03  0.90880168177E+02 0.  0.
         23    2    1    2    0    0 -0.46756478733E+02  0.40882041539E+02 -0.31074424602E+02  0.11698468031E+03  0.94139714996E+02 0.  0.
        -13    1    4    4    0    0 -0.10160083931E+01  0.34758819403E+02  0.26122183901E+02  0.43492255530E+02  0.00000000000E+00 0.  1.
         13    1    4    4    0    0 -0.45740470340E+02  0.61232221365E+01 -0.57196608503E+02  0.73492424783E+02  0.00000000000E+00 0. -1.
        -13    1    3    3    0    0  0.32734527590E+02 -0.55197753440E+02 -0.78118050750E+02  0.10109782952E+03  0.00000000000E+00 0.  1.
         13    1    3    3    0    0 -0.18638694278E+01  0.29743579982E+02 -0.93604136196E+01  0.31237347879E+02  0.00000000000E+00 0. -1.
          4    1    1    2  501    0  0.15885820571E+02 -0.15427868081E+02 -0.37592863823E+01  0.22461314361E+02  0.00000000000E+00 0. -1.
<scales pt_clust_5="13000.00000" pt_clust_6="13000.00000" pt_clust_7="13000.00000" pt_clust_8="13000.00000" pt_clust_9="22.14449"></scales>
<clustering>
<clus scale="   22.144">  1  9  2 -1</clus>
<clus scale="   90.880">  7  8 -1 -1</clus>
<clus scale="   94.140">  5  6 -1 -1</clus>
<clus scale="  102.585">  2  7  1 -1</clus>
<clus scale="   22.144">  1  5  2 -1</clus>
</clustering>
</event>
<event>
 9    1  0.1504846E-005  0.2525535E+03  0.7546771E-02  0.1112934E+00
          1   -1    0    0  502    0 -0.00000000000E+00  0.00000000000E+00  0.79316681791E+03  0.79316681791E+03  0.00000000000E+00 0. -1.
         21   -1    0    0  501  502  0.00000000000E+00 -0.00000000000E+00 -0.43079281513E+03  0.43079281513E+03  0.00000000000E+00 0. -1.
         23    2    1    2    0    0  0.17916158865E+03 -0.53729194505E+02  0.29630251354E+03  0.36754226214E+03  0.11093436679E+03 0.  0.
         23    2    1    2    0    0 -0.27220096733E+03  0.68240155713E+02  0.40693825844E+03  0.50278331099E+03  0.91881587673E+02 0.  0.
        -11    1    3    3    0    0  0.17771552454E+02 -0.53134047906E+02  0.79805142509E+02  0.97508542674E+02  0.00000000000E+00 0. -1.
         11    1    3    3    0    0  0.16139003620E+03 -0.59514659937E+00  0.21649737103E+03  0.27003371947E+03  0.00000000000E+00 0.  1.
        -13    1    4    4    0    0 -0.10738713077E+03  0.42039704987E+02  0.24236231599E+03  0.26840049341E+03  0.00000000000E+00 0.  1.
         13    1    4    4    0    0 -0.16481383657E+03  0.26200450726E+02  0.16457594246E+03  0.23438281758E+03  0.00000000000E+00 0. -1.
          1    1    1    2  501    0  0.93039378676E+02 -0.14510961207E+02 -0.34086676921E+03  0.35363405992E+03  0.00000000000E+00 0. -1.
<scales pt_clust_5="13000.00000" pt_clust_6="13000.00000" pt_clust_7="13000.00000" pt_clust_8="13000.00000" pt_clust_9="94.16419"></scales>
<clustering>
<clus scale="   91.882">  7  8 -1 -1</clus>
<clus scale="   94.164">  2  9  1 -1</clus>
<clus scale="  110.934">  5  6 -1 -1</clus>
<clus scale="  244.784">  2  7  1 -1</clus>
<clus scale="   94.164">  2  5  1 -1</clus>
</clustering>
</event>
<event>
 9    1  0.1504846E-005  0.1279264E+03  0.7546771E-02  0.1234873E+00
         21   -1    0    0  501  502  0.00000000000E+00  0.00000000000E+00  0.37903194135E+03  0.37903194135E+03  0.00000000000E+00 0.  1.
         -2   -1    0    0    0  501 -0.00000000000E+00 -0.00000000000E+00 -0.12674286833E+03  0.12674286833E+03  0.00000000000E+00 0.  1.
         23    2    1    2    0    0 -0.82691765339E+02  0.44064758794E+02 -0.50387389803E+02  0.13217094655E+03  0.78426009959E+02 0.  0.
         23    2    1    2    0    0  0.77896943545E+02  0.79691483508E+01  0.82860130487E+02  0.14766197288E+03  0.93844636880E+02 0.  0.
        -11    1    4    4    0    0  0.66623169123E+02  0.46133941218E+02  0.65703385902E+02  0.10432603757E+03  0.00000000000E+00 0.  1.
         11    1    4    4    0    0  0.11273774422E+02 -0.38164792867E+02  0.17156744585E+02  0.43335935308E+02  0.00000000000E+00 0. -1.
        -13    1    3    3    0    0  0.84651525880E+01  0.24371252853E+02  0.75096768209E+00  0.25810477067E+02  0.00000000000E+00 0. -1.
         13    1    3    3    0    0 -0.91156917927E+02  0.19693505941E+02 -0.51138357485E+02  0.10636046948E+03  0.00000000000E+00 0.  1.
         -2    1    1    2    0  502  0.47948217937E+01 -0.52033907144E+02  0.21981633234E+03  0.22594189025E+03  0.00000000000E+00 0.  1.
<scales pt_clust_5="13000.00000" pt_clust_6="13000.00000" pt_clust_7="13000.00000" pt_clust_8="13000.00000" pt_clust_9="52.25436"></scales>
<clustering>
<clus scale="   52.254">  1  9  2 -1</clus>
<clus scale="   78.426">  7  8 -1 -1</clus>
<clus scale="   93.845">  5  6 -1 -1</clus>
<clus scale="  117.085">  2  7  1 -1</clus>
<clus scale="   52.254">  1  5  2 -1</clus>
</clustering>
</event>
<event>
 9    1  0.1504846E-005  0.2840688E+03  0.7546771E-02  0.1093491E+00
         21   -1    0    0  501  502  0.00000000000E+00  0.00000000000E+00  0.60729097473E+02  0.60729097473E+02  0.00000000000E+00 0. -1.
          2   -1    0    0  502    0 -0.00000000000E+00 -0.00000000000E+00 -0.15085263040E+04  0.15085263040E+04  0.00000000000E+00 0. -1.
         23    2    1    2    0    0 -0.25445998283E+03 -0.13101884151E+03 -0.77172341607E+03  0.82806796731E+03  0.90684661814E+02 0.  0.
         23    2    1    2    0    0  0.22353785588E+03  0.11468242000E+03 -0.56932556951E+03  0.62885649773E+03  0.90596137732E+02 0.  0.
        -11    1    4    4    0    0  0.77344326196E+02  0.87408065397E+02 -0.28534748831E+03  0.30829450819E+03  0.00000000000E+00 0. -1.
         11    1    4    4    0    0  0.14619352968E+03  0.27274354599E+02 -0.28397808120E+03  0.32056198955E+03  0.00000000000E+00 0.  1.
        -11    1    3    3    0    0 -0.15416048308E+03 -0.57006746160E+02 -0.32385452325E+03  0.36317623254E+03  0.00000000000E+00 0. -1.
         11    1    3    3    0    0 -0.10029949976E+03 -0.74012095348E+02 -0.44786889282E+03  0.46489173478E+03  0.00000000000E+00 0.  1.
          2    1    1    2  501    0  0.30922126954E+02  0.16336421512E+02 -0.10674822090E+03  0.11233093639E+03  0.00000000000E+00 0. -1.
<scales pt_clust_5="13000.00000" pt_clust_6="13000.00000" pt_clust_7="13000.00000" pt_clust_8="13000.00000" pt_clust_9="34.97224"></scales>
<clustering>
<clus scale="   34.972">  1  9  2 -1</clus>
<clus scale="   90.596">  5  6 -1 -1</clus>
<clus scale="   90.685">  7  8 -1 -1</clus>
<clus scale="  284.041">  1  5  2 -1</clus>
<clus scale="   34.972">  1  5  2 -1</clus>
</clustering>
</event>
<event>
 9    1  0.1504846E-005  0.1022255E+03  0.7546771E-02  0.1283014E+00
          4   -1    0    0  502    0 -0.00000000000E+00  0.00000000000E+00  0.20753245565E+03  0.20753245565E+03  0.00000000000E+00 0. -1.
         21   -1    0    0  501  502  0.00000000000E+00 -0.00000000000E+00 -0.13616219425E+03  0.13616219425E+03  0.00000000000E+00 0. -1.
         23    2    1    2    0    0  0.24433438850E+02 -0.32966033257E+02  0.10172655205E+03  0.13409280904E+03  0.77128709074E+02 0.  0.
         23    2    1    2    0    0  0.73522617525E+01  0.61474813287E+02  0.47531288477E+02  0.12077866662E+03  0.92168619952E+02 0.  0.
        -11    1    3    3    0    0  0.21998773485E+02 -0.57162871395E+02  0.84178790302E+02  0.10410383584E+03  0.00000000000E+00 0. -1.
         11    1    3    3    0    0  0.24346653646E+01  0.24196838138E+02  0.17547761744E+02  0.29988973199E+02  0.00000000000E+00 0.  1.
        -13    1    4    4    0    0 -0.19429016970E+02  0.33398816315E+02 -0.19535519796E+02  0.43296699244E+02  0.00000000000E+00 0.  1.
         13    1    4    4    0    0  0.26781278722E+02  0.28075996971E+02  0.67066808274E+02  0.77481967373E+02  0.00000000000E+00 0. -1.
          4    1    1    2  501    0 -0.31785700602E+02 -0.28508780030E+02 -0.77887579120E+02  0.88823174244E+02  0.00000000000E+00 0. -1.
<scales pt_clust_5="13000.00000" pt_clust_6="13000.00000" pt_clust_7="13000.00000" pt_clust_8="13000.00000" pt_clust_9="42.69756"></scales>
<clustering>
<clus scale="   42.698">  2  9  1 -1</clus>
<clus scale="   77.129">  5  6 -1 -1</clus>
<clus scale="   88.903">  1  5  2 -1</clus>
<clus scale="   92.169">  7  8 -1 -1</clus>
<clus scale="   42.698">  2  5  1 -1</clus>
</clustering>
</event>
<event>
 9    1  0.1504846E-005  0.1056269E+03  0.7546771E-02  0.1268965E+00
          4   -1    0    0  502    0 -0.00000000000E+00  0.00000000000E+00  0.72919893946E+02  0.72919893946E+02  0.00000000000E+00 0. -1.
         21   -1    0    0  501  502  0.00000000000E+00 -0.00000000000E+00 -0.32592200992E+03  0.32592200992E+03  0.00000000000E+00 0. -1.
         23    2    1    2    0    0 -0.20079985490E+02  0.59919331589E+02 -0.10922337858E+02  0.10983620395E+03  0.89169289099E+02 0.  0.
         23    2    1    2    0    0 -0.42655331893E+00 -0.45406800889E+02 -0.89505419813E+02  0.13437689764E+03  0.89353068941E+02 0.  0.
        -11    1    3    3    0    0 -0.30652348117E+02  0.32055906696E+02 -0.45938286387E+02  0.63855099682E+02  0.00000000000E+00 0.  1.
         11    1    3    3    0    0  0.10572362627E+02  0.27863424893E+02  0.35015948530E+02  0.45981104268E+02  0.00000000000E+00 0. -1.
        -13    1    4    4    0    0 -0.25948578164E+02 -0.44476296827E+02 -0.12138631991E+02  0.52903837997E+02  0.00000000000E+00 0. -1.
         13    1    4    4    0    0  0.25522024845E+02 -0.93050406124E+00 -0.77366787821E+02  0.81473059644E+02  0.00000000000E+00 0.  1.
          4    1    1    2  501    0  0.20506538808E+02 -0.14512530701E+02 -0.15257435830E+03  0.15462880227E+03  0.00000000000E+00 0. -1.
<scales pt_clust_5="13000.00000" pt_clust_6="13000.00000" pt_clust_7="13000.00000" pt_clust_8="13000.00000" pt_clust_9="25.12233"></scales>
<clustering>
<clus scale="   25.122">  2  9  1 -1</clus>
<clus scale="   89.169">  5  6 -1 -1</clus>
<clus scale="   89.353">  7  8 -1 -1</clus>
<clus scale="  105.471">  1  5  2 -1</clus>
<clus scale="   25.122">  2  5  1 -1</clus>
</clustering>
</event>
<event>
 9    1  0.1504846E-005  0.1514973E+03  0.7546771E-02  0.1199288E+00
         -2   -1    0    0    0  501 -0.00000000000E+00  0.00000000000E+00  0.69862619449E+02  0.69862619449E+02  0.00000000000E+00 0.  1.
         21   -1    0    0  501  502  0.00000000000E+00 -0.00000000000E+00 -0.94974985160E+03  0.94974985160E+03  0.00000000000E+00 0.  1.
         23    2    1    2    0    0  0.12117959518E+03 -0.96995365123E+02 -0.10959262758E+03  0.21227002733E+03  0.94633109099E+02 0.  0.
         23    2    1    2    0    0 -0.71180684216E+02  0.25884111419E+00 -0.24594450542E+03  0.27180451541E+03  0.91226301292E+02 0.  0.
        -11    1    3    3    0    0  0.12651098677E+03 -0.70923636055E+02 -0.11502418886E+03  0.18511011844E+03  0.00000000000E+00 0.  1.
         11    1    3    3    0    0 -0.53313915851E+01 -0.26071729068E+02  0.54315612857E+01  0.27159908889E+02  0.00000000000E+00 0. -1.
        -11    1    4    4    0    0 -0.36642171877E+01  0.35389148981E+02 -0.11467007727E+03  0.12006267103E+03  0.00000000000E+00 0. -1.
         11    1    4    4    0    0 -0.67516467029E+02 -0.35130307866E+02 -0.13127442815E+03  0.15174184438E+03  0.00000000000E+00 0.  1.
         -2    1    1    2    0  502 -0.49998910968E+02  0.96736524009E+02 -0.52435009915E+03  0.53553792831E+03  0.00000000000E+00 0.  1.
<scales pt_clust_5="13000.00000" pt_clust_6="13000.00000" pt_clust_7="13000.00000" pt_clust_8="13000.00000" pt_clust_9="108.89374"></scales>
<clustering>
<clus scale="   91.226">  7  8 -1 -1</clus>
<clus scale="   94.633">  5  6 -1 -1</clus>
<clus scale="  108.894">  2  9  1 -1</clus>
<clus scale="  149.393">  2  7  1 -1</clus>
<clus scale="  108.894">  2  5  1 -1</clus>
</clustering>
</event>
<event>
 9    1  0.1504846E-005  0.9486168E+02  0.7546771E-02  0.1292795E+00
         21   -1    0    0  501  502  0.00000000000E+00  0.00000000000E+00  0.99595297293E+02  0.99595297293E+02  0.00000000000E+00 0. -1.
          3   -1    0    0  502    0 -0.00000000000E+00 -0.00000000000E+00 -0.31557427131E+03  0.31557427131E+03  0.00000000000E+00 0. -1.
         23    2    1    2    0    0 -0.10438344983E+02  0.15353117700E+02 -0.18755993646E+03  0.20971790280E+03  0.91968427829E+02 0.  0.
         23    2    1    2    0    0 -0.12086291187E+02 -0.13640431330E+01 -0.94632590546E+02  0.13412643855E+03  0.94268951821E+02 0.  0.
        -11    1    3    3    0    0  0.28475401611E+02  0.14044464848E+01 -0.14881269275E+02  0.32160117258E+02  0.00000000000E+00 0.  1.
         11    1    3    3    0    0 -0.38913746594E+02  0.13948671215E+02 -0.17267866719E+03  0.17755778554E+03  0.00000000000E+00 0. -1.
        -13    1    4    4    0    0  0.42906426648E+01  0.44552855717E+02 -0.57379532192E+02  0.72772091364E+02  0.00000000000E+00 0. -1.
         13    1    4    4    0    0 -0.16376933852E+02 -0.45916898850E+02 -0.37253058355E+02  0.61354347190E+02  0.00000000000E+00 0.  1.
          3    1    1    2  501    0  0.22524636170E+02 -0.13989074567E+02  0.66213552997E+02  0.71325227250E+02  0.00000000000E+00 0. -1.
<scales pt_clust_5="13000.00000" pt_clust_6="13000.00000" pt_clust_7="13000.00000" pt_clust_8="13000.00000" pt_clust_9="26.51515"></scales>
<clustering>
<clus scale="   26.515">  1  9  2 -1</clus>
<clus scale="   91.968">  5  6 -1 -1</clus>
<clus scale="   92.576">  2  5  1 -1</clus>
<clus scale="   94.269">  7  8 -1 -1</clus>
<clus scale="   26.515">  1  5  2 -1</clus>
</clustering>
</event>
<event>
 9    1  0.1504846E-005  0.2626693E+03  0.7546771E-02  0.1147908E+00
          1   -1    0    0  502    0 -0.00000000000E+00  0.00000000000E+00  0.54654406205E+03  0.54654406205E+03  0.00000000000E+00 0. -1.
         21   -1    0    0  501  502  0.00000000000E+00 -0.00000000000E+00 -0.18765022654E+03  0.18765022654E+03  0.00000000000E+00 0. -1.
         23    2    1    2    0    0  0.85548097992E+01 -0.28941330620E+01  0.90584169426E+02  0.12926000582E+03  0.91766532996E+02 0.  0.
         23    2    1    2    0    0  0.57626545314E+02  0.23982642531E+03  0.24207473122E+03  0.35753752717E+03  0.91626278098E+02 0.  0.
        -11    1    3    3    0    0 -0.14886979903E+02 -0.42920448646E+02  0.38846215962E+02  0.59773033863E+02  0.00000000000E+00 0. -1.
         11    1    3    3    0    0  0.23441789702E+02  0.40026315584E+02  0.51737953464E+02  0.69486971961E+02  0.00000000000E+00 0.  1.
        -11    1    4    4    0    0  0.56762557920E+02  0.14896289499E+03  0.97765214062E+02  0.18700259128E+03  0.00000000000E+00 0. -1.
         11    1    4    4    0    0  0.86398739457E+00  0.90863530321E+02  0.14430951716E+03  0.17053493589E+03  0.00000000000E+00 0.  1.
          1    1    1    2  501    0 -0.66181355113E+02 -0.23693229225E+03  0.26234934863E+02  0.24739675560E+03  0.00000000000E+00 0. -1.
<scales pt_clust_5="13000.00000" pt_clust_6="13000.00000" pt_clust_7="13000.00000" pt_clust_8="13000.00000" pt_clust_9="246.17029"></scales>
<clustering>
<clus scale="   91.626">  7  8 -1 -1</clus>
<clus scale="   91.767">  5  6 -1 -1</clus>
<clus scale="   92.210">  1  5  2 -1</clus>
<clus scale="  246.170">  2  9  1 -1</clus>
<clus scale="  246.170">  2  5  1 -1</clus>
</clustering>
</event>
<event>
 9    1  0.1504846E-005  0.1056717E+03  0.7546771E-02  0.1281016E+00
         21   -1    0    0  501  502  0.00000000000E+00  0.00000000000E+00  0.51555915425E+02  0.51555915425E+02  0.00000000000E+00 0.  1.
          1   -1    0    0  502    0 -0.00000000000E+00 -0.00000000000E+00 -0.24497719075E+03  0.24497719075E+03  0.00000000000E+00 0. -1.
         23    2    1    2    0    0 -0.40210326105E+01 -0.16277527073E+02 -0.96152288895E+02  0.12769914028E+03  0.82344891631E+02 0.  0.
         23    2    1    2    0    0  0.24133412138E+02 -0.43417207077E+01 -0.86811035181E+02  0.13819037058E+03  0.10468596168E+03 0.  0.
        -11    1    3    3    0    0 -0.31207196477E+02 -0.30719080372E+02 -0.25601249693E+02  0.50724500951E+02  0.00000000000E+00 0.  1.
         11    1    3    3    0    0  0.27186163866E+02  0.14441553299E+02 -0.70551039202E+02  0.76974639330E+02  0.00000000000E+00 0. -1.
        -13    1    4    4    0    0  0.65470158789E+02 -0.82101590202E+01 -0.54548747355E+02  0.85611414198E+02  0.00000000000E+00 0.  1.
         13    1    4    4    0    0 -0.41336746651E+02  0.38684383124E+01 -0.32262287826E+02  0.52578956384E+02  0.00000000000E+00 0. -1.
          1    1    1    2  501    0 -0.20112379527E+02  0.20619247781E+02 -0.10457951248E+02  0.30643595311E+02  0.00000000000E+00 0. -1.
<scales pt_clust_5="13000.00000" pt_clust_6="13000.00000" pt_clust_7="13000.00000" pt_clust_8="13000.00000" pt_clust_9="28.80384"></scales>
<clustering>
<clus scale="   28.804">  1  9  2 -1</clus>
<clus scale="   82.345">  5  6 -1 -1</clus>
<clus scale="   83.595">  2  5  1 -1</clus>
<clus scale="  104.686">  7  8 -1 -1</clus>
<clus scale="   28.804">  1  5  2 -1</clus>
</clustering>
</event>
<event>
 9    1  0.1504846E-005  0.3122391E+03  0.7546771E-02  0.1079372E+00
          1   -1    0    0  502    0 -0.00000000000E+00  0.00000000000E+00  0.81101840825E+03  0.81101840825E+03  0.00000000000E+00 0. -1.
         21   -1    0    0  501  502  0.00000000000E+00 -0.00000000000E+00 -0.41748666959E+03  0.41748666959E+03  0.00000000000E+00 0. -1.
         23    2    1    2    0    0 -0.28474511740E+03 -0.12017293280E+03  0.63750970975E+03  0.71476233959E+03  0.94579365707E+02 0.  0.
         23    2    1    2    0    0  0.22743651299E+03  0.10971311234E+03 -0.80031166397E+01  0.27068345347E+03  0.97165568232E+02 0.  0.
        -13    1    4    4    0    0  0.95779088366E+02  0.11653694562E+02  0.32115344869E+02  0.10168990973E+03  0.00000000000E+00 0.  1.
         13    1    4    4    0    0  0.13165742462E+03  0.98059417780E+02 -0.40118461509E+02  0.16899354374E+03  0.00000000000E+00 0. -1.
        -13    1    3    3    0    0 -0.17197175054E+03 -0.10987874326E+03  0.34150770136E+03  0.39783807170E+03  0.00000000000E+00 0.  1.
         13    1    3    3    0    0 -0.11277336686E+03 -0.10294189539E+02  0.29600200838E+03  0.31692426789E+03  0.00000000000E+00 0. -1.
          1    1    1    2  501    0  0.57308604420E+02  0.10459820459E+02 -0.23597485444E+03  0.24305928477E+03  0.00000000000E+00 0. -1.
<scales pt_clust_5="13000.00000" pt_clust_6="13000.00000" pt_clust_7="13000.00000" pt_clust_8="13000.00000" pt_clust_9="58.25533"></scales>
<clustering>
<clus scale="   58.255">  2  9  1 -1</clus>
<clus scale="   94.579">  7  8 -1 -1</clus>
<clus scale="   97.166">  5  6 -1 -1</clus>
<clus scale="  311.444">  1  7  2 -1</clus>
<clus scale="   58.255">  2  5  1 -1</clus>
</clustering>
</event>
<event>
 9    1  0.1504846E-005  0.1010791E+03  0.7546771E-02  0.1278526E+00
         21   -1    0    0  501  502  0.00000000000E+00  0.00000000000E+00  0.13190875068E+03  0.13190875068E+03  0.00000000000E+00 0. -1.
          2   -1    0    0  502    0 -0.00000000000E+00 -0.00000000000E+00 -0.38796833315E+03  0.38796833315E+03  0.00000000000E+00 0. -1.
         23    2    1    2    0    0 -0.41540184537E+02 -0.15678961861E+02 -0.34110968084E+03  0.35594303252E+03  0.91477927728E+02 0.  0.
         23    2    1    2    0    0  0.21181987751E+02  0.29706189864E+02  0.27557803616E+02  0.10135143983E+03  0.90451907080E+02 0.  0.
        -13    1    4    4    0    0 -0.29533751499E+02  0.79101874251E+01 -0.12620089947E+02  0.33076883362E+02  0.00000000000E+00 0. -1.
         13    1    4    4    0    0  0.50715739249E+02  0.21796002439E+02  0.40177893563E+02  0.68274556469E+02  0.00000000000E+00 0.  1.
        -13    1    3    3    0    0 -0.25960642814E+02  0.37697315407E+02 -0.14031871756E+03  0.14759534228E+03  0.00000000000E+00 0. -1.
         13    1    3    3    0    0 -0.15579541723E+02 -0.53376277268E+02 -0.20079096328E+03  0.20834769024E+03  0.00000000000E+00 0.  1.
          2    1    1    2  501    0  0.20358196786E+02 -0.14027228002E+02  0.57492294756E+02  0.62582611467E+02  0.00000000000E+00 0. -1.
<scales pt_clust_5="13000.00000" pt_clust_6="13000.00000" pt_clust_7="13000.00000" pt_clust_8="13000.00000" pt_clust_9="24.72285"></scales>
<clustering>
<clus scale="   24.723">  1  9  2 -1</clus>
<clus scale="   90.452">  5  6 -1 -1</clus>
<clus scale="   91.478">  7  8 -1 -1</clus>
<clus scale="  100.152">  1  5  2 -1</clus>
<clus scale="   24.723">  1  5  2 -1</clus>
</clustering>
</event>
<event>
 9    1  0.1504846E-005  0.1057147E+03  0.7546771E-02  0.1269714E+00
         -1   -1    0    0    0  501 -0.00000000000E+00  0.00000000000E+00  0.34216792631E+03  0.34216792631E+03  0.00000000000E+00 0.  1.
         21   -1    0    0  501  502  0.00000000000E+00 -0.00000000000E+00 -0.43273431635E+02  0.43273431635E+02  0.00000000000E+00 0. -1.
         23    2    1    2    0    0  0.39553014069E+02 -0.44515702482E+02  0.17859276815E+03  0.20890211407E+03  0.90546274017E+02 0.  0.
         23    2    1    2    0    0 -0.17220781752E+02  0.47350763837E+02  0.11497279450E+03  0.15340563867E+03  0.88181042979E+02 0.  0.
        -11    1    3    3    0    0 -0.20223644935E+02 -0.36175353724E+02  0.39386396882E+02  0.57174647274E+02  0.00000000000E+00 0.  1.
         11    1    3    3    0    0  0.59776659004E+02 -0.83403487577E+01  0.13920637127E+03  0.15172746680E+03  0.00000000000E+00 0. -1.
        -13    1    4    4    0    0 -0.45426996411E+02  0.10605231485E+01  0.67384494824E+02  0.81273654125E+02  0.00000000000E+00 0.  1.
         13    1    4    4    0    0  0.28206214659E+02  0.46290240688E+02  0.47588299673E+02  0.72131984543E+02  0.00000000000E+00 0. -1.
         -1    1    1    2    0  502 -0.22332232317E+02 -0.28350613550E+01  0.53289320247E+01  0.23133605203E+02  0.00000000000E+00 0.  1.
<scales pt_clust_5="13000.00000" pt_clust_6="13000.00000" pt_clust_7="13000.00000" pt_clust_8="13000.00000" pt_clust_9="22.51147"></scales>
<clustering>
<clus scale="   22.511">  2  9  1 -1</clus>
<clus scale="   88.181">  7  8 -1 -1</clus>
<clus scale="   90.546">  5  6 -1 -1</clus>
<clus scale="  103.696">  2  7  1 -1</clus>
<clus scale="   22.511">  2  5  1 -1</clus>
</clustering>
</event>
<event>
 9    1  0.1504846E-005  0.1643144E+03  0.7546771E-02  0.1201161E+00
         21   -1    0    0  501  502  0.00000000000E+00  0.00000000000E+00  0.42149656145E+03  0.42149656145E+03  0.00000000000E+00 0. -1.
          1   -1    0    0  502    0 -0.00000000000E+00 -0.00000000000E+00 -0.14437219777E+03  0.14437219777E+03  0.00000000000E+00 0. -1.
         23    2    1    2    0    0  0.49724461488E+02 -0.44085198539E+02  0.30385728097E+02  0.11645660634E+03  0.90679776620E+02 0.  0.
         23    2    1    2    0    0 -0.52146218101E+02  0.17307811725E+03  0.40158893923E+02  0.20585471069E+03  0.89934211612E+02 0.  0.
        -11    1    3    3    0    0  0.26815215004E+01 -0.52673924114E+02  0.41794201928E+02  0.67294042485E+02  0.00000000000E+00 0. -1.
         11    1    3    3    0    0  0.47042939987E+02  0.85887255746E+01 -0.11408473832E+02  0.49162563855E+02  0.00000000000E+00 0.  1.
        -13    1    4    4    0    0 -0.44954435587E+02  0.33972744943E+02  0.35274162265E+02  0.66477930183E+02  0.00000000000E+00 0.  1.
         13    1    4    4    0    0 -0.71917825132E+01  0.13910537231E+03  0.48847316585E+01  0.13937678051E+03  0.00000000000E+00 0. -1.
          1    1    1    2  501    0  0.24217566129E+01 -0.12899291872E+03  0.20657974166E+03  0.24355744220E+03  0.00000000000E+00 0. -1.
<scales pt_clust_5="13000.00000" pt_clust_6="13000.00000" pt_clust_7="13000.00000" pt_clust_8="13000.00000" pt_clust_9="137.51743"></scales>
<clustering>
<clus scale="   89.934">  7  8 -1 -1</clus>
<clus scale="   90.680">  5  6 -1 -1</clus>
<clus scale="  112.423">  2  5  1 -1</clus>
<clus scale="  137.517">  1  9  2 -1</clus>
<clus scale="  137.517">  1  5  2 -1</clus>
</clustering>
</event>
<event>
 9    1  0.1504846E-005  0.2918614E+03  0.7546771E-02  0.1089566E+00
         -1   -1    0    0    0  501 -0.00000000000E+00  0.00000000000E+00  0.72641498103E+03  0.72641498103E+03  0.00000000000E+00 0.  1.
         21   -1    0    0  501  502  0.00000000000E+00 -0.00000000000E+00 -0.25331290222E+03  0.25331290222E+03  0.00000000000E+00 0.  1.
         23    2    1    2    0    0  0.21278370935E+03 -0.20048459804E+03  0.54136929534E+03  0.62224370476E+03  0.92927569441E+02 0.  0.
         23    2    1    2    0    0 -0.20165706389E+03  0.10259210154E+03 -0.18156353392E+02  0.24694983217E+03  0.97282350553E+02 0.  0.
        -11    1    3    3    0    0  0.14206161807E+03 -0.10652687723E+03  0.23847367095E+03  0.29731998022E+03  0.00000000000E+00 0. -1.
         11    1    3    3    0    0  0.70722091273E+02 -0.93957720808E+02  0.30289562439E+03  0.32492372454E+03  0.00000000000E+00 0.  1.
        -11    1    4    4    0    0 -0.13303211353E+03  0.11518647196E+03 -0.20359823957E+02  0.17714397812E+03  0.00000000000E+00 0.  1.
         11    1    4    4    0    0 -0.68624950352E+02 -0.12594370422E+02  0.22034705655E+01  0.69805854050E+02  0.00000000000E+00 0. -1.
         -1    1    1    2    0  502 -0.11126645461E+02  0.97892496499E+02 -0.50110863144E+02  0.11053434631E+03  0.00000000000E+00 0.  1.
<scales pt_clust_5="13000.00000" pt_clust_6="13000.00000" pt_clust_7="13000.00000" pt_clust_8="13000.00000" pt_clust_9="98.52281"></scales>
<clustering>
<clus scale="   92.928">  5  6 -1 -1</clus>
<clus scale="   97.282">  7  8 -1 -1</clus>
<clus scale="   98.523">  2  9  1 -1</clus>
<clus scale="  290.439">  1  5  2 -1</clus>
<clus scale="   98.523">  2  5  1 -1</clus>
</clustering>
</event>
<event>
 9    1  0.1504846E-005  0.1520960E+03  0.7546771E-02  0.1211088E+00
         -3   -1    0    0    0  501 -0.00000000000E+00  0.00000000000E+00  0.48631047536E+02  0.48631047536E+02  0.00000000000E+00 0.  1.
         21   -1    0    0  501  502  0.00000000000E+00 -0.00000000000E+00 -0.97610358882E+03  0.97610358882E+03  0.00000000000E+00 0.  1.
         23    2    1    2    0    0  0.65183813172E+02 -0.14141603855E+02 -0.13864729665E+03  0.17982412641E+03  0.93084526716E+02 0.  0.
         23    2    1    2    0    0  0.55506061034E+02 -0.46457357360E+02 -0.14847451987E+03  0.19047385865E+03  0.94849348527E+02 0.  0.
        -13    1    3    3    0    0 -0.64201217630E+01  0.20620174785E+02 -0.74589701035E+02  0.77653287580E+02  0.00000000000E+00 0. -1.
         13    1    3    3    0    0  0.71603934935E+02 -0.34761778640E+02 -0.64057595613E+02  0.10217083883E+03  0.00000000000E+00 0.  1.
        -13    1    4    4    0    0  0.27825653996E+02 -0.47752054588E+02 -0.19579007711E+02  0.58633294983E+02  0.00000000000E+00 0.  1.
         13    1    4    4    0    0  0.27680407038E+02  0.12946972274E+01 -0.12889551216E+03  0.13184056367E+03  0.00000000000E+00 0. -1.
         -3    1    1    2    0  502 -0.12068987421E+03  0.60598961216E+02 -0.64035072477E+03  0.65443665129E+03  0.00000000000E+00 0.  1.
<scales pt_clust_5="13000.00000" pt_clust_6="13000.00000" pt_clust_7="13000.00000" pt_clust_8="13000.00000" pt_clust_9="118.89831"></scales>
<clustering>
<clus scale="   93.085">  5  6 -1 -1</clus>
<clus scale="   94.849">  7  8 -1 -1</clus>
<clus scale="  114.515">  1  5  2 -1</clus>
<clus scale="  118.898">  2  9  1 -1</clus>
<clus scale="  118.898">  2  5  1 -1</clus>
</clustering>
</event>
<event>
 9    1  0.1504846E-005  0.2083118E+03  0.7546771E-02  0.1169525E+00
          1   -1    0    0  502    0 -0.00000000000E+00  0.00000000000E+00  0.87169974722E+03  0.87169974722E+03  0.00000000000E+00 0. -1.
         21   -1    0    0  501  502  0.00000000000E+00 -0.00000000000E+00 -0.10435831712E+03  0.10435831712E+03  0.00000000000E+00 0. -1.
         23    2    1    2    0    0 -0.60613743887E+02 -0.85644629737E+01  0.42211715530E+03  0.43662942103E+03  0.93354070814E+02 0.  0.
         23    2    1    2    0    0  0.22670034104E+03 -0.85883718542E+01  0.23768642914E+03  0.34082510420E+03  0.90554449362E+02 0.  0.
        -11    1    3    3    0    0 -0.67900854002E+02  0.28171230213E+02  0.25621533539E+03  0.26655288833E+03  0.00000000000E+00 0.  1.
         11    1    3    3    0    0  0.72871101149E+01 -0.36735693186E+02  0.16590181990E+03  0.17007653270E+03  0.00000000000E+00 0. -1.
        -13    1    4    4    0    0  0.67504198315E+02  0.37851915380E+02  0.90670894880E+02  0.11920904104E+03  0.00000000000E+00 0.  1.
         13    1    4    4    0    0  0.15919614273E+03 -0.46440287234E+02  0.14701553426E+03  0.22161606316E+03  0.00000000000E+00 0. -1.
          1    1    1    2  501    0 -0.16608659716E+03  0.17152834828E+02  0.10753784566E+03  0.19860353911E+03  0.00000000000E+00 0. -1.
<scales pt_clust_5="13000.00000" pt_clust_6="13000.00000" pt_clust_7="13000.00000" pt_clust_8="13000.00000" pt_clust_9="187.59984"></scales>
<clustering>
<clus scale="   90.554">  7  8 -1 -1</clus>
<clus scale="   93.354">  5  6 -1 -1</clus>
<clus scale="  111.635">  1  5  2 -1</clus>
<clus scale="  187.600">  2  9  1 -1</clus>
<clus scale="  187.600">  2  5  1 -1</clus>
</clustering>
</event>
<event>
 9    1  0.1504846E-005  0.3484308E+03  0.7546771E-02  0.1063361E+00
         -1   -1    0    0    0  501 -0.00000000000E+00  0.00000000000E+00  0.11894158278E+04  0.11894158278E+04  0.00000000000E+00 0.  1.
         21   -1    0    0  501  502  0.00000000000E+00 -0.00000000000E+00 -0.16249811355E+03  0.16249811355E+03  0.00000000000E+00 0. -1.
         23    2    1    2    0    0  0.20690898524E+03 -0.26939079954E+03  0.90583692287E+03  0.97169632792E+03  0.90942244346E+02 0.  0.
         23    2    1    2    0    0 -0.18270594833E+03  0.26303190904E+03  0.12104954767E+03  0.35519315618E+03  0.94561812999E+02 0.  0.
        -11    1    3    3    0    0  0.14657338161E+03 -0.24706622486E+03  0.73452235769E+03  0.78870055763E+03  0.00000000000E+00 0. -1.
         11    1    3    3    0    0  0.60335603628E+02 -0.22324574680E+02  0.17131456518E+03  0.18299577029E+03  0.00000000000E+00 0.  1.
        -13    1    4    4    0    0 -0.27541531263E+02  0.55865231335E+02  0.65656827304E+02  0.90500160155E+02  0.00000000000E+00 0.  1.
         13    1    4    4    0    0 -0.15516441707E+03  0.20716667770E+03  0.55392720366E+02  0.26469299602E+03  0.00000000000E+00 0. -1.
         -1    1    1    2    0  502 -0.24203036905E+02  0.63588904982E+01  0.31243689018E-01  0.25024457236E+02  0.00000000000E+00 0.  1.
<scales pt_clust_5="13000.00000" pt_clust_6="13000.00000" pt_clust_7="13000.00000" pt_clust_8="13000.00000" pt_clust_9="25.02444"></scales>
<clustering>
<clus scale="   25.024">  2  9  1 -1</clus>
<clus scale="   90.942">  5  6 -1 -1</clus>
<clus scale="   94.562">  7  8 -1 -1</clus>
<clus scale="  347.466">  1  5  2 -1</clus>
<clus scale="   25.024">  2  5  1 -1</clus>
</clustering>
</event>
<event>
 9    1  0.1504846E-005  0.9594859E+02  0.7546771E-02  0.1290809E+00
          1   -1    0    0  502    0 -0.00000000000E+00  0.00000000000E+00  0.17010493201E+03  0.17010493201E+03  0.00000000000E+00 0. -1.
         21   -1    0    0  501  502  0.00000000000E+00 -0.00000000000E+00 -0.86079220994E+02  0.86079220994E+02  0.00000000000E+00 0. -1.
         23    2    1    2    0    0  0.24722463967E+02 -0.25006727564E+02  0.71073856341E+02  0.12011206088E+03  0.90215727372E+02 0.  0.
         23    2    1    2    0    0  0.27916193226E+01  0.72286316046E+01  0.30936780093E+02  0.98701742683E+02  0.93407191333E+02 0.  0.
        -11    1    3    3    0    0 -0.20570213253E+02  0.31939269593E+01 -0.99708263902E+01  0.23081425900E+02  0.00000000000E+00 0.  1.
         11    1    3    3    0    0  0.45292677220E+02 -0.28200654524E+02  0.81044682731E+02  0.97030634978E+02  0.00000000000E+00 0. -1.
        -11    1    4    4    0    0  0.44763781780E+02 -0.65993455142E+01  0.30391927930E+02  0.54507034443E+02  0.00000000000E+00 0. -1.
         11    1    4    4    0    0 -0.41972162457E+02  0.13827977119E+02  0.54485216320E+00  0.44194708240E+02  0.00000000000E+00 0.  1.
          1    1    1    2  501    0 -0.27514083290E+02  0.17778095960E+02 -0.17984925418E+02  0.37370349443E+02  0.00000000000E+00 0. -1.
<scales pt_clust_5="13000.00000" pt_clust_6="13000.00000" pt_clust_7="13000.00000" pt_clust_8="13000.00000" pt_clust_9="32.75798"></scales>
<clustering>
<clus scale="   32.758">  2  9  1 -1</clus>
<clus scale="   90.216">  5  6 -1 -1</clus>
<clus scale="   92.845">  1  5  2 -1</clus>
<clus scale="   93.407">  7  8 -1 -1</clus>
<clus scale="   32.758">  2  5  1 -1</clus>
</clustering>
</event>
<event>
 9    1  0.1504846E-005  0.9380699E+02  0.7546771E-02  0.1294441E+00
          2   -1    0    0  502    0 -0.00000000000E+00  0.00000000000E+00  0.45324301924E+03  0.45324301924E+03  0.00000000000E+00 0. -1.
         21   -1    0    0  501  502  0.00000000000E+00 -0.00000000000E+00 -0.33902468280E+02  0.33902468280E+02  0.00000000000E+00 0.  1.
         23    2    1    2    0    0 -0.46262095301E+02  0.47652963127E+00  0.18106994702E+03  0.20763896543E+03  0.90483179137E+02 0.  0.
         23    2    1    2    0    0 -0.67335188262E+01  0.17257255426E+01  0.13216172402E+03  0.16087904028E+03  0.91471448553E+02 0.  0.
        -11    1    4    4    0    0  0.30426916748E+02  0.30583169850E+02  0.78000061621E+02  0.89135498841E+02  0.00000000000E+00 0. -1.
         11    1    4    4    0    0 -0.37160435574E+02 -0.28857444307E+02  0.54161662402E+02  0.71743541439E+02  0.00000000000E+00 0.  1.
        -13    1    3    3    0    0 -0.71905691280E+02  0.12620846107E+02  0.12371242705E+03  0.14364706332E+03  0.00000000000E+00 0.  1.
         13    1    3    3    0    0  0.25643595979E+02 -0.12144316476E+02  0.57357519975E+02  0.63991902106E+02  0.00000000000E+00 0. -1.
          2    1    1    2  501    0  0.52995614128E+02 -0.22022551739E+01  0.10610887992E+03  0.11862748181E+03  0.00000000000E+00 0. -1.
<scales pt_clust_5="13000.00000" pt_clust_6="13000.00000" pt_clust_7="13000.00000" pt_clust_8="13000.00000" pt_clust_9="53.04138"></scales>
<clustering>
<clus scale="   53.041">  2  9  1 -1</clus>
<clus scale="   90.483">  7  8 -1 -1</clus>
<clus scale="   91.471">  5  6 -1 -1</clus>
<clus scale="   92.844">  1  7  2 -1</clus>
<clus scale="   53.041">  2  5  1 -1</clus>
</clustering>
</event>
<event>
 9    1  0.1504846E-005  0.9544789E+02  0.7546771E-02  0.1291573E+00
          1   -1    0    0  502    0 -0.00000000000E+00  0.00000000000E+00  0.49895907488E+03  0.49895907488E+03  0.00000000000E+00 0. -1.
         21   -1    0    0  501  502  0.00000000000E+00 -0.00000000000E+00 -0.75272775548E+02  0.75272775548E+02  0.00000000000E+00 0. -1.
         23    2    1    2    0    0  0.92681909162E+01  0.13480292820E+02  0.24554938706E+03  0.26240463336E+03  0.91071798408E+02 0.  0.
         23    2    1    2    0    0 -0.28366003864E+02  0.49926724892E+01  0.23197091391E+03  0.25179325468E+03  0.93593703017E+02 0.  0.
        -11    1    4    4    0    0 -0.35456132897E+02 -0.14149572537E+02  0.22777681089E+03  0.23095372554E+03  0.00000000000E+00 0.  1.
         11    1    4    4    0    0  0.70901290337E+01  0.19142245026E+02  0.41941030253E+01  0.20839529134E+02  0.00000000000E+00 0. -1.
        -13    1    3    3    0    0  0.30172852769E+02 -0.15524438316E+02  0.34655820590E+02  0.48501908519E+02  0.00000000000E+00 0.  1.
         13    1    3    3    0    0 -0.20904661853E+02  0.29004731136E+02  0.21089356647E+03  0.21390272484E+03  0.00000000000E+00 0. -1.
          1    1    1    2  501    0  0.19097812948E+02 -0.18472965309E+02 -0.53834001648E+02  0.60033962389E+02  0.00000000000E+00 0. -1.
<scales pt_clust_5="13000.00000" pt_clust_6="13000.00000" pt_clust_7="13000.00000" pt_clust_8="13000.00000" pt_clust_9="26.57023"></scales>
<clustering>
<clus scale="   26.570">  2  9  1 -1</clus>
<clus scale="   91.072">  7  8 -1 -1</clus>
<clus scale="   92.976">  1  7  2 -1</clus>
<clus scale="   93.594">  5  6 -1 -1</clus>
<clus scale="   26.570">  2  5  1 -1</clus>
</clustering>
</event>
<event>
 9    1  0.1504846E-005  0.1084130E+03  0.7546771E-02  0.1268759E+00
         21   -1    0    0  501  502  0.00000000000E+00  0.00000000000E+00  0.10283293820E+03  0.10283293820E+03  0.00000000000E+00 0.  1.
          2   -1    0    0  502    0 -0.00000000000E+00 -0.00000000000E+00 -0.24831944296E+03  0.24831944296E+03  0.00000000000E+00 0. -1.
         23    2    1    2    0    0  0.16707391211E+02 -0.45439223295E+02 -0.16150385821E+03  0.19708213094E+03  0.10204905775E+03 0.  0.
         23    2    1    2    0    0  0.24433991155E+02  0.14629365933E+02 -0.11288251761E+02  0.95868388310E+02  0.90842088142E+02 0.  0.
        -11    1    3    3    0    0 -0.20480352074E+02 -0.57614455986E+02 -0.13920950115E+03  0.15204655725E+03  0.00000000000E+00 0. -1.
         11    1    3    3    0    0  0.37187743285E+02  0.12175232691E+02 -0.22294357052E+02  0.45035573695E+02  0.00000000000E+00 0.  1.
        -11    1    4    4    0    0 -0.28479000369E+02  0.12569640060E+02 -0.26383116715E+02  0.40805859394E+02  0.00000000000E+00 0. -1.
         11    1    4    4    0    0  0.52912991524E+02  0.20597258725E+01  0.15094864954E+02  0.55062528917E+02  0.00000000000E+00 0.  1.
          2    1    1    2  501    0 -0.41141382366E+02  0.30809857362E+02  0.27305605210E+02  0.58201861908E+02  0.00000000000E+00 0. -1.
<scales pt_clust_5="13000.00000" pt_clust_6="13000.00000" pt_clust_7="13000.00000" pt_clust_8="13000.00000" pt_clust_9="51.39903"></scales>
<clustering>
<clus scale="   51.399">  1  9  2 -1</clus>
<clus scale="   90.842">  7  8 -1 -1</clus>
<clus scale="   97.937">  1  7  2 -1</clus>
<clus scale="  102.049">  5  6 -1 -1</clus>
<clus scale="   51.399">  1  5  2 -1</clus>
</clustering>
</event>
<event>
 9    1  0.1504846E-005  0.9664968E+02  0.7546771E-02  0.1288072E+00
          1   -1    0    0  502    0 -0.00000000000E+00  0.00000000000E+00  0.58289221478E+02  0.58289221478E+02  0.00000000000E+00 0. -1.
         21   -1    0    0  501  502  0.00000000000E+00 -0.00000000000E+00 -0.38288127817E+03  0.38288127817E+03  0.00000000000E+00 0. -1.
         23    2    1    2    0    0  0.17894976508E+02 -0.66764937777E+00 -0.42747240186E+02  0.10317284570E+03  0.92177185929E+02 0.  0.
         23    2    1    2    0    0 -0.31279708347E+02 -0.46057241216E+02 -0.88617816727E+02  0.13875147484E+03  0.91099751404E+02 0.  0.
        -13    1    3    3    0    0  0.18247652267E+02 -0.33964450015E+02 -0.55446940055E+02  0.67534612160E+02  0.00000000000E+00 0. -1.
         13    1    3    3    0    0 -0.35267575866E+00  0.33296800637E+02  0.12699699869E+02  0.35638233537E+02  0.00000000000E+00 0.  1.
        -13    1    4    4    0    0 -0.80784927380E+01  0.19924950238E+02 -0.59001917461E+02  0.62797228848E+02  0.00000000000E+00 0.  1.
         13    1    4    4    0    0 -0.23201215609E+02 -0.65982191454E+02 -0.29615899266E+02  0.75954245991E+02  0.00000000000E+00 0. -1.
          1    1    1    2  501    0  0.13384731839E+02  0.46724890594E+02 -0.19322699978E+03  0.19924617911E+03  0.00000000000E+00 0. -1.
<scales pt_clust_5="13000.00000" pt_clust_6="13000.00000" pt_clust_7="13000.00000" pt_clust_8="13000.00000" pt_clust_9="48.60418"></scales>
<clustering>
<clus scale="   48.604">  2  9  1 -1</clus>
<clus scale="   91.100">  7  8 -1 -1</clus>
<clus scale="   92.177">  5  6 -1 -1</clus>
<clus scale="   95.623">  2  7  1 -1</clus>
<clus scale="   48.604">  2  5  1 -1</clus>
</clustering>
</event>
<event>
 9    1  0.1504846E-005  0.9761533E+02  0.7546771E-02  0.1290498E+00
         -1   -1    0    0    0  501 -0.00000000000E+00  0.00000000000E+00  0.90764511577E+02  0.90764511577E+02  0.00000000000E+00 0.  1.
         21   -1    0    0  501  502  0.00000000000E+00 -0.00000000000E+00 -0.17262081918E+03  0.17262081918E+03  0.00000000000E+00 0.  1.
         23    2    1    2    0    0  0.31951879138E+02  0.28784133753E+02  0.15864487214E+02  0.10080331364E+03  0.89778489354E+02 0.  0.
         23    2    1    2    0    0 -0.39080438673E+02  0.90587660907E+01 -0.80652733349E+02  0.12046052436E+03  0.79978325829E+02 0.  0.
        -11    1    4    4    0    0  0.48796124074E+01 -0.26966000613E+02 -0.86658327458E+01  0.28741476362E+02  0.00000000000E+00 0. -1.
         11    1    4    4    0    0 -0.43960051081E+02  0.36024766704E+02 -0.71986900603E+02  0.91719047997E+02  0.00000000000E+00 0.  1.
        -11    1    3    3    0    0  0.43041672115E+02  0.53310481335E+02  0.24136231461E+02  0.72643999255E+02  0.00000000000E+00 0.  1.
         11    1    3    3    0    0 -0.11089792977E+02 -0.24526347582E+02 -0.82717442474E+01  0.28159314389E+02  0.00000000000E+00 0. -1.
         -1    1    1    2    0  502  0.71285595358E+01 -0.37842899844E+02 -0.17068061471E+02  0.42121492757E+02  0.00000000000E+00 0.  1.
<scales pt_clust_5="13000.00000" pt_clust_6="13000.00000" pt_clust_7="13000.00000" pt_clust_8="13000.00000" pt_clust_9="38.50846"></scales>
<clustering>
<clus scale="   38.508">  2  9  1 -1</clus>
<clus scale="   79.978">  5  6 -1 -1</clus>
<clus scale="   88.685">  2  5  1 -1</clus>
<clus scale="   89.778">  7  8 -1 -1</clus>
<clus scale="   38.508">  2  5  1 -1</clus>
</clustering>
</event>
<event>
 9    1  0.1504846E-005  0.1034300E+03  0.7546771E-02  0.1288364E+00
          1   -1    0    0  502    0 -0.00000000000E+00  0.00000000000E+00  0.85007712233E+03  0.85007712233E+03  0.00000000000E+00 0. -1.
         21   -1    0    0  501  502  0.00000000000E+00 -0.00000000000E+00 -0.27786428935E+02  0.27786428935E+02  0.00000000000E+00 0. -1.
         23    2    1    2    0    0  0.36807132733E+02 -0.29817340363E+02  0.34543204768E+03  0.35395363609E+03  0.60959315345E+02 0.  0.
         23    2    1    2    0    0 -0.17406405137E+02  0.50446146825E+02  0.48336311280E+03  0.49485403833E+03  0.91612355963E+02 0.  0.
        -11    1    3    3    0    0  0.11160276369E+02 -0.45305865195E+02  0.23092111190E+03  0.23558805808E+03  0.00000000000E+00 0.  1.
         11    1    3    3    0    0  0.25646856364E+02  0.15488524833E+02  0.11451093578E+03  0.11836557801E+03  0.00000000000E+00 0. -1.
        -13    1    4    4    0    0  0.20022625563E+02 -0.14218117494E+02  0.58089963232E+02  0.63067457756E+02  0.00000000000E+00 0.  1.
         13    1    4    4    0    0 -0.37429030700E+02  0.64664264319E+02  0.42527314957E+03  0.43178658058E+03  0.00000000000E+00 0. -1.
          1    1    1    2  501    0 -0.19400727596E+02 -0.20628806462E+02 -0.65044670879E+01  0.29055876848E+02  0.00000000000E+00 0. -1.
<scales pt_clust_5="13000.00000" pt_clust_6="13000.00000" pt_clust_7="13000.00000" pt_clust_8="13000.00000" pt_clust_9="28.31847"></scales>
<clustering>
<clus scale="   28.318">  2  9  1 -1</clus>
<clus scale="   60.959">  5  6 -1 -1</clus>
<clus scale="   77.595">  1  5  2 -1</clus>
<clus scale="   91.612">  7  8 -1 -1</clus>
<clus scale="   28.318">  2  5  1 -1</clus>
</clustering>
</event>
<event>
 9    1  0.1504846E-005  0.1057429E+03  0.7546771E-02  0.1268805E+00
          2   -1    0    0  502    0 -0.00000000000E+00  0.00000000000E+00  0.95088700820E+02  0.95088700820E+02  0.00000000000E+00 0. -1.
         21   -1    0    0  501  502  0.00000000000E+00 -0.00000000000E+00 -0.25109421330E+03  0.25109421330E+03  0.00000000000E+00 0. -1.
         23    2    1    2    0    0  0.64483755368E+02 -0.18794672940E+01  0.74782818717E+01  0.11093733398E+03  0.89941538052E+02 0.  0.
         23    2    1    2    0    0 -0.33684922801E+02  0.37277044175E+02 -0.54997181223E+02  0.11704701093E+03  0.90283225338E+02 0.  0.
        -11    1    4    4    0    0 -0.62216723415E+01  0.55063374632E+02 -0.28528273405E+01  0.55487143164E+02  0.00000000000E+00 0. -1.
         11    1    4    4    0    0 -0.27463250460E+02 -0.17786330457E+02 -0.52144353883E+02  0.61559867761E+02  0.00000000000E+00 0.  1.
        -13    1    3    3    0    0  0.53082298217E+02 -0.19751905497E+02  0.41940958733E+02  0.70476323501E+02  0.00000000000E+00 0. -1.
         13    1    3    3    0    0  0.11401457151E+02  0.17872438203E+02 -0.34462676862E+02  0.40461010479E+02  0.00000000000E+00 0.  1.
          2    1    1    2  501    0 -0.30798832567E+02 -0.35397576881E+02 -0.10848661313E+03  0.11819856921E+03  0.00000000000E+00 0. -1.
<scales pt_clust_5="13000.00000" pt_clust_6="13000.00000" pt_clust_7="13000.00000" pt_clust_8="13000.00000" pt_clust_9="46.92075"></scales>
<clustering>
<clus scale="   46.921">  2  9  1 -1</clus>
<clus scale="   89.942">  7  8 -1 -1</clus>
<clus scale="   90.283">  5  6 -1 -1</clus>
<clus scale="  105.451">  1  7  2 -1</clus>
<clus scale="   46.921">  2  5  1 -1</clus>
</clustering>
</event>
<event>
 9    1  0.1504846E-005  0.9179520E+02  0.7546771E-02  0.1301755E+00
          2   -1    0    0  502    0 -0.00000000000E+00  0.00000000000E+00  0.36314948729E+03  0.36314948729E+03  0.00000000000E+00 0. -1.
         21   -1    0    0  501  502  0.00000000000E+00 -0.00000000000E+00 -0.66675255599E+02  0.66675255599E+02  0.00000000000E+00 0.  1.
         23    2    1    2    0    0 -0.53600016091E+01 -0.13180179579E+02  0.19200334298E+03  0.21291258821E+03  0.90906764061E+02 0.  0.
         23    2    1    2    0    0  0.28146408418E+02 -0.63138091670E+02  0.67657356990E+02  0.12916857953E+03  0.85605870456E+02 0.  0.
        -11    1    4    4    0    0  0.57771408436E+02 -0.40814856598E+02  0.31720540251E+02  0.77521486219E+02  0.00000000000E+00 0.  1.
         11    1    4    4    0    0 -0.29625000018E+02 -0.22323235072E+02  0.35936816739E+02  0.51647093311E+02  0.00000000000E+00 0. -1.
        -13    1    3    3    0    0 -0.31607625050E+02  0.23945076617E+02  0.50043889322E+02  0.63849819999E+02  0.00000000000E+00 0. -1.
         13    1    3    3    0    0  0.26247623441E+02 -0.37125256196E+02  0.14195945366E+03  0.14906276821E+03  0.00000000000E+00 0.  1.
          2    1    1    2  501    0 -0.22786406809E+02  0.76318271250E+02  0.36813531721E+02  0.87743575147E+02  0.00000000000E+00 0. -1.
<scales pt_clust_5="13000.00000" pt_clust_6="13000.00000" pt_clust_7="13000.00000" pt_clust_8="13000.00000" pt_clust_9="79.64734"></scales>
<clustering>
<clus scale="   79.647">  2  9  1 -1</clus>
<clus scale="   85.606">  5  6 -1 -1</clus>
<clus scale="   86.549">  2  5  1 -1</clus>
<clus scale="   90.907">  7  8 -1 -1</clus>
<clus scale="   79.647">  2  5  1 -1</clus>
</clustering>
</event>
<event>
 9    1  0.2008203E-005  0.9268348E+02  0.7546771E-02  0.1296647E+00
         21   -1    0    0  501  502  0.00000000000E+00  0.00000000000E+00  0.25900345181E+03  0.25900345181E+03  0.00000000000E+00 0. -1.
          1   -1    0    0  502    0 -0.00000000000E+00 -0.00000000000E+00 -0.35142483095E+03  0.35142483095E+03  0.00000000000E+00 0. -1.
         23    2    1    2    0    0 -0.37435408818E+02  0.88895923663E+01 -0.20895025466E+03  0.23100261527E+03  0.90672844075E+02 0.  0.
         23    2    1    2    0    0 -0.12223491856E+02  0.14028583248E+02 -0.11140395052E+03  0.14502297471E+03  0.90964872898E+02 0.  0.
        -11    1    3    3    0    0  0.23146676575E+02 -0.12456576303E+00 -0.14930129250E+02  0.27544380779E+02  0.00000000000E+00 0.  1.
         11    1    3    3    0    0 -0.60582085393E+02  0.90141581294E+01 -0.19402012541E+03  0.20345823449E+03  0.00000000000E+00 0. -1.
        -11    1    4    4    0    0 -0.11757470372E+02  0.40818558324E+02 -0.11031055471E+03  0.11820664657E+03  0.00000000000E+00 0. -1.
         11    1    4    4    0    0 -0.46602148366E+00 -0.26789975076E+02 -0.10933958128E+01  0.26816328142E+02  0.00000000000E+00 0.  1.
          1    1    1    2  501    0  0.49658900674E+02 -0.22918175615E+02  0.22793282605E+03  0.23440269277E+03  0.00000000000E+00 0. -1.
<scales pt_clust_5="13000.00000" pt_clust_6="13000.00000" pt_clust_7="13000.00000" pt_clust_8="13000.00000" pt_clust_9="54.69231"></scales>
<clustering>
<clus scale="   54.692">  1  9  2 -1</clus>
<clus scale="   90.673">  5  6 -1 -1</clus>
<clus scale="   90.965">  7  8 -1 -1</clus>
<clus scale="   92.397">  2  5  1 -1</clus>
<clus scale="   54.692">  1  5  2 -1</clus>
</clustering>
</event>
<event>
 9    1  0.1504846E-005  0.1792550E+03  0.7546771E-02  0.1168810E+00
         -2   -1    0    0    0  501 -0.00000000000E+00  0.00000000000E+00  0.34861842814E+03  0.34861842814E+03  0.00000000000E+00 0.  1.
         21   -1    0    0  501  502  0.00000000000E+00 -0.00000000000E+00 -0.45744958478E+03  0.45744958478E+03  0.00000000000E+00 0.  1.
         23    2    1    2    0    0  0.15375563421E+03  0.10256371170E+03  0.20672586734E+03  0.29260664025E+03  0.93396743412E+02 0.  0.
         23    2    1    2    0    0 -0.35366110311E+02 -0.11887642068E+03  0.21901934667E+02  0.15546593609E+03  0.91146022353E+02 0.  0.
        -11    1    4    4    0    0 -0.48947619604E+02 -0.47775036592E+02  0.42096793368E+02  0.80314778205E+02  0.00000000000E+00 0. -1.
         11    1    4    4    0    0  0.13581509293E+02 -0.71101384087E+02 -0.20194858701E+02  0.75151157886E+02  0.00000000000E+00 0.  1.
        -11    1    3    3    0    0  0.16384782754E+02  0.30087718576E+02  0.28220955713E+00  0.34260933397E+02  0.00000000000E+00 0. -1.
         11    1    3    3    0    0  0.13737085146E+03  0.72475993128E+02  0.20644365778E+03  0.25834570685E+03  0.00000000000E+00 0.  1.
         -2    1    1    2    0  502 -0.11838952390E+03  0.16312708974E+02 -0.33745895865E+03  0.35799543659E+03  0.00000000000E+00 0.  1.
<scales pt_clust_5="13000.00000" pt_clust_6="13000.00000" pt_clust_7="13000.00000" pt_clust_8="13000.00000" pt_clust_9="119.50809"></scales>
<clustering>
<clus scale="   91.146">  5  6 -1 -1</clus>
<clus scale="   93.397">  7  8 -1 -1</clus>
<clus scale="  119.508">  2  9  1 -1</clus>
<clus scale="  178.093">  2  5  1 -1</clus>
<clus scale="  119.508">  2  5  1 -1</clus>
</clustering>
</event>
<event>
 9    1  0.1504846E-005  0.1031820E+03  0.7546771E-02  0.1274267E+00
         21   -1    0    0  501  502  0.00000000000E+00  0.00000000000E+00  0.17223040241E+03  0.17223040241E+03  0.00000000000E+00 0.  1.
          1   -1    0    0  502    0 -0.00000000000E+00 -0.00000000000E+00 -0.24268595954E+03  0.24268595954E+03  0.00000000000E+00 0. -1.
         23    2    1    2    0    0 -0.12453287862E+02 -0.41266202406E+02 -0.18615214979E+03  0.21142619558E+03  0.90500991535E+02 0.  0.
         23    2    1    2    0    0  0.24596749262E+02  0.75381848248E+02  0.55645741396E+02  0.13336566507E+03  0.91665309491E+02 0.  0.
        -11    1    3    3    0    0  0.25844923518E+02 -0.13815894565E+02 -0.13148389086E+02  0.32120385270E+02  0.00000000000E+00 0.  1.
         11    1    3    3    0    0 -0.38298211381E+02 -0.27450307841E+02 -0.17300376070E+03  0.17930581031E+03  0.00000000000E+00 0. -1.
        -13    1    4    4    0    0  0.53799615413E+02  0.42125853560E+02  0.57154299008E+02  0.89081985002E+02  0.00000000000E+00 0.  1.
         13    1    4    4    0    0 -0.29202866151E+02  0.33255994688E+02 -0.15085576125E+01  0.44283680066E+02  0.00000000000E+00 0. -1.
          1    1    1    2  501    0 -0.12143461399E+02 -0.34115645841E+02  0.60050851256E+02  0.70124501299E+02  0.00000000000E+00 0. -1.
<scales pt_clust_5="13000.00000" pt_clust_6="13000.00000" pt_clust_7="13000.00000" pt_clust_8="13000.00000" pt_clust_9="36.21244"></scales>
<clustering>
<clus scale="   36.212">  1  9  2 -1</clus>
<clus scale="   90.501">  5  6 -1 -1</clus>
<clus scale="   91.665">  7  8 -1 -1</clus>
<clus scale="  102.149">  2  5  1 -1</clus>
<clus scale="   36.212">  1  5  2 -1</clus>
</clustering>
</event>
<event>
 9    1  0.1504846E-005  0.1048891E+03  0.7546771E-02  0.1270598E+00
         -4   -1    0    0    0  501 -0.00000000000E+00  0.00000000000E+00  0.21526705664E+03  0.21526705664E+03  0.00000000000E+00 0.  1.
         21   -1    0    0  501  502  0.00000000000E+00 -0.00000000000E+00 -0.11862104900E+03  0.11862104900E+03  0.00000000000E+00 0. -1.
         23    2    1    2    0    0 -0.22663885402E+02  0.52750000088E+02  0.16111783451E+03  0.19369769057E+03  0.90904480214E+02 0.  0.
         23    2    1    2    0    0  0.59961677252E+01 -0.28246187939E+02 -0.47442628220E+02  0.10601084180E+03  0.90297809752E+02 0.  0.
        -13    1    4    4    0    0 -0.22613515665E+02 -0.11719218720E+02 -0.64124928868E+02  0.68997954176E+02  0.00000000000E+00 0. -1.
         13    1    4    4    0    0  0.28609683391E+02 -0.16526969219E+02  0.16682300648E+02  0.37012887623E+02  0.00000000000E+00 0.  1.
        -13    1    3    3    0    0  0.29306595942E+02  0.30534468498E+02  0.10855685810E+03  0.11651532849E+03  0.00000000000E+00 0.  1.
         13    1    3    3    0    0 -0.51970481344E+02  0.22215531590E+02  0.52560976410E+02  0.77182362079E+02  0.00000000000E+00 0. -1.
         -4    1    1    2    0  502  0.16667717677E+02 -0.24503812148E+02 -0.17029198658E+02  0.34179573275E+02  0.00000000000E+00 0.  1.
<scales pt_clust_5="13000.00000" pt_clust_6="13000.00000" pt_clust_7="13000.00000" pt_clust_8="13000.00000" pt_clust_9="29.63528"></scales>
<clustering>
<clus scale="   29.635">  2  9  1 -1</clus>
<clus scale="   90.298">  5  6 -1 -1</clus>
<clus scale="   90.904">  7  8 -1 -1</clus>
<clus scale="  104.364">  2  5  1 -1</clus>
<clus scale="   29.635">  2  5  1 -1</clus>
</clustering>
</event>
<event>
 9    1  0.1504846E-005  0.9668713E+02  0.7546771E-02  0.1288081E+00
          1   -1    0    0  502    0 -0.00000000000E+00  0.00000000000E+00  0.20076925823E+03  0.20076925823E+03  0.00000000000E+00 0. -1.
         21   -1    0    0  501  502  0.00000000000E+00 -0.00000000000E+00 -0.59712717958E+02  0.59712717958E+02  0.00000000000E+00 0. -1.
         23    2    1    2    0    0 -0.33719459348E+02  0.97850568120E+01  0.83720883198E+02  0.13031921489E+03  0.93494182758E+02 0.  0.
         23    2    1    2    0    0  0.11385283830E+02 -0.15393171465E+01  0.43762463124E+02  0.10275766665E+03  0.92260450312E+02 0.  0.
        -11    1    3    3    0    0  0.20688504033E+02 -0.25404541478E+02  0.15545630703E+02  0.36263915409E+02  0.00000000000E+00 0.  1.
         11    1    3    3    0    0 -0.54407963381E+02  0.35189598290E+02  0.68175252495E+02  0.94055299478E+02  0.00000000000E+00 0. -1.
        -11    1    4    4    0    0 -0.40356035710E+02  0.38397107011E+01  0.24000507007E+02  0.47110267809E+02  0.00000000000E+00 0. -1.
         11    1    4    4    0    0  0.51741319540E+02 -0.53790278475E+01  0.19761956117E+02  0.55647398842E+02  0.00000000000E+00 0.  1.
          1    1    1    2  501    0  0.22334175518E+02 -0.82457396655E+01  0.13573193947E+02  0.27405094647E+02  0.00000000000E+00 0. -1.
<scales pt_clust_5="13000.00000" pt_clust_6="13000.00000" pt_clust_7="13000.00000" pt_clust_8="13000.00000" pt_clust_9="23.80772"></scales>
<clustering>
<clus scale="   23.808">  2  9  1 -1</clus>
<clus scale="   92.260">  7  8 -1 -1</clus>
<clus scale="   93.494">  5  6 -1 -1</clus>
<clus scale="   95.495">  2  7  1 -1</clus>
<clus scale="   23.808">  2  5  1 -1</clus>
</clustering>
</event>
<event>
 9    1  0.1504846E-005  0.1115750E+03  0.7546771E-02  0.1258169E+00
         21   -1    0    0  501  502  0.00000000000E+00  0.00000000000E+00  0.34685570288E+02  0.34685570288E+02  0.00000000000E+00 0.  1.
          2   -1    0    0  502    0 -0.00000000000E+00 -0.00000000000E+00 -0.63343608092E+03  0.63343608092E+03  0.00000000000E+00 0. -1.
         23    2    1    2    0    0  0.35072292220E+02 -0.49210246013E+02 -0.38523805642E+03  0.40059067112E+03  0.91721380698E+02 0.  0.
         23    2    1    2    0    0 -0.56449261447E+02  0.43447075841E+02 -0.21649317201E+03  0.24519102435E+03  0.90416687481E+02 0.  0.
        -11    1    4    4    0    0 -0.38644442692E+02  0.13802714357E+02 -0.19948169949E+02  0.45627155937E+02  0.00000000000E+00 0.  1.
         11    1    4    4    0    0 -0.17804818756E+02  0.29644361485E+02 -0.19654500206E+03  0.19956386841E+03  0.00000000000E+00 0. -1.
        -13    1    3    3    0    0 -0.29495519448E+02 -0.30476314951E+02 -0.16081879156E+03  0.16631739283E+03  0.00000000000E+00 0.  1.
         13    1    3    3    0    0  0.64567811668E+02 -0.18733931062E+02 -0.22441926487E+03  0.23427327829E+03  0.00000000000E+00 0. -1.
          2    1    1    2  501    0  0.21376969227E+02  0.57631701718E+01  0.29807178061E+01  0.22339955739E+02  0.00000000000E+00 0. -1.
<scales pt_clust_5="13000.00000" pt_clust_6="13000.00000" pt_clust_7="13000.00000" pt_clust_8="13000.00000" pt_clust_9="22.14021"></scales>
<clustering>
<clus scale="   22.140">  1  9  2 -1</clus>
<clus scale="   90.417">  5  6 -1 -1</clus>
<clus scale="   91.721">  7  8 -1 -1</clus>
<clus scale="  110.505">  1  5  2 -1</clus>
<clus scale="   22.140">  1  5  2 -1</clus>
</clustering>
</event>
<event>
 9    1  0.1504846E-005  0.1161493E+03  0.7546771E-02  0.1251870E+00
         21   -1    0    0  501  502  0.00000000000E+00  0.00000000000E+00  0.17905700897E+03  0.17905700897E+03  0.00000000000E+00 0.  1.
          4   -1    0    0  502    0 -0.00000000000E+00 -0.00000000000E+00 -0.12742090440E+03  0.12742090440E+03  0.00000000000E+00 0. -1.
         23    2    1    2    0    0  0.55465959604E+02  0.32586678652E+02 -0.36989649778E+02  0.11372305139E+03  0.86176179581E+02 0.  0.
         23    2    1    2    0    0 -0.58067750696E+02 -0.59780718852E+02  0.30248445378E+02  0.12830181441E+03  0.92740439479E+02 0.  0.
        -13    1    4    4    0    0 -0.81981776082E+02 -0.36410528171E+02  0.12882484524E+02  0.90623929394E+02  0.00000000000E+00 0.  1.
         13    1    4    4    0    0  0.23914025386E+02 -0.23370190680E+02  0.17365960855E+02  0.37677885012E+02  0.00000000000E+00 0. -1.
        -13    1    3    3    0    0  0.78230503282E+02  0.21086997947E+02 -0.34619414572E+02  0.88108892806E+02  0.00000000000E+00 0. -1.
         13    1    3    3    0    0 -0.22764543679E+02  0.11499680705E+02 -0.23702352062E+01  0.25614158588E+02  0.00000000000E+00 0.  1.
          4    1    1    2  501    0  0.26017910923E+01  0.27194040199E+02  0.58377308967E+02  0.64453047574E+02  0.00000000000E+00 0. -1.
<scales pt_clust_5="13000.00000" pt_clust_6="13000.00000" pt_clust_7="13000.00000" pt_clust_8="13000.00000" pt_clust_9="27.31822"></scales>
<clustering>
<clus scale="   27.318">  1  9  2 -1</clus>
<clus scale="   86.176">  7  8 -1 -1</clus>
<clus scale="   92.740">  5  6 -1 -1</clus>
<clus scale="  110.978">  2  7  1 -1</clus>
<clus scale="   27.318">  1  5  2 -1</clus>
</clustering>
</event>
<event>
 9    1  0.1504846E-005  0.1160281E+03  0.7546771E-02  0.1251881E+00
          4   -1    0    0  502    0 -0.00000000000E+00  0.00000000000E+00  0.67141338534E+02  0.67141338534E+02  0.00000000000E+00 0. -1.
         21   -1    0    0  501  502  0.00000000000E+00 -0.00000000000E+00 -0.30376691018E+03  0.30376691018E+03  0.00000000000E+00 0.  1.
         23    2    1    2    0    0  0.29380263151E+02 -0.56016752754E+02 -0.22260171314E+02  0.11179818983E+03  0.89455260165E+02 0.  0.
         23    2    1    2    0    0 -0.18507768649E+02  0.73397313834E+02 -0.16003611708E+03  0.20104142656E+03  0.95270106788E+02 0.  0.
        -11    1    3    3    0    0  0.12549589453E+02  0.24332082559E+02 -0.36221129365E+01  0.27616338266E+02  0.00000000000E+00 0.  1.
         11    1    3    3    0    0  0.16830673699E+02 -0.80348835313E+02 -0.18638058378E+02  0.84181851568E+02  0.00000000000E+00 0. -1.
        -13    1    4    4    0    0 -0.16627173010E+01  0.84935563504E+02 -0.15938743657E+03  0.18061331489E+03  0.00000000000E+00 0.  1.
         13    1    4    4    0    0 -0.16845051348E+02 -0.11538249670E+02 -0.64868050491E+00  0.20428111679E+02  0.00000000000E+00 0. -1.
          4    1    1    2  501    0 -0.10872494502E+02 -0.17380561080E+02 -0.54329283257E+02  0.58068632319E+02  0.00000000000E+00 0. -1.
<scales pt_clust_5="13000.00000" pt_clust_6="13000.00000" pt_clust_7="13000.00000" pt_clust_8="13000.00000" pt_clust_9="20.50110"></scales>
<clustering>
<clus scale="   20.501">  2  9  1 -1</clus>
<clus scale="   89.455">  5  6 -1 -1</clus>
<clus scale="   95.270">  7  8 -1 -1</clus>
<clus scale="  111.303">  1  5  2 -1</clus>
<clus scale="   20.501">  2  5  1 -1</clus>
</clustering>
</event>
<event>
 9    1  0.1504846E-005  0.9190589E+02  0.7546771E-02  0.1298947E+00
          1   -1    0    0  502    0 -0.00000000000E+00  0.00000000000E+00  0.14644736263E+03  0.14644736263E+03  0.00000000000E+00 0. -1.
         21   -1    0    0  501  502  0.00000000000E+00 -0.00000000000E+00 -0.25610270998E+03  0.25610270998E+03  0.00000000000E+00 0. -1.
         23    2    1    2    0    0 -0.22333505708E+01 -0.28335249597E+01  0.79770974764E+02  0.12130194118E+03  0.91311203034E+02 0.  0.
         23    2    1    2    0    0 -0.37774007833E+02 -0.53648849268E+02 -0.43488487496E+02  0.11972816705E+03  0.90213694880E+02 0.  0.
        -13    1    4    4    0    0 -0.36498503597E+02  0.10825269535E+02  0.58698414866E+01  0.38519894398E+02  0.00000000000E+00 0. -1.
         13    1    4    4    0    0 -0.12755042354E+01 -0.64474118803E+02 -0.49358328983E+02  0.81208272648E+02  0.00000000000E+00 0.  1.
        -13    1    3    3    0    0 -0.11554332626E+02  0.36535517197E+02  0.69811597682E+02  0.79636711323E+02  0.00000000000E+00 0. -1.
         13    1    3    3    0    0  0.93209820553E+01 -0.39369042157E+02  0.99593770817E+01  0.41665229853E+02  0.00000000000E+00 0.  1.
          1    1    1    2  501    0  0.40007358404E+02  0.56482374228E+02 -0.14593783461E+03  0.16151996439E+03  0.00000000000E+00 0. -1.
<scales pt_clust_5="13000.00000" pt_clust_6="13000.00000" pt_clust_7="13000.00000" pt_clust_8="13000.00000" pt_clust_9="69.21595"></scales>
<clustering>
<clus scale="   69.216">  2  9  1 -1</clus>
<clus scale="   90.214">  5  6 -1 -1</clus>
<clus scale="   90.816">  2  5  1 -1</clus>
<clus scale="   91.311">  7  8 -1 -1</clus>
<clus scale="   69.216">  2  5  1 -1</clus>
</clustering>
</event>
<event>
 9    1  0.1504846E-005  0.1433081E+03  0.7546771E-02  0.1212835E+00
         21   -1    0    0  501  502  0.00000000000E+00  0.00000000000E+00  0.62257334253E+03  0.62257334253E+03  0.00000000000E+00 0. -1.
          1   -1    0    0  502    0 -0.00000000000E+00 -0.00000000000E+00 -0.68824051270E+02  0.68824051270E+02  0.00000000000E+00 0. -1.
         23    2    1    2    0    0 -0.21182697304E+02  0.95792315430E+02  0.46101706900E+02  0.14205854166E+03  0.91817141742E+02 0.  0.
         23    2    1    2    0    0 -0.34698009026E+02 -0.89860122075E+02  0.28220467206E+03  0.31699782915E+03  0.10756092872E+03 0.  0.
        -11    1    4    4    0    0  0.15637563519E+02 -0.55326611872E+02  0.47781091105E+02  0.74756939753E+02  0.00000000000E+00 0.  1.
         11    1    4    4    0    0 -0.50335572545E+02 -0.34533510203E+02  0.23442358095E+03  0.24224088940E+03  0.00000000000E+00 0. -1.
        -11    1    3    3    0    0 -0.23191452779E+02  0.74596647179E+02  0.73567935337E+02  0.10730677687E+03  0.00000000000E+00 0.  1.
         11    1    3    3    0    0  0.20087554751E+01  0.21195668251E+02 -0.27466228437E+02  0.34751764786E+02  0.00000000000E+00 0. -1.
          1    1    1    2  501    0  0.55880706329E+02 -0.59321933547E+01  0.22544291231E+03  0.23234102300E+03  0.00000000000E+00 0. -1.
<scales pt_clust_5="13000.00000" pt_clust_6="13000.00000" pt_clust_7="13000.00000" pt_clust_8="13000.00000" pt_clust_9="56.19470"></scales>
<clustering>
<clus scale="   56.195">  1  9  2 -1</clus>
<clus scale="   91.817">  7  8 -1 -1</clus>
<clus scale="  107.561">  5  6 -1 -1</clus>
<clus scale="  131.902">  2  7  1 -1</clus>
<clus scale="   56.195">  1  5  2 -1</clus>
</clustering>
</event>
<event>
 9    1  0.1504846E-005  0.1153328E+03  0.7546771E-02  0.1252696E+00
         21   -1    0    0  501  502  0.00000000000E+00  0.00000000000E+00  0.38534023082E+03  0.38534023082E+03  0.00000000000E+00 0. -1.
          2   -1    0    0  502    0 -0.00000000000E+00 -0.00000000000E+00 -0.12373856875E+03  0.12373856875E+03  0.00000000000E+00 0. -1.
         23    2    1    2    0    0  0.42341543144E+02  0.52579701543E+02 -0.79860025324E+02  0.13692333737E+03  0.88390867064E+02 0.  0.
         23    2    1    2    0    0 -0.60914146106E+02 -0.44943778197E+02  0.32406676850E+03  0.34558796121E+03  0.93173451653E+02 0.  0.
        -11    1    4    4    0    0 -0.25484370553E+02 -0.66123304050E+02  0.13956533733E+03  0.15652548631E+03  0.00000000000E+00 0.  1.
         11    1    4    4    0    0 -0.35429775553E+02  0.21179525852E+02  0.18450143117E+03  0.18906247490E+03  0.00000000000E+00 0. -1.
        -13    1    3    3    0    0 -0.18759987458E+02  0.32582094559E+02 -0.57802360192E+02  0.68953918373E+02  0.00000000000E+00 0.  1.
         13    1    3    3    0    0  0.61101530602E+02  0.19997606984E+02 -0.22057665132E+02  0.67969418992E+02  0.00000000000E+00 0. -1.
          2    1    1    2  501    0  0.18572602962E+02 -0.76359233456E+01  0.17394918900E+02  0.26567501005E+02  0.00000000000E+00 0. -1.
<scales pt_clust_5="13000.00000" pt_clust_6="13000.00000" pt_clust_7="13000.00000" pt_clust_8="13000.00000" pt_clust_9="20.08106"></scales>
<clustering>
<clus scale="   20.081">  1  9  2 -1</clus>
<clus scale="   88.391">  7  8 -1 -1</clus>
<clus scale="   93.173">  5  6 -1 -1</clus>
<clus scale="  111.505">  2  7  1 -1</clus>
<clus scale="   20.081">  1  5  2 -1</clus>
</clustering>
</event>
<event>
 9    1  0.1504846E-005  0.1348649E+03  0.7546771E-02  0.1224773E+00
         21   -1    0    0  501  502  0.00000000000E+00  0.00000000000E+00  0.11088700349E+03  0.11088700349E+03  0.00000000000E+00 0. -1.
          3   -1    0    0  502    0 -0.00000000000E+00 -0.00000000000E+00 -0.27825435868E+03  0.27825435868E+03  0.00000000000E+00 0. -1.
         23    2    1    2    0    0  0.86716455777E+02  0.23791091900E+02 -0.12565669006E+03  0.18268821762E+03  0.97466000965E+02 0.  0.
         23    2    1    2    0    0 -0.98376007302E+02 -0.34413287684E+01 -0.87974953152E+02  0.15458367042E+03  0.80416647660E+02 0.  0.
        -11    1    3    3    0    0 -0.12354222481E+02  0.29355448358E+02 -0.43206923217E+02  0.53676879336E+02  0.00000000000E+00 0.  1.
         11    1    3    3    0    0  0.99070678258E+02 -0.55643564574E+01 -0.82449766840E+02  0.12901133828E+03  0.00000000000E+00 0. -1.
        -13    1    4    4    0    0 -0.53163735424E+02  0.34577814579E+02 -0.24808534188E+02  0.68098982326E+02  0.00000000000E+00 0. -1.
         13    1    4    4    0    0 -0.45212271878E+02 -0.38019143348E+02 -0.63166418965E+02  0.86484688090E+02  0.00000000000E+00 0.  1.
          3    1    1    2  501    0  0.11659551525E+02 -0.20349763132E+02  0.46264288023E+02  0.51869474140E+02  0.00000000000E+00 0. -1.
<scales pt_clust_5="13000.00000" pt_clust_6="13000.00000" pt_clust_7="13000.00000" pt_clust_8="13000.00000" pt_clust_9="23.45332"></scales>
<clustering>
<clus scale="   23.453">  1  9  2 -1</clus>
<clus scale="   80.417">  7  8 -1 -1</clus>
<clus scale="   97.466">  5  6 -1 -1</clus>
<clus scale="  123.109">  1  7  2 -1</clus>
<clus scale="   23.453">  1  5  2 -1</clus>
</clustering>
</event>
<event>
 9    1  0.1504846E-005  0.1169227E+03  0.7546771E-02  0.1250188E+00
          2   -1    0    0  502    0 -0.00000000000E+00  0.00000000000E+00  0.22194243255E+03  0.22194243255E+03  0.00000000000E+00 0. -1.
         21   -1    0    0  501  502  0.00000000000E+00 -0.00000000000E+00 -0.78579081963E+02  0.78579081963E+02  0.00000000000E+00 0.  1.
         23    2    1    2    0    0  0.32173523863E+02 -0.49530464496E+02  0.63782879522E+02  0.12845831668E+03  0.94577380235E+02 0.  0.
         23    2    1    2    0    0 -0.53474066946E+02  0.61920714935E+02  0.43803208798E+02  0.12862077690E+03  0.89055782379E+02 0.  0.
        -11    1    3    3    0    0  0.54403530264E+02 -0.63040590382E+02  0.58887711259E+02  0.10198834580E+03  0.00000000000E+00 0. -1.
         11    1    3    3    0    0 -0.22230006401E+02  0.13510125886E+02  0.48951682629E+01  0.26469970880E+02  0.00000000000E+00 0.  1.
        -13    1    4    4    0    0 -0.24228847822E+02  0.81853745962E+02  0.34093355290E+02  0.91920779314E+02  0.00000000000E+00 0.  1.
         13    1    4    4    0    0 -0.29245219125E+02 -0.19933031027E+02  0.97098535076E+01  0.36699997585E+02  0.00000000000E+00 0. -1.
          2    1    1    2  501    0  0.21300543083E+02 -0.12390250438E+02  0.35777262263E+02  0.43442420934E+02  0.00000000000E+00 0. -1.
<scales pt_clust_5="13000.00000" pt_clust_6="13000.00000" pt_clust_7="13000.00000" pt_clust_8="13000.00000" pt_clust_9="24.64208"></scales>
<clustering>
<clus scale="   24.642">  2  9  1 -1</clus>
<clus scale="   89.056">  7  8 -1 -1</clus>
<clus scale="   94.577">  5  6 -1 -1</clus>
<clus scale="  112.503">  2  7  1 -1</clus>
<clus scale="   24.642">  2  5  1 -1</clus>
</clustering>
</event>
<event>
 9    1  0.1829667E-005  0.1046846E+03  0.7546771E-02  0.1271809E+00
         -1   -1    0    0    0  501 -0.00000000000E+00  0.00000000000E+00  0.50553975107E+03  0.50553975107E+03  0.00000000000E+00 0.  1.
         21   -1    0    0  501  502  0.00000000000E+00 -0.00000000000E+00 -0.12939217336E+03  0.12939217336E+03  0.00000000000E+00 0.  1.
         23    2    1    2    0    0 -0.25441875600E+02  0.26146139149E+02  0.21883727172E+03  0.24022564444E+03  0.92128709564E+02 0.  0.
         23    2    1    2    0    0 -0.35171516051E+02 -0.84734005945E+02  0.24281699352E+03  0.27463165739E+03  0.89697087981E+02 0.  0.
        -11    1    4    4    0    0 -0.53601257903E+02 -0.92605424423E+02  0.18872941148E+03  0.21695080143E+03  0.00000000000E+00 0.  1.
         11    1    4    4    0    0  0.18429741852E+02  0.78714184781E+01  0.54087582041E+02  0.57680855963E+02  0.00000000000E+00 0. -1.
        -11    1    3    3    0    0 -0.45433242243E+02  0.12070121209E+02  0.20840879708E+03  0.21364478470E+03  0.00000000000E+00 0.  1.
         11    1    3    3    0    0  0.19991366643E+02  0.14076017940E+02  0.10428474634E+02  0.26580859739E+02  0.00000000000E+00 0. -1.
         -1    1    1    2    0  502  0.60613391651E+02  0.58587866796E+02 -0.85506687530E+02  0.12007462261E+03  0.00000000000E+00 0.  1.
<scales pt_clust_5="13000.00000" pt_clust_6="13000.00000" pt_clust_7="13000.00000" pt_clust_8="13000.00000" pt_clust_9="84.30019"></scales>
<clustering>
<clus scale="   84.300">  2  9  1 -1</clus>
<clus scale="   89.697">  5  6 -1 -1</clus>
<clus scale="   92.129">  7  8 -1 -1</clus>
<clus scale="  102.551">  2  5  1 -1</clus>
<clus scale="   84.300">  2  5  1 -1</clus>
</clustering>
</event>
<event>
 9    1  0.1504846E-005  0.1000258E+03  0.7546771E-02  0.1282215E+00
         21   -1    0    0  501  502  0.00000000000E+00  0.00000000000E+00  0.12443028508E+03  0.12443028508E+03  0.00000000000E+00 0. -1.
          1   -1    0    0  502    0 -0.00000000000E+00 -0.00000000000E+00 -0.24956870405E+03  0.24956870405E+03  0.00000000000E+00 0. -1.
         23    2    1    2    0    0 -0.31996528341E+02 -0.77586914804E+01 -0.16807885088E+03  0.19520197196E+03  0.93644725554E+02 0.  0.
         23    2    1    2    0    0  0.47713152817E+02 -0.43476495811E+02  0.62925503873E+00  0.11051603599E+03  0.89703108132E+02 0.  0.
        -13    1    3    3    0    0 -0.62109082627E+02 -0.96822856932E+01 -0.14211103212E+03  0.15539250385E+03  0.00000000000E+00 0. -1.
         13    1    3    3    0    0  0.30112554286E+02  0.19235942128E+01 -0.25967818760E+02  0.39809468114E+02  0.00000000000E+00 0.  1.
        -13    1    4    4    0    0  0.36170983933E+02  0.12385706284E+02  0.27860755156E+02  0.47307160945E+02  0.00000000000E+00 0.  1.
         13    1    4    4    0    0  0.11542168884E+02 -0.55862202095E+02 -0.27231500117E+02  0.63208875042E+02  0.00000000000E+00 0. -1.
          1    1    1    2  501    0 -0.15716624476E+02  0.51235187292E+02  0.42311176882E+02  0.68280981180E+02  0.00000000000E+00 0. -1.
<scales pt_clust_5="13000.00000" pt_clust_6="13000.00000" pt_clust_7="13000.00000" pt_clust_8="13000.00000" pt_clust_9="53.59157"></scales>
<clustering>
<clus scale="   53.592">  1  9  2 -1</clus>
<clus scale="   89.703">  7  8 -1 -1</clus>
<clus scale="   93.645">  5  6 -1 -1</clus>
<clus scale="   96.346">  1  7  2 -1</clus>
<clus scale="   53.592">  1  5  2 -1</clus>
</clustering>
</event>
<event>
 9    1  0.1504846E-005  0.9309474E+02  0.7546771E-02  0.1297808E+00
         21   -1    0    0  501  502  0.00000000000E+00  0.00000000000E+00  0.43139479258E+02  0.43139479258E+02  0.00000000000E+00 0. -1.
          1   -1    0    0  502    0 -0.00000000000E+00 -0.00000000000E+00 -0.33530174436E+03  0.33530174436E+03  0.00000000000E+00 0. -1.
         23    2    1    2    0    0  0.41376307393E+01 -0.32804729463E+02 -0.13775524295E+03  0.16619956763E+03  0.86905230321E+02 0.  0.
         23    2    1    2    0    0  0.25579097692E+02  0.13337512383E+01 -0.13518077907E+03  0.16487970035E+03  0.90859250636E+02 0.  0.
        -11    1    3    3    0    0  0.51750460587E+01 -0.61820587332E+02 -0.77149906366E+02  0.98998354391E+02  0.00000000000E+00 0. -1.
         11    1    3    3    0    0 -0.10374153194E+01  0.29015857870E+02 -0.60605336581E+02  0.67201213237E+02  0.00000000000E+00 0.  1.
        -11    1    4    4    0    0 -0.20033019445E+02 -0.16139367173E+02 -0.10352707771E+03  0.10667547450E+03  0.00000000000E+00 0.  1.
         11    1    4    4    0    0  0.45612117137E+02  0.17473118411E+02 -0.31653701359E+02  0.58204225847E+02  0.00000000000E+00 0. -1.
          1    1    1    2  501    0 -0.29716728432E+02  0.31470978224E+02 -0.19226243088E+02  0.47361955643E+02  0.00000000000E+00 0. -1.
<scales pt_clust_5="13000.00000" pt_clust_6="13000.00000" pt_clust_7="13000.00000" pt_clust_8="13000.00000" pt_clust_9="43.28402"></scales>
<clustering>
<clus scale="   43.284">  1  9  2 -1</clus>
<clus scale="   86.905">  5  6 -1 -1</clus>
<clus scale="   89.240">  2  5  1 -1</clus>
<clus scale="   90.859">  7  8 -1 -1</clus>
<clus scale="   43.284">  1  5  2 -1</clus>
</clustering>
</event>
<event>
 9    1  0.2632351E-005  0.1282029E+03  0.7546771E-02  0.1242839E+00
          1   -1    0    0  502    0 -0.00000000000E+00  0.00000000000E+00  0.36094414952E+03  0.36094414952E+03  0.00000000000E+00 0. -1.
         21   -1    0    0  501  502  0.00000000000E+00 -0.00000000000E+00 -0.26677765260E+03  0.26677765260E+03  0.00000000000E+00 0. -1.
         23    2    1    2    0    0  0.37191410553E+02 -0.18119075906E+02  0.31565662541E+03  0.34109506811E+03  0.12245504643E+03 0.  0.
         23    2    1    2    0    0 -0.98282922671E+01  0.22018723872E+02 -0.39260536519E+02  0.10231294808E+03  0.91351683549E+02 0.  0.
        -11    1    3    3    0    0 -0.13960181604E+02 -0.60935516851E+02  0.14879855813E+03  0.16139713376E+03  0.00000000000E+00 0.  1.
         11    1    3    3    0    0  0.51151592157E+02  0.42816440945E+02  0.16685806728E+03  0.17969793435E+03  0.00000000000E+00 0. -1.
        -13    1    4    4    0    0 -0.50579574572E+02  0.10880389358E+02 -0.16374052093E+02  0.54265880795E+02  0.00000000000E+00 0.  1.
         13    1    4    4    0    0  0.40751282305E+02  0.11138334514E+02 -0.22886484426E+02  0.48047067285E+02  0.00000000000E+00 0. -1.
          1    1    1    2  501    0 -0.27363118286E+02 -0.38996479659E+01 -0.18222959196E+03  0.18431378593E+03  0.00000000000E+00 0. -1.
<scales pt_clust_5="13000.00000" pt_clust_6="13000.00000" pt_clust_7="13000.00000" pt_clust_8="13000.00000" pt_clust_9="27.63960"></scales>
<clustering>
<clus scale="   27.640">  2  9  1 -1</clus>
<clus scale="   91.352">  7  8 -1 -1</clus>
<clus scale="   98.924">  2  7  1 -1</clus>
<clus scale="  122.455">  5  6 -1 -1</clus>
<clus scale="   27.640">  2  5  1 -1</clus>
</clustering>
</event>
<event>
 9    1  0.1504846E-005  0.1328620E+03  0.7546771E-02  0.1223442E+00
         -4   -1    0    0    0  501 -0.00000000000E+00  0.00000000000E+00  0.12598774654E+03  0.12598774654E+03  0.00000000000E+00 0.  1.
         21   -1    0    0  501  502  0.00000000000E+00 -0.00000000000E+00 -0.28379056319E+03  0.28379056319E+03  0.00000000000E+00 0.  1.
         23    2    1    2    0    0 -0.32183864797E+02 -0.83466276870E+02  0.33633855825E+02  0.13116761040E+03  0.89840331884E+02 0.  0.
         23    2    1    2    0    0  0.16212993317E+02  0.12510943899E+03 -0.12898120542E+03  0.20186496947E+03  0.90543258559E+02 0.  0.
        -13    1    3    3    0    0  0.23817809869E+02 -0.11906974442E+02  0.30160963920E+02  0.40233665653E+02  0.00000000000E+00 0. -1.
         13    1    3    3    0    0 -0.56001674665E+02 -0.71559302428E+02  0.34728919047E+01  0.90933944748E+02  0.00000000000E+00 0.  1.
        -13    1    4    4    0    0 -0.18519745106E+02  0.85394647743E+02 -0.35083646324E+02  0.94159912178E+02  0.00000000000E+00 0.  1.
         13    1    4    4    0    0  0.34732738423E+02  0.39714791249E+02 -0.93897559093E+02  0.10770505729E+03  0.00000000000E+00 0. -1.
         -4    1    1    2    0  502  0.15970871480E+02 -0.41643162122E+02 -0.62455467059E+02  0.76745729868E+02  0.00000000000E+00 0.  1.
<scales pt_clust_5="13000.00000" pt_clust_6="13000.00000" pt_clust_7="13000.00000" pt_clust_8="13000.00000" pt_clust_9="44.60069"></scales>
<clustering>
<clus scale="   44.601">  2  9  1 -1</clus>
<clus scale="   89.840">  5  6 -1 -1</clus>
<clus scale="   90.543">  7  8 -1 -1</clus>
<clus scale="  132.384">  1  5  2 -1</clus>
<clus scale="   44.601">  2  5  1 -1</clus>
</clustering>
</event>
<event>
 9    1  0.1504846E-005  0.1126426E+03  0.7546771E-02  0.1256960E+00
         21   -1    0    0  501  502  0.00000000000E+00  0.00000000000E+00  0.28641254458E+03  0.28641254458E+03  0.00000000000E+00 0.  1.
         -3   -1    0    0    0  501 -0.00000000000E+00 -0.00000000000E+00 -0.89987071243E+02  0.89987071243E+02  0.00000000000E+00 0.  1.
         23    2    1    2    0    0 -0.46515217742E+02  0.31121101383E+02 -0.73362952021E+01  0.10599697598E+03  0.89718165700E+02 0.  0.
         23    2    1    2    0    0  0.89590339409E+02 -0.32432883751E+02  0.16839537799E+03  0.21465348326E+03  0.92955869547E+02 0.  0.
        -11    1    4    4    0    0  0.27433992328E+02 -0.50310142815E+02  0.37022520505E+02  0.68223173699E+02  0.00000000000E+00 0.  1.
         11    1    4    4    0    0  0.62156347081E+02  0.17877259064E+02  0.13137285748E+03  0.14643030956E+03  0.00000000000E+00 0. -1.
        -13    1    3    3    0    0 -0.14754805688E+02  0.46276948878E+02  0.28050956147E+02  0.56090252532E+02  0.00000000000E+00 0. -1.
         13    1    3    3    0    0 -0.31760412055E+02 -0.15155847495E+02 -0.35387251349E+02  0.49906723447E+02  0.00000000000E+00 0.  1.
         -3    1    1    2    0  502 -0.43075121667E+02  0.13117823679E+01  0.35366390556E+02  0.55749156590E+02  0.00000000000E+00 0.  1.
<scales pt_clust_5="13000.00000" pt_clust_6="13000.00000" pt_clust_7="13000.00000" pt_clust_8="13000.00000" pt_clust_9="43.09509"></scales>
<clustering>
<clus scale="   43.095">  1  9  2 -1</clus>
<clus scale="   89.718">  7  8 -1 -1</clus>
<clus scale="   92.956">  5  6 -1 -1</clus>
<clus scale="  109.986">  2  7  1 -1</clus>
<clus scale="   43.095">  1  5  2 -1</clus>
</clustering>
</event>
<event>
 9    1  0.1504846E-005  0.1311363E+03  0.7546771E-02  0.1225938E+00
          2   -1    0    0  502    0 -0.00000000000E+00  0.00000000000E+00  0.43604320600E+03  0.43604320600E+03  0.00000000000E+00 0. -1.
         21   -1    0    0  501  502  0.00000000000E+00 -0.00000000000E+00 -0.24791047921E+03  0.24791047921E+03  0.00000000000E+00 0.  1.
         23    2    1    2    0    0  0.73508843757E+02  0.56286554638E+02  0.38751891220E+03  0.40891175757E+03  0.92011911292E+02 0.  0.
         23    2    1    2    0    0 -0.55275463356E+02 -0.84869728331E+02 -0.99397719076E+02  0.16946187564E+03  0.92623825786E+02 0.  0.
        -11    1    4    4    0    0 -0.11683397716E+02 -0.92161413706E+02 -0.63577764998E+02  0.11257157794E+03  0.00000000000E+00 0.  1.
         11    1    4    4    0    0 -0.43592065641E+02  0.72916853744E+01 -0.35819954079E+02  0.56890297702E+02  0.00000000000E+00 0. -1.
        -11    1    3    3    0    0  0.83311421079E+02  0.25546824394E+02  0.19333627537E+03  0.21206684911E+03  0.00000000000E+00 0.  1.
         11    1    3    3    0    0 -0.98025773214E+01  0.30739730244E+02  0.19418263683E+03  0.19684490846E+03  0.00000000000E+00 0. -1.
          2    1    1    2  501    0 -0.18233380401E+02  0.28583173693E+02 -0.99988466333E+02  0.10558005199E+03  0.00000000000E+00 0. -1.
<scales pt_clust_5="13000.00000" pt_clust_6="13000.00000" pt_clust_7="13000.00000" pt_clust_8="13000.00000" pt_clust_9="33.90360"></scales>
<clustering>
<clus scale="   33.904">  2  9  1 -1</clus>
<clus scale="   92.012">  7  8 -1 -1</clus>
<clus scale="   92.624">  5  6 -1 -1</clus>
<clus scale="  130.705">  1  7  2 -1</clus>
<clus scale="   33.904">  2  5  1 -1</clus>
</clustering>
</event>
<event>
 9    1  0.1504846E-005  0.1182759E+03  0.7546771E-02  0.1255510E+00
         21   -1    0    0  501  502  0.00000000000E+00  0.00000000000E+00  0.15528395062E+03  0.15528395062E+03  0.00000000000E+00 0.  1.
         -2   -1    0    0    0  501 -0.00000000000E+00 -0.00000000000E+00 -0.20052961462E+03  0.20052961462E+03  0.00000000000E+00 0.  1.
         23    2    1    2    0    0 -0.25554763445E+02  0.16347493040E+02 -0.14135934941E+03  0.18349153250E+03  0.11298845237E+03 0.  0.
         23    2    1    2    0    0  0.33736002363E+02 -0.45297836527E+02  0.52951074508E+02  0.11970961938E+03  0.91304790847E+02 0.  0.
        -11    1    3    3    0    0  0.96825393616E+01  0.45358040487E+02 -0.14379998925E+02  0.48558086601E+02  0.00000000000E+00 0.  1.
         11    1    3    3    0    0 -0.35237302807E+02 -0.29010547446E+02 -0.12697935049E+03  0.13493344590E+03  0.00000000000E+00 0. -1.
        -11    1    4    4    0    0  0.48882025933E+02 -0.65375383399E+02  0.35032474149E+02  0.88829429013E+02  0.00000000000E+00 0.  1.
         11    1    4    4    0    0 -0.15146023569E+02  0.20077546872E+02  0.17918600359E+02  0.30880190368E+02  0.00000000000E+00 0. -1.
         -2    1    1    2    0  502 -0.81812389180E+01  0.28950343487E+02  0.43162610915E+02  0.52612413356E+02  0.00000000000E+00 0.  1.
<scales pt_clust_5="13000.00000" pt_clust_6="13000.00000" pt_clust_7="13000.00000" pt_clust_8="13000.00000" pt_clust_9="30.08413"></scales>
<clustering>
<clus scale="   30.084">  1  9  2 -1</clus>
<clus scale="   91.305">  7  8 -1 -1</clus>
<clus scale="   97.772">  1  7  2 -1</clus>
<clus scale="  112.988">  5  6 -1 -1</clus>
<clus scale="   30.084">  1  5  2 -1</clus>
</clustering>
</event>
<event>
 9    1  0.1504846E-005  0.1055989E+03  0.7546771E-02  0.1274631E+00
         -2   -1    0    0    0  501 -0.00000000000E+00  0.00000000000E+00  0.16524015268E+03  0.16524015268E+03  0.00000000000E+00 0.  1.
         21   -1    0    0  501  502  0.00000000000E+00 -0.00000000000E+00 -0.10427306535E+03  0.10427306535E+03  0.00000000000E+00 0. -1.
         23    2    1    2    0    0 -0.28939437676E+01 -0.53514181204E+02  0.93715936523E+02  0.13419135499E+03  0.79702575207E+02 0.  0.
         23    2    1    2    0    0  0.24459873476E+02  0.40824196898E+02 -0.16000013097E+02  0.10521125799E+03  0.92458141484E+02 0.  0.
        -11    1    4    4    0    0 -0.22805064089E+02 -0.15896583440E+02 -0.14523607987E+02  0.31364111690E+02  0.00000000000E+00 0.  1.
         11    1    4    4    0    0  0.47264937565E+02  0.56720780338E+02 -0.14764051093E+01  0.73847146304E+02  0.00000000000E+00 0. -1.
        -11    1    3    3    0    0 -0.31775367496E+02 -0.31931179096E+02  0.14778724252E+02  0.47409754993E+02  0.00000000000E+00 0.  1.
         11    1    3    3    0    0  0.28881423729E+02 -0.21583002108E+02  0.78937212271E+02  0.86781599995E+02  0.00000000000E+00 0. -1.
         -2    1    1    2    0  502 -0.21565929709E+02  0.12689984305E+02 -0.16748836101E+02  0.30110605052E+02  0.00000000000E+00 0.  1.
<scales pt_clust_5="13000.00000" pt_clust_6="13000.00000" pt_clust_7="13000.00000" pt_clust_8="13000.00000" pt_clust_9="25.02249"></scales>
<clustering>
<clus scale="   25.022">  2  9  1 -1</clus>
<clus scale="   79.703">  7  8 -1 -1</clus>
<clus scale="   92.458">  5  6 -1 -1</clus>
<clus scale="   94.632">  1  7  2 -1</clus>
<clus scale="   25.022">  2  5  1 -1</clus>
</clustering>
</event>
<event>
 9    1  0.1504846E-005  0.1040650E+03  0.7546771E-02  0.1272369E+00
         -3   -1    0    0    0  501 -0.00000000000E+00  0.00000000000E+00  0.31200351498E+03  0.31200351498E+03  0.00000000000E+00 0.  1.
         21   -1    0    0  501  502  0.00000000000E+00 -0.00000000000E+00 -0.59246952658E+02  0.59246952658E+02  0.00000000000E+00 0. -1.
         23    2    1    2    0    0  0.30469925270E+02 -0.46451547508E+02  0.16549557214E+03  0.19788868783E+03  0.93193271020E+02 0.  0.
         23    2    1    2    0    0 -0.32469022926E+02  0.10219665030E+01  0.38555495057E+02  0.10672794097E+03  0.94069364407E+02 0.  0.
        -13    1    3    3    0    0  0.33005001984E+02 -0.10612640391E+02  0.69961025081E+01  0.35368117596E+02  0.00000000000E+00 0.  1.
         13    1    3    3    0    0 -0.25350767139E+01 -0.35838907117E+02  0.15849946963E+03  0.16252057024E+03  0.00000000000E+00 0. -1.
        -13    1    4    4    0    0  0.30070729462E+02  0.13747577023E+02  0.18766074018E+01  0.33117462157E+02  0.00000000000E+00 0. -1.
         13    1    4    4    0    0 -0.62539752388E+02 -0.12725610520E+02  0.36678887655E+02  0.73610478816E+02  0.00000000000E+00 0.  1.
         -3    1    1    2    0  502  0.19990976558E+01  0.45429581005E+02  0.48705495125E+02  0.66633838829E+02  0.00000000000E+00 0.  1.
<scales pt_clust_5="13000.00000" pt_clust_6="13000.00000" pt_clust_7="13000.00000" pt_clust_8="13000.00000" pt_clust_9="45.47357"></scales>
<clustering>
<clus scale="   45.474">  2  9  1 -1</clus>
<clus scale="   93.193">  5  6 -1 -1</clus>
<clus scale="   94.069">  7  8 -1 -1</clus>
<clus scale="  103.274">  1  5  2 -1</clus>
<clus scale="   45.474">  2  5  1 -1</clus>
</clustering>
</event>
<event>
 9    1  0.3601446E-005  0.9324508E+02  0.7546771E-02  0.1295255E+00
         21   -1    0    0  501  502  0.00000000000E+00  0.00000000000E+00  0.26891683651E+03  0.26891683651E+03  0.00000000000E+00 0. -1.
         -3   -1    0    0    0  501 -0.00000000000E+00 -0.00000000000E+00 -0.19030868751E+03  0.19030868751E+03  0.00000000000E+00 0.  1.
         23    2    1    2    0    0 -0.23514410678E+02 -0.39005051844E+01 -0.15443762913E+03  0.18028836903E+03  0.89915367229E+02 0.  0.
         23    2    1    2    0    0  0.34518454653E+02 -0.34005364944E+02  0.20911132052E+03  0.23277654153E+03  0.90052681044E+02 0.  0.
        -11    1    3    3    0    0 -0.48622280021E+02  0.23548964243E+02 -0.10825158524E+03  0.12098382345E+03  0.00000000000E+00 0.  1.
         11    1    3    3    0    0  0.25107869343E+02 -0.27449469427E+02 -0.46186043898E+02  0.59304545574E+02  0.00000000000E+00 0. -1.
        -13    1    4    4    0    0  0.22007288584E+02  0.29025492934E+02  0.56951257999E+02  0.67603592941E+02  0.00000000000E+00 0.  1.
         13    1    4    4    0    0  0.12511166069E+02 -0.63030857877E+02  0.15216006252E+03  0.16517294859E+03  0.00000000000E+00 0. -1.
         -3    1    1    2    0  502 -0.11004043975E+02  0.37905870128E+02  0.23934457621E+02  0.46160613466E+02  0.00000000000E+00 0.  1.
<scales pt_clust_5="13000.00000" pt_clust_6="13000.00000" pt_clust_7="13000.00000" pt_clust_8="13000.00000" pt_clust_9="39.47080"></scales>
<clustering>
<clus scale="   39.471">  1  9  2 -1</clus>
<clus scale="   89.915">  5  6 -1 -1</clus>
<clus scale="   90.053">  7  8 -1 -1</clus>
<clus scale="   93.112">  2  5  1 -1</clus>
<clus scale="   39.471">  1  5  2 -1</clus>
</clustering>
</event>
<event>
 9    1  0.1504846E-005  0.9859612E+02  0.7546771E-02  0.1283879E+00
          1   -1    0    0  502    0 -0.00000000000E+00  0.00000000000E+00  0.67387490559E+03  0.67387490559E+03  0.00000000000E+00 0. -1.
         21   -1    0    0  501  502  0.00000000000E+00 -0.00000000000E+00 -0.51148505974E+02  0.51148505974E+02  0.00000000000E+00 0.  1.
         23    2    1    2    0    0 -0.10409970290E+02  0.43262902712E+02  0.50921925498E+03  0.51908697105E+03  0.90371387252E+02 0.  0.
         23    2    1    2    0    0 -0.17129346855E+02 -0.15189833749E+02  0.13216222953E+03  0.16241031754E+03  0.91575710522E+02 0.  0.
        -11    1    3    3    0    0 -0.21058461659E+02  0.69226479665E+02  0.38454377276E+03  0.39129231715E+03  0.00000000000E+00 0. -1.
         11    1    3    3    0    0  0.10648491369E+02 -0.25963576954E+02  0.12467548222E+03  0.12779465389E+03  0.00000000000E+00 0.  1.
        -13    1    4    4    0    0 -0.49428211653E+02  0.25844699783E+01  0.41685806840E+02  0.64711158884E+02  0.00000000000E+00 0.  1.
         13    1    4    4    0    0  0.32298864798E+02 -0.17774303727E+02  0.90476422686E+02  0.97699158657E+02  0.00000000000E+00 0. -1.
          1    1    1    2  501    0  0.27539317145E+02 -0.28073068963E+02 -0.18655084885E+02  0.43526122983E+02  0.00000000000E+00 0. -1.
<scales pt_clust_5="13000.00000" pt_clust_6="13000.00000" pt_clust_7="13000.00000" pt_clust_8="13000.00000" pt_clust_9="39.32571"></scales>
<clustering>
<clus scale="   39.326">  2  9  1 -1</clus>
<clus scale="   90.371">  5  6 -1 -1</clus>
<clus scale="   91.576">  7  8 -1 -1</clus>
<clus scale="   97.479">  1  5  2 -1</clus>
<clus scale="   39.326">  2  5  1 -1</clus>
</clustering>
</event>
<event>
 9    1  0.1504846E-005  0.1908046E+03  0.7546771E-02  0.1157988E+00
         21   -1    0    0  501  502  0.00000000000E+00  0.00000000000E+00  0.47940051497E+02  0.47940051497E+02  0.00000000000E+00 0. -1.
          1   -1    0    0  502    0 -0.00000000000E+00 -0.00000000000E+00 -0.14599027258E+04  0.14599027258E+04  0.00000000000E+00 0. -1.
         23    2    1    2    0    0  0.34789077426E+02 -0.17667835456E+03 -0.10696628977E+04  0.10886130741E+04  0.92055361336E+02 0.  0.
         23    2    1    2    0    0  0.22351425922E+02  0.14047558864E+03 -0.28335846181E+03  0.32950927089E+03  0.89729395852E+02 0.  0.
        -11    1    4    4    0    0  0.45806975472E+02  0.87588291873E+02 -0.11582615869E+03  0.15226846986E+03  0.00000000000E+00 0. -1.
         11    1    4    4    0    0 -0.23455549549E+02  0.52887296769E+02 -0.16753230311E+03  0.17724080103E+03  0.00000000000E+00 0.  1.
        -13    1    3    3    0    0  0.16223876649E+01 -0.16182723889E+03 -0.94516233688E+03  0.95891737415E+03  0.00000000000E+00 0.  1.
         13    1    3    3    0    0  0.33166689761E+02 -0.14851115668E+02 -0.12450056081E+03  0.12969569996E+03  0.00000000000E+00 0. -1.
          1    1    1    2  501    0 -0.57140503348E+02  0.36202765916E+02 -0.58941314843E+02  0.89720432334E+02  0.00000000000E+00 0. -1.
<scales pt_clust_5="13000.00000" pt_clust_6="13000.00000" pt_clust_7="13000.00000" pt_clust_8="13000.00000" pt_clust_9="67.64375"></scales>
<clustering>
<clus scale="   67.644">  1  9  2 -1</clus>
<clus scale="   89.729">  5  6 -1 -1</clus>
<clus scale="   92.055">  7  8 -1 -1</clus>
<clus scale="  189.693">  1  5  2 -1</clus>
<clus scale="   67.644">  1  5  2 -1</clus>
</clustering>
</event>
<event>
 9    1  0.1504846E-005  0.9386933E+02  0.7546771E-02  0.1294597E+00
          1   -1    0    0  502    0 -0.00000000000E+00  0.00000000000E+00  0.36076206472E+03  0.36076206472E+03  0.00000000000E+00 0. -1.
         21   -1    0    0  501  502  0.00000000000E+00 -0.00000000000E+00 -0.10960491558E+03  0.10960491558E+03  0.00000000000E+00 0. -1.
         23    2    1    2    0    0 -0.27838724815E+02  0.35517801653E+02  0.23457553744E+03  0.25505771618E+03  0.89399367921E+02 0.  0.
         23    2    1    2    0    0 -0.25078599088E+01 -0.21871013076E+01  0.92126289704E+02  0.12733853510E+03  0.87845184802E+02 0.  0.
        -13    1    3    3    0    0 -0.20358200487E+02 -0.58490748802E+01  0.51315450331E+01  0.21794512118E+02  0.00000000000E+00 0.  1.
         13    1    3    3    0    0 -0.74805243284E+01  0.41366876533E+02  0.22944399241E+03  0.23326320407E+03  0.00000000000E+00 0. -1.
        -13    1    4    4    0    0 -0.30951241745E+01 -0.39707088894E+02  0.16884620311E+02  0.43258792229E+02  0.00000000000E+00 0.  1.
         13    1    4    4    0    0  0.58726426563E+00  0.37519987587E+02  0.75241669394E+02  0.84079742869E+02  0.00000000000E+00 0. -1.
          1    1    1    2  501    0  0.30346584724E+02 -0.33330700345E+02 -0.75544678001E+02  0.87970729019E+02  0.00000000000E+00 0. -1.
<scales pt_clust_5="13000.00000" pt_clust_6="13000.00000" pt_clust_7="13000.00000" pt_clust_8="13000.00000" pt_clust_9="45.07606"></scales>
<clustering>
<clus scale="   45.076">  2  9  1 -1</clus>
<clus scale="   87.845">  7  8 -1 -1</clus>
<clus scale="   89.399">  5  6 -1 -1</clus>
<clus scale="   92.390">  2  7  1 -1</clus>
<clus scale="   45.076">  2  5  1 -1</clus>
</clustering>
</event>
<event>
 9    1  0.1504846E-005  0.1561384E+03  0.7546771E-02  0.1213799E+00
          1   -1    0    0  502    0 -0.00000000000E+00  0.00000000000E+00  0.82900047130E+03  0.82900047130E+03  0.00000000000E+00 0. -1.
         21   -1    0    0  501  502  0.00000000000E+00 -0.00000000000E+00 -0.80377273936E+02  0.80377273936E+02  0.00000000000E+00 0.  1.
         23    2    1    2    0    0  0.20221134969E+02  0.38574282455E+02  0.54367908249E+03  0.55278450055E+03  0.89927135747E+02 0.  0.
         23    2    1    2    0    0  0.93541807558E+02  0.55377208676E+02  0.83739904113E+02  0.16564992723E+03  0.92794514099E+02 0.  0.
        -11    1    4    4    0    0  0.41061918307E+02  0.74002717137E+02  0.34775499017E+02  0.91497642651E+02  0.00000000000E+00 0.  1.
         11    1    4    4    0    0  0.52479889251E+02 -0.18625508461E+02  0.48964405095E+02  0.74152284574E+02  0.00000000000E+00 0. -1.
        -11    1    3    3    0    0  0.32732084481E+01  0.66860047581E+02  0.36661360400E+03  0.37267481065E+03  0.00000000000E+00 0.  1.
         11    1    3    3    0    0  0.16947926521E+02 -0.28285765126E+02  0.17706547849E+03  0.18010968990E+03  0.00000000000E+00 0. -1.
          1    1    1    2  501    0 -0.11376294253E+03 -0.93951491131E+02  0.12120421077E+03  0.19094331747E+03  0.00000000000E+00 0. -1.
<scales pt_clust_5="13000.00000" pt_clust_6="13000.00000" pt_clust_7="13000.00000" pt_clust_8="13000.00000" pt_clust_9="125.57224"></scales>
<clustering>
<clus scale="   89.927">  7  8 -1 -1</clus>
<clus scale="   92.795">  5  6 -1 -1</clus>
<clus scale="   99.919">  1  7  2 -1</clus>
<clus scale="  125.572">  2  9  1 -1</clus>
<clus scale="  125.572">  2  5  1 -1</clus>
</clustering>
</event>
<event>
 9    1  0.1504846E-005  0.1623778E+03  0.7546771E-02  0.1186333E+00
         21   -1    0    0  501  502  0.00000000000E+00  0.00000000000E+00  0.16285287176E+03  0.16285287176E+03  0.00000000000E+00 0. -1.
          1   -1    0    0  502    0 -0.00000000000E+00 -0.00000000000E+00 -0.64195704309E+03  0.64195704309E+03  0.00000000000E+00 0. -1.
         23    2    1    2    0    0 -0.31197080995E+02 -0.14485208433E+03 -0.52830217840E+03  0.55628485996E+03  0.91620246254E+02 0.  0.
         23    2    1    2    0    0  0.75836380564E+02  0.36884819304E+02  0.14962294560E+02  0.12678072691E+03  0.93476392452E+02 0.  0.
        -11    1    3    3    0    0 -0.28416213932E+02 -0.16823814647E+01 -0.12840675791E+03  0.13152416926E+03  0.00000000000E+00 0.  1.
         11    1    3    3    0    0 -0.27808670625E+01 -0.14316970286E+03 -0.39989542049E+03  0.42476069070E+03  0.00000000000E+00 0. -1.
        -11    1    4    4    0    0  0.90028623550E+02  0.52927652119E+02  0.11194171065E+02  0.10503237064E+03  0.00000000000E+00 0. -1.
         11    1    4    4    0    0 -0.14192242986E+02 -0.16042832815E+02  0.37681234951E+01  0.21748356269E+02  0.00000000000E+00 0.  1.
          1    1    1    2  501    0 -0.44639299569E+02  0.10796726502E+03  0.34235712508E+02  0.12174432797E+03  0.00000000000E+00 0. -1.
<scales pt_clust_5="13000.00000" pt_clust_6="13000.00000" pt_clust_7="13000.00000" pt_clust_8="13000.00000" pt_clust_9="116.83149"></scales>
<clustering>
<clus scale="   91.620">  5  6 -1 -1</clus>
<clus scale="   93.476">  7  8 -1 -1</clus>
<clus scale="  116.831">  1  9  2 -1</clus>
<clus scale="  161.316">  2  5  1 -1</clus>
<clus scale="  116.831">  1  5  2 -1</clus>
</clustering>
</event>
<event>
 9    1  0.1504846E-005  0.1543229E+03  0.7546771E-02  0.1204569E+00
          4   -1    0    0  502    0 -0.00000000000E+00  0.00000000000E+00  0.18887550756E+03  0.18887550756E+03  0.00000000000E+00 0. -1.
         21   -1    0    0  501  502  0.00000000000E+00 -0.00000000000E+00 -0.16691772246E+03  0.16691772246E+03  0.00000000000E+00 0. -1.
         23    2    1    2    0    0 -0.37398165127E+02  0.79608674450E+02  0.75506490786E+02  0.14645001227E+03  0.89499788503E+02 0.  0.
         23    2    1    2    0    0  0.67596966405E+02 -0.66632408809E+02 -0.14934538864E+02  0.15863419539E+03  0.12622416458E+03 0.  0.
        -11    1    3    3    0    0 -0.43803785533E+02  0.15481280122E+02 -0.93282452636E+00  0.46468395957E+02  0.00000000000E+00 0.  1.
         11    1    3    3    0    0  0.64056204060E+01  0.64127394328E+02  0.76439315312E+02  0.99981616318E+02  0.00000000000E+00 0. -1.
        -13    1    4    4    0    0  0.74616238122E+02 -0.92188498269E+02  0.13966858594E+02  0.11942100043E+03  0.00000000000E+00 0.  1.
         13    1    4    4    0    0 -0.70192717170E+01  0.25556089460E+02 -0.28901397459E+02  0.39213194960E+02  0.00000000000E+00 0. -1.
          4    1    1    2  501    0 -0.30198801277E+02 -0.12976265641E+02 -0.38614166825E+02  0.50709022354E+02  0.00000000000E+00 0. -1.
<scales pt_clust_5="13000.00000" pt_clust_6="13000.00000" pt_clust_7="13000.00000" pt_clust_8="13000.00000" pt_clust_9="32.86869"></scales>
<clustering>
<clus scale="   32.869">  2  9  1 -1</clus>
<clus scale="   89.500">  5  6 -1 -1</clus>
<clus scale="  126.068">  1  5  2 -1</clus>
<clus scale="  126.224">  7  8 -1 -1</clus>
<clus scale="   32.869">  2  5  1 -1</clus>
</clustering>
</event>
<event>
 9    1  0.1504846E-005  0.1592218E+03  0.7546771E-02  0.1189995E+00
         21   -1    0    0  501  502  0.00000000000E+00  0.00000000000E+00  0.36871482323E+02  0.36871482323E+02  0.00000000000E+00 0.  1.
          1   -1    0    0  502    0 -0.00000000000E+00 -0.00000000000E+00 -0.11395013644E+04  0.11395013644E+04  0.00000000000E+00 0. -1.
         23    2    1    2    0    0 -0.10732559476E+03 -0.80686410790E+02 -0.66507135201E+03  0.68504329171E+03  0.94526864318E+02 0.  0.
         23    2    1    2    0    0  0.83005406613E+02  0.82212619044E+02 -0.44129437691E+03  0.46667681854E+03  0.96941805336E+02 0.  0.
        -13    1    3    3    0    0  0.69553315818E+01 -0.32751118661E+02 -0.75544552121E+02  0.82631663218E+02  0.00000000000E+00 0.  1.
         13    1    3    3    0    0 -0.11428092634E+03 -0.47935292129E+02 -0.58952679989E+03  0.60241162850E+03  0.00000000000E+00 0. -1.
        -13    1    4    4    0    0  0.59840224356E+02  0.98772397704E+02 -0.27987986300E+03  0.30276984115E+03  0.00000000000E+00 0.  1.
         13    1    4    4    0    0  0.23165182256E+02 -0.16559778660E+02 -0.16141451391E+03  0.16390697739E+03  0.00000000000E+00 0. -1.
          1    1    1    2  501    0  0.24320188147E+02 -0.15262082544E+01  0.37358468486E+01  0.24652736457E+02  0.00000000000E+00 0. -1.
<scales pt_clust_5="13000.00000" pt_clust_6="13000.00000" pt_clust_7="13000.00000" pt_clust_8="13000.00000" pt_clust_9="24.36803"></scales>
<clustering>
<clus scale="   24.368">  1  9  2 -1</clus>
<clus scale="   94.527">  5  6 -1 -1</clus>
<clus scale="   96.942">  7  8 -1 -1</clus>
<clus scale="  157.763">  2  5  1 -1</clus>
<clus scale="   24.368">  1  5  2 -1</clus>
</clustering>
</event>
<event>
 9    1  0.1504846E-005  0.1360923E+03  0.7546771E-02  0.1224253E+00
          1   -1    0    0  502    0 -0.00000000000E+00  0.00000000000E+00  0.17365370590E+03  0.17365370590E+03  0.00000000000E+00 0. -1.
         21   -1    0    0  501  502  0.00000000000E+00 -0.00000000000E+00 -0.25731614882E+03  0.25731614882E+03  0.00000000000E+00 0. -1.
         23    2    1    2    0    0  0.60713156066E+02  0.13828404642E+02  0.10881827595E+02  0.12678492247E+03  0.10990309504E+03 0.  0.
         23    2    1    2    0    0 -0.77077164432E+02 -0.12427169265E+03 -0.85562887773E+02  0.19217526359E+03  0.90697195657E+02 0.  0.
        -11    1    3    3    0    0  0.77561111333E+02 -0.24366032814E+02 -0.65165093477E+01  0.81559146883E+02  0.00000000000E+00 0. -1.
         11    1    3    3    0    0 -0.16847955266E+02  0.38194437457E+02  0.17398336943E+02  0.45225775589E+02  0.00000000000E+00 0.  1.
        -13    1    4    4    0    0  0.17035009232E+02 -0.35159833980E+02 -0.45535113371E+01  0.39333699680E+02  0.00000000000E+00 0.  1.
         13    1    4    4    0    0 -0.94112173664E+02 -0.89111858672E+02 -0.81009376436E+02  0.15284156391E+03  0.00000000000E+00 0. -1.
          1    1    1    2  501    0  0.16364008366E+02  0.11044328801E+03 -0.89813827494E+01  0.11200966866E+03  0.00000000000E+00 0. -1.
<scales pt_clust_5="13000.00000" pt_clust_6="13000.00000" pt_clust_7="13000.00000" pt_clust_8="13000.00000" pt_clust_9="111.64906"></scales>
<clustering>
<clus scale="   90.697">  7  8 -1 -1</clus>
<clus scale="  109.903">  5  6 -1 -1</clus>
<clus scale="  111.649">  2  9  1 -1</clus>
<clus scale="  121.113">  2  7  1 -1</clus>
<clus scale="  111.649">  2  5  1 -1</clus>
</clustering>
</event>
<event>
 9    1  0.1504846E-005  0.1257841E+03  0.7546771E-02  0.1233874E+00
          1   -1    0    0  502    0 -0.00000000000E+00  0.00000000000E+00  0.44888150214E+03  0.44888150214E+03  0.00000000000E+00 0. -1.
         21   -1    0    0  501  502  0.00000000000E+00 -0.00000000000E+00 -0.20900731344E+03  0.20900731344E+03  0.00000000000E+00 0. -1.
         23    2    1    2    0    0 -0.58814895738E+02 -0.58878097984E+02  0.37010194617E+03  0.39008013280E+03  0.90891347559E+02 0.  0.
         23    2    1    2    0    0  0.67451582715E+02  0.10345207426E+03 -0.27826811503E+02  0.15579357015E+03  0.90803399615E+02 0.  0.
        -11    1    3    3    0    0  0.21188323976E+02  0.37101712157E+01  0.72244833294E+02  0.75379217169E+02  0.00000000000E+00 0.  1.
         11    1    3    3    0    0 -0.80003219714E+02 -0.62588269200E+02  0.29785711288E+03  0.31470091563E+03  0.00000000000E+00 0. -1.
        -11    1    4    4    0    0  0.14393199197E+01  0.38839685278E+02  0.27964655227E+02  0.47881256628E+02  0.00000000000E+00 0. -1.
         11    1    4    4    0    0  0.66012262795E+02  0.64612388987E+02 -0.55791466731E+02  0.10791231352E+03  0.00000000000E+00 0.  1.
          1    1    1    2  501    0 -0.86366869774E+01 -0.44573976280E+02 -0.10240094597E+03  0.11201511263E+03  0.00000000000E+00 0. -1.
<scales pt_clust_5="13000.00000" pt_clust_6="13000.00000" pt_clust_7="13000.00000" pt_clust_8="13000.00000" pt_clust_9="45.40299"></scales>
<clustering>
<clus scale="   45.403">  2  9  1 -1</clus>
<clus scale="   90.803">  7  8 -1 -1</clus>
<clus scale="   90.891">  5  6 -1 -1</clus>
<clus scale="  125.721">  2  7  1 -1</clus>
<clus scale="   45.403">  2  5  1 -1</clus>
</clustering>
</event>
<event>
 9    1  0.1504846E-005  0.3919975E+03  0.7546771E-02  0.1046635E+00
         21   -1    0    0  501  502  0.00000000000E+00  0.00000000000E+00  0.25703621794E+03  0.25703621794E+03  0.00000000000E+00 0. -1.
         -3   -1    0    0    0  501 -0.00000000000E+00 -0.00000000000E+00 -0.79940906216E+03  0.79940906216E+03  0.00000000000E+00 0.  1.
         23    2    1    2    0    0  0.12300380744E+03 -0.36768750409E+03 -0.50811021733E+03  0.64607395004E+03  0.94400840376E+02 0.  0.
         23    2    1    2    0    0 -0.10531251106E+03  0.34779871857E+03 -0.51864001837E+02  0.37845966829E+03  0.92125849862E+02 0.  0.
        -11    1    3    3    0    0  0.74287575576E+01 -0.21843577971E+02 -0.32524906267E+01  0.23300365506E+02  0.00000000000E+00 0. -1.
         11    1    3    3    0    0  0.11557504988E+03 -0.34584392612E+03 -0.50485772670E+03  0.62277358454E+03  0.00000000000E+00 0.  1.
        -13    1    4    4    0    0 -0.22370203270E+02  0.21256970019E+03 -0.81095907025E+01  0.21389733260E+03  0.00000000000E+00 0. -1.
         13    1    4    4    0    0 -0.82942307793E+02  0.13522901838E+03 -0.43754411135E+02  0.16456233569E+03  0.00000000000E+00 0.  1.
         -3    1    1    2    0  502 -0.17691296376E+02  0.19888785519E+02  0.17601374945E+02  0.31911661769E+02  0.00000000000E+00 0.  1.
<scales pt_clust_5="13000.00000" pt_clust_6="13000.00000" pt_clust_7="13000.00000" pt_clust_8="13000.00000" pt_clust_9="26.61852"></scales>
<clustering>
<clus scale="   26.619">  1  9  2 -1</clus>
<clus scale="   92.126">  7  8 -1 -1</clus>
<clus scale="   94.401">  5  6 -1 -1</clus>
<clus scale="  391.456">  1  7  2 -1</clus>
<clus scale="   26.619">  1  5  2 -1</clus>
</clustering>
</event>
<event>
 9    1  0.1504846E-005  0.9964171E+02  0.7546771E-02  0.1282558E+00
         -2   -1    0    0    0  501 -0.00000000000E+00  0.00000000000E+00  0.72525746230E+02  0.72525746230E+02  0.00000000000E+00 0.  1.
         21   -1    0    0  501  502  0.00000000000E+00 -0.00000000000E+00 -0.44606025684E+03  0.44606025684E+03  0.00000000000E+00 0. -1.
         23    2    1    2    0    0  0.28144984474E+02  0.11642408082E+02 -0.30568619141E+02  0.10032107154E+03  0.90565948912E+02 0.  0.
         23    2    1    2    0    0 -0.40165397700E+02  0.27317862367E+02 -0.40293703034E+02  0.11285889580E+03  0.93562936464E+02 0.  0.
        -13    1    3    3    0    0  0.64383955816E+01  0.22477269053E+02 -0.58693034756E+02  0.63178737646E+02  0.00000000000E+00 0. -1.
         13    1    3    3    0    0  0.21706588893E+02 -0.10834860971E+02  0.28124415615E+02  0.37142333896E+02  0.00000000000E+00 0.  1.
        -13    1    4    4    0    0 -0.70657530228E+01  0.52881876067E+02 -0.46258341198E+02  0.70613396835E+02  0.00000000000E+00 0. -1.
         13    1    4    4    0    0 -0.33099644677E+02 -0.25564013699E+02  0.59646381645E+01  0.42245498963E+02  0.00000000000E+00 0.  1.
         -2    1    1    2    0  502  0.12020413226E+02 -0.38960270449E+02 -0.30267218843E+03  0.30540603573E+03  0.00000000000E+00 0.  1.
<scales pt_clust_5="13000.00000" pt_clust_6="13000.00000" pt_clust_7="13000.00000" pt_clust_8="13000.00000" pt_clust_9="40.77245"></scales>
<clustering>
<clus scale="   40.772">  2  9  1 -1</clus>
<clus scale="   90.566">  5  6 -1 -1</clus>
<clus scale="   93.563">  7  8 -1 -1</clus>
<clus scale="   96.833">  1  5  2 -1</clus>
<clus scale="   40.772">  2  5  1 -1</clus>
</clustering>
</event>
<event>
 9    1  0.5116787E-005  0.2487026E+03  0.7546771E-02  0.1115406E+00
         21   -1    0    0  501  502  0.00000000000E+00  0.00000000000E+00  0.28249742429E+03  0.28249742429E+03  0.00000000000E+00 0.  1.
          2   -1    0    0  502    0 -0.00000000000E+00 -0.00000000000E+00 -0.10516996377E+04  0.10516996377E+04  0.00000000000E+00 0. -1.
         23    2    1    2    0    0 -0.22384516075E+03 -0.18990993694E+02 -0.96962779578E+03  0.10012050894E+04  0.10847236881E+03 0.  0.
         23    2    1    2    0    0  0.20955076369E+03  0.41429148581E+02  0.14926688324E+03  0.27532904617E+03  0.88868353862E+02 0.  0.
        -11    1    3    3    0    0 -0.60393544335E+02  0.34409020414E+02 -0.17740860940E+03  0.19053917070E+03  0.00000000000E+00 0.  1.
         11    1    3    3    0    0 -0.16345161642E+03 -0.53400014108E+02 -0.79221918638E+03  0.81066591867E+03  0.00000000000E+00 0. -1.
        -13    1    4    4    0    0  0.15239417271E+03  0.30514012764E+02  0.15157390763E+03  0.21709384682E+03  0.00000000000E+00 0.  1.
         13    1    4    4    0    0  0.57156590974E+02  0.10915135817E+02 -0.23070243934E+01  0.58235199349E+02  0.00000000000E+00 0. -1.
          2    1    1    2  501    0  0.14294397066E+02 -0.22438154887E+02  0.51158699166E+02  0.57662926413E+02  0.00000000000E+00 0. -1.
<scales pt_clust_5="13000.00000" pt_clust_6="13000.00000" pt_clust_7="13000.00000" pt_clust_8="13000.00000" pt_clust_9="26.60452"></scales>
<clustering>
<clus scale="   26.605">  1  9  2 -1</clus>
<clus scale="   88.868">  7  8 -1 -1</clus>
<clus scale="  108.472">  5  6 -1 -1</clus>
<clus scale="  240.799">  1  7  2 -1</clus>
<clus scale="   26.605">  1  5  2 -1</clus>
</clustering>
</event>
<event>
 9    1  0.1504846E-005  0.9366756E+02  0.7546771E-02  0.1294297E+00
          2   -1    0    0  502    0 -0.00000000000E+00  0.00000000000E+00  0.31095317477E+03  0.31095317477E+03  0.00000000000E+00 0. -1.
         21   -1    0    0  501  502  0.00000000000E+00 -0.00000000000E+00 -0.37648776359E+02  0.37648776359E+02  0.00000000000E+00 0.  1.
         23    2    1    2    0    0  0.13422891205E+02  0.10559814551E+01  0.12465585696E+03  0.15489884529E+03  0.90957575238E+02 0.  0.
         23    2    1    2    0    0 -0.26861523879E+02  0.17202058722E+02  0.13858870450E+03  0.16890082371E+03  0.91121934487E+02 0.  0.
        -11    1    4    4    0    0 -0.45264582321E+01 -0.26578696786E+02  0.61744069392E+01  0.27659342870E+02  0.00000000000E+00 0.  1.
         11    1    4    4    0    0 -0.22335065647E+02  0.43780755508E+02  0.13241429756E+03  0.14124148084E+03  0.00000000000E+00 0. -1.
        -13    1    3    3    0    0  0.21897744201E+02  0.21626374485E+02  0.12866324864E+03  0.13229301881E+03  0.00000000000E+00 0. -1.
         13    1    3    3    0    0 -0.84748529955E+01 -0.20570393030E+02 -0.40073916856E+01  0.22605826480E+02  0.00000000000E+00 0.  1.
          2    1    1    2  501    0  0.13438632673E+02 -0.18258040177E+02  0.10059836946E+02  0.24802282125E+02  0.00000000000E+00 0. -1.
<scales pt_clust_5="13000.00000" pt_clust_6="13000.00000" pt_clust_7="13000.00000" pt_clust_8="13000.00000" pt_clust_9="22.67053"></scales>
<clustering>
<clus scale="   22.671">  2  9  1 -1</clus>
<clus scale="   90.958">  7  8 -1 -1</clus>
<clus scale="   91.122">  5  6 -1 -1</clus>
<clus scale="   93.508">  1  7  2 -1</clus>
<clus scale="   22.671">  2  5  1 -1</clus>
</clustering>
</event>
<event>
 9    1  0.1504846E-005  0.1373444E+03  0.7546771E-02  0.1217469E+00
         21   -1    0    0  501  502  0.00000000000E+00  0.00000000000E+00  0.10032367077E+04  0.10032367077E+04  0.00000000000E+00 0.  1.
          3   -1    0    0  502    0 -0.00000000000E+00 -0.00000000000E+00 -0.27179737856E+02  0.27179737856E+02  0.00000000000E+00 0. -1.
         23    2    1    2    0    0 -0.51873180650E+02 -0.85139644032E+02  0.37684222946E+03  0.40092064192E+03  0.93742782969E+02 0.  0.
         23    2    1    2    0    0  0.90306992309E+02  0.50994181014E+02  0.42566697095E+03  0.44849332078E+03  0.95906878105E+02 0.  0.
        -13    1    3    3    0    0 -0.72933871103E+02 -0.73048153115E+02  0.34914492657E+03  0.36408455334E+03  0.00000000000E+00 0.  1.
         13    1    3    3    0    0  0.21060690453E+02 -0.12091490918E+02  0.27697302884E+02  0.36836088582E+02  0.00000000000E+00 0. -1.
        -13    1    4    4    0    0  0.77637874622E+02  0.13927225878E+02  0.38101614252E+03  0.38909498591E+03  0.00000000000E+00 0.  1.
         13    1    4    4    0    0  0.12669117687E+02  0.37066955137E+02  0.44650828429E+02  0.59398334871E+02  0.00000000000E+00 0. -1.
          3    1    1    2  501    0 -0.38433811658E+02  0.34145463018E+02  0.17354776939E+03  0.18100248281E+03  0.00000000000E+00 0. -1.
<scales pt_clust_5="13000.00000" pt_clust_6="13000.00000" pt_clust_7="13000.00000" pt_clust_8="13000.00000" pt_clust_9="51.41080"></scales>
<clustering>
<clus scale="   51.411">  1  9  2 -1</clus>
<clus scale="   93.743">  5  6 -1 -1</clus>
<clus scale="   95.907">  7  8 -1 -1</clus>
<clus scale="  135.842">  2  5  1 -1</clus>
<clus scale="   51.411">  1  5  2 -1</clus>
</clustering>
</event>
<event>
 9    1  0.1504846E-005  0.1058350E+03  0.7546771E-02  0.1269063E+00
         21   -1    0    0  501  502  0.00000000000E+00  0.00000000000E+00  0.54386306744E+02  0.54386306744E+02  0.00000000000E+00 0.  1.
          1   -1    0    0  502    0 -0.00000000000E+00 -0.00000000000E+00 -0.35969627103E+03  0.35969627103E+03  0.00000000000E+00 0. -1.
         23    2    1    2    0    0 -0.22145575064E+01 -0.38294749421E+02 -0.17898446081E+03  0.20549013463E+03  0.93377546140E+02 0.  0.
         23    2    1    2    0    0  0.19356693867E+02  0.66606213540E+02 -0.13176339340E+03  0.17505198270E+03  0.92035512316E+02 0.  0.
        -11    1    3    3    0    0  0.11321254047E+02 -0.55411465162E+02 -0.52600579140E+02  0.77236145622E+02  0.00000000000E+00 0. -1.
         11    1    3    3    0    0 -0.13535811553E+02  0.17116715741E+02 -0.12638388167E+03  0.12825398901E+03  0.00000000000E+00 0.  1.
        -13    1    4    4    0    0 -0.10596924777E+02  0.25413284963E+02  0.59954415982E+01  0.28179339724E+02  0.00000000000E+00 0.  1.
         13    1    4    4    0    0  0.29953618644E+02  0.41192928577E+02 -0.13775883500E+03  0.14687264298E+03  0.00000000000E+00 0. -1.
          1    1    1    2  501    0 -0.17142136360E+02 -0.28311464119E+02  0.54378899246E+01  0.33540460438E+02  0.00000000000E+00 0. -1.
<scales pt_clust_5="13000.00000" pt_clust_6="13000.00000" pt_clust_7="13000.00000" pt_clust_8="13000.00000" pt_clust_9="33.09670"></scales>
<clustering>
<clus scale="   33.097">  1  9  2 -1</clus>
<clus scale="   92.036">  7  8 -1 -1</clus>
<clus scale="   93.378">  5  6 -1 -1</clus>
<clus scale="  104.653">  1  7  2 -1</clus>
<clus scale="   33.097">  1  5  2 -1</clus>
</clustering>
</event>
<event>
 9    1  0.1504846E-005  0.1094696E+03  0.7546771E-02  0.1262842E+00
         21   -1    0    0  501  502  0.00000000000E+00  0.00000000000E+00  0.80837254472E+02  0.80837254472E+02  0.00000000000E+00 0. -1.
          2   -1    0    0  502    0 -0.00000000000E+00 -0.00000000000E+00 -0.43911200643E+03  0.43911200643E+03  0.00000000000E+00 0. -1.
         23    2    1    2    0    0  0.50856428726E+02  0.56106711358E+01 -0.30429364733E+03  0.32261900477E+03  0.94183557289E+02 0.  0.
         23    2    1    2    0    0 -0.79037316731E+02 -0.48878837817E+02 -0.11700440349E+02  0.13059232637E+03  0.91002292165E+02 0.  0.
        -11    1    3    3    0    0  0.31814896521E+02  0.47493923896E+02 -0.12391740090E+03  0.13646751516E+03  0.00000000000E+00 0.  1.
         11    1    3    3    0    0  0.19041532205E+02 -0.41883252760E+02 -0.18037624643E+03  0.18615148962E+03  0.00000000000E+00 0. -1.
        -11    1    4    4    0    0 -0.16199503545E+02 -0.42049404241E+02 -0.41001047703E+02  0.60923412781E+02  0.00000000000E+00 0. -1.
         11    1    4    4    0    0 -0.62837813187E+02 -0.68294335757E+01  0.29300607354E+02  0.69668913587E+02  0.00000000000E+00 0.  1.
          2    1    1    2  501    0  0.28180888005E+02  0.43268166681E+02 -0.42280664282E+02  0.66737929761E+02  0.00000000000E+00 0. -1.
<scales pt_clust_5="13000.00000" pt_clust_6="13000.00000" pt_clust_7="13000.00000" pt_clust_8="13000.00000" pt_clust_9="51.63620"></scales>
<clustering>
<clus scale="   51.636">  1  9  2 -1</clus>
<clus scale="   91.002">  7  8 -1 -1</clus>
<clus scale="   94.184">  5  6 -1 -1</clus>
<clus scale="  106.745">  1  7  2 -1</clus>
<clus scale="   51.636">  1  5  2 -1</clus>
</clustering>
</event>
<event>
 9    1  0.1561263E-005  0.1033106E+03  0.7546771E-02  0.1273521E+00
         -1   -1    0    0    0  501 -0.00000000000E+00  0.00000000000E+00  0.61564127164E+03  0.61564127164E+03  0.00000000000E+00 0.  1.
         21   -1    0    0  501  502  0.00000000000E+00 -0.00000000000E+00 -0.17603416266E+03  0.17603416266E+03  0.00000000000E+00 0.  1.
         23    2    1    2    0    0  0.46732553745E+02 -0.42163303942E+02  0.45535331088E+03  0.46867240277E+03  0.91353749845E+02 0.  0.
         23    2    1    2    0    0 -0.22245283487E+02 -0.27048538393E+01  0.13462345482E+03  0.16418297093E+03  0.91271049544E+02 0.  0.
        -11    1    3    3    0    0  0.42715542485E+02 -0.69519274363E+02  0.37234909007E+03  0.38118419688E+03  0.00000000000E+00 0.  1.
         11    1    3    3    0    0  0.40170112600E+01  0.27355970421E+02  0.83004220811E+02  0.87488205888E+02  0.00000000000E+00 0. -1.
        -11    1    4    4    0    0  0.11647423427E+02  0.38719816139E+02  0.59813192918E+02  0.72197677812E+02  0.00000000000E+00 0. -1.
         11    1    4    4    0    0 -0.33892706913E+02 -0.41424669979E+02  0.74810261904E+02  0.91985293123E+02  0.00000000000E+00 0.  1.
         -1    1    1    2    0  502 -0.24487270258E+02  0.44868157781E+02 -0.15036965672E+03  0.15882006060E+03  0.00000000000E+00 0.  1.
<scales pt_clust_5="13000.00000" pt_clust_6="13000.00000" pt_clust_7="13000.00000" pt_clust_8="13000.00000" pt_clust_9="51.11534"></scales>
<clustering>
<clus scale="   51.115">  2  9  1 -1</clus>
<clus scale="   91.271">  7  8 -1 -1</clus>
<clus scale="   91.354">  5  6 -1 -1</clus>
<clus scale="  103.238">  2  7  1 -1</clus>
<clus scale="   51.115">  2  5  1 -1</clus>
</clustering>
</event>
<event>
 9    1  0.1504846E-005  0.1779039E+03  0.7546771E-02  0.1170675E+00
          1   -1    0    0  502    0 -0.00000000000E+00  0.00000000000E+00  0.23998548942E+03  0.23998548942E+03  0.00000000000E+00 0. -1.
         21   -1    0    0  501  502  0.00000000000E+00 -0.00000000000E+00 -0.27617816213E+03  0.27617816213E+03  0.00000000000E+00 0. -1.
         23    2    1    2    0    0 -0.39384140022E+02  0.13807918705E+03  0.80473936128E+02  0.18605053632E+03  0.86728168927E+02 0.  0.
         23    2    1    2    0    0  0.33361932626E+02 -0.16100656699E+03  0.21203913657E+02  0.19021953888E+03  0.93261641934E+02 0.  0.
        -11    1    4    4    0    0 -0.14621017739E+02 -0.31909620758E+02  0.37699190087E+02  0.51509484465E+02  0.00000000000E+00 0.  1.
         11    1    4    4    0    0  0.47982950365E+02 -0.12909694623E+03 -0.16495276430E+02  0.13871005442E+03  0.00000000000E+00 0. -1.
        -13    1    3    3    0    0 -0.65549303168E+02  0.11615981316E+03  0.67973090998E+02  0.14970021523E+03  0.00000000000E+00 0. -1.
         13    1    3    3    0    0  0.26165163146E+02  0.21919373888E+02  0.12500845130E+02  0.36350321086E+02  0.00000000000E+00 0.  1.
          1    1    1    2  501    0  0.60222073960E+01  0.22927379940E+02 -0.13787052249E+03  0.13989357635E+03  0.00000000000E+00 0. -1.
<scales pt_clust_5="13000.00000" pt_clust_6="13000.00000" pt_clust_7="13000.00000" pt_clust_8="13000.00000" pt_clust_9="23.70510"></scales>
<clustering>
<clus scale="   23.705">  2  9  1 -1</clus>
<clus scale="   86.728">  7  8 -1 -1</clus>
<clus scale="   93.262">  5  6 -1 -1</clus>
<clus scale="  174.568">  1  7  2 -1</clus>
<clus scale="   23.705">  2  5  1 -1</clus>
</clustering>
</event>
<event>
 9    1  0.1504846E-005  0.1306483E+03  0.7546771E-02  0.1226637E+00
         21   -1    0    0  501  502  0.00000000000E+00  0.00000000000E+00  0.12343142741E+03  0.12343142741E+03  0.00000000000E+00 0. -1.
          4   -1    0    0  502    0 -0.00000000000E+00 -0.00000000000E+00 -0.23768544646E+03  0.23768544646E+03  0.00000000000E+00 0. -1.
         23    2    1    2    0    0 -0.47116764134E+02  0.61953188818E+02 -0.77271736917E+02  0.14229058690E+03  0.90650442511E+02 0.  0.
         23    2    1    2    0    0  0.93565160773E+02 -0.74077773764E+02 -0.64538205116E+02  0.16347479194E+03  0.91196884843E+02 0.  0.
        -11    1    3    3    0    0 -0.46193456769E+01  0.73496010799E+02 -0.36135937135E+02  0.82029311289E+02  0.00000000000E+00 0. -1.
         11    1    3    3    0    0 -0.42497418457E+02 -0.11542821981E+02 -0.41135799782E+02  0.60261275613E+02  0.00000000000E+00 0.  1.
        -11    1    4    4    0    0 -0.15591225968E+02 -0.18886712826E+02 -0.24827905803E+02  0.34874333759E+02  0.00000000000E+00 0.  1.
         11    1    4    4    0    0  0.10915638674E+03 -0.55191060938E+02 -0.39710299313E+02  0.12860045818E+03  0.00000000000E+00 0. -1.
          4    1    1    2  501    0 -0.46448396639E+02  0.12124584945E+02  0.27555922984E+02  0.55351495029E+02  0.00000000000E+00 0. -1.
<scales pt_clust_5="13000.00000" pt_clust_6="13000.00000" pt_clust_7="13000.00000" pt_clust_8="13000.00000" pt_clust_9="48.00478"></scales>
<clustering>
<clus scale="   48.005">  1  9  2 -1</clus>
<clus scale="   90.650">  5  6 -1 -1</clus>
<clus scale="   91.197">  7  8 -1 -1</clus>
<clus scale="  130.267">  2  5  1 -1</clus>
<clus scale="   48.005">  1  5  2 -1</clus>
</clustering>
</event>
<event>
 9    1  0.1504846E-005  0.1906279E+03  0.7546771E-02  0.1158310E+00
         21   -1    0    0  501  502  0.00000000000E+00  0.00000000000E+00  0.17492976429E+03  0.17492976429E+03  0.00000000000E+00 0. -1.
          4   -1    0    0  502    0 -0.00000000000E+00 -0.00000000000E+00 -0.44537236701E+03  0.44537236701E+03  0.00000000000E+00 0. -1.
         23    2    1    2    0    0 -0.13887378206E+03  0.65794429751E+02 -0.14582028439E+03  0.22913531139E+03  0.87318962749E+02 0.  0.
         23    2    1    2    0    0  0.20099014354E+03  0.25760257529E+02 -0.16132310221E+03  0.27460074138E+03  0.91212911323E+02 0.  0.
        -11    1    4    4    0    0  0.46615811571E+02 -0.19232237498E+02 -0.79597177095E+02  0.94226447716E+02  0.00000000000E+00 0.  1.
         11    1    4    4    0    0  0.15437433197E+03  0.44992495027E+02 -0.81725925117E+02  0.18037429366E+03  0.00000000000E+00 0. -1.
        -11    1    3    3    0    0 -0.39432256412E+02 -0.10699532769E+02 -0.60273622450E+01  0.41300265651E+02  0.00000000000E+00 0.  1.
         11    1    3    3    0    0 -0.99441525649E+02  0.76493962520E+02 -0.13979292215E+03  0.18783504574E+03  0.00000000000E+00 0. -1.
          4    1    1    2  501    0 -0.62116361475E+02 -0.91554687280E+02  0.36700783888E+02  0.11656607853E+03  0.00000000000E+00 0. -1.
<scales pt_clust_5="13000.00000" pt_clust_6="13000.00000" pt_clust_7="13000.00000" pt_clust_8="13000.00000" pt_clust_9="110.63771"></scales>
<clustering>
<clus scale="   87.319">  7  8 -1 -1</clus>
<clus scale="   91.213">  5  6 -1 -1</clus>
<clus scale="  110.638">  1  9  2 -1</clus>
<clus scale="  188.796">  2  7  1 -1</clus>
<clus scale="  110.638">  1  5  2 -1</clus>
</clustering>
</event>
<event>
 9    1  0.1504846E-005  0.1476474E+03  0.7546771E-02  0.1226616E+00
         21   -1    0    0  501  502  0.00000000000E+00  0.00000000000E+00  0.18726234562E+03  0.18726234562E+03  0.00000000000E+00 0.  1.
         -1   -1    0    0    0  501 -0.00000000000E+00 -0.00000000000E+00 -0.19588958712E+03  0.19588958712E+03  0.00000000000E+00 0.  1.
         23    2    1    2    0    0 -0.12066695258E+02  0.17237326193E+02  0.10956906429E+02  0.90957148595E+02  0.87808988909E+02 0.  0.
         23    2    1    2    0    0 -0.83965931330E+02  0.53100886399E+02 -0.80672642708E+02  0.15839817090E+03  0.93337685329E+02 0.  0.
        -13    1    4    4    0    0 -0.53333587486E+02  0.60138339427E+02 -0.94499014817E+02  0.12406109473E+03  0.00000000000E+00 0.  1.
         13    1    4    4    0    0 -0.30632343844E+02 -0.70374530279E+01  0.13826372110E+02  0.34337076174E+02  0.00000000000E+00 0. -1.
        -13    1    3    3    0    0  0.29271286332E+02 -0.16381543120E+02  0.16508812942E+02  0.37385880533E+02  0.00000000000E+00 0. -1.
         13    1    3    3    0    0 -0.41337981590E+02  0.33618869313E+02 -0.55519065125E+01  0.53571268062E+02  0.00000000000E+00 0.  1.
         -1    1    1    2    0  502  0.96032626588E+02 -0.70338212593E+02  0.61088494787E+02  0.13379661324E+03  0.00000000000E+00 0.  1.
<scales pt_clust_5="13000.00000" pt_clust_6="13000.00000" pt_clust_7="13000.00000" pt_clust_8="13000.00000" pt_clust_9="114.40211"></scales>
<clustering>
<clus scale="   87.809">  7  8 -1 -1</clus>
<clus scale="   90.295">  2  7  1 -1</clus>
<clus scale="   93.338">  5  6 -1 -1</clus>
<clus scale="  114.402">  1  9  2 -1</clus>
<clus scale="  114.402">  1  5  2 -1</clus>
</clustering>
</event>
<event>
 9    1  0.1504846E-005  0.9821387E+02  0.7546771E-02  0.1304048E+00
         21   -1    0    0  501  502  0.00000000000E+00  0.00000000000E+00  0.25341523962E+03  0.25341523962E+03  0.00000000000E+00 0. -1.
          3   -1    0    0  502    0 -0.00000000000E+00 -0.00000000000E+00 -0.14623498368E+03  0.14623498368E+03  0.00000000000E+00 0. -1.
         23    2    1    2    0    0  0.19743486588E+02  0.19839800100E+02 -0.31486914291E+02  0.70593241050E+02  0.56644125731E+02 0.  0.
         23    2    1    2    0    0 -0.54225327413E+02 -0.11503635422E+02 -0.63385739267E+02  0.12391345389E+03  0.90906943362E+02 0.  0.
        -11    1    4    4    0    0 -0.73009187281E+01 -0.41831508026E+02 -0.44389919000E+01  0.42695235414E+02  0.00000000000E+00 0.  1.
         11    1    4    4    0    0 -0.46924408684E+02  0.30327872604E+02 -0.58946747367E+02  0.81218218475E+02  0.00000000000E+00 0. -1.
        -13    1    3    3    0    0  0.36408575824E+02 -0.52507563117E+00 -0.14066319374E+02  0.39034874647E+02  0.00000000000E+00 0.  1.
         13    1    3    3    0    0 -0.16665089236E+02  0.20364875732E+02 -0.17420594917E+02  0.31558366404E+02  0.00000000000E+00 0. -1.
          3    1    1    2  501    0  0.34481840825E+02 -0.83361646788E+01  0.20205290950E+03  0.20514352835E+03  0.00000000000E+00 0. -1.
<scales pt_clust_5="13000.00000" pt_clust_6="13000.00000" pt_clust_7="13000.00000" pt_clust_8="13000.00000" pt_clust_9="35.47519"></scales>
<clustering>
<clus scale="   35.475">  1  9  2 -1</clus>
<clus scale="   56.644">  7  8 -1 -1</clus>
<clus scale="   67.753">  2  7  1 -1</clus>
<clus scale="   90.907">  5  6 -1 -1</clus>
<clus scale="   35.475">  1  5  2 -1</clus>
</clustering>
</event>
<event>
 9    1  0.1504846E-005  0.2486160E+03  0.7546771E-02  0.1114202E+00
          1   -1    0    0  502    0 -0.00000000000E+00  0.00000000000E+00  0.11566523742E+04  0.11566523742E+04  0.00000000000E+00 0. -1.
         21   -1    0    0  501  502  0.00000000000E+00 -0.00000000000E+00 -0.13086340945E+03  0.13086340945E+03  0.00000000000E+00 0. -1.
         23    2    1    2    0    0 -0.18963578751E+03  0.14102565385E+03  0.63949218214E+03  0.68787639185E+03  0.91507991428E+02 0.  0.
         23    2    1    2    0    0  0.64665134537E+02 -0.24960564671E+03  0.15241009664E+03  0.31309051145E+03  0.91171663966E+02 0.  0.
        -13    1    4    4    0    0  0.31405158767E+02 -0.21638331882E+03  0.93707957144E+02  0.23788485847E+03  0.00000000000E+00 0. -1.
         13    1    4    4    0    0  0.33259975769E+02 -0.33222327895E+02  0.58702139493E+02  0.75205652979E+02  0.00000000000E+00 0.  1.
        -13    1    3    3    0    0 -0.27914022531E+02 -0.97581361491E+01  0.47648456319E+02  0.56078420667E+02  0.00000000000E+00 0.  1.
         13    1    3    3    0    0 -0.16172176498E+03  0.15078378999E+03  0.59184372582E+03  0.63179797118E+03  0.00000000000E+00 0. -1.
          1    1    1    2  501    0  0.12497065298E+03  0.10857999287E+03  0.23388668601E+03  0.28654888039E+03  0.00000000000E+00 0. -1.
<scales pt_clust_5="13000.00000" pt_clust_6="13000.00000" pt_clust_7="13000.00000" pt_clust_8="13000.00000" pt_clust_9="165.55152"></scales>
<clustering>
<clus scale="   91.172">  5  6 -1 -1</clus>
<clus scale="   91.508">  7  8 -1 -1</clus>
<clus scale="  165.552">  2  9  1 -1</clus>
<clus scale="  248.492">  2  5  1 -1</clus>
<clus scale="  165.552">  2  5  1 -1</clus>
</clustering>
</event>
<event>
 9    1  0.1504846E-005  0.1025740E+03  0.7546771E-02  0.1276618E+00
         21   -1    0    0  501  502  0.00000000000E+00  0.00000000000E+00  0.84594535994E+02  0.84594535994E+02  0.00000000000E+00 0. -1.
          1   -1    0    0  502    0 -0.00000000000E+00 -0.00000000000E+00 -0.31601013080E+03  0.31601013080E+03  0.00000000000E+00 0. -1.
         23    2    1    2    0    0  0.24718560331E+02 -0.54984417491E+02 -0.19687068512E+03  0.22424970941E+03  0.88857031888E+02 0.  0.
         23    2    1    2    0    0 -0.30662173416E+02 -0.35717734012E+01 -0.57564162244E+02  0.11315653956E+03  0.92400450359E+02 0.  0.
        -11    1    3    3    0    0 -0.32606330238E+02 -0.31781410477E+02 -0.84115085932E+02  0.95648201786E+02  0.00000000000E+00 0.  1.
         11    1    3    3    0    0  0.57324890569E+02 -0.23203007015E+02 -0.11275559919E+03  0.12860150762E+03  0.00000000000E+00 0. -1.
        -11    1    4    4    0    0  0.15143623796E+02 -0.22906294707E+02  0.10040486307E+02  0.29237630618E+02  0.00000000000E+00 0. -1.
         11    1    4    4    0    0 -0.45805797212E+02  0.19334521306E+02 -0.67604648551E+02  0.83918908942E+02  0.00000000000E+00 0.  1.
          1    1    1    2  501    0  0.59436130846E+01  0.58556190893E+02  0.23019252556E+02  0.63198417833E+02  0.00000000000E+00 0. -1.
<scales pt_clust_5="13000.00000" pt_clust_6="13000.00000" pt_clust_7="13000.00000" pt_clust_8="13000.00000" pt_clust_9="58.85706"></scales>
<clustering>
<clus scale="   58.857">  1  9  2 -1</clus>
<clus scale="   88.857">  5  6 -1 -1</clus>
<clus scale="   92.400">  7  8 -1 -1</clus>
<clus scale="   99.394">  2  5  1 -1</clus>
<clus scale="   58.857">  1  5  2 -1</clus>
</clustering>
</event>
<event>
 9    1  0.1504846E-005  0.1297855E+03  0.7546771E-02  0.1228338E+00
         -4   -1    0    0    0  501 -0.00000000000E+00  0.00000000000E+00  0.25046618832E+03  0.25046618832E+03  0.00000000000E+00 0.  1.
         21   -1    0    0  501  502  0.00000000000E+00 -0.00000000000E+00 -0.33927226639E+03  0.33927226639E+03  0.00000000000E+00 0. -1.
         23    2    1    2    0    0 -0.37917993415E+02  0.76029583549E+02  0.19715266331E+03  0.23448129470E+03  0.94308181599E+02 0.  0.
         23    2    1    2    0    0  0.28208722122E+02 -0.10084245693E+03 -0.11702344914E+03  0.18423353124E+03  0.96346111815E+02 0.  0.
        -11    1    4    4    0    0 -0.47858434060E+01 -0.75868169121E+02 -0.19777702426E+02  0.78549607867E+02  0.00000000000E+00 0. -1.
         11    1    4    4    0    0  0.32994565528E+02 -0.24974287808E+02 -0.97245746713E+02  0.10568392337E+03  0.00000000000E+00 0.  1.
        -13    1    3    3    0    0 -0.24507470866E+02  0.98095563716E+02  0.15649526433E+03  0.18631726572E+03  0.00000000000E+00 0.  1.
         13    1    3    3    0    0 -0.13410522549E+02 -0.22065980167E+02  0.40657398978E+02  0.48164028978E+02  0.00000000000E+00 0. -1.
         -4    1    1    2    0  502  0.97092712931E+01  0.24812873380E+02 -0.16893529223E+03  0.17102362877E+03  0.00000000000E+00 0.  1.
<scales pt_clust_5="13000.00000" pt_clust_6="13000.00000" pt_clust_7="13000.00000" pt_clust_8="13000.00000" pt_clust_9="26.64486"></scales>
<clustering>
<clus scale="   26.645">  2  9  1 -1</clus>
<clus scale="   94.308">  7  8 -1 -1</clus>
<clus scale="   96.346">  5  6 -1 -1</clus>
<clus scale="  128.280">  1  7  2 -1</clus>
<clus scale="   26.645">  2  5  1 -1</clus>
</clustering>
</event>
<event>
 9    1  0.1504846E-005  0.1593963E+03  0.7546771E-02  0.1189486E+00
          1   -1    0    0  502    0 -0.00000000000E+00  0.00000000000E+00  0.37205150613E+03  0.37205150613E+03  0.00000000000E+00 0. -1.
         21   -1    0    0  501  502  0.00000000000E+00 -0.00000000000E+00 -0.29365944160E+03  0.29365944160E+03  0.00000000000E+00 0.  1.
         23    2    1    2    0    0 -0.10510063134E+03  0.78984749497E+02  0.32006925018E+03  0.35776844962E+03  0.90935170702E+02 0.  0.
         23    2    1    2    0    0  0.76651086784E+02 -0.96627152080E+02 -0.17184381312E+03  0.23050006225E+03  0.91584862095E+02 0.  0.
        -11    1    3    3    0    0 -0.41485886816E+02 -0.11868603318E+02  0.51428796381E+02  0.67133178435E+02  0.00000000000E+00 0.  1.
         11    1    3    3    0    0 -0.63614744526E+02  0.90853352816E+02  0.26864045380E+03  0.29063527119E+03  0.00000000000E+00 0. -1.
        -11    1    4    4    0    0  0.87947047981E+02 -0.63906571036E+02 -0.16092172827E+03  0.19420230611E+03  0.00000000000E+00 0.  1.
         11    1    4    4    0    0 -0.11295961198E+02 -0.32720581044E+02 -0.10922084855E+02  0.36297756140E+02  0.00000000000E+00 0. -1.
          1    1    1    2  501    0  0.28449544558E+02  0.17642402582E+02 -0.69833372530E+02  0.77442435869E+02  0.00000000000E+00 0. -1.
<scales pt_clust_5="13000.00000" pt_clust_6="13000.00000" pt_clust_7="13000.00000" pt_clust_8="13000.00000" pt_clust_9="33.47583"></scales>
<clustering>
<clus scale="   33.476">  2  9  1 -1</clus>
<clus scale="   90.935">  5  6 -1 -1</clus>
<clus scale="   91.585">  7  8 -1 -1</clus>
<clus scale="  159.024">  1  5  2 -1</clus>
<clus scale="   33.476">  2  5  1 -1</clus>
</clustering>
</event>
<event>
 9    1  0.1504846E-005  0.1490238E+03  0.7546771E-02  0.1202185E+00
         21   -1    0    0  501  502  0.00000000000E+00  0.00000000000E+00  0.21131657192E+03  0.21131657192E+03  0.00000000000E+00 0. -1.
          1   -1    0    0  502    0 -0.00000000000E+00 -0.00000000000E+00 -0.36556228958E+03  0.36556228958E+03  0.00000000000E+00 0. -1.
         23    2    1    2    0    0 -0.52460103075E+02  0.11104783396E+03 -0.25690838039E+03  0.29854931978E+03  0.89700036685E+02 0.  0.
         23    2    1    2    0    0  0.43705725219E+02 -0.91836775120E+02 -0.32793161114E+02  0.14123838911E+03  0.92351001404E+02 0.  0.
        -11    1    4    4    0    0 -0.14040504913E+02 -0.76225274797E+02 -0.16584683741E+02  0.79262097063E+02  0.00000000000E+00 0.  1.
         11    1    4    4    0    0  0.57746230132E+02 -0.15611500323E+02 -0.16208477373E+02  0.61976292044E+02  0.00000000000E+00 0. -1.
        -11    1    3    3    0    0 -0.34520785937E+02  0.12296858022E+03 -0.23697158410E+03  0.26919971778E+03  0.00000000000E+00 0. -1.
         11    1    3    3    0    0 -0.17939317138E+02 -0.11920746261E+02 -0.19936796294E+02  0.29349601995E+02  0.00000000000E+00 0.  1.
          1    1    1    2  501    0  0.87543778560E+01 -0.19211058837E+02  0.13545582384E+03  0.13709115262E+03  0.00000000000E+00 0. -1.
<scales pt_clust_5="13000.00000" pt_clust_6="13000.00000" pt_clust_7="13000.00000" pt_clust_8="13000.00000" pt_clust_9="21.11170"></scales>
<clustering>
<clus scale="   21.112">  1  9  2 -1</clus>
<clus scale="   89.700">  7  8 -1 -1</clus>
<clus scale="   92.351">  5  6 -1 -1</clus>
<clus scale="  147.396">  2  7  1 -1</clus>
<clus scale="   21.112">  1  5  2 -1</clus>
</clustering>
</event>
<event>
 9    1  0.1504846E-005  0.1517210E+03  0.7546771E-02  0.1226022E+00
         -1   -1    0    0    0  501 -0.00000000000E+00  0.00000000000E+00  0.42320131403E+03  0.42320131403E+03  0.00000000000E+00 0.  1.
         21   -1    0    0  501  502  0.00000000000E+00 -0.00000000000E+00 -0.14921699938E+03  0.14921699938E+03  0.00000000000E+00 0. -1.
         23    2    1    2    0    0  0.29160410137E+01 -0.87307658253E+01 -0.79627921984E+02  0.11592440606E+03  0.83744446943E+02 0.  0.
         23    2    1    2    0    0  0.98695864307E+02 -0.61339623056E+02  0.26893818133E+03  0.30681246447E+03  0.91119262434E+02 0.  0.
        -11    1    4    4    0    0  0.19981427701E+02  0.13571465954E+02  0.10269963750E+02  0.26247176925E+02  0.00000000000E+00 0.  1.
         11    1    4    4    0    0  0.78714436606E+02 -0.74911089010E+02  0.25866821758E+03  0.28056528754E+03  0.00000000000E+00 0. -1.
        -11    1    3    3    0    0 -0.30111693225E+02 -0.24717963506E+02 -0.66274521868E+02  0.76876550635E+02  0.00000000000E+00 0. -1.
         11    1    3    3    0    0  0.33027734239E+02  0.15987197681E+02 -0.13353400116E+02  0.39047855425E+02  0.00000000000E+00 0.  1.
         -1    1    1    2    0  502 -0.10161190532E+03  0.70070388882E+02  0.84674055308E+02  0.14968144288E+03  0.00000000000E+00 0.  1.
<scales pt_clust_5="13000.00000" pt_clust_6="13000.00000" pt_clust_7="13000.00000" pt_clust_8="13000.00000" pt_clust_9="121.31174"></scales>
<clustering>
<clus scale="   83.744">  7  8 -1 -1</clus>
<clus scale="   84.249">  1  7  2 -1</clus>
<clus scale="   91.119">  5  6 -1 -1</clus>
<clus scale="  121.312">  2  9  1 -1</clus>
<clus scale="  121.312">  2  5  1 -1</clus>
</clustering>
</event>
<event>
 9    1  0.1504846E-005  0.1137229E+03  0.7546771E-02  0.1255002E+00
         21   -1    0    0  501  502  0.00000000000E+00  0.00000000000E+00  0.14837801956E+03  0.14837801956E+03  0.00000000000E+00 0. -1.
          2   -1    0    0  502    0 -0.00000000000E+00 -0.00000000000E+00 -0.26829700394E+03  0.26829700394E+03  0.00000000000E+00 0. -1.
         23    2    1    2    0    0 -0.54362145452E+02 -0.26299028183E+02 -0.11380509183E+03  0.15989630002E+03  0.94701352123E+02 0.  0.
         23    2    1    2    0    0  0.66547043949E+02  0.97670379776E+01 -0.10565942885E+03  0.15513674274E+03  0.91540100256E+02 0.  0.
        -11    1    4    4    0    0  0.50399931321E+02 -0.34817027690E+02 -0.81397753920E+02  0.10187233598E+03  0.00000000000E+00 0. -1.
         11    1    4    4    0    0  0.16147112628E+02  0.44584065668E+02 -0.24261674932E+02  0.53264406767E+02  0.00000000000E+00 0.  1.
        -13    1    3    3    0    0 -0.75851485438E+02 -0.29345581622E+02 -0.57642774568E+02  0.99686009368E+02  0.00000000000E+00 0.  1.
         13    1    3    3    0    0  0.21489339986E+02  0.30465534388E+01 -0.56162317258E+02  0.60210290654E+02  0.00000000000E+00 0. -1.
          2    1    1    2  501    0 -0.12184898497E+02  0.16531990205E+02  0.99545536297E+02  0.10164198074E+03  0.00000000000E+00 0. -1.
<scales pt_clust_5="13000.00000" pt_clust_6="13000.00000" pt_clust_7="13000.00000" pt_clust_8="13000.00000" pt_clust_9="20.53725"></scales>
<clustering>
<clus scale="   20.537">  1  9  2 -1</clus>
<clus scale="   91.540">  5  6 -1 -1</clus>
<clus scale="   94.701">  7  8 -1 -1</clus>
<clus scale="  111.104">  1  5  2 -1</clus>
<clus scale="   20.537">  1  5  2 -1</clus>
</clustering>
</event>
<event>
 9    1  0.1504846E-005  0.9371355E+02  0.7546771E-02  0.1294544E+00
          3   -1    0    0  502    0 -0.00000000000E+00  0.00000000000E+00  0.50506367191E+03  0.50506367191E+03  0.00000000000E+00 0. -1.
         21   -1    0    0  501  502  0.00000000000E+00 -0.00000000000E+00 -0.27743940703E+02  0.27743940703E+02  0.00000000000E+00 0.  1.
         23    2    1    2    0    0 -0.19246098898E+02 -0.13094913836E+02  0.24775663890E+03  0.26518605459E+03  0.91642797516E+02 0.  0.
         23    2    1    2    0    0 -0.10278101692E+02  0.25403980920E+02  0.20915946129E+03  0.22968081855E+03  0.90854810233E+02 0.  0.
        -11    1    4    4    0    0  0.27339901750E+02 -0.12872516361E+02  0.29707880143E+02  0.42376055122E+02  0.00000000000E+00 0. -1.
         11    1    4    4    0    0 -0.37618003442E+02  0.38276497281E+02  0.17945158115E+03  0.18730476343E+03  0.00000000000E+00 0.  1.
        -13    1    3    3    0    0  0.19597336932E+02 -0.20713708642E+02  0.22080372484E+02  0.36064611319E+02  0.00000000000E+00 0. -1.
         13    1    3    3    0    0 -0.38843435829E+02  0.76187948065E+01  0.22567626642E+03  0.22912144327E+03  0.00000000000E+00 0.  1.
          3    1    1    2  501    0  0.29524200590E+02 -0.12309067084E+02  0.20403631008E+02  0.37940739466E+02  0.00000000000E+00 0. -1.
<scales pt_clust_5="13000.00000" pt_clust_6="13000.00000" pt_clust_7="13000.00000" pt_clust_8="13000.00000" pt_clust_9="31.98737"></scales>
<clustering>
<clus scale="   31.987">  2  9  1 -1</clus>
<clus scale="   90.855">  5  6 -1 -1</clus>
<clus scale="   91.643">  7  8 -1 -1</clus>
<clus scale="   92.943">  2  5  1 -1</clus>
<clus scale="   31.987">  2  5  1 -1</clus>
</clustering>
</event>
<event>
 9    1  0.1504846E-005  0.1743450E+03  0.7546771E-02  0.1173782E+00
         -2   -1    0    0    0  501 -0.00000000000E+00  0.00000000000E+00  0.16849473952E+03  0.16849473952E+03  0.00000000000E+00 0.  1.
         21   -1    0    0  501  502  0.00000000000E+00 -0.00000000000E+00 -0.26056032300E+03  0.26056032300E+03  0.00000000000E+00 0.  1.
         23    2    1    2    0    0 -0.12427735687E+03 -0.92326280288E+02  0.11547354901E+02  0.18007392933E+03  0.91237465758E+02 0.  0.
         23    2    1    2    0    0  0.80394734856E+02  0.12058693307E+03 -0.57005607675E+02  0.17900547824E+03  0.88254179007E+02 0.  0.
        -11    1    3    3    0    0 -0.63009879354E+02 -0.49844166414E+02  0.51557791156E+02  0.95461466837E+02  0.00000000000E+00 0.  1.
         11    1    3    3    0    0 -0.61267477511E+02 -0.42482113875E+02 -0.40010436255E+02  0.84612462493E+02  0.00000000000E+00 0. -1.
        -13    1    4    4    0    0  0.74874141345E+02  0.33723870194E+02 -0.34739194010E+02  0.89164163561E+02  0.00000000000E+00 0.  1.
         13    1    4    4    0    0  0.55205935114E+01  0.86863062879E+02 -0.22266413665E+02  0.89841314677E+02  0.00000000000E+00 0. -1.
         -2    1    1    2    0  502  0.43882622010E+02 -0.28260652785E+02 -0.46607330712E+02  0.69975654955E+02  0.00000000000E+00 0.  1.
<scales pt_clust_5="13000.00000" pt_clust_6="13000.00000" pt_clust_7="13000.00000" pt_clust_8="13000.00000" pt_clust_9="52.19530"></scales>
<clustering>
<clus scale="   52.195">  2  9  1 -1</clus>
<clus scale="   88.254">  7  8 -1 -1</clus>
<clus scale="   91.237">  5  6 -1 -1</clus>
<clus scale="  172.802">  2  7  1 -1</clus>
<clus scale="   52.195">  2  5  1 -1</clus>
</clustering>
</event>
<event>
 9    1  0.1504846E-005  0.1127509E+03  0.7546771E-02  0.1260823E+00
         21   -1    0    0  501  502  0.00000000000E+00  0.00000000000E+00  0.12423470781E+03  0.12423470781E+03  0.00000000000E+00 0. -1.
          1   -1    0    0  502    0 -0.00000000000E+00 -0.00000000000E+00 -0.27545024739E+03  0.27545024739E+03  0.00000000000E+00 0. -1.
         23    2    1    2    0    0 -0.26655583601E+00 -0.53212206803E+02 -0.17990208481E+03  0.21431086109E+03  0.10359910742E+03 0.  0.
         23    2    1    2    0    0  0.86289586792E+01  0.28776362615E+02 -0.45799522168E+02  0.10653746240E+03  0.91378863475E+02 0.  0.
        -11    1    3    3    0    0 -0.15743791029E+02  0.20788331125E+02 -0.92622243497E+01  0.27673280739E+02  0.00000000000E+00 0.  1.
         11    1    3    3    0    0  0.15477235193E+02 -0.74000537928E+02 -0.17063986046E+03  0.18663758035E+03  0.00000000000E+00 0. -1.
        -11    1    4    4    0    0  0.44392380128E+02 -0.79142762775E+00 -0.48757054588E+01  0.44666343871E+02  0.00000000000E+00 0.  1.
         11    1    4    4    0    0 -0.35763421449E+02  0.29567790242E+02 -0.40923816709E+02  0.61871118525E+02  0.00000000000E+00 0. -1.
          1    1    1    2  501    0 -0.83624028432E+01  0.24435844188E+02  0.74486067401E+02  0.78836631710E+02  0.00000000000E+00 0. -1.
<scales pt_clust_5="13000.00000" pt_clust_6="13000.00000" pt_clust_7="13000.00000" pt_clust_8="13000.00000" pt_clust_9="25.82712"></scales>
<clustering>
<clus scale="   25.827">  1  9  2 -1</clus>
<clus scale="   91.379">  7  8 -1 -1</clus>
<clus scale="  101.637">  1  7  2 -1</clus>
<clus scale="  103.599">  5  6 -1 -1</clus>
<clus scale="   25.827">  1  5  2 -1</clus>
</clustering>
</event>
<event>
 9    1  0.1504846E-005  0.1021166E+03  0.7546771E-02  0.1276119E+00
         21   -1    0    0  501  502  0.00000000000E+00  0.00000000000E+00  0.36752776636E+03  0.36752776636E+03  0.00000000000E+00 0.  1.
          4   -1    0    0  502    0 -0.00000000000E+00 -0.00000000000E+00 -0.51474415679E+02  0.51474415679E+02  0.00000000000E+00 0. -1.
         23    2    1    2    0    0 -0.42461756922E+01 -0.39372414945E+02  0.37879319016E+02  0.10775383617E+03  0.92778388284E+02 0.  0.
         23    2    1    2    0    0  0.33116110430E+02  0.47456462739E+02  0.23005086657E+03  0.25455033903E+03  0.92323784958E+02 0.  0.
        -11    1    4    4    0    0  0.58959900287E+02  0.53472026195E+02  0.14441339444E+03  0.16489619741E+03  0.00000000000E+00 0.  1.
         11    1    4    4    0    0 -0.25843789857E+02 -0.60155634556E+01  0.85637472130E+02  0.89654141625E+02  0.00000000000E+00 0. -1.
        -11    1    3    3    0    0 -0.35352378172E+02 -0.27568692865E+02  0.54494419951E+02  0.70565326291E+02  0.00000000000E+00 0. -1.
         11    1    3    3    0    0  0.31106202480E+02 -0.11803722080E+02 -0.16615100935E+02  0.37188509875E+02  0.00000000000E+00 0.  1.
          4    1    1    2  501    0 -0.28869934737E+02 -0.80840477936E+01  0.48123165102E+02  0.56698006842E+02  0.00000000000E+00 0. -1.
<scales pt_clust_5="13000.00000" pt_clust_6="13000.00000" pt_clust_7="13000.00000" pt_clust_8="13000.00000" pt_clust_9="29.98041"></scales>
<clustering>
<clus scale="   29.980">  1  9  2 -1</clus>
<clus scale="   92.324">  5  6 -1 -1</clus>
<clus scale="   92.778">  7  8 -1 -1</clus>
<clus scale="  101.704">  1  5  2 -1</clus>
<clus scale="   29.980">  1  5  2 -1</clus>
</clustering>
</event>
<event>
 9    1  0.1504846E-005  0.1043726E+03  0.7546771E-02  0.1272756E+00
         21   -1    0    0  501  502  0.00000000000E+00  0.00000000000E+00  0.32565549233E+02  0.32565549233E+02  0.00000000000E+00 0.  1.
          1   -1    0    0  502    0 -0.00000000000E+00 -0.00000000000E+00 -0.45328386129E+03  0.45328386129E+03  0.00000000000E+00 0. -1.
         23    2    1    2    0    0 -0.49625396898E+02 -0.21230614427E+02 -0.27021225259E+03  0.29052417836E+03  0.92066376896E+02 0.  0.
         23    2    1    2    0    0  0.42741588119E+02 -0.13067295349E+01 -0.10500553113E+03  0.14408445958E+03  0.88913548053E+02 0.  0.
        -11    1    3    3    0    0  0.47450302039E+01  0.24940103781E+02 -0.26970476429E+02  0.37039582706E+02  0.00000000000E+00 0. -1.
         11    1    3    3    0    0 -0.54370427102E+02 -0.46170718207E+02 -0.24324177616E+03  0.25348459565E+03  0.00000000000E+00 0.  1.
        -11    1    4    4    0    0 -0.77453356108E+01 -0.22613023798E+02 -0.80649263225E+02  0.84116839740E+02  0.00000000000E+00 0. -1.
         11    1    4    4    0    0  0.50486923729E+02  0.21306294263E+02 -0.24356267902E+02  0.59967619838E+02  0.00000000000E+00 0.  1.
          1    1    1    2  501    0  0.68838087796E+01  0.22537343961E+02 -0.45500528338E+02  0.51240772586E+02  0.00000000000E+00 0. -1.
<scales pt_clust_5="13000.00000" pt_clust_6="13000.00000" pt_clust_7="13000.00000" pt_clust_8="13000.00000" pt_clust_9="23.56521"></scales>
<clustering>
<clus scale="   23.565">  1  9  2 -1</clus>
<clus scale="   88.914">  7  8 -1 -1</clus>
<clus scale="   92.066">  5  6 -1 -1</clus>
<clus scale="  101.602">  1  7  2 -1</clus>
<clus scale="   23.565">  1  5  2 -1</clus>
</clustering>
</event>
<event>
 9    1  0.1504846E-005  0.8563857E+02  0.7546771E-02  0.1315769E+00
         -3   -1    0    0    0  501 -0.00000000000E+00  0.00000000000E+00  0.58630181027E+02  0.58630181027E+02  0.00000000000E+00 0.  1.
         21   -1    0    0  501  502  0.00000000000E+00 -0.00000000000E+00 -0.56839187710E+03  0.56839187710E+03  0.00000000000E+00 0.  1.
         23    2    1    2    0    0  0.46299642602E+02 -0.17263379453E+02 -0.33680956168E+02  0.10171820824E+03  0.82283083954E+02 0.  0.
         23    2    1    2    0    0  0.25919161106E+02 -0.31594883991E+02 -0.80924693919E+02  0.12064227993E+03  0.79597198532E+02 0.  0.
        -11    1    4    4    0    0 -0.68610276036E+01 -0.28480064164E+02 -0.82631022318E+02  0.87670254955E+02  0.00000000000E+00 0.  1.
         11    1    4    4    0    0  0.32780188710E+02 -0.31148198272E+01  0.17063283992E+01  0.32972024976E+02  0.00000000000E+00 0. -1.
        -13    1    3    3    0    0  0.97292834568E+01 -0.45623394074E+02 -0.29628039377E+02  0.55262770115E+02  0.00000000000E+00 0.  1.
         13    1    3    3    0    0  0.36570359145E+02  0.28360014621E+02 -0.40529167906E+01  0.46455438130E+02  0.00000000000E+00 0. -1.
         -3    1    1    2    0  502 -0.72218803708E+02  0.48858263444E+02 -0.39515604599E+03  0.40466156995E+03  0.00000000000E+00 0.  1.
<scales pt_clust_5="13000.00000" pt_clust_6="13000.00000" pt_clust_7="13000.00000" pt_clust_8="13000.00000" pt_clust_9="87.19338"></scales>
<clustering>
<clus scale="   79.597">  5  6 -1 -1</clus>
<clus scale="   82.283">  7  8 -1 -1</clus>
<clus scale="   87.193">  2  9  1 -1</clus>
<clus scale="   87.193">  2  5  1 -1</clus>
<clus scale="   85.639">  2  5  1 -1</clus>
</clustering>
</event>
<event>
 9    1  0.1504846E-005  0.1586813E+03  0.7546771E-02  0.1190217E+00
         -2   -1    0    0    0  501 -0.00000000000E+00  0.00000000000E+00  0.22914742782E+03  0.22914742782E+03  0.00000000000E+00 0.  1.
         21   -1    0    0  501  502  0.00000000000E+00 -0.00000000000E+00 -0.20477109880E+03  0.20477109880E+03  0.00000000000E+00 0. -1.
         23    2    1    2    0    0  0.18285924283E+02  0.13089572934E+03  0.12665527538E+03  0.20441248808E+03  0.90966144879E+02 0.  0.
         23    2    1    2    0    0  0.73591895513E+01 -0.12576867668E+03 -0.37913423618E+02  0.16003029421E+03  0.91106254832E+02 0.  0.
        -11    1    4    4    0    0 -0.26608749064E+01 -0.91028360102E+02 -0.67464002131E+02  0.11333417041E+03  0.00000000000E+00 0. -1.
         11    1    4    4    0    0  0.10020064458E+02 -0.34740316573E+02  0.29550578514E+02  0.46696123799E+02  0.00000000000E+00 0.  1.
        -13    1    3    3    0    0 -0.33662266769E+02  0.32774289945E+02  0.54714056005E+02  0.72117475067E+02  0.00000000000E+00 0. -1.
         13    1    3    3    0    0  0.51948191052E+02  0.98121439394E+02  0.71941219374E+02  0.13229501301E+03  0.00000000000E+00 0.  1.
         -2    1    1    2    0  502 -0.25645113834E+02 -0.51270526634E+01 -0.64365522746E+02  0.69475744336E+02  0.00000000000E+00 0.  1.
<scales pt_clust_5="13000.00000" pt_clust_6="13000.00000" pt_clust_7="13000.00000" pt_clust_8="13000.00000" pt_clust_9="26.15260"></scales>
<clustering>
<clus scale="   26.153">  2  9  1 -1</clus>
<clus scale="   90.966">  7  8 -1 -1</clus>
<clus scale="   91.106">  5  6 -1 -1</clus>
<clus scale="  158.601">  1  7  2 -1</clus>
<clus scale="   26.153">  2  5  1 -1</clus>
</clustering>
</event>
<event>
 9    1  0.1504846E-005  0.1383975E+03  0.7546771E-02  0.1215627E+00
         21   -1    0    0  501  502  0.00000000000E+00  0.00000000000E+00  0.42232685572E+03  0.42232685572E+03  0.00000000000E+00 0.  1.
         -1   -1    0    0    0  501 -0.00000000000E+00 -0.00000000000E+00 -0.16514253423E+03  0.16514253423E+03  0.00000000000E+00 0.  1.
         23    2    1    2    0    0  0.97557926601E+02  0.59686925023E+02 -0.92853869372E+02  0.17293640747E+03  0.90581907181E+02 0.  0.
         23    2    1    2    0    0 -0.61680028821E+02 -0.43209035568E+02  0.82670146042E+02  0.14426567816E+03  0.91141571959E+02 0.  0.
        -11    1    3    3    0    0  0.10480278575E+03  0.27110826988E+02 -0.87380473321E+02  0.13911853924E+03  0.00000000000E+00 0.  1.
         11    1    3    3    0    0 -0.72448591515E+01  0.32576098035E+02 -0.54733960514E+01  0.33817868230E+02  0.00000000000E+00 0. -1.
        -11    1    4    4    0    0 -0.35423316009E+02  0.26108576904E+02  0.33687913813E+02  0.55419713479E+02  0.00000000000E+00 0. -1.
         11    1    4    4    0    0 -0.26256712812E+02 -0.69317612472E+02  0.48982232230E+02  0.88845964684E+02  0.00000000000E+00 0.  1.
         -1    1    1    2    0  502 -0.35877897780E+02 -0.16477889455E+02  0.26736804482E+03  0.27026730431E+03  0.00000000000E+00 0.  1.
<scales pt_clust_5="13000.00000" pt_clust_6="13000.00000" pt_clust_7="13000.00000" pt_clust_8="13000.00000" pt_clust_9="39.48094"></scales>
<clustering>
<clus scale="   39.481">  1  9  2 -1</clus>
<clus scale="   90.582">  5  6 -1 -1</clus>
<clus scale="   91.142">  7  8 -1 -1</clus>
<clus scale="  138.030">  2  5  1 -1</clus>
<clus scale="   39.481">  1  5  2 -1</clus>
</clustering>
</event>
<event>
 9    1  0.1504846E-005  0.1035298E+03  0.7546771E-02  0.1273097E+00
         21   -1    0    0  501  502  0.00000000000E+00  0.00000000000E+00  0.22775246477E+02  0.22775246477E+02  0.00000000000E+00 0. -1.
          2   -1    0    0  502    0 -0.00000000000E+00 -0.00000000000E+00 -0.69614017636E+03  0.69614017636E+03  0.00000000000E+00 0. -1.
         23    2    1    2    0    0  0.41277695934E+02  0.78535238882E+01 -0.31517678153E+03  0.33065680950E+03  0.90730347909E+02 0.  0.
         23    2    1    2    0    0 -0.51189458107E+02 -0.31814166954E+02 -0.33889455475E+03  0.35593836891E+03  0.90609609800E+02 0.  0.
        -11    1    4    4    0    0  0.24616292951E+02  0.40748229988E+01 -0.77330255105E+02  0.81255980800E+02  0.00000000000E+00 0.  1.
         11    1    4    4    0    0 -0.75805751058E+02 -0.35888989953E+02 -0.26156429964E+03  0.27468238811E+03  0.00000000000E+00 0. -1.
        -13    1    3    3    0    0  0.39193129331E+01  0.44984317619E+02 -0.18008518318E+03  0.18565996619E+03  0.00000000000E+00 0.  1.
         13    1    3    3    0    0  0.37358383001E+02 -0.37130793731E+02 -0.13509159836E+03  0.14499684331E+03  0.00000000000E+00 0. -1.
          2    1    1    2  501    0  0.99117621729E+01  0.23960643066E+02 -0.19293593607E+02  0.32320244426E+02  0.00000000000E+00 0. -1.
<scales pt_clust_5="13000.00000" pt_clust_6="13000.00000" pt_clust_7="13000.00000" pt_clust_8="13000.00000" pt_clust_9="25.92982"></scales>
<clustering>
<clus scale="   25.930">  1  9  2 -1</clus>
<clus scale="   90.610">  5  6 -1 -1</clus>
<clus scale="   90.730">  7  8 -1 -1</clus>
<clus scale="  103.424">  1  5  2 -1</clus>
<clus scale="   25.930">  1  5  2 -1</clus>
</clustering>
</event>
<event>
 9    1  0.1504846E-005  0.1061386E+03  0.7546771E-02  0.1268566E+00
         21   -1    0    0  501  502  0.00000000000E+00  0.00000000000E+00  0.16926628513E+03  0.16926628513E+03  0.00000000000E+00 0. -1.
          2   -1    0    0  502    0 -0.00000000000E+00 -0.00000000000E+00 -0.22546811888E+03  0.22546811888E+03  0.00000000000E+00 0. -1.
         23    2    1    2    0    0  0.51671558925E+02  0.61048661875E+01 -0.14661982005E+03  0.17991278855E+03  0.90354969210E+02 0.  0.
         23    2    1    2    0    0 -0.57329751396E+02  0.51517128449E+02  0.16780911858E+02  0.12114809656E+03  0.91948612708E+02 0.  0.
        -11    1    4    4    0    0 -0.59830662783E+02 -0.62681651570E+01 -0.24148305096E+01  0.60206557034E+02  0.00000000000E+00 0.  1.
         11    1    4    4    0    0  0.25009113871E+01  0.57785293606E+02  0.19195742367E+02  0.60941539527E+02  0.00000000000E+00 0. -1.
        -13    1    3    3    0    0  0.11340020709E+02 -0.38698559749E+02 -0.82948885435E+02  0.92231730934E+02  0.00000000000E+00 0.  1.
         13    1    3    3    0    0  0.40331538217E+02  0.44803425936E+02 -0.63670934615E+02  0.87681057620E+02  0.00000000000E+00 0. -1.
          2    1    1    2  501    0  0.56581924712E+01 -0.57621994637E+02  0.73637074445E+02  0.93673518888E+02  0.00000000000E+00 0. -1.
<scales pt_clust_5="13000.00000" pt_clust_6="13000.00000" pt_clust_7="13000.00000" pt_clust_8="13000.00000" pt_clust_9="57.89913"></scales>
<clustering>
<clus scale="   57.899">  1  9  2 -1</clus>
<clus scale="   90.355">  7  8 -1 -1</clus>
<clus scale="   91.949">  5  6 -1 -1</clus>
<clus scale="  104.761">  2  7  1 -1</clus>
<clus scale="   57.899">  1  5  2 -1</clus>
</clustering>
</event>
<event>
 9    1  0.1504846E-005  0.1094704E+03  0.7546771E-02  0.1262525E+00
          3   -1    0    0  502    0 -0.00000000000E+00  0.00000000000E+00  0.64744336124E+02  0.64744336124E+02  0.00000000000E+00 0. -1.
         21   -1    0    0  501  502  0.00000000000E+00 -0.00000000000E+00 -0.23638656159E+03  0.23638656159E+03  0.00000000000E+00 0.  1.
         23    2    1    2    0    0  0.50377927773E+02 -0.83203839408E+01 -0.51001272321E+02  0.11641739203E+03  0.91349411558E+02 0.  0.
         23    2    1    2    0    0 -0.71916975252E+02  0.12479140587E+02 -0.85557010748E+02  0.14333586877E+03  0.88867254419E+02 0.  0.
        -11    1    4    4    0    0 -0.66974056453E+02  0.45007187092E+02 -0.50170927619E+02  0.95017330555E+02  0.00000000000E+00 0.  1.
         11    1    4    4    0    0 -0.49429187993E+01 -0.32528046505E+02 -0.35386083129E+02  0.48318538212E+02  0.00000000000E+00 0. -1.
        -13    1    3    3    0    0  0.18169446082E+02  0.39814829309E+02 -0.85085370234E+01  0.44584129531E+02  0.00000000000E+00 0.  1.
         13    1    3    3    0    0  0.32208481692E+02 -0.48135213250E+02 -0.42492735297E+02  0.71833262494E+02  0.00000000000E+00 0. -1.
          3    1    1    2  501    0  0.21539047479E+02 -0.41587566463E+01 -0.35083942401E+02  0.41377636925E+02  0.00000000000E+00 0. -1.
<scales pt_clust_5="13000.00000" pt_clust_6="13000.00000" pt_clust_7="13000.00000" pt_clust_8="13000.00000" pt_clust_9="21.93686"></scales>
<clustering>
<clus scale="   21.937">  2  9  1 -1</clus>
<clus scale="   88.867">  5  6 -1 -1</clus>
<clus scale="   91.349">  7  8 -1 -1</clus>
<clus scale="  107.408">  2  5  1 -1</clus>
<clus scale="   21.937">  2  5  1 -1</clus>
</clustering>
</event>
<event>
 9    1  0.1504846E-005  0.1638270E+03  0.7546771E-02  0.1195083E+00
          2   -1    0    0  502    0 -0.00000000000E+00  0.00000000000E+00  0.28132845309E+03  0.28132845309E+03  0.00000000000E+00 0. -1.
         21   -1    0    0  501  502  0.00000000000E+00 -0.00000000000E+00 -0.25116594185E+03  0.25116594185E+03  0.00000000000E+00 0. -1.
         23    2    1    2    0    0 -0.82738526019E+02  0.32738384662E+02  0.13462824399E+03  0.18679693581E+03  0.94079039259E+02 0.  0.
         23    2    1    2    0    0 -0.55128061460E+02 -0.97441972869E+02  0.23652124837E+02  0.14668003349E+03  0.91769101443E+02 0.  0.
        -11    1    4    4    0    0 -0.17281330167E+02 -0.35476408382E+02 -0.35458573987E+02  0.53052147866E+02  0.00000000000E+00 0.  1.
         11    1    4    4    0    0 -0.37846731294E+02 -0.61965564487E+02  0.59110698824E+02  0.93627885629E+02  0.00000000000E+00 0. -1.
        -13    1    3    3    0    0 -0.68317269559E+02 -0.18153008799E+02  0.10376950433E+03  0.12555831744E+03  0.00000000000E+00 0. -1.
         13    1    3    3    0    0 -0.14421256460E+02  0.50891393461E+02  0.30858739663E+02  0.61238618370E+02  0.00000000000E+00 0.  1.
          2    1    1    2  501    0  0.13786658748E+03  0.64703588208E+02 -0.12811785759E+03  0.19901742563E+03  0.00000000000E+00 0. -1.
<scales pt_clust_5="13000.00000" pt_clust_6="13000.00000" pt_clust_7="13000.00000" pt_clust_8="13000.00000" pt_clust_9="135.71189"></scales>
<clustering>
<clus scale="   91.769">  5  6 -1 -1</clus>
<clus scale="   94.079">  7  8 -1 -1</clus>
<clus scale="  129.493">  1  7  2 -1</clus>
<clus scale="  135.712">  2  9  1 -1</clus>
<clus scale="  135.712">  2  5  1 -1</clus>
</clustering>
</event>
<event>
 9    1  0.1504846E-005  0.1354861E+03  0.7546771E-02  0.1219705E+00
         -1   -1    0    0    0  501 -0.00000000000E+00  0.00000000000E+00  0.28651436075E+03  0.28651436075E+03  0.00000000000E+00 0.  1.
         21   -1    0    0  501  502  0.00000000000E+00 -0.00000000000E+00 -0.41777242248E+03  0.41777242248E+03  0.00000000000E+00 0.  1.
         23    2    1    2    0    0 -0.29094252498E+02 -0.95991783029E+02  0.23784538799E+03  0.27369256429E+03  0.90974134913E+02 0.  0.
         23    2    1    2    0    0 -0.33721300692E+02  0.10618638488E+03 -0.17778044959E+03  0.22896531721E+03  0.91687260715E+02 0.  0.
        -13    1    3    3    0    0 -0.57836564419E+02 -0.47674001389E+02  0.10120095421E+03  0.12593455334E+03  0.00000000000E+00 0.  1.
         13    1    3    3    0    0  0.28742311921E+02 -0.48317781640E+02  0.13664443378E+03  0.14775801095E+03  0.00000000000E+00 0. -1.
        -13    1    4    4    0    0 -0.15209441137E+01  0.10051659165E+03 -0.16627939028E+03  0.19430577474E+03  0.00000000000E+00 0. -1.
         13    1    4    4    0    0 -0.32200356578E+02  0.56697932273E+01 -0.11501059312E+02  0.34659542471E+02  0.00000000000E+00 0.  1.
         -1    1    1    2    0  502  0.62815553189E+02 -0.10194601852E+02 -0.19132300013E+03  0.20162890172E+03  0.00000000000E+00 0.  1.
<scales pt_clust_5="13000.00000" pt_clust_6="13000.00000" pt_clust_7="13000.00000" pt_clust_8="13000.00000" pt_clust_9="63.63744"></scales>
<clustering>
<clus scale="   63.637">  2  9  1 -1</clus>
<clus scale="   90.974">  5  6 -1 -1</clus>
<clus scale="   91.687">  7  8 -1 -1</clus>
<clus scale="  135.005">  1  5  2 -1</clus>
<clus scale="   63.637">  2  5  1 -1</clus>
</clustering>
</event>
<event>
 9    1  0.1504846E-005  0.1035047E+03  0.7546771E-02  0.1275226E+00
         21   -1    0    0  501  502  0.00000000000E+00  0.00000000000E+00  0.86198036783E+03  0.86198036783E+03  0.00000000000E+00 0.  1.
          3   -1    0    0  502    0 -0.00000000000E+00 -0.00000000000E+00 -0.23467102262E+02  0.23467102262E+02  0.00000000000E+00 0. -1.
         23    2    1    2    0    0  0.18144066910E+02  0.32602959902E+02  0.15270634086E+03  0.18109943585E+03  0.89920069892E+02 0.  0.
         23    2    1    2    0    0  0.11929787410E+02 -0.65794625050E+02  0.49501418051E+03  0.50836845728E+03  0.94489136575E+02 0.  0.
        -13    1    3    3    0    0  0.31002952075E+02  0.57476469203E+02  0.12826158252E+03  0.14392970888E+03  0.00000000000E+00 0. -1.
         13    1    3    3    0    0 -0.12858885166E+02 -0.24873509301E+02  0.24444758341E+02  0.37169726969E+02  0.00000000000E+00 0.  1.
        -13    1    4    4    0    0 -0.37759297017E+02 -0.51292384622E+02  0.29119471743E+03  0.29807891017E+03  0.00000000000E+00 0. -1.
         13    1    4    4    0    0  0.49689084428E+02 -0.14502240429E+02  0.20381946308E+03  0.21028954710E+03  0.00000000000E+00 0.  1.
          3    1    1    2  501    0 -0.30073854320E+02  0.33191665148E+02  0.19079274419E+03  0.19597957696E+03  0.00000000000E+00 0. -1.
<scales pt_clust_5="13000.00000" pt_clust_6="13000.00000" pt_clust_7="13000.00000" pt_clust_8="13000.00000" pt_clust_9="44.78977"></scales>
<clustering>
<clus scale="   44.790">  1  9  2 -1</clus>
<clus scale="   89.920">  5  6 -1 -1</clus>
<clus scale="   94.489">  7  8 -1 -1</clus>
<clus scale="   99.351">  2  5  1 -1</clus>
<clus scale="   44.790">  1  5  2 -1</clus>
</clustering>
</event>
<event>
 9    1  0.1504846E-005  0.1266899E+03  0.7546771E-02  0.1232472E+00
         21   -1    0    0  501  502  0.00000000000E+00  0.00000000000E+00  0.19075567522E+03  0.19075567522E+03  0.00000000000E+00 0. -1.
          2   -1    0    0  502    0 -0.00000000000E+00 -0.00000000000E+00 -0.24619327705E+03  0.24619327705E+03  0.00000000000E+00 0. -1.
         23    2    1    2    0    0  0.79265080845E+02 -0.22638988446E+02 -0.14565341654E+03  0.19083243350E+03  0.91687638680E+02 0.  0.
         23    2    1    2    0    0 -0.87207792319E+02  0.93466057473E+02  0.68417510488E+02  0.17158648160E+03  0.91759805942E+02 0.  0.
        -11    1    3    3    0    0  0.68792238946E+02  0.20490958920E+02 -0.11925880834E+03  0.13919380339E+03  0.00000000000E+00 0. -1.
         11    1    3    3    0    0  0.10472841899E+02 -0.43129947366E+02 -0.26394608201E+02  0.51638630107E+02  0.00000000000E+00 0.  1.
        -13    1    4    4    0    0 -0.32741998524E+02  0.50082659893E+02  0.81124611747E+02  0.10080433483E+03  0.00000000000E+00 0.  1.
         13    1    4    4    0    0 -0.54465793795E+02  0.43383397580E+02 -0.12707101259E+02  0.70782146772E+02  0.00000000000E+00 0. -1.
          2    1    1    2  501    0  0.79427114741E+01 -0.70827069027E+02  0.21798304227E+02  0.74530037164E+02  0.00000000000E+00 0. -1.
<scales pt_clust_5="13000.00000" pt_clust_6="13000.00000" pt_clust_7="13000.00000" pt_clust_8="13000.00000" pt_clust_9="71.27103"></scales>
<clustering>
<clus scale="   71.271">  1  9  2 -1</clus>
<clus scale="   91.688">  5  6 -1 -1</clus>
<clus scale="   91.760">  7  8 -1 -1</clus>
<clus scale="  126.638">  2  5  1 -1</clus>
<clus scale="   71.271">  1  5  2 -1</clus>
</clustering>
</event>
<event>
 9    1  0.1504846E-005  0.1545607E+03  0.7546771E-02  0.1195050E+00
          1   -1    0    0  502    0 -0.00000000000E+00  0.00000000000E+00  0.74492915465E+03  0.74492915465E+03  0.00000000000E+00 0. -1.
         21   -1    0    0  501  502  0.00000000000E+00 -0.00000000000E+00 -0.47584384902E+02  0.47584384902E+02  0.00000000000E+00 0.  1.
         23    2    1    2    0    0  0.80978773406E+02 -0.66171556464E+02  0.27402007706E+03  0.30696564409E+03  0.90579619083E+02 0.  0.
         23    2    1    2    0    0 -0.11739138363E+03  0.88395996273E+02  0.40257432698E+03  0.43810970847E+03  0.90991421591E+02 0.  0.
        -13    1    4    4    0    0 -0.93439557166E+02  0.95790285567E+02  0.38473617166E+03  0.40734340725E+03  0.00000000000E+00 0. -1.
         13    1    4    4    0    0 -0.23951826463E+02 -0.73942892944E+01  0.17838155326E+02  0.30766301216E+02  0.00000000000E+00 0.  1.
        -13    1    3    3    0    0  0.23795635635E+02 -0.76439631805E+02  0.15068073213E+03  0.17062805344E+03  0.00000000000E+00 0.  1.
         13    1    3    3    0    0  0.57183137771E+02  0.10268075341E+02  0.12333934493E+03  0.13633759065E+03  0.00000000000E+00 0. -1.
          1    1    1    2  501    0  0.36412610223E+02 -0.22224439809E+02  0.20750365706E+02  0.47438186991E+02  0.00000000000E+00 0. -1.
<scales pt_clust_5="13000.00000" pt_clust_6="13000.00000" pt_clust_7="13000.00000" pt_clust_8="13000.00000" pt_clust_9="42.65916"></scales>
<clustering>
<clus scale="   42.659">  2  9  1 -1</clus>
<clus scale="   90.580">  7  8 -1 -1</clus>
<clus scale="   90.991">  5  6 -1 -1</clus>
<clus scale="  154.319">  1  7  2 -1</clus>
<clus scale="   42.659">  2  5  1 -1</clus>
</clustering>
</event>
<event>
 9    1  0.1504846E-005  0.9777888E+02  0.7546771E-02  0.1285987E+00
          4   -1    0    0  502    0 -0.00000000000E+00  0.00000000000E+00  0.23640214468E+02  0.23640214468E+02  0.00000000000E+00 0. -1.
         21   -1    0    0  501  502  0.00000000000E+00 -0.00000000000E+00 -0.72005711002E+03  0.72005711002E+03  0.00000000000E+00 0.  1.
         23    2    1    2    0    0  0.56555294022E+01  0.15742849028E+02 -0.16274142069E+03  0.18725345776E+03  0.91100302550E+02 0.  0.
         23    2    1    2    0    0 -0.59240046793E+01 -0.52830448235E+02 -0.27469344990E+03  0.29481961069E+03  0.92929873243E+02 0.  0.
        -13    1    4    4    0    0  0.14589157745E+02 -0.75217809536E+02 -0.20170039199E+03  0.21576285715E+03  0.00000000000E+00 0.  1.
         13    1    4    4    0    0 -0.20513162425E+02  0.22387361302E+02 -0.72993057903E+02  0.79056753543E+02  0.00000000000E+00 0. -1.
        -13    1    3    3    0    0 -0.83979684358E+01 -0.33930318201E+02 -0.10041285329E+03  0.10632277966E+03  0.00000000000E+00 0.  1.
         13    1    3    3    0    0  0.14053497838E+02  0.49673167229E+02 -0.62328567399E+02  0.80930678102E+02  0.00000000000E+00 0. -1.
          4    1    1    2  501    0  0.26847527718E+00  0.37087599207E+02 -0.25898202496E+03  0.26162425603E+03  0.00000000000E+00 0. -1.
<scales pt_clust_5="13000.00000" pt_clust_6="13000.00000" pt_clust_7="13000.00000" pt_clust_8="13000.00000" pt_clust_9="37.08857"></scales>
<clustering>
<clus scale="   37.089">  2  9  1 -1</clus>
<clus scale="   91.100">  7  8 -1 -1</clus>
<clus scale="   92.930">  5  6 -1 -1</clus>
<clus scale="   96.042">  1  7  2 -1</clus>
<clus scale="   37.089">  2  5  1 -1</clus>
</clustering>
</event>
<event>
 9    1  0.1504846E-005  0.1104564E+03  0.7546771E-02  0.1259894E+00
         21   -1    0    0  501  502  0.00000000000E+00  0.00000000000E+00  0.18281863800E+03  0.18281863800E+03  0.00000000000E+00 0.  1.
          1   -1    0    0  502    0 -0.00000000000E+00 -0.00000000000E+00 -0.15043337973E+03  0.15043337973E+03  0.00000000000E+00 0. -1.
         23    2    1    2    0    0 -0.64750122845E+02  0.68937030657E+01 -0.93589287678E+02  0.14457744857E+03  0.88902093994E+02 0.  0.
         23    2    1    2    0    0  0.60143182059E+02 -0.32291551731E+02  0.88123705156E+02  0.14286015256E+03  0.89349253594E+02 0.  0.
        -11    1    4    4    0    0  0.64653279652E+02  0.21529806186E+01  0.22287078384E+02  0.68420726087E+02  0.00000000000E+00 0. -1.
         11    1    4    4    0    0 -0.45100975931E+01 -0.34444532350E+02  0.65836626772E+02  0.74439426474E+02  0.00000000000E+00 0.  1.
        -13    1    3    3    0    0  0.21923699055E+02 -0.35808272915E+00 -0.10576891917E+02  0.24344351421E+02  0.00000000000E+00 0.  1.
         13    1    3    3    0    0 -0.86673821900E+02  0.72517857948E+01 -0.83012395761E+02  0.12023309715E+03  0.00000000000E+00 0. -1.
          1    1    1    2  501    0  0.46069407863E+01  0.25397848665E+02  0.37850840791E+02  0.45814416605E+02  0.00000000000E+00 0. -1.
<scales pt_clust_5="13000.00000" pt_clust_6="13000.00000" pt_clust_7="13000.00000" pt_clust_8="13000.00000" pt_clust_9="25.81230"></scales>
<clustering>
<clus scale="   25.812">  1  9  2 -1</clus>
<clus scale="   88.902">  7  8 -1 -1</clus>
<clus scale="   89.349">  5  6 -1 -1</clus>
<clus scale="  110.095">  2  7  1 -1</clus>
<clus scale="   25.812">  1  5  2 -1</clus>
</clustering>
</event>
<event>
 9    1  0.1504846E-005  0.1147098E+03  0.7546771E-02  0.1260924E+00
         21   -1    0    0  501  502  0.00000000000E+00  0.00000000000E+00  0.29394167773E+02  0.29394167773E+02  0.00000000000E+00 0. -1.
          1   -1    0    0  502    0 -0.00000000000E+00 -0.00000000000E+00 -0.54500731743E+03  0.54500731743E+03  0.00000000000E+00 0. -1.
         23    2    1    2    0    0 -0.21991517222E+02  0.44817018951E+02 -0.28895666818E+03  0.31317480851E+03  0.10995595747E+03 0.  0.
         23    2    1    2    0    0  0.10778439031E+01 -0.18590809797E+02 -0.19127995608E+03  0.21247532464E+03  0.90614358817E+02 0.  0.
        -11    1    3    3    0    0 -0.26732255685E+02 -0.30873455554E+02 -0.14264848459E+03  0.14837915591E+03  0.00000000000E+00 0.  1.
         11    1    3    3    0    0  0.47407384630E+01  0.75690474505E+02 -0.14630818359E+03  0.16479565261E+03  0.00000000000E+00 0. -1.
        -11    1    4    4    0    0 -0.30186312233E+02 -0.20363113464E+02 -0.27242057974E+02  0.45475263153E+02  0.00000000000E+00 0.  1.
         11    1    4    4    0    0  0.31264156136E+02  0.17723036670E+01 -0.16403789811E+03  0.16700006148E+03  0.00000000000E+00 0. -1.
          1    1    1    2  501    0  0.20913673319E+02 -0.26226209154E+02 -0.35376525394E+02  0.48751352056E+02  0.00000000000E+00 0. -1.
<scales pt_clust_5="13000.00000" pt_clust_6="13000.00000" pt_clust_7="13000.00000" pt_clust_8="13000.00000" pt_clust_9="33.54394"></scales>
<clustering>
<clus scale="   33.544">  1  9  2 -1</clus>
<clus scale="   90.614">  7  8 -1 -1</clus>
<clus scale="   96.328">  1  7  2 -1</clus>
<clus scale="  109.956">  5  6 -1 -1</clus>
<clus scale="   33.544">  1  5  2 -1</clus>
</clustering>
</event>
<event>
 9    1  0.1504846E-005  0.1060061E+03  0.7546771E-02  0.1271384E+00
         -2   -1    0    0    0  501 -0.00000000000E+00  0.00000000000E+00  0.49682893030E+02  0.49682893030E+02  0.00000000000E+00 0.  1.
         21   -1    0    0  501  502  0.00000000000E+00 -0.00000000000E+00 -0.63024381582E+03  0.63024381582E+03  0.00000000000E+00 0.  1.
         23    2    1    2    0    0  0.15357051176E+02  0.60947074575E+02 -0.35897848294E+02  0.11659834288E+03  0.91411887252E+02 0.  0.
         23    2    1    2    0    0  0.30270594678E+01 -0.26337468955E+02 -0.23019892512E+03  0.24643169264E+03  0.83870189278E+02 0.  0.
        -13    1    4    4    0    0 -0.26812768598E+02  0.11515411761E+02 -0.15040606624E+03  0.15321068510E+03  0.00000000000E+00 0.  1.
         13    1    4    4    0    0  0.29839828066E+02 -0.37852880715E+02 -0.79792858883E+02  0.93221007537E+02  0.00000000000E+00 0. -1.
        -13    1    3    3    0    0  0.52921980962E+02  0.41081269219E+02 -0.12714797781E+02  0.68191442514E+02  0.00000000000E+00 0.  1.
         13    1    3    3    0    0 -0.37564929786E+02  0.19865805356E+02 -0.23183050512E+02  0.48406900369E+02  0.00000000000E+00 0. -1.
         -2    1    1    2    0  502 -0.18384110644E+02 -0.34609605620E+02 -0.31446414938E+03  0.31689667333E+03  0.00000000000E+00 0.  1.
<scales pt_clust_5="13000.00000" pt_clust_6="13000.00000" pt_clust_7="13000.00000" pt_clust_8="13000.00000" pt_clust_9="39.18929"></scales>
<clustering>
<clus scale="   39.189">  2  9  1 -1</clus>
<clus scale="   83.870">  5  6 -1 -1</clus>
<clus scale="   91.412">  7  8 -1 -1</clus>
<clus scale="   99.576">  2  5  1 -1</clus>
<clus scale="   39.189">  2  5  1 -1</clus>
</clustering>
</event>
<event>
 9    1  0.1504846E-005  0.1067996E+03  0.7546771E-02  0.1268081E+00
         -1   -1    0    0    0  501 -0.00000000000E+00  0.00000000000E+00  0.20367268659E+03  0.20367268659E+03  0.00000000000E+00 0.  1.
         21   -1    0    0  501  502  0.00000000000E+00 -0.00000000000E+00 -0.47016026472E+03  0.47016026472E+03  0.00000000000E+00 0.  1.
         23    2    1    2    0    0  0.18832488665E+02 -0.53667246551E+02  0.17455134403E+03  0.20541653952E+03  0.92157186501E+02 0.  0.
         23    2    1    2    0    0  0.11136548446E+02  0.25464909206E+02 -0.16530989005E+03  0.18963331659E+03  0.88662002583E+02 0.  0.
        -11    1    4    4    0    0  0.40355649966E+02  0.42521058725E+02 -0.95509690527E+02  0.11206569459E+03  0.00000000000E+00 0.  1.
         11    1    4    4    0    0 -0.29219101520E+02 -0.17056149519E+02 -0.69800199523E+02  0.77567622005E+02  0.00000000000E+00 0. -1.
        -11    1    3    3    0    0  0.32290457668E+02 -0.72447222674E+02  0.10160416361E+03  0.12889794332E+03  0.00000000000E+00 0.  1.
         11    1    3    3    0    0 -0.13457969003E+02  0.18779976123E+02  0.72947180420E+02  0.76518596198E+02  0.00000000000E+00 0. -1.
         -1    1    1    2    0  502 -0.29969037111E+02  0.28202337346E+02 -0.27572903211E+03  0.27878309520E+03  0.00000000000E+00 0.  1.
<scales pt_clust_5="13000.00000" pt_clust_6="13000.00000" pt_clust_7="13000.00000" pt_clust_8="13000.00000" pt_clust_9="41.15234"></scales>
<clustering>
<clus scale="   41.152">  2  9  1 -1</clus>
<clus scale="   88.662">  5  6 -1 -1</clus>
<clus scale="   92.157">  7  8 -1 -1</clus>
<clus scale="  103.799">  2  5  1 -1</clus>
<clus scale="   41.152">  2  5  1 -1</clus>
</clustering>
</event>
<event>
 9    1  0.1504846E-005  0.9132299E+02  0.7546771E-02  0.1299738E+00
         21   -1    0    0  501  502  0.00000000000E+00  0.00000000000E+00  0.44303436636E+02  0.44303436636E+02  0.00000000000E+00 0.  1.
          2   -1    0    0  502    0 -0.00000000000E+00 -0.00000000000E+00 -0.36699126852E+03  0.36699126852E+03  0.00000000000E+00 0. -1.
         23    2    1    2    0    0 -0.29294559962E+01 -0.54871563731E+01 -0.25045191003E+03  0.26644397165E+03  0.90705789186E+02 0.  0.
         23    2    1    2    0    0 -0.16086882549E+02  0.26199127502E+02 -0.65456675225E+02  0.11592729899E+03  0.90605630325E+02 0.  0.
        -11    1    4    4    0    0 -0.38236269822E+02  0.44505670199E+02 -0.19696356353E+02  0.61892757762E+02  0.00000000000E+00 0.  1.
         11    1    4    4    0    0  0.22149387272E+02 -0.18306542697E+02 -0.45760318872E+02  0.54034541224E+02  0.00000000000E+00 0. -1.
        -13    1    3    3    0    0 -0.12054098342E+02  0.40970068706E+02 -0.13723348655E+03  0.14372500704E+03  0.00000000000E+00 0.  1.
         13    1    3    3    0    0  0.91246423458E+01 -0.46457225079E+02 -0.11321842348E+03  0.12271896461E+03  0.00000000000E+00 0. -1.
          2    1    1    2  501    0  0.19016338545E+02 -0.20711971129E+02 -0.67792466263E+01  0.28923434522E+02  0.00000000000E+00 0. -1.
<scales pt_clust_5="13000.00000" pt_clust_6="13000.00000" pt_clust_7="13000.00000" pt_clust_8="13000.00000" pt_clust_9="28.11773"></scales>
<clustering>
<clus scale="   28.118">  1  9  2 -1</clus>
<clus scale="   90.606">  5  6 -1 -1</clus>
<clus scale="   90.706">  7  8 -1 -1</clus>
<clus scale="   91.224">  1  5  2 -1</clus>
<clus scale="   28.118">  1  5  2 -1</clus>
</clustering>
</event>
<event>
 9    1  0.1504846E-005  0.2404718E+03  0.7546771E-02  0.1119500E+00
         21   -1    0    0  501  502  0.00000000000E+00  0.00000000000E+00  0.72755214240E+02  0.72755214240E+02  0.00000000000E+00 0.  1.
          2   -1    0    0  502    0 -0.00000000000E+00 -0.00000000000E+00 -0.10423138517E+04  0.10423138517E+04  0.00000000000E+00 0. -1.
         23    2    1    2    0    0 -0.22672428048E+03 -0.13008840102E+02 -0.72270913398E+03  0.76342652104E+03  0.94543277935E+02 0.  0.
         23    2    1    2    0    0  0.20700671772E+03  0.16692635319E+02 -0.23829199372E+03  0.32983466555E+03  0.94219992950E+02 0.  0.
        -11    1    4    4    0    0  0.11671718678E+03 -0.15635723397E+02 -0.72456126874E+02  0.13826520841E+03  0.00000000000E+00 0. -1.
         11    1    4    4    0    0  0.90289530939E+02  0.32328358715E+02 -0.16583586685E+03  0.19156945713E+03  0.00000000000E+00 0.  1.
        -13    1    3    3    0    0 -0.69042727715E+02 -0.44001136648E+02 -0.18707990487E+03  0.20421040395E+03  0.00000000000E+00 0.  1.
         13    1    3    3    0    0 -0.15768155277E+03  0.30992296546E+02 -0.53562922912E+03  0.55921611709E+03  0.00000000000E+00 0. -1.
          2    1    1    2  501    0  0.19717562766E+02 -0.36837952168E+01 -0.85575097580E+01  0.21807879353E+02  0.00000000000E+00 0. -1.
<scales pt_clust_5="13000.00000" pt_clust_6="13000.00000" pt_clust_7="13000.00000" pt_clust_8="13000.00000" pt_clust_9="20.05873"></scales>
<clustering>
<clus scale="   20.059">  1  9  2 -1</clus>
<clus scale="   94.220">  5  6 -1 -1</clus>
<clus scale="   94.543">  7  8 -1 -1</clus>
<clus scale="  240.345">  1  5  2 -1</clus>
<clus scale="   20.059">  1  5  2 -1</clus>
</clustering>
</event>
<event>
 9    1  0.1504846E-005  0.1399827E+03  0.7546771E-02  0.1213965E+00
         21   -1    0    0  501  502  0.00000000000E+00  0.00000000000E+00  0.64604775729E+02  0.64604775729E+02  0.00000000000E+00 0. -1.
         -1   -1    0    0    0  501 -0.00000000000E+00 -0.00000000000E+00 -0.39369459732E+03  0.39369459732E+03  0.00000000000E+00 0.  1.
         23    2    1    2    0    0  0.83266075356E+02 -0.48624914197E+02 -0.17273085003E+03  0.21840754043E+03  0.92565034328E+02 0.  0.
         23    2    1    2    0    0 -0.91833350249E+02  0.77093740891E+02 -0.11451353549E+03  0.18856043080E+03  0.89804661070E+02 0.  0.
        -11    1    3    3    0    0  0.77969587311E+02 -0.21368598475E+02 -0.17265056873E+03  0.19064126633E+03  0.00000000000E+00 0.  1.
         11    1    3    3    0    0  0.52964880453E+01 -0.27256315722E+02 -0.80281299679E-01  0.27766274101E+02  0.00000000000E+00 0. -1.
        -13    1    4    4    0    0 -0.78117610514E+02  0.97166979818E+02 -0.10271611255E+03  0.16153755853E+03  0.00000000000E+00 0. -1.
         13    1    4    4    0    0 -0.13715739735E+02 -0.20073238927E+02 -0.11797422943E+02  0.27022872268E+02  0.00000000000E+00 0.  1.
         -1    1    1    2    0  502  0.85672748928E+01 -0.28468826694E+02 -0.41845436077E+02  0.51331401821E+02  0.00000000000E+00 0.  1.
<scales pt_clust_5="13000.00000" pt_clust_6="13000.00000" pt_clust_7="13000.00000" pt_clust_8="13000.00000" pt_clust_9="29.73000"></scales>
<clustering>
<clus scale="   29.730">  1  9  2 -1</clus>
<clus scale="   89.805">  7  8 -1 -1</clus>
<clus scale="   92.565">  5  6 -1 -1</clus>
<clus scale="  138.173">  1  7  2 -1</clus>
<clus scale="   29.730">  1  5  2 -1</clus>
</clustering>
</event>
<event>
 9    1  0.1504846E-005  0.9460377E+02  0.7546771E-02  0.1294808E+00
         21   -1    0    0  501  502  0.00000000000E+00  0.00000000000E+00  0.44689806973E+03  0.44689806973E+03  0.00000000000E+00 0. -1.
          3   -1    0    0  502    0 -0.00000000000E+00 -0.00000000000E+00 -0.10629490578E+03  0.10629490578E+03  0.00000000000E+00 0. -1.
         23    2    1    2    0    0  0.24194660328E+02 -0.24582628983E+01 -0.59613688455E+02  0.11039168538E+03  0.89672223704E+02 0.  0.
         23    2    1    2    0    0 -0.67775854838E+02 -0.20653333639E+02  0.14183165859E+03  0.17974925196E+03  0.84696207190E+02 0.  0.
        -13    1    4    4    0    0 -0.32726214964E+02 -0.34001027301E+02  0.13313141569E+03  0.14124818174E+03  0.00000000000E+00 0.  1.
         13    1    4    4    0    0 -0.35049639874E+02  0.13347693662E+02  0.87002429082E+01  0.38501070219E+02  0.00000000000E+00 0. -1.
        -13    1    3    3    0    0  0.24267502648E+01 -0.22993659409E+02 -0.73754132233E+02  0.77293398885E+02  0.00000000000E+00 0.  1.
         13    1    3    3    0    0  0.21767910064E+02  0.20535396510E+02  0.14140443778E+02  0.33098286491E+02  0.00000000000E+00 0. -1.
          3    1    1    2  501    0  0.43581194509E+02  0.23111596537E+02  0.25838519381E+03  0.26305203817E+03  0.00000000000E+00 0. -1.
<scales pt_clust_5="13000.00000" pt_clust_6="13000.00000" pt_clust_7="13000.00000" pt_clust_8="13000.00000" pt_clust_9="49.33018"></scales>
<clustering>
<clus scale="   49.330">  1  9  2 -1</clus>
<clus scale="   84.696">  5  6 -1 -1</clus>
<clus scale="   89.672">  7  8 -1 -1</clus>
<clus scale="   89.901">  1  5  2 -1</clus>
<clus scale="   49.330">  1  5  2 -1</clus>
</clustering>
</event>
<event>
 9    1  0.1504846E-005  0.1225384E+03  0.7546771E-02  0.1239925E+00
          1   -1    0    0  502    0 -0.00000000000E+00  0.00000000000E+00  0.73878131205E+02  0.73878131205E+02  0.00000000000E+00 0. -1.
         21   -1    0    0  501  502  0.00000000000E+00 -0.00000000000E+00 -0.29192572651E+03  0.29192572651E+03  0.00000000000E+00 0. -1.
         23    2    1    2    0    0  0.76321796577E+02  0.33237972152E+02 -0.23920117419E+02  0.12804232183E+03  0.94302092962E+02 0.  0.
         23    2    1    2    0    0 -0.54475245099E+02 -0.40957698187E+02 -0.15574034707E+03  0.19292363012E+03  0.91210668136E+02 0.  0.
        -11    1    3    3    0    0  0.52728119849E+02  0.27960217476E+02 -0.59988500815E+02  0.84620615775E+02  0.00000000000E+00 0. -1.
         11    1    3    3    0    0  0.23593676728E+02  0.52777546763E+01  0.36068383397E+02  0.43421706056E+02  0.00000000000E+00 0.  1.
        -13    1    4    4    0    0 -0.39309926997E+01 -0.40259730583E+02 -0.13009989359E+03  0.13624346194E+03  0.00000000000E+00 0. -1.
         13    1    4    4    0    0 -0.50544252399E+02 -0.69796760328E+00 -0.25640453482E+02  0.56680168173E+02  0.00000000000E+00 0.  1.
          1    1    1    2  501    0 -0.21846551478E+02  0.77197260345E+01 -0.38387130818E+02  0.44837905771E+02  0.00000000000E+00 0. -1.
<scales pt_clust_5="13000.00000" pt_clust_6="13000.00000" pt_clust_7="13000.00000" pt_clust_8="13000.00000" pt_clust_9="23.17037"></scales>
<clustering>
<clus scale="   23.170">  2  9  1 -1</clus>
<clus scale="   91.211">  7  8 -1 -1</clus>
<clus scale="   94.302">  5  6 -1 -1</clus>
<clus scale="  120.176">  2  7  1 -1</clus>
<clus scale="   23.170">  2  5  1 -1</clus>
</clustering>
</event>
<event>
 9    1  0.1504846E-005  0.9782777E+02  0.7546771E-02  0.1285539E+00
          1   -1    0    0  502    0 -0.00000000000E+00  0.00000000000E+00  0.68828963063E+03  0.68828963063E+03  0.00000000000E+00 0. -1.
         21   -1    0    0  501  502  0.00000000000E+00 -0.00000000000E+00 -0.21833738350E+02  0.21833738350E+02  0.00000000000E+00 0. -1.
         23    2    1    2    0    0 -0.72340849205E+00  0.27886192187E+02  0.44970941540E+03  0.46033977399E+03  0.94318535711E+02 0.  0.
         23    2    1    2    0    0 -0.10390957967E+02 -0.71072711650E+01  0.19605468537E+03  0.21842370124E+03  0.95461973034E+02 0.  0.
        -11    1    4    4    0    0  0.11334375332E+02 -0.48286839411E+02  0.10679201388E+03  0.11774812590E+03  0.00000000000E+00 0.  1.
         11    1    4    4    0    0 -0.21725333298E+02  0.41179568246E+02  0.89262671492E+02  0.10067557534E+03  0.00000000000E+00 0. -1.
        -13    1    3    3    0    0  0.45643775273E+02  0.42702040246E+01  0.23341795515E+03  0.23787713352E+03  0.00000000000E+00 0.  1.
         13    1    3    3    0    0 -0.46367183765E+02  0.23615988163E+02  0.21629146025E+03  0.22246264047E+03  0.00000000000E+00 0. -1.
          1    1    1    2  501    0  0.11114366459E+02 -0.20778921022E+02  0.20691791506E+02  0.31359893755E+02  0.00000000000E+00 0. -1.
<scales pt_clust_5="13000.00000" pt_clust_6="13000.00000" pt_clust_7="13000.00000" pt_clust_8="13000.00000" pt_clust_9="23.56465"></scales>
<clustering>
<clus scale="   23.565">  2  9  1 -1</clus>
<clus scale="   94.319">  7  8 -1 -1</clus>
<clus scale="   95.462">  5  6 -1 -1</clus>
<clus scale="   96.712">  1  7  2 -1</clus>
<clus scale="   23.565">  2  5  1 -1</clus>
</clustering>
</event>
<event>
 9    1  0.1504846E-005  0.9369610E+02  0.7546771E-02  0.1294628E+00
         21   -1    0    0  501  502  0.00000000000E+00  0.00000000000E+00  0.36419134380E+03  0.36419134380E+03  0.00000000000E+00 0. -1.
         -1   -1    0    0    0  501 -0.00000000000E+00 -0.00000000000E+00 -0.37258972289E+02  0.37258972289E+02  0.00000000000E+00 0.  1.
         23    2    1    2    0    0 -0.20510812352E+02 -0.12498771134E+02  0.10202493231E+03  0.13819762169E+03  0.90069879120E+02 0.  0.
         23    2    1    2    0    0  0.19782565489E+01  0.26661366512E+02  0.10651774668E+03  0.14258723112E+03  0.90941443567E+02 0.  0.
        -11    1    3    3    0    0  0.22209427120E+02 -0.15484057212E+02 -0.50997384674E+00  0.27079046402E+02  0.00000000000E+00 0.  1.
         11    1    3    3    0    0 -0.42720239471E+02  0.29852860781E+01  0.10253490616E+03  0.11111857529E+03  0.00000000000E+00 0. -1.
        -11    1    4    4    0    0  0.27931478661E+02 -0.19377000338E+02  0.71553993088E+02  0.79218745062E+02  0.00000000000E+00 0. -1.
         11    1    4    4    0    0 -0.25953222112E+02  0.46038366851E+02  0.34963753590E+02  0.63368486059E+02  0.00000000000E+00 0.  1.
         -1    1    1    2    0  502  0.18532555803E+02 -0.14162595379E+02  0.11838969252E+03  0.12066546328E+03  0.00000000000E+00 0.  1.
<scales pt_clust_5="13000.00000" pt_clust_6="13000.00000" pt_clust_7="13000.00000" pt_clust_8="13000.00000" pt_clust_9="23.32455"></scales>
<clustering>
<clus scale="   23.325">  1  9  2 -1</clus>
<clus scale="   90.070">  5  6 -1 -1</clus>
<clus scale="   90.941">  7  8 -1 -1</clus>
<clus scale="   92.850">  2  5  1 -1</clus>
<clus scale="   23.325">  1  5  2 -1</clus>
</clustering>
</event>
<event>
 9    1  0.1504846E-005  0.1648515E+03  0.7546771E-02  0.1200728E+00
         21   -1    0    0  501  502  0.00000000000E+00  0.00000000000E+00  0.26942203069E+03  0.26942203069E+03  0.00000000000E+00 0. -1.
          1   -1    0    0  502    0 -0.00000000000E+00 -0.00000000000E+00 -0.16921551953E+03  0.16921551953E+03  0.00000000000E+00 0. -1.
         23    2    1    2    0    0  0.61207654478E+02 -0.37346408535E+02  0.55106386511E+02  0.12516356615E+03  0.86533653919E+02 0.  0.
         23    2    1    2    0    0  0.18476627101E+02  0.14719483475E+03  0.28291100774E+02  0.17673041107E+03  0.91790776708E+02 0.  0.
        -11    1    3    3    0    0  0.80571597392E+02 -0.14731444456E+02  0.46434325258E+02  0.94153833295E+02  0.00000000000E+00 0. -1.
         11    1    3    3    0    0 -0.19363942914E+02 -0.22614964079E+02  0.86720612525E+01  0.31009732857E+02  0.00000000000E+00 0.  1.
        -13    1    4    4    0    0 -0.37153789498E+02  0.47738620771E+02  0.10110447792E+02  0.61331893348E+02  0.00000000000E+00 0. -1.
         13    1    4    4    0    0  0.55630416599E+02  0.99456213978E+02  0.18180652983E+02  0.11539851772E+03  0.00000000000E+00 0.  1.
          1    1    1    2  501    0 -0.79684281579E+02 -0.10984842621E+03  0.16809023870E+02  0.13674357300E+03  0.00000000000E+00 0. -1.
<scales pt_clust_5="13000.00000" pt_clust_6="13000.00000" pt_clust_7="13000.00000" pt_clust_8="13000.00000" pt_clust_9="136.93236"></scales>
<clustering>
<clus scale="   86.534">  5  6 -1 -1</clus>
<clus scale="   91.791">  7  8 -1 -1</clus>
<clus scale="  112.380">  2  5  1 -1</clus>
<clus scale="  136.932">  1  9  2 -1</clus>
<clus scale="  136.932">  1  5  2 -1</clus>
</clustering>
</event>
<event>
 9    1  0.1504846E-005  0.1726714E+03  0.7546771E-02  0.1175178E+00
          2   -1    0    0  502    0 -0.00000000000E+00  0.00000000000E+00  0.41189409842E+02  0.41189409842E+02  0.00000000000E+00 0. -1.
         21   -1    0    0  501  502  0.00000000000E+00 -0.00000000000E+00 -0.10834818515E+04  0.10834818515E+04  0.00000000000E+00 0.  1.
         23    2    1    2    0    0  0.84738952050E+02  0.11881456358E+03 -0.30767499161E+03  0.35272425632E+03  0.91939708602E+02 0.  0.
         23    2    1    2    0    0 -0.60774868001E+02 -0.13565332299E+03 -0.71667506255E+03  0.73759951005E+03  0.91293391531E+02 0.  0.
        -11    1    3    3    0    0  0.92128225097E+02  0.64651759863E+02 -0.24463755821E+03  0.26928608356E+03  0.00000000000E+00 0.  1.
         11    1    3    3    0    0 -0.73892730463E+01  0.54162803722E+02 -0.63037433400E+02  0.83438172756E+02  0.00000000000E+00 0. -1.
        -13    1    4    4    0    0  0.94707152592E+01 -0.68869762286E+02 -0.41364351302E+03  0.41944450702E+03  0.00000000000E+00 0.  1.
         13    1    4    4    0    0 -0.70245583260E+02 -0.66783560707E+02 -0.30303154953E+03  0.31815500304E+03  0.00000000000E+00 0. -1.
          2    1    1    2  501    0 -0.23964084049E+02  0.16838759408E+02 -0.17942387541E+02  0.34347495009E+02  0.00000000000E+00 0. -1.
<scales pt_clust_5="13000.00000" pt_clust_6="13000.00000" pt_clust_7="13000.00000" pt_clust_8="13000.00000" pt_clust_9="29.28860"></scales>
<clustering>
<clus scale="   29.289">  2  9  1 -1</clus>
<clus scale="   91.293">  7  8 -1 -1</clus>
<clus scale="   91.940">  5  6 -1 -1</clus>
<clus scale="  172.328">  2  7  1 -1</clus>
<clus scale="   29.289">  2  5  1 -1</clus>
</clustering>
</event>
<event>
 9    1  0.1504846E-005  0.9700374E+02  0.7546771E-02  0.1287323E+00
         21   -1    0    0  501  502  0.00000000000E+00  0.00000000000E+00  0.16770592314E+03  0.16770592314E+03  0.00000000000E+00 0. -1.
         -1   -1    0    0    0  501 -0.00000000000E+00 -0.00000000000E+00 -0.10504247891E+03  0.10504247891E+03  0.00000000000E+00 0.  1.
         23    2    1    2    0    0  0.28489589767E+02 -0.12145117438E+02 -0.18925981348E+02  0.98331075126E+02  0.91387345747E+02 0.  0.
         23    2    1    2    0    0 -0.42566152074E+02 -0.13064753696E+02  0.98621162675E+02  0.14089468864E+03  0.90236436474E+02 0.  0.
        -13    1    4    4    0    0 -0.16223012377E+02 -0.14122461928E+02 -0.13712888091E+02  0.25508299851E+02  0.00000000000E+00 0.  1.
         13    1    4    4    0    0 -0.26343139697E+02  0.10577082323E+01  0.11233405077E+03  0.11538638879E+03  0.00000000000E+00 0. -1.
        -13    1    3    3    0    0  0.13888808257E+02 -0.52106700006E+02 -0.11601865283E+02  0.55159862748E+02  0.00000000000E+00 0.  1.
         13    1    3    3    0    0  0.14600781510E+02  0.39961582568E+02 -0.73241160651E+01  0.43171212378E+02  0.00000000000E+00 0. -1.
         -1    1    1    2    0  502  0.14076562307E+02  0.25209871134E+02 -0.17031737098E+02  0.33522638284E+02  0.00000000000E+00 0.  1.
<scales pt_clust_5="13000.00000" pt_clust_6="13000.00000" pt_clust_7="13000.00000" pt_clust_8="13000.00000" pt_clust_9="28.87366"></scales>
<clustering>
<clus scale="   28.874">  1  9  2 -1</clus>
<clus scale="   90.236">  5  6 -1 -1</clus>
<clus scale="   91.387">  7  8 -1 -1</clus>
<clus scale="   95.920">  1  5  2 -1</clus>
<clus scale="   28.874">  1  5  2 -1</clus>
</clustering>
</event>
<event>
 9    1  0.1504846E-005  0.1315894E+03  0.7546771E-02  0.1225171E+00
          1   -1    0    0  502    0 -0.00000000000E+00  0.00000000000E+00  0.40359238838E+03  0.40359238838E+03  0.00000000000E+00 0. -1.
         21   -1    0    0  501  502  0.00000000000E+00 -0.00000000000E+00 -0.16268153738E+03  0.16268153738E+03  0.00000000000E+00 0.  1.
         23    2    1    2    0    0  0.95237735412E+02 -0.10270024936E+01  0.35282998722E+03  0.37678757475E+03  0.91698394892E+02 0.  0.
         23    2    1    2    0    0 -0.86056006354E+02 -0.19945901282E+02 -0.80134871214E+02  0.15031485189E+03  0.91484872564E+02 0.  0.
        -11    1    3    3    0    0  0.32621315837E+02  0.24318753765E+02  0.41143373235E+02  0.57864749138E+02  0.00000000000E+00 0.  1.
         11    1    3    3    0    0  0.62616419575E+02 -0.25345756259E+02  0.31168661398E+03  0.31892282561E+03  0.00000000000E+00 0. -1.
        -13    1    4    4    0    0  0.17297619562E+02 -0.15820249098E+02 -0.10939738244E+02  0.25868239153E+02  0.00000000000E+00 0. -1.
         13    1    4    4    0    0 -0.10335362592E+03 -0.41256521840E+01 -0.69195132969E+02  0.12444661274E+03  0.00000000000E+00 0.  1.
          1    1    1    2  501    0 -0.91817290587E+01  0.20972903776E+02 -0.31784265001E+02  0.39171499116E+02  0.00000000000E+00 0. -1.
<scales pt_clust_5="13000.00000" pt_clust_6="13000.00000" pt_clust_7="13000.00000" pt_clust_8="13000.00000" pt_clust_9="22.89469"></scales>
<clustering>
<clus scale="   22.895">  2  9  1 -1</clus>
<clus scale="   91.485">  7  8 -1 -1</clus>
<clus scale="   91.698">  5  6 -1 -1</clus>
<clus scale="  131.441">  2  7  1 -1</clus>
<clus scale="   22.895">  2  5  1 -1</clus>
</clustering>
</event>
<event>
 9    1  0.1504846E-005  0.9781890E+02  0.7546771E-02  0.1286865E+00
         21   -1    0    0  501  502  0.00000000000E+00  0.00000000000E+00  0.11548405771E+03  0.11548405771E+03  0.00000000000E+00 0. -1.
          2   -1    0    0  502    0 -0.00000000000E+00 -0.00000000000E+00 -0.21016878871E+03  0.21016878871E+03  0.00000000000E+00 0. -1.
         23    2    1    2    0    0  0.30838747216E+02  0.14859088061E+02 -0.10021020989E+03  0.14091455205E+03  0.92967757781E+02 0.  0.
         23    2    1    2    0    0 -0.13403353261E+02 -0.26068090229E+02 -0.62992153059E+02  0.11315407417E+03  0.89312025777E+02 0.  0.
        -11    1    3    3    0    0 -0.34880255392E+01  0.49097088423E+02 -0.62134134119E+02  0.79267528261E+02  0.00000000000E+00 0. -1.
         11    1    3    3    0    0  0.34326772755E+02 -0.34238000362E+02 -0.38076075767E+02  0.61647023792E+02  0.00000000000E+00 0.  1.
        -13    1    4    4    0    0  0.19766544120E+02 -0.48038517414E+02 -0.23226519259E+02  0.56902430692E+02  0.00000000000E+00 0.  1.
         13    1    4    4    0    0 -0.33169897381E+02  0.21970427185E+02 -0.39765633801E+02  0.56251643483E+02  0.00000000000E+00 0. -1.
          2    1    1    2  501    0 -0.17435393955E+02  0.11209002167E+02  0.68517631949E+02  0.71584220188E+02  0.00000000000E+00 0. -1.
<scales pt_clust_5="13000.00000" pt_clust_6="13000.00000" pt_clust_7="13000.00000" pt_clust_8="13000.00000" pt_clust_9="20.72763"></scales>
<clustering>
<clus scale="   20.728">  1  9  2 -1</clus>
<clus scale="   89.312">  7  8 -1 -1</clus>
<clus scale="   92.968">  5  6 -1 -1</clus>
<clus scale="   94.351">  1  7  2 -1</clus>
<clus scale="   20.728">  1  5  2 -1</clus>
</clustering>
</event>
<event>
 9    1  0.1504846E-005  0.1120036E+03  0.7546771E-02  0.1257601E+00
          1   -1    0    0  502    0 -0.00000000000E+00  0.00000000000E+00  0.51530963800E+03  0.51530963800E+03  0.00000000000E+00 0. -1.
         21   -1    0    0  501  502  0.00000000000E+00 -0.00000000000E+00 -0.11151362718E+03  0.11151362718E+03  0.00000000000E+00 0. -1.
         23    2    1    2    0    0 -0.27284673390E+02 -0.49232430142E+02  0.32419928429E+03  0.34104805231E+03  0.89667789494E+02 0.  0.
         23    2    1    2    0    0  0.19831098482E+02  0.86967044804E+02  0.15513477268E+03  0.20100815948E+03  0.91547491125E+02 0.  0.
        -13    1    4    4    0    0 -0.12977911893E+02  0.55606055733E+02  0.23462035577E+02  0.61732704013E+02  0.00000000000E+00 0.  1.
         13    1    4    4    0    0  0.32809010375E+02  0.31360989070E+02  0.13167273711E+03  0.13927545546E+03  0.00000000000E+00 0. -1.
        -13    1    3    3    0    0 -0.19003648263E+02 -0.75534356298E+02  0.22568419723E+03  0.23874659057E+03  0.00000000000E+00 0. -1.
         13    1    3    3    0    0 -0.82810251269E+01  0.26301926156E+02  0.98515087060E+02  0.10230146174E+03  0.00000000000E+00 0.  1.
          1    1    1    2  501    0  0.74535749079E+01 -0.37734614662E+02 -0.75538046157E+02  0.84767053386E+02  0.00000000000E+00 0. -1.
<scales pt_clust_5="13000.00000" pt_clust_6="13000.00000" pt_clust_7="13000.00000" pt_clust_8="13000.00000" pt_clust_9="38.46371"></scales>
<clustering>
<clus scale="   38.464">  2  9  1 -1</clus>
<clus scale="   89.668">  7  8 -1 -1</clus>
<clus scale="   91.547">  5  6 -1 -1</clus>
<clus scale="  110.473">  1  7  2 -1</clus>
<clus scale="   38.464">  2  5  1 -1</clus>
</clustering>
</event>
<event>
 9    1  0.1504846E-005  0.1523114E+03  0.7546771E-02  0.1198333E+00
          1   -1    0    0  502    0 -0.00000000000E+00  0.00000000000E+00  0.34858946568E+03  0.34858946568E+03  0.00000000000E+00 0. -1.
         21   -1    0    0  501  502  0.00000000000E+00 -0.00000000000E+00 -0.10902691978E+03  0.10902691978E+03  0.00000000000E+00 0.  1.
         23    2    1    2    0    0  0.85155396961E+02 -0.94962497321E+02  0.15823237832E+03  0.22243837221E+03  0.90399260805E+02 0.  0.
         23    2    1    2    0    0 -0.99122431406E+02  0.56712485291E+02  0.11087516592E+03  0.18486848733E+03  0.94029212456E+02 0.  0.
        -11    1    3    3    0    0  0.18699565168E+02 -0.86864448729E+02  0.81058107038E+02  0.12027270225E+03  0.00000000000E+00 0. -1.
         11    1    3    3    0    0  0.66455831792E+02 -0.80980485916E+01  0.77174271279E+02  0.10216566996E+03  0.00000000000E+00 0.  1.
        -13    1    4    4    0    0 -0.28239989669E+02  0.64125780403E+02  0.27723789758E+02  0.75353973003E+02  0.00000000000E+00 0.  1.
         13    1    4    4    0    0 -0.70882441737E+02 -0.74132951122E+01  0.83151376164E+02  0.10951451433E+03  0.00000000000E+00 0. -1.
          1    1    1    2  501    0  0.13967034445E+02  0.38250012030E+02 -0.29544998341E+02  0.50309525921E+02  0.00000000000E+00 0. -1.
<scales pt_clust_5="13000.00000" pt_clust_6="13000.00000" pt_clust_7="13000.00000" pt_clust_8="13000.00000" pt_clust_9="40.72028"></scales>
<clustering>
<clus scale="   40.720">  2  9  1 -1</clus>
<clus scale="   90.399">  5  6 -1 -1</clus>
<clus scale="   94.029">  7  8 -1 -1</clus>
<clus scale="  150.098">  1  5  2 -1</clus>
<clus scale="   40.720">  2  5  1 -1</clus>
</clustering>
</event>
<event>
 9    1  0.1504846E-005  0.1616324E+03  0.7546771E-02  0.1188600E+00
          1   -1    0    0  502    0 -0.00000000000E+00  0.00000000000E+00  0.92101882982E+03  0.92101882982E+03  0.00000000000E+00 0. -1.
         21   -1    0    0  501  502  0.00000000000E+00 -0.00000000000E+00 -0.67183841462E+02  0.67183841462E+02  0.00000000000E+00 0. -1.
         23    2    1    2    0    0 -0.46812697078E+02  0.14795956881E+03  0.56155618208E+03  0.58976060117E+03  0.91590165720E+02 0.  0.
         23    2    1    2    0    0  0.49468203051E+02 -0.10005110313E+03  0.31621279286E+03  0.34482203179E+03  0.80339136718E+02 0.  0.
        -11    1    4    4    0    0  0.11369734447E+01 -0.84311434401E+02  0.22686416668E+03  0.24202698363E+03  0.00000000000E+00 0.  1.
         11    1    4    4    0    0  0.48331229606E+02 -0.15739668734E+02  0.89348626180E+02  0.10279504817E+03  0.00000000000E+00 0. -1.
        -13    1    3    3    0    0 -0.80782738293E+01  0.93146745077E+02  0.18515443662E+03  0.20742164792E+03  0.00000000000E+00 0.  1.
         13    1    3    3    0    0 -0.38734423249E+02  0.54812823732E+02  0.37640174545E+03  0.38233895325E+03  0.00000000000E+00 0. -1.
          1    1    1    2  501    0 -0.26555059729E+01 -0.47908465675E+02 -0.23933986581E+02  0.53620038316E+02  0.00000000000E+00 0. -1.
<scales pt_clust_5="13000.00000" pt_clust_6="13000.00000" pt_clust_7="13000.00000" pt_clust_8="13000.00000" pt_clust_9="47.98200"></scales>
<clustering>
<clus scale="   47.982">  2  9  1 -1</clus>
<clus scale="   80.339">  5  6 -1 -1</clus>
<clus scale="   91.590">  7  8 -1 -1</clus>
<clus scale="  155.533">  2  5  1 -1</clus>
<clus scale="   47.982">  2  5  1 -1</clus>
</clustering>
</event>
<event>
 9    1  0.1504846E-005  0.1829586E+03  0.7546771E-02  0.1165317E+00
          2   -1    0    0  502    0 -0.00000000000E+00  0.00000000000E+00  0.60944367940E+03  0.60944367940E+03  0.00000000000E+00 0. -1.
         21   -1    0    0  501  502  0.00000000000E+00 -0.00000000000E+00 -0.12408361044E+03  0.12408361044E+03  0.00000000000E+00 0. -1.
         23    2    1    2    0    0 -0.17472379822E+03  0.10997573141E+02  0.32491444580E+03  0.37997409259E+03  0.90341361900E+02 0.  0.
         23    2    1    2    0    0  0.10965265046E+03 -0.11844713037E+03  0.12817120353E+03  0.22385624362E+03  0.87351782754E+02 0.  0.
        -11    1    4    4    0    0  0.25184190051E+02 -0.74852108076E+02  0.94171061441E+02  0.12290350005E+03  0.00000000000E+00 0. -1.
         11    1    4    4    0    0  0.84468460413E+02 -0.43595022292E+02  0.34000142085E+02  0.10095274357E+03  0.00000000000E+00 0.  1.
        -11    1    3    3    0    0 -0.12220051257E+03  0.24187145281E+02  0.28978014754E+03  0.31542117427E+03  0.00000000000E+00 0. -1.
         11    1    3    3    0    0 -0.52523285658E+02 -0.13189572140E+02  0.35134298254E+02  0.64552918318E+02  0.00000000000E+00 0.  1.
          2    1    1    2  501    0  0.65071147760E+02  0.10744955723E+03  0.32274419637E+02  0.12969695363E+03  0.00000000000E+00 0. -1.
<scales pt_clust_5="13000.00000" pt_clust_6="13000.00000" pt_clust_7="13000.00000" pt_clust_8="13000.00000" pt_clust_9="125.61712"></scales>
<clustering>
<clus scale="   87.352">  5  6 -1 -1</clus>
<clus scale="   90.341">  7  8 -1 -1</clus>
<clus scale="  125.617">  2  9  1 -1</clus>
<clus scale="  181.501">  2  5  1 -1</clus>
<clus scale="  125.617">  2  5  1 -1</clus>
</clustering>
</event>
<event>
 9    1  0.1504846E-005  0.1035620E+03  0.7546771E-02  0.1275217E+00
          1   -1    0    0  502    0 -0.00000000000E+00  0.00000000000E+00  0.52185371230E+03  0.52185371230E+03  0.00000000000E+00 0. -1.
         21   -1    0    0  501  502  0.00000000000E+00 -0.00000000000E+00 -0.27950339658E+02  0.27950339658E+02  0.00000000000E+00 0.  1.
         23    2    1    2    0    0 -0.35473702612E+02 -0.27203780828E+02  0.33401828333E+03  0.34902195573E+03  0.90827764002E+02 0.  0.
         23    2    1    2    0    0  0.30622533166E+02  0.70778667647E+01  0.13614285363E+03  0.16928161977E+03  0.95569631485E+02 0.  0.
        -13    1    4    4    0    0  0.46156820053E+02 -0.91951646282E+01  0.13886186578E+03  0.14662066995E+03  0.00000000000E+00 0. -1.
         13    1    4    4    0    0 -0.15534286886E+02  0.16273031393E+02 -0.27190121443E+01  0.22660949822E+02  0.00000000000E+00 0.  1.
        -13    1    3    3    0    0 -0.59869161688E+02 -0.19066576721E+02  0.29925689965E+03  0.30578185502E+03  0.00000000000E+00 0. -1.
         13    1    3    3    0    0  0.24395459076E+02 -0.81372041072E+01  0.34761383677E+02  0.43240100710E+02  0.00000000000E+00 0.  1.
          1    1    1    2  501    0  0.48511694455E+01  0.20125914064E+02  0.23742235681E+02  0.31500476457E+02  0.00000000000E+00 0. -1.
<scales pt_clust_5="13000.00000" pt_clust_6="13000.00000" pt_clust_7="13000.00000" pt_clust_8="13000.00000" pt_clust_9="20.70233"></scales>
<clustering>
<clus scale="   20.702">  2  9  1 -1</clus>
<clus scale="   90.828">  7  8 -1 -1</clus>
<clus scale="   95.570">  5  6 -1 -1</clus>
<clus scale="   99.203">  1  7  2 -1</clus>
<clus scale="   20.702">  2  5  1 -1</clus>
</clustering>
</event>
<event>
 9    1  0.1504846E-005  0.9710093E+02  0.7546771E-02  0.1286519E+00
         -3   -1    0    0    0  501 -0.00000000000E+00  0.00000000000E+00  0.34973484693E+03  0.34973484693E+03  0.00000000000E+00 0.  1.
         21   -1    0    0  501  502  0.00000000000E+00 -0.00000000000E+00 -0.53868846124E+02  0.53868846124E+02  0.00000000000E+00 0.  1.
         23    2    1    2    0    0 -0.34124354633E+01  0.31294921128E+02  0.24410056368E+03  0.26319812123E+03  0.93258506460E+02 0.  0.
         23    2    1    2    0    0  0.14760336647E+02 -0.12903985644E+02  0.64740491591E+02  0.11519935418E+03  0.93247946732E+02 0.  0.
        -13    1    3    3    0    0 -0.28988764858E+02  0.45400572352E+02  0.79526130802E+02  0.96051891903E+02  0.00000000000E+00 0.  1.
         13    1    3    3    0    0  0.25576329394E+02 -0.14105651224E+02  0.16457443288E+03  0.16714622933E+03  0.00000000000E+00 0. -1.
        -13    1    4    4    0    0 -0.19946181781E+02 -0.37930796380E+02  0.71420715304E+01  0.43446572563E+02  0.00000000000E+00 0. -1.
         13    1    4    4    0    0  0.34706518428E+02  0.25026810736E+02  0.57598420061E+02  0.71752781622E+02  0.00000000000E+00 0.  1.
         -3    1    1    2    0  502 -0.11347901183E+02 -0.18390935483E+02 -0.12975054465E+02  0.25206217638E+02  0.00000000000E+00 0.  1.
<scales pt_clust_5="13000.00000" pt_clust_6="13000.00000" pt_clust_7="13000.00000" pt_clust_8="13000.00000" pt_clust_9="21.61021"></scales>
<clustering>
<clus scale="   21.610">  2  9  1 -1</clus>
<clus scale="   93.248">  7  8 -1 -1</clus>
<clus scale="   93.259">  5  6 -1 -1</clus>
<clus scale="   97.091">  2  7  1 -1</clus>
<clus scale="   21.610">  2  5  1 -1</clus>
</clustering>
</event>
<event>
 9    1  0.1504846E-005  0.1241573E+03  0.7546771E-02  0.1236708E+00
         -1   -1    0    0    0  501 -0.00000000000E+00  0.00000000000E+00  0.46644208766E+03  0.46644208766E+03  0.00000000000E+00 0.  1.
         21   -1    0    0  501  502  0.00000000000E+00 -0.00000000000E+00 -0.21522780928E+03  0.21522780928E+03  0.00000000000E+00 0.  1.
         23    2    1    2    0    0  0.93619099446E+02  0.15583060513E+02  0.33077411435E+03  0.35638627397E+03  0.92694627669E+02 0.  0.
         23    2    1    2    0    0 -0.57349009577E+02  0.43242153951E+02  0.86749690642E+02  0.14518702691E+03  0.91624075316E+02 0.  0.
        -13    1    3    3    0    0  0.34666949157E+02 -0.22918008538E+02  0.22831236220E+03  0.23206371369E+03  0.00000000000E+00 0.  1.
         13    1    3    3    0    0  0.58952150289E+02  0.38501069051E+02  0.10246175214E+03  0.12432256028E+03  0.00000000000E+00 0. -1.
        -13    1    4    4    0    0 -0.23163040871E+02 -0.68928239833E+01  0.80658308515E+02  0.84200951404E+02  0.00000000000E+00 0. -1.
         13    1    4    4    0    0 -0.34185968706E+02  0.50134977934E+02  0.60913821264E+01  0.60986075501E+02  0.00000000000E+00 0.  1.
         -1    1    1    2    0  502 -0.36270089869E+02 -0.58825214465E+02 -0.16630952660E+03  0.18009659607E+03  0.00000000000E+00 0.  1.
<scales pt_clust_5="13000.00000" pt_clust_6="13000.00000" pt_clust_7="13000.00000" pt_clust_8="13000.00000" pt_clust_9="69.10807"></scales>
<clustering>
<clus scale="   69.108">  2  9  1 -1</clus>
<clus scale="   91.624">  7  8 -1 -1</clus>
<clus scale="   92.695">  5  6 -1 -1</clus>
<clus scale="  123.360">  2  7  1 -1</clus>
<clus scale="   69.108">  2  5  1 -1</clus>
</clustering>
</event>
<event>
 9    1  0.1504846E-005  0.1082125E+03  0.7546771E-02  0.1264741E+00
         -3   -1    0    0    0  501 -0.00000000000E+00  0.00000000000E+00  0.54236391100E+03  0.54236391100E+03  0.00000000000E+00 0.  1.
         21   -1    0    0  501  502  0.00000000000E+00 -0.00000000000E+00 -0.33029388246E+02  0.33029388246E+02  0.00000000000E+00 0. -1.
         23    2    1    2    0    0 -0.69476738063E+02 -0.80469495758E+01  0.28844847327E+03  0.31126803482E+03  0.93773648962E+02 0.  0.
         23    2    1    2    0    0  0.29398071174E+02  0.26568028064E+02  0.16477657047E+03  0.19272776081E+03  0.91774532988E+02 0.  0.
        -13    1    3    3    0    0 -0.54668761204E+02  0.38389482189E+02  0.14214454116E+03  0.15705889461E+03  0.00000000000E+00 0. -1.
         13    1    3    3    0    0 -0.14807976859E+02 -0.46436431765E+02  0.14630393212E+03  0.15420914022E+03  0.00000000000E+00 0.  1.
        -13    1    4    4    0    0  0.23704708100E+02  0.59538715490E+02  0.12708240264E+03  0.14232606539E+03  0.00000000000E+00 0. -1.
         13    1    4    4    0    0  0.56933630737E+01 -0.32970687426E+02  0.37694167829E+02  0.50401695416E+02  0.00000000000E+00 0.  1.
         -3    1    1    2    0  502  0.40078666890E+02 -0.18521078488E+02  0.56109479010E+02  0.71397503617E+02  0.00000000000E+00 0.  1.
<scales pt_clust_5="13000.00000" pt_clust_6="13000.00000" pt_clust_7="13000.00000" pt_clust_8="13000.00000" pt_clust_9="44.15122"></scales>
<clustering>
<clus scale="   44.151">  2  9  1 -1</clus>
<clus scale="   91.775">  7  8 -1 -1</clus>
<clus scale="   93.774">  5  6 -1 -1</clus>
<clus scale="  106.485">  2  7  1 -1</clus>
<clus scale="   44.151">  2  5  1 -1</clus>
</clustering>
</event>
<event>
 9    1  0.1504846E-005  0.1616222E+03  0.7546771E-02  0.1210922E+00
         21   -1    0    0  501  502  0.00000000000E+00  0.00000000000E+00  0.52279794547E+03  0.52279794547E+03  0.00000000000E+00 0.  1.
         -1   -1    0    0    0  501 -0.00000000000E+00 -0.00000000000E+00 -0.18065970502E+03  0.18065970502E+03  0.00000000000E+00 0.  1.
         23    2    1    2    0    0 -0.16282866354E+02 -0.21709292798E+02 -0.99011145137E+02  0.13775294832E+03  0.91849021653E+02 0.  0.
         23    2    1    2    0    0 -0.92936581995E+02 -0.57642895375E+02  0.52866921792E+02  0.15462207136E+03  0.95672158295E+02 0.  0.
        -11    1    3    3    0    0 -0.52860100820E+02 -0.14449612297E+02 -0.76807862296E+02  0.94352685519E+02  0.00000000000E+00 0.  1.
         11    1    3    3    0    0  0.36577234466E+02 -0.72596805009E+01 -0.22203282841E+02  0.43400262800E+02  0.00000000000E+00 0. -1.
        -13    1    4    4    0    0 -0.87558296196E+02 -0.77431317131E+02  0.24180273974E+02  0.11935974931E+03  0.00000000000E+00 0.  1.
         13    1    4    4    0    0 -0.53782857994E+01  0.19788421756E+02  0.28686647819E+02  0.35262322056E+02  0.00000000000E+00 0. -1.
         -1    1    1    2    0  502  0.10921944835E+03  0.79352188173E+02  0.38828246379E+03  0.41108263081E+03  0.00000000000E+00 0.  1.
<scales pt_clust_5="13000.00000" pt_clust_6="13000.00000" pt_clust_7="13000.00000" pt_clust_8="13000.00000" pt_clust_9="130.26346"></scales>
<clustering>
<clus scale="   91.849">  5  6 -1 -1</clus>
<clus scale="   95.672">  7  8 -1 -1</clus>
<clus scale="   95.774">  2  5  1 -1</clus>
<clus scale="  130.263">  1  9  2 -1</clus>
<clus scale="  130.263">  1  5  2 -1</clus>
</clustering>
</event>
<event>
 9    1  0.1504846E-005  0.1129157E+03  0.7546771E-02  0.1255419E+00
         21   -1    0    0  501  502  0.00000000000E+00  0.00000000000E+00  0.84944181713E+02  0.84944181713E+02  0.00000000000E+00 0. -1.
          1   -1    0    0  502    0 -0.00000000000E+00 -0.00000000000E+00 -0.25804283058E+03  0.25804283058E+03  0.00000000000E+00 0. -1.
         23    2    1    2    0    0  0.62399852743E+02 -0.29268153475E+02 -0.99752097097E+02  0.15147787725E+03  0.90800330338E+02 0.  0.
         23    2    1    2    0    0 -0.68432344371E+02 -0.89026996623E+01 -0.68460912497E+01  0.11459544164E+03  0.91230490853E+02 0.  0.
        -11    1    3    3    0    0  0.37219572954E+02 -0.62216943453E+02 -0.61862219839E+02  0.95305712877E+02  0.00000000000E+00 0. -1.
         11    1    3    3    0    0  0.25180279788E+02  0.32948789978E+02 -0.37889877258E+02  0.56172164369E+02  0.00000000000E+00 0.  1.
        -13    1    4    4    0    0 -0.20020106626E+02  0.31343674131E+02  0.24228561089E+02  0.44387540479E+02  0.00000000000E+00 0.  1.
         13    1    4    4    0    0 -0.48412237745E+02 -0.40246373793E+02 -0.31074652339E+02  0.70207901158E+02  0.00000000000E+00 0. -1.
          1    1    1    2  501    0  0.60324916285E+01  0.38170853137E+02 -0.66500460518E+02  0.76913693407E+02  0.00000000000E+00 0. -1.
<scales pt_clust_5="13000.00000" pt_clust_6="13000.00000" pt_clust_7="13000.00000" pt_clust_8="13000.00000" pt_clust_9="38.64462"></scales>
<clustering>
<clus scale="   38.645">  1  9  2 -1</clus>
<clus scale="   90.800">  5  6 -1 -1</clus>
<clus scale="   91.230">  7  8 -1 -1</clus>
<clus scale="  112.568">  2  5  1 -1</clus>
<clus scale="   38.645">  1  5  2 -1</clus>
</clustering>
</event>
<event>
 9    1  0.1504846E-005  0.9836878E+02  0.7546771E-02  0.1284292E+00
         21   -1    0    0  501  502  0.00000000000E+00  0.00000000000E+00  0.18210436949E+03  0.18210436949E+03  0.00000000000E+00 0.  1.
         -1   -1    0    0    0  501 -0.00000000000E+00 -0.00000000000E+00 -0.14881951109E+03  0.14881951109E+03  0.00000000000E+00 0.  1.
         23    2    1    2    0    0 -0.11742377637E+02  0.27207250900E+02 -0.63032727700E+02  0.11425803917E+03  0.90574040542E+02 0.  0.
         23    2    1    2    0    0  0.74767722118E+01 -0.46764291078E+02 -0.14411616906E+02  0.10414193457E+03  0.91624487947E+02 0.  0.
        -11    1    4    4    0    0 -0.29704984606E+02 -0.52359990535E+02  0.74331049389E+01  0.60656456938E+02  0.00000000000E+00 0.  1.
         11    1    4    4    0    0  0.37181756818E+02  0.55956994562E+01 -0.21844721845E+02  0.43485477633E+02  0.00000000000E+00 0. -1.
        -13    1    3    3    0    0 -0.31402799982E+02 -0.24320784354E+02 -0.31769777561E+02  0.50862119151E+02  0.00000000000E+00 0.  1.
         13    1    3    3    0    0  0.19660422345E+02  0.51528035254E+02 -0.31262950139E+02  0.63395920021E+02  0.00000000000E+00 0. -1.
         -1    1    1    2    0  502  0.42656054255E+01  0.19557040178E+02  0.11072920300E+03  0.11252390683E+03  0.00000000000E+00 0.  1.
<scales pt_clust_5="13000.00000" pt_clust_6="13000.00000" pt_clust_7="13000.00000" pt_clust_8="13000.00000" pt_clust_9="20.01682"></scales>
<clustering>
<clus scale="   20.017">  1  9  2 -1</clus>
<clus scale="   90.574">  7  8 -1 -1</clus>
<clus scale="   91.624">  5  6 -1 -1</clus>
<clus scale="   97.391">  2  7  1 -1</clus>
<clus scale="   20.017">  1  5  2 -1</clus>
</clustering>
</event>
<event>
 9    1  0.1504846E-005  0.1586578E+03  0.7546771E-02  0.1190535E+00
          3   -1    0    0  502    0 -0.00000000000E+00  0.00000000000E+00  0.11792664424E+04  0.11792664424E+04  0.00000000000E+00 0. -1.
         21   -1    0    0  501  502  0.00000000000E+00 -0.00000000000E+00 -0.13588060791E+03  0.13588060791E+03  0.00000000000E+00 0. -1.
         23    2    1    2    0    0  0.14970876797E+03 -0.48586765390E+02  0.85113333213E+03  0.87011925137E+03  0.88916666356E+02 0.  0.
         23    2    1    2    0    0 -0.87694764399E+02 -0.77134854287E+02  0.25232900415E+03  0.29251272307E+03  0.90849377395E+02 0.  0.
        -11    1    3    3    0    0  0.12334138500E+03 -0.55613730462E+02  0.80676172695E+03  0.81802840314E+03  0.00000000000E+00 0. -1.
         11    1    3    3    0    0  0.26367382970E+02  0.70269650719E+01  0.44371605183E+02  0.52090848230E+02  0.00000000000E+00 0.  1.
        -13    1    4    4    0    0 -0.68138408019E+02 -0.18131178991E+02  0.19720526059E+03  0.20943136609E+03  0.00000000000E+00 0.  1.
         13    1    4    4    0    0 -0.19556356380E+02 -0.59003675296E+02  0.55123743567E+02  0.83081356983E+02  0.00000000000E+00 0. -1.
          3    1    1    2  501    0 -0.62014003573E+02  0.12572161968E+03 -0.60076501814E+02  0.15251507586E+03  0.00000000000E+00 0. -1.
<scales pt_clust_5="13000.00000" pt_clust_6="13000.00000" pt_clust_7="13000.00000" pt_clust_8="13000.00000" pt_clust_9="140.18439"></scales>
<clustering>
<clus scale="   88.917">  5  6 -1 -1</clus>
<clus scale="   90.849">  7  8 -1 -1</clus>
<clus scale="  140.184">  2  9  1 -1</clus>
<clus scale="  157.559">  1  5  2 -1</clus>
<clus scale="  140.184">  2  5  1 -1</clus>
</clustering>
</event>
<event>
 9    1  0.1504846E-005  0.1010936E+03  0.7546771E-02  0.1279353E+00
         -1   -1    0    0    0  501 -0.00000000000E+00  0.00000000000E+00  0.21643972426E+03  0.21643972426E+03  0.00000000000E+00 0.  1.
         21   -1    0    0  501  502  0.00000000000E+00 -0.00000000000E+00 -0.12733679231E+03  0.12733679231E+03  0.00000000000E+00 0.  1.
         23    2    1    2    0    0 -0.41591962775E+02 -0.17392760387E+02  0.15590992020E+03  0.18541717769E+03  0.89661737014E+02 0.  0.
         23    2    1    2    0    0  0.30296936567E+02 -0.19443934747E+02 -0.26712458701E+02  0.10275276530E+03  0.92458662992E+02 0.  0.
        -11    1    3    3    0    0  0.10636353869E+02 -0.35766186899E+02  0.30022718301E+02  0.47892752720E+02  0.00000000000E+00 0.  1.
         11    1    3    3    0    0 -0.52228316644E+02  0.18373426513E+02  0.12588720190E+03  0.13752442497E+03  0.00000000000E+00 0. -1.
        -13    1    4    4    0    0  0.42410070502E+02 -0.44801526879E+02  0.31181350913E+01  0.61769844237E+02  0.00000000000E+00 0. -1.
         13    1    4    4    0    0 -0.12113133934E+02  0.25357592132E+02 -0.29830593792E+02  0.40982921058E+02  0.00000000000E+00 0.  1.
         -1    1    1    2    0  502  0.11295026207E+02  0.36836695134E+02 -0.40094529556E+02  0.55606573583E+02  0.00000000000E+00 0.  1.
<scales pt_clust_5="13000.00000" pt_clust_6="13000.00000" pt_clust_7="13000.00000" pt_clust_8="13000.00000" pt_clust_9="38.52947"></scales>
<clustering>
<clus scale="   38.529">  2  9  1 -1</clus>
<clus scale="   89.662">  5  6 -1 -1</clus>
<clus scale="   92.459">  7  8 -1 -1</clus>
<clus scale="   98.542">  1  5  2 -1</clus>
<clus scale="   38.529">  2  5  1 -1</clus>
</clustering>
</event>
<event>
 9    1  0.1504846E-005  0.1012452E+03  0.7546771E-02  0.1278830E+00
          1   -1    0    0  502    0 -0.00000000000E+00  0.00000000000E+00  0.11229050036E+03  0.11229050036E+03  0.00000000000E+00 0. -1.
         21   -1    0    0  501  502  0.00000000000E+00 -0.00000000000E+00 -0.18159465881E+03  0.18159465881E+03  0.00000000000E+00 0. -1.
         23    2    1    2    0    0  0.59276961920E+01 -0.34679892225E+02  0.40539724724E+02  0.10533863008E+03  0.90636224549E+02 0.  0.
         23    2    1    2    0    0  0.11847142776E+02  0.52928942577E+02 -0.41099977018E+02  0.11523420153E+03  0.92994006996E+02 0.  0.
        -11    1    3    3    0    0 -0.21232001177E+02 -0.54459154138E+02  0.87844725749E+01  0.59108073068E+02  0.00000000000E+00 0. -1.
         11    1    3    3    0    0  0.27159697369E+02  0.19779261913E+02  0.31755252149E+02  0.46230557017E+02  0.00000000000E+00 0.  1.
        -13    1    4    4    0    0 -0.12562398244E+02 -0.21903632547E+02 -0.23679522285E+02  0.34616509703E+02  0.00000000000E+00 0.  1.
         13    1    4    4    0    0  0.24409541020E+02  0.74832575124E+02 -0.17420454733E+02  0.80617691827E+02  0.00000000000E+00 0. -1.
          1    1    1    2  501    0 -0.17774838968E+02 -0.18249050352E+02 -0.68743906156E+02  0.73312327563E+02  0.00000000000E+00 0. -1.
<scales pt_clust_5="13000.00000" pt_clust_6="13000.00000" pt_clust_7="13000.00000" pt_clust_8="13000.00000" pt_clust_9="25.47494"></scales>
<clustering>
<clus scale="   25.475">  2  9  1 -1</clus>
<clus scale="   90.636">  5  6 -1 -1</clus>
<clus scale="   92.994">  7  8 -1 -1</clus>
<clus scale="   99.084">  1  5  2 -1</clus>
<clus scale="   25.475">  2  5  1 -1</clus>
</clustering>
</event>
<event>
 9    1  0.1504846E-005  0.9626535E+02  0.7546771E-02  0.1288814E+00
         -1   -1    0    0    0  501 -0.00000000000E+00  0.00000000000E+00  0.21543691158E+03  0.21543691158E+03  0.00000000000E+00 0.  1.
         21   -1    0    0  501  502  0.00000000000E+00 -0.00000000000E+00 -0.11184586546E+03  0.11184586546E+03  0.00000000000E+00 0. -1.
         23    2    1    2    0    0  0.33587807512E+02  0.15050630730E+02  0.14356692715E+03  0.17344289461E+03  0.90090581210E+02 0.  0.
         23    2    1    2    0    0 -0.10564618557E+02 -0.32847309807E+02  0.98419627430E+01  0.96145804968E+02  0.89199745826E+02 0.  0.
        -13    1    4    4    0    0  0.20355892603E+02  0.13255059705E+02 -0.21463909177E+02  0.32415403261E+02  0.00000000000E+00 0.  1.
         13    1    4    4    0    0 -0.30920511160E+02 -0.46102369512E+02  0.31305871920E+02  0.63730401706E+02  0.00000000000E+00 0. -1.
        -13    1    3    3    0    0  0.18354470199E+02  0.42238422919E+02  0.13265704549E+03  0.14042386786E+03  0.00000000000E+00 0.  1.
         13    1    3    3    0    0  0.15233337312E+02 -0.27187792189E+02  0.10909881653E+02  0.33019026749E+02  0.00000000000E+00 0. -1.
         -1    1    1    2    0  502 -0.23023188955E+02  0.17796679077E+02 -0.49817843767E+02  0.57694077455E+02  0.00000000000E+00 0.  1.
<scales pt_clust_5="13000.00000" pt_clust_6="13000.00000" pt_clust_7="13000.00000" pt_clust_8="13000.00000" pt_clust_9="29.09964"></scales>
<clustering>
<clus scale="   29.100">  2  9  1 -1</clus>
<clus scale="   89.200">  5  6 -1 -1</clus>
<clus scale="   90.091">  7  8 -1 -1</clus>
<clus scale="   95.432">  2  5  1 -1</clus>
<clus scale="   29.100">  2  5  1 -1</clus>
</clustering>
</event>
<event>
 9    1  0.1504846E-005  0.9363208E+02  0.7546771E-02  0.1294977E+00
          2   -1    0    0  502    0 -0.00000000000E+00  0.00000000000E+00  0.13308354277E+03  0.13308354277E+03  0.00000000000E+00 0. -1.
         21   -1    0    0  501  502  0.00000000000E+00 -0.00000000000E+00 -0.16264818179E+03  0.16264818179E+03  0.00000000000E+00 0. -1.
         23    2    1    2    0    0  0.10084717965E+02  0.10187590208E+02  0.44667509079E+02  0.10233429909E+03  0.90948523205E+02 0.  0.
         23    2    1    2    0    0  0.21065755924E+02 -0.25418274258E+02  0.13723778873E+02  0.98853410057E+02  0.92161813320E+02 0.  0.
        -11    1    3    3    0    0  0.96065302657E+01 -0.18997043815E+02 -0.21351512840E+02  0.30150625168E+02  0.00000000000E+00 0.  1.
         11    1    3    3    0    0  0.47818769898E+00  0.29184634023E+02  0.66019021919E+02  0.72183673927E+02  0.00000000000E+00 0. -1.
        -13    1    4    4    0    0  0.13612775543E+02  0.32236775082E+02  0.20124683101E+02  0.40367315933E+02  0.00000000000E+00 0. -1.
         13    1    4    4    0    0  0.74529803817E+01 -0.57655049340E+02 -0.64009042278E+01  0.58486094124E+02  0.00000000000E+00 0.  1.
          2    1    1    2  501    0 -0.31150473889E+02  0.15230684050E+02 -0.87955926976E+02  0.94544015412E+02  0.00000000000E+00 0. -1.
<scales pt_clust_5="13000.00000" pt_clust_6="13000.00000" pt_clust_7="13000.00000" pt_clust_8="13000.00000" pt_clust_9="34.67457"></scales>
<clustering>
<clus scale="   34.675">  2  9  1 -1</clus>
<clus scale="   90.949">  5  6 -1 -1</clus>
<clus scale="   92.162">  7  8 -1 -1</clus>
<clus scale="   92.438">  1  5  2 -1</clus>
<clus scale="   34.675">  2  5  1 -1</clus>
</clustering>
</event>
<event>
 9    1  0.1504846E-005  0.9580274E+02  0.7546771E-02  0.1291474E+00
         21   -1    0    0  501  502  0.00000000000E+00  0.00000000000E+00  0.93333689410E+02  0.93333689410E+02  0.00000000000E+00 0. -1.
          2   -1    0    0  502    0 -0.00000000000E+00 -0.00000000000E+00 -0.36777766877E+03  0.36777766877E+03  0.00000000000E+00 0. -1.
         23    2    1    2    0    0  0.13492058760E+02  0.43571742945E+01 -0.19553323057E+03  0.21732005583E+03  0.93774952901E+02 0.  0.
         23    2    1    2    0    0  0.27867215846E+01  0.59519402064E+02 -0.12364072237E+03  0.16412960368E+03  0.90006519419E+02 0.  0.
        -11    1    3    3    0    0  0.32312569293E+02 -0.35980033432E+02 -0.79641714404E+02  0.93174393549E+02  0.00000000000E+00 0.  1.
         11    1    3    3    0    0 -0.18820510534E+02  0.40337207727E+02 -0.11589151617E+03  0.12414566228E+03  0.00000000000E+00 0. -1.
        -11    1    4    4    0    0  0.16536326433E+02  0.39195859088E+02 -0.48336535025E+01  0.42815063561E+02  0.00000000000E+00 0.  1.
         11    1    4    4    0    0 -0.13749604848E+02  0.20323542977E+02 -0.11880706886E+03  0.12131454012E+03  0.00000000000E+00 0. -1.
          2    1    1    2  501    0 -0.16278780344E+02 -0.63876576359E+02  0.44729973584E+02  0.79661698661E+02  0.00000000000E+00 0. -1.
<scales pt_clust_5="13000.00000" pt_clust_6="13000.00000" pt_clust_7="13000.00000" pt_clust_8="13000.00000" pt_clust_9="65.91825"></scales>
<clustering>
<clus scale="   65.918">  1  9  2 -1</clus>
<clus scale="   90.007">  7  8 -1 -1</clus>
<clus scale="   92.117">  1  7  2 -1</clus>
<clus scale="   93.775">  5  6 -1 -1</clus>
<clus scale="   65.918">  1  5  2 -1</clus>
</clustering>
</event>
<event>
 9    1  0.1504846E-005  0.1285523E+03  0.7546771E-02  0.1230457E+00
         21   -1    0    0  501  502  0.00000000000E+00  0.00000000000E+00  0.38163839358E+03  0.38163839358E+03  0.00000000000E+00 0.  1.
         -3   -1    0    0    0  501 -0.00000000000E+00 -0.00000000000E+00 -0.13729859622E+03  0.13729859622E+03  0.00000000000E+00 0.  1.
         23    2    1    2    0    0 -0.31539101359E+02  0.10520841709E+03 -0.35479609655E+02  0.14900435021E+03  0.94233580749E+02 0.  0.
         23    2    1    2    0    0  0.37298522435E+02 -0.49092177480E+02  0.30394441304E+02  0.11420814565E+03  0.91205574416E+02 0.  0.
        -11    1    4    4    0    0  0.17077071878E+01 -0.22026838867E+02 -0.31117265925E+02  0.38162575031E+02  0.00000000000E+00 0.  1.
         11    1    4    4    0    0  0.35590815247E+02 -0.27065338613E+02  0.61511707229E+02  0.76045570617E+02  0.00000000000E+00 0. -1.
        -11    1    3    3    0    0  0.23725492914E+02  0.42410398747E+01  0.88293553431E+01  0.25667936205E+02  0.00000000000E+00 0. -1.
         11    1    3    3    0    0 -0.55264594273E+02  0.10096737721E+03 -0.44308964999E+02  0.12333641401E+03  0.00000000000E+00 0.  1.
         -3    1    1    2    0  502 -0.57594210757E+01 -0.56116239607E+02  0.24942496571E+03  0.25572449394E+03  0.00000000000E+00 0.  1.
<scales pt_clust_5="13000.00000" pt_clust_6="13000.00000" pt_clust_7="13000.00000" pt_clust_8="13000.00000" pt_clust_9="56.41102"></scales>
<clustering>
<clus scale="   56.411">  1  9  2 -1</clus>
<clus scale="   91.206">  5  6 -1 -1</clus>
<clus scale="   94.234">  7  8 -1 -1</clus>
<clus scale="  126.349">  1  5  2 -1</clus>
<clus scale="   56.411">  1  5  2 -1</clus>
</clustering>
</event>
<event>
 9    1  0.1504846E-005  0.1242048E+03  0.7546771E-02  0.1236759E+00
          1   -1    0    0  502    0 -0.00000000000E+00  0.00000000000E+00  0.39555306468E+03  0.39555306468E+03  0.00000000000E+00 0. -1.
         21   -1    0    0  501  502  0.00000000000E+00 -0.00000000000E+00 -0.62375924818E+02  0.62375924818E+02  0.00000000000E+00 0.  1.
         23    2    1    2    0    0  0.46097177909E+02  0.82156606832E+02  0.25339326582E+03  0.28489715444E+03  0.89908751449E+02 0.  0.
         23    2    1    2    0    0 -0.17034904115E+02 -0.64632976805E+02  0.80726488622E+02  0.13908213860E+03  0.91430113544E+02 0.  0.
        -11    1    4    4    0    0 -0.41759824502E+02  0.23595568376E+01  0.31105929214E+02  0.52125131013E+02  0.00000000000E+00 0. -1.
         11    1    4    4    0    0  0.24724920387E+02 -0.66992533643E+02  0.49620559408E+02  0.86957007584E+02  0.00000000000E+00 0.  1.
        -13    1    3    3    0    0  0.21258737020E+02  0.97962057832E+02  0.20617885747E+03  0.22925579587E+03  0.00000000000E+00 0. -1.
         13    1    3    3    0    0  0.24838440889E+02 -0.15805451000E+02  0.47214408357E+02  0.55641358570E+02  0.00000000000E+00 0.  1.
          1    1    1    2  501    0 -0.29062273795E+02 -0.17523630027E+02 -0.94261458228E+00  0.33949696459E+02  0.00000000000E+00 0. -1.
<scales pt_clust_5="13000.00000" pt_clust_6="13000.00000" pt_clust_7="13000.00000" pt_clust_8="13000.00000" pt_clust_9="33.93661"></scales>
<clustering>
<clus scale="   33.937">  2  9  1 -1</clus>
<clus scale="   89.909">  7  8 -1 -1</clus>
<clus scale="   91.430">  5  6 -1 -1</clus>
<clus scale="  123.089">  1  7  2 -1</clus>
<clus scale="   33.937">  2  5  1 -1</clus>
</clustering>
</event>
<event>
 9    1  0.1504846E-005  0.1062323E+03  0.7546771E-02  0.1269305E+00
          3   -1    0    0  502    0 -0.00000000000E+00  0.00000000000E+00  0.11096617551E+03  0.11096617551E+03  0.00000000000E+00 0. -1.
         21   -1    0    0  501  502  0.00000000000E+00 -0.00000000000E+00 -0.18699269628E+03  0.18699269628E+03  0.00000000000E+00 0. -1.
         23    2    1    2    0    0  0.14079552345E+02  0.59450343457E+02  0.17717285224E+02  0.10903705073E+03  0.88558450222E+02 0.  0.
         23    2    1    2    0    0 -0.27041567578E+02 -0.35141902292E+02 -0.12527969892E+02  0.10316095477E+03  0.92298607175E+02 0.  0.
        -11    1    3    3    0    0  0.36817585171E+02  0.64166988758E+02 -0.79719171562E+01  0.74407583533E+02  0.00000000000E+00 0.  1.
         11    1    3    3    0    0 -0.22738032826E+02 -0.47166453008E+01  0.25689202381E+02  0.34629467201E+02  0.00000000000E+00 0. -1.
        -13    1    4    4    0    0  0.20400200691E+02  0.19414447633E+02 -0.12624561732E+02  0.30862088783E+02  0.00000000000E+00 0.  1.
         13    1    4    4    0    0 -0.47441768269E+02 -0.54556349925E+02  0.96591840238E-01  0.72298865991E+02  0.00000000000E+00 0. -1.
          3    1    1    2  501    0  0.12962015233E+02 -0.24308441165E+02 -0.81215836101E+02  0.85760866276E+02  0.00000000000E+00 0. -1.
<scales pt_clust_5="13000.00000" pt_clust_6="13000.00000" pt_clust_7="13000.00000" pt_clust_8="13000.00000" pt_clust_9="27.54840"></scales>
<clustering>
<clus scale="   27.548">  2  9  1 -1</clus>
<clus scale="   88.558">  5  6 -1 -1</clus>
<clus scale="   92.299">  7  8 -1 -1</clus>
<clus scale="  102.999">  1  5  2 -1</clus>
<clus scale="   27.548">  2  5  1 -1</clus>
</clustering>
</event>
<event>
 9    1  0.1504846E-005  0.9554844E+02  0.7546771E-02  0.1290261E+00
          1   -1    0    0  502    0 -0.00000000000E+00  0.00000000000E+00  0.76538384753E+03  0.76538384753E+03  0.00000000000E+00 0. -1.
         21   -1    0    0  501  502  0.00000000000E+00 -0.00000000000E+00 -0.56703490037E+02  0.56703490037E+02  0.00000000000E+00 0. -1.
         23    2    1    2    0    0 -0.17296304942E+02  0.20271534796E+02  0.42918600505E+03  0.43952276379E+03  0.90936987348E+02 0.  0.
         23    2    1    2    0    0 -0.63894822107E+01 -0.40014257513E+02  0.31810100585E+03  0.33315541168E+03  0.90345515232E+02 0.  0.
        -11    1    3    3    0    0 -0.14723203846E+02  0.56517225638E+02  0.26899997873E+03  0.27526706683E+03  0.00000000000E+00 0.  1.
         11    1    3    3    0    0 -0.25731010962E+01 -0.36245690842E+02  0.16018602632E+03  0.16425569696E+03  0.00000000000E+00 0. -1.
        -13    1    4    4    0    0 -0.37028952508E+02  0.46960682254E+00  0.63225568610E+02  0.73272343899E+02  0.00000000000E+00 0.  1.
         13    1    4    4    0    0  0.30639470297E+02 -0.40483864335E+02  0.25487543724E+03  0.25988306778E+03  0.00000000000E+00 0. -1.
          1    1    1    2  501    0  0.23685787153E+02  0.19742722717E+02 -0.38606653400E+02  0.49409162107E+02  0.00000000000E+00 0. -1.
<scales pt_clust_5="13000.00000" pt_clust_6="13000.00000" pt_clust_7="13000.00000" pt_clust_8="13000.00000" pt_clust_9="30.83491"></scales>
<clustering>
<clus scale="   30.835">  2  9  1 -1</clus>
<clus scale="   90.346">  7  8 -1 -1</clus>
<clus scale="   90.937">  5  6 -1 -1</clus>
<clus scale="   94.986">  2  7  1 -1</clus>
<clus scale="   30.835">  2  5  1 -1</clus>
</clustering>
</event>
<event>
 9    1  0.1504846E-005  0.1000046E+03  0.7546771E-02  0.1290697E+00
         21   -1    0    0  501  502  0.00000000000E+00  0.00000000000E+00  0.60895162302E+02  0.60895162302E+02  0.00000000000E+00 0. -1.
          1   -1    0    0  502    0 -0.00000000000E+00 -0.00000000000E+00 -0.21513135378E+03  0.21513135378E+03  0.00000000000E+00 0. -1.
         23    2    1    2    0    0  0.17690996182E+02  0.56454220824E+02 -0.11116022501E+03  0.15494105469E+03  0.90277817926E+02 0.  0.
         23    2    1    2    0    0 -0.37555051715E+01 -0.27621027903E+02 -0.47015939791E+02  0.88819778178E+02  0.70010209253E+02 0.  0.
        -11    1    3    3    0    0 -0.30161955719E+02  0.36902299638E+02 -0.23416673019E+02  0.53102390404E+02  0.00000000000E+00 0.  1.
         11    1    3    3    0    0  0.47852951901E+02  0.19551921186E+02 -0.87743551987E+02  0.10183866428E+03  0.00000000000E+00 0. -1.
        -13    1    4    4    0    0  0.28336911201E+02  0.55498406502E+01 -0.14125367003E+02  0.32145096992E+02  0.00000000000E+00 0.  1.
         13    1    4    4    0    0 -0.32092416372E+02 -0.33170868553E+02 -0.32890572788E+02  0.56674681186E+02  0.00000000000E+00 0. -1.
          1    1    1    2  501    0 -0.13935491011E+02 -0.28833192921E+02  0.39399733183E+01  0.32265683217E+02  0.00000000000E+00 0. -1.
<scales pt_clust_5="13000.00000" pt_clust_6="13000.00000" pt_clust_7="13000.00000" pt_clust_8="13000.00000" pt_clust_9="32.02422"></scales>
<clustering>
<clus scale="   32.024">  1  9  2 -1</clus>
<clus scale="   70.010">  7  8 -1 -1</clus>
<clus scale="   82.172">  1  7  2 -1</clus>
<clus scale="   90.278">  5  6 -1 -1</clus>
<clus scale="   32.024">  1  5  2 -1</clus>
</clustering>
</event>
<event>
 9    1  0.1504846E-005  0.1809887E+03  0.7546771E-02  0.1170805E+00
         21   -1    0    0  501  502  0.00000000000E+00  0.00000000000E+00  0.71506177909E+02  0.71506177909E+02  0.00000000000E+00 0.  1.
          1   -1    0    0  502    0 -0.00000000000E+00 -0.00000000000E+00 -0.62132988467E+03  0.62132988467E+03  0.00000000000E+00 0. -1.
         23    2    1    2    0    0  0.83701825220E+02  0.12192665420E+03 -0.43456485869E+03  0.47384420417E+03  0.11751429219E+03 0.  0.
         23    2    1    2    0    0 -0.66148978622E+02 -0.98356328172E+02 -0.11625949418E+03  0.18958668904E+03  0.91526979678E+02 0.  0.
        -11    1    3    3    0    0  0.11108381229E+03  0.11512365467E+03 -0.35364748602E+03  0.38814895799E+03  0.00000000000E+00 0.  1.
         11    1    3    3    0    0 -0.27381987073E+02  0.68029995300E+01 -0.80917372665E+02  0.85695246179E+02  0.00000000000E+00 0. -1.
        -11    1    4    4    0    0 -0.89093483200E+02 -0.75423829713E+02 -0.97633039653E+02  0.15217954287E+03  0.00000000000E+00 0. -1.
         11    1    4    4    0    0  0.22944504578E+02 -0.22932498459E+02 -0.18626454531E+02  0.37407146166E+02  0.00000000000E+00 0.  1.
          1    1    1    2  501    0 -0.17552846598E+02 -0.23570326030E+02  0.10006461137E+01  0.29405169367E+02  0.00000000000E+00 0. -1.
<scales pt_clust_5="13000.00000" pt_clust_6="13000.00000" pt_clust_7="13000.00000" pt_clust_8="13000.00000" pt_clust_9="29.38814"></scales>
<clustering>
<clus scale="   29.388">  1  9  2 -1</clus>
<clus scale="   91.527">  7  8 -1 -1</clus>
<clus scale="  117.514">  5  6 -1 -1</clus>
<clus scale="  165.301">  1  7  2 -1</clus>
<clus scale="   29.388">  1  5  2 -1</clus>
</clustering>
</event>
<event>
 9    1  0.1504846E-005  0.1090373E+03  0.7546771E-02  0.1263008E+00
         21   -1    0    0  501  502  0.00000000000E+00  0.00000000000E+00  0.38307589267E+03  0.38307589267E+03  0.00000000000E+00 0. -1.
          2   -1    0    0  502    0 -0.00000000000E+00 -0.00000000000E+00 -0.20130999035E+03  0.20130999035E+03  0.00000000000E+00 0. -1.
         23    2    1    2    0    0 -0.18471998006E+02  0.65555408903E+02 -0.14331058586E+03  0.18342693076E+03  0.92026021114E+02 0.  0.
         23    2    1    2    0    0 -0.12502944293E+02 -0.31306132708E+02  0.28209655184E+02  0.10052197632E+03  0.90401800409E+02 0.  0.
        -11    1    3    3    0    0 -0.33175591310E+02 -0.12049290130E+02 -0.49452821514E+02  0.60756784042E+02  0.00000000000E+00 0.  1.
         11    1    3    3    0    0  0.14703593304E+02  0.77604699033E+02 -0.93857764348E+02  0.12267014672E+03  0.00000000000E+00 0. -1.
        -13    1    4    4    0    0  0.18503033267E+02 -0.36416477964E+02 -0.18001720318E+02  0.44638369614E+02  0.00000000000E+00 0.  1.
         13    1    4    4    0    0 -0.31005977560E+02  0.51103452561E+01  0.46211375502E+02  0.55883606710E+02  0.00000000000E+00 0. -1.
          2    1    1    2  501    0  0.30974942299E+02 -0.34249276195E+02  0.29686683300E+03  0.30043697593E+03  0.00000000000E+00 0. -1.
<scales pt_clust_5="13000.00000" pt_clust_6="13000.00000" pt_clust_7="13000.00000" pt_clust_8="13000.00000" pt_clust_9="46.17857"></scales>
<clustering>
<clus scale="   46.179">  1  9  2 -1</clus>
<clus scale="   90.402">  7  8 -1 -1</clus>
<clus scale="   92.026">  5  6 -1 -1</clus>
<clus scale="  107.670">  1  7  2 -1</clus>
<clus scale="   46.179">  1  5  2 -1</clus>
</clustering>
</event>
<event>
 9    1  0.1504846E-005  0.1138894E+03  0.7546771E-02  0.1255121E+00
         21   -1    0    0  501  502  0.00000000000E+00  0.00000000000E+00  0.31863754824E+02  0.31863754824E+02  0.00000000000E+00 0.  1.
         -1   -1    0    0    0  501 -0.00000000000E+00 -0.00000000000E+00 -0.87433084461E+03  0.87433084461E+03  0.00000000000E+00 0.  1.
         23    2    1    2    0    0 -0.34211153668E+02  0.40951356523E+02 -0.36052581290E+03  0.37427323982E+03  0.85171471996E+02 0.  0.
         23    2    1    2    0    0  0.70881810986E+02 -0.58222860716E+02 -0.47342523349E+03  0.49050198058E+03  0.89702890731E+02 0.  0.
        -13    1    3    3    0    0 -0.43113924495E+02 -0.13619790308E+02 -0.16195112290E+03  0.16814421008E+03  0.00000000000E+00 0.  1.
         13    1    3    3    0    0  0.89027708269E+01  0.54571146831E+02 -0.19857468999E+03  0.20612902974E+03  0.00000000000E+00 0. -1.
        -13    1    4    4    0    0  0.82135362467E+02 -0.27724705858E+02 -0.41182745569E+03  0.42085238546E+03  0.00000000000E+00 0.  1.
         13    1    4    4    0    0 -0.11253551481E+02 -0.30498154858E+02 -0.61597777797E+02  0.69649595119E+02  0.00000000000E+00 0. -1.
         -1    1    1    2    0  502 -0.36670657318E+02  0.17271504193E+02 -0.85160434042E+01  0.41419379045E+02  0.00000000000E+00 0.  1.
<scales pt_clust_5="13000.00000" pt_clust_6="13000.00000" pt_clust_7="13000.00000" pt_clust_8="13000.00000" pt_clust_9="40.53445"></scales>
<clustering>
<clus scale="   40.534">  1  9  2 -1</clus>
<clus scale="   85.171">  5  6 -1 -1</clus>
<clus scale="   89.703">  7  8 -1 -1</clus>
<clus scale="  110.356">  2  5  1 -1</clus>
<clus scale="   40.534">  1  5  2 -1</clus>
</clustering>
</event>
<event>
 9    1  0.1504846E-005  0.9335063E+02  0.7546771E-02  0.1296864E+00
         21   -1    0    0  501  502  0.00000000000E+00  0.00000000000E+00  0.66227651128E+03  0.66227651128E+03  0.00000000000E+00 0.  1.
         -1   -1    0    0    0  501 -0.00000000000E+00 -0.00000000000E+00 -0.30375503380E+02  0.30375503380E+02  0.00000000000E+00 0.  1.
         23    2    1    2    0    0 -0.32059201151E+02 -0.28378327958E+01  0.83460112659E+02  0.12526730797E+03  0.87695281332E+02 0.  0.
         23    2    1    2    0    0 -0.84113032745E+01  0.10655054998E+01  0.24993677104E+03  0.26614441218E+03  0.91063567308E+02 0.  0.
        -11    1    4    4    0    0  0.84198932387E+01 -0.41851255392E+02  0.88558060920E+02  0.98310489441E+02  0.00000000000E+00 0.  1.
         11    1    4    4    0    0 -0.16831196513E+02  0.42916760892E+02  0.16137871012E+03  0.16783392274E+03  0.00000000000E+00 0. -1.
        -13    1    3    3    0    0 -0.59717776162E+02 -0.46107765017E+01  0.34809574366E+02  0.69276103508E+02  0.00000000000E+00 0.  1.
         13    1    3    3    0    0  0.27658575011E+02  0.17729437059E+01  0.48650538293E+02  0.55991204463E+02  0.00000000000E+00 0. -1.
         -1    1    1    2    0  502  0.40470504425E+02  0.17723272960E+01  0.29850412420E+03  0.30124029451E+03  0.00000000000E+00 0.  1.
<scales pt_clust_5="13000.00000" pt_clust_6="13000.00000" pt_clust_7="13000.00000" pt_clust_8="13000.00000" pt_clust_9="40.50929"></scales>
<clustering>
<clus scale="   40.509">  1  9  2 -1</clus>
<clus scale="   87.695">  7  8 -1 -1</clus>
<clus scale="   90.068">  2  7  1 -1</clus>
<clus scale="   91.064">  5  6 -1 -1</clus>
<clus scale="   40.509">  1  5  2 -1</clus>
</clustering>
</event>
<event>
 9    1  0.1504846E-005  0.1216995E+03  0.7546771E-02  0.1244326E+00
         21   -1    0    0  501  502  0.00000000000E+00  0.00000000000E+00  0.10238776094E+03  0.10238776094E+03  0.00000000000E+00 0. -1.
          1   -1    0    0  502    0 -0.00000000000E+00 -0.00000000000E+00 -0.17766730962E+03  0.17766730962E+03  0.00000000000E+00 0. -1.
         23    2    1    2    0    0 -0.55341933418E+02 -0.12975650988E+02 -0.41363847665E+02  0.12176918971E+03  0.99426709469E+02 0.  0.
         23    2    1    2    0    0  0.85222752624E+02  0.81917011927E+01 -0.36821055734E+02  0.12788537727E+03  0.87572016306E+02 0.  0.
        -11    1    3    3    0    0 -0.69572154441E+02  0.23767393829E+02 -0.17057004601E+02  0.75472611515E+02  0.00000000000E+00 0.  1.
         11    1    3    3    0    0  0.14230221023E+02 -0.36743044817E+02 -0.24306843064E+02  0.46296578194E+02  0.00000000000E+00 0. -1.
        -13    1    4    4    0    0  0.86382991403E+02  0.31485613240E+02 -0.10220919329E+02  0.92508552235E+02  0.00000000000E+00 0. -1.
         13    1    4    4    0    0 -0.11602387784E+01 -0.23293912047E+02 -0.26600136406E+02  0.35376825031E+02  0.00000000000E+00 0.  1.
          1    1    1    2  501    0 -0.29880819206E+02  0.47839497950E+01  0.29053547171E+01  0.30400503583E+02  0.00000000000E+00 0. -1.
<scales pt_clust_5="13000.00000" pt_clust_6="13000.00000" pt_clust_7="13000.00000" pt_clust_8="13000.00000" pt_clust_9="30.26135"></scales>
<clustering>
<clus scale="   30.261">  1  9  2 -1</clus>
<clus scale="   87.572">  7  8 -1 -1</clus>
<clus scale="   99.427">  5  6 -1 -1</clus>
<clus scale="  112.223">  1  7  2 -1</clus>
<clus scale="   30.261">  1  5  2 -1</clus>
</clustering>
</event>
<event>
 9    1  0.1504846E-005  0.1706352E+03  0.7546771E-02  0.1177599E+00
         21   -1    0    0  501  502  0.00000000000E+00  0.00000000000E+00  0.29105941520E+03  0.29105941520E+03  0.00000000000E+00 0.  1.
          1   -1    0    0  502    0 -0.00000000000E+00 -0.00000000000E+00 -0.14240914230E+03  0.14240914230E+03  0.00000000000E+00 0. -1.
         23    2    1    2    0    0 -0.96159551068E+02  0.12411838309E+03  0.19951782805E+02  0.18118529449E+03  0.88192998700E+02 0.  0.
         23    2    1    2    0    0  0.84285325831E+02 -0.99965226250E+02  0.46891228355E+02  0.16616241603E+03  0.91181679045E+02 0.  0.
        -11    1    4    4    0    0  0.64647477559E+02 -0.61656682646E+02  0.73386757627E+02  0.11561340348E+03  0.00000000000E+00 0.  1.
         11    1    4    4    0    0  0.19637848273E+02 -0.38308543604E+02 -0.26495529272E+02  0.50549012545E+02  0.00000000000E+00 0. -1.
        -11    1    3    3    0    0 -0.20312357733E+02  0.93418436635E+02 -0.47326742571E+01  0.95718307474E+02  0.00000000000E+00 0.  1.
         11    1    3    3    0    0 -0.75847193335E+02  0.30699946455E+02  0.24684457062E+02  0.85466987015E+02  0.00000000000E+00 0. -1.
          1    1    1    2  501    0  0.11874225236E+02 -0.24153156840E+02  0.81807261744E+02  0.86120846979E+02  0.00000000000E+00 0. -1.
<scales pt_clust_5="13000.00000" pt_clust_6="13000.00000" pt_clust_7="13000.00000" pt_clust_8="13000.00000" pt_clust_9="26.91416"></scales>
<clustering>
<clus scale="   26.914">  1  9  2 -1</clus>
<clus scale="   88.193">  7  8 -1 -1</clus>
<clus scale="   91.182">  5  6 -1 -1</clus>
<clus scale="  169.057">  2  7  1 -1</clus>
<clus scale="   26.914">  1  5  2 -1</clus>
</clustering>
</event>
<event>
 9    1  0.1504846E-005  0.1140603E+03  0.7546771E-02  0.1254082E+00
         -1   -1    0    0    0  501 -0.00000000000E+00  0.00000000000E+00  0.29769136535E+02  0.29769136535E+02  0.00000000000E+00 0.  1.
         21   -1    0    0  501  502  0.00000000000E+00 -0.00000000000E+00 -0.55309866344E+03  0.55309866344E+03  0.00000000000E+00 0. -1.
         23    2    1    2    0    0 -0.64698600106E+02 -0.20236663633E+02 -0.20405674962E+03  0.23315062019E+03  0.90136691866E+02 0.  0.
         23    2    1    2    0    0  0.54870279971E+02  0.38992636081E+02 -0.21738287039E+03  0.24565020372E+03  0.92506956259E+02 0.  0.
        -13    1    3    3    0    0  0.52877931897E+01  0.24103240339E+02 -0.81990107093E+02  0.85623037862E+02  0.00000000000E+00 0. -1.
         13    1    3    3    0    0 -0.69986393295E+02 -0.44339903971E+02 -0.12206664252E+03  0.14752758233E+03  0.00000000000E+00 0.  1.
        -13    1    4    4    0    0  0.18453001139E+01 -0.26003926997E+02 -0.26617425799E+02  0.37257169886E+02  0.00000000000E+00 0.  1.
         13    1    4    4    0    0  0.53024979857E+02  0.64996563078E+02 -0.19076544459E+03  0.20839303383E+03  0.00000000000E+00 0. -1.
         -1    1    1    2    0  502  0.98283201348E+01 -0.18755972449E+02 -0.10188990690E+03  0.10406697607E+03  0.00000000000E+00 0.  1.
<scales pt_clust_5="13000.00000" pt_clust_6="13000.00000" pt_clust_7="13000.00000" pt_clust_8="13000.00000" pt_clust_9="21.17504"></scales>
<clustering>
<clus scale="   21.175">  2  9  1 -1</clus>
<clus scale="   90.137">  5  6 -1 -1</clus>
<clus scale="   92.507">  7  8 -1 -1</clus>
<clus scale="  112.147">  1  5  2 -1</clus>
<clus scale="   21.175">  2  5  1 -1</clus>
</clustering>
</event>
<event>
 9    1  0.1504846E-005  0.1435065E+03  0.7546771E-02  0.1209989E+00
         21   -1    0    0  501  502  0.00000000000E+00  0.00000000000E+00  0.17502631806E+03  0.17502631806E+03  0.00000000000E+00 0. -1.
          1   -1    0    0  502    0 -0.00000000000E+00 -0.00000000000E+00 -0.34513782606E+03  0.34513782606E+03  0.00000000000E+00 0. -1.
         23    2    1    2    0    0 -0.43684248733E+02 -0.84048090642E+02 -0.19585654802E+03  0.23793374141E+03  0.96334224297E+02 0.  0.
         23    2    1    2    0    0  0.67795143566E+02  0.11826745478E+03 -0.69872510242E+02  0.17785120914E+03  0.90363225676E+02 0.  0.
        -11    1    4    4    0    0 -0.18452214714E+02  0.46610684922E+02 -0.32111199431E+02  0.59532926231E+02  0.00000000000E+00 0.  1.
         11    1    4    4    0    0  0.86247358280E+02  0.71656769855E+02 -0.37761310811E+02  0.11831828291E+03  0.00000000000E+00 0. -1.
        -13    1    3    3    0    0 -0.31842092488E+02 -0.54277659000E+02 -0.31291865533E+02  0.70279185888E+02  0.00000000000E+00 0.  1.
         13    1    3    3    0    0 -0.11842156245E+02 -0.29770431642E+02 -0.16456468249E+03  0.16765455553E+03  0.00000000000E+00 0. -1.
          1    1    1    2  501    0 -0.24110894833E+02 -0.34219364134E+02  0.95617550260E+02  0.10437919356E+03  0.00000000000E+00 0. -1.
<scales pt_clust_5="13000.00000" pt_clust_6="13000.00000" pt_clust_7="13000.00000" pt_clust_8="13000.00000" pt_clust_9="41.86048"></scales>
<clustering>
<clus scale="   41.860">  1  9  2 -1</clus>
<clus scale="   90.363">  5  6 -1 -1</clus>
<clus scale="   96.334">  7  8 -1 -1</clus>
<clus scale="  139.568">  1  5  2 -1</clus>
<clus scale="   41.860">  1  5  2 -1</clus>
</clustering>
</event>
<event>
 9    1  0.1504846E-005  0.2078838E+03  0.7546771E-02  0.1143391E+00
         -3   -1    0    0    0  501 -0.00000000000E+00  0.00000000000E+00  0.12189698578E+03  0.12189698578E+03  0.00000000000E+00 0.  1.
         21   -1    0    0  501  502  0.00000000000E+00 -0.00000000000E+00 -0.40990917402E+03  0.40990917402E+03  0.00000000000E+00 0. -1.
         23    2    1    2    0    0  0.18600684465E+03 -0.23470947127E+02 -0.10753434200E+03  0.23415426968E+03  0.90084158889E+02 0.  0.
         23    2    1    2    0    0 -0.18650998543E+03 -0.25670989662E+01 -0.14403847526E+03  0.25286282056E+03  0.91651290247E+02 0.  0.
        -11    1    3    3    0    0  0.44144771307E+02 -0.28881361037E+02 -0.69367916426E+02  0.87148159352E+02  0.00000000000E+00 0.  1.
         11    1    3    3    0    0  0.14186207334E+03  0.54104139101E+01 -0.38166425578E+02  0.14700611033E+03  0.00000000000E+00 0. -1.
        -13    1    4    4    0    0 -0.16107922541E+03  0.32331429896E+02 -0.10791517893E+03  0.19656430007E+03  0.00000000000E+00 0.  1.
         13    1    4    4    0    0 -0.25430760023E+02 -0.34898528863E+02 -0.36123296327E+02  0.56298520492E+02  0.00000000000E+00 0. -1.
         -3    1    1    2    0  502  0.50314077848E+00  0.26038046093E+02 -0.36439370980E+02  0.44789069564E+02  0.00000000000E+00 0.  1.
<scales pt_clust_5="13000.00000" pt_clust_6="13000.00000" pt_clust_7="13000.00000" pt_clust_8="13000.00000" pt_clust_9="26.04291"></scales>
<clustering>
<clus scale="   26.043">  2  9  1 -1</clus>
<clus scale="   90.084">  5  6 -1 -1</clus>
<clus scale="   91.651">  7  8 -1 -1</clus>
<clus scale="  207.198">  1  5  2 -1</clus>
<clus scale="   26.043">  2  5  1 -1</clus>
</clustering>
</event>
<event>
 9    1  0.1504846E-005  0.9630876E+02  0.7546771E-02  0.1288321E+00
         21   -1    0    0  501  502  0.00000000000E+00  0.00000000000E+00  0.53125364771E+02  0.53125364771E+02  0.00000000000E+00 0.  1.
          1   -1    0    0  502    0 -0.00000000000E+00 -0.00000000000E+00 -0.40086043275E+03  0.40086043275E+03  0.00000000000E+00 0. -1.
         23    2    1    2    0    0 -0.24681005473E+02  0.16629885785E+02 -0.29078026741E+03  0.30624015226E+03  0.91346383674E+02 0.  0.
         23    2    1    2    0    0  0.58669356078E+01 -0.44932098088E+02 -0.48004807330E+02  0.11260184317E+03  0.91221703490E+02 0.  0.
        -11    1    3    3    0    0  0.25984985437E+02 -0.12835105904E+02 -0.16434004570E+03  0.16687603193E+03  0.00000000000E+00 0. -1.
         11    1    3    3    0    0 -0.50665990910E+02  0.29464991689E+02 -0.12644022170E+03  0.13936412033E+03  0.00000000000E+00 0.  1.
        -11    1    4    4    0    0  0.36500771247E+02 -0.56686488244E+02 -0.41443922757E+02  0.79140779529E+02  0.00000000000E+00 0.  1.
         11    1    4    4    0    0 -0.30633835639E+02  0.11754390156E+02 -0.65608845731E+01  0.33461063645E+02  0.00000000000E+00 0. -1.
          1    1    1    2  501    0  0.18814069865E+02  0.28302212303E+02 -0.89499932420E+01  0.35143802087E+02  0.00000000000E+00 0. -1.
<scales pt_clust_5="13000.00000" pt_clust_6="13000.00000" pt_clust_7="13000.00000" pt_clust_8="13000.00000" pt_clust_9="33.98506"></scales>
<clustering>
<clus scale="   33.985">  1  9  2 -1</clus>
<clus scale="   91.222">  7  8 -1 -1</clus>
<clus scale="   91.346">  5  6 -1 -1</clus>
<clus scale="   96.191">  1  7  2 -1</clus>
<clus scale="   33.985">  1  5  2 -1</clus>
</clustering>
</event>
<event>
 9    1  0.1504846E-005  0.1410488E+03  0.7546771E-02  0.1212476E+00
          2   -1    0    0  502    0 -0.00000000000E+00  0.00000000000E+00  0.23856652816E+03  0.23856652816E+03  0.00000000000E+00 0. -1.
         21   -1    0    0  501  502  0.00000000000E+00 -0.00000000000E+00 -0.10621075352E+03  0.10621075352E+03  0.00000000000E+00 0. -1.
         23    2    1    2    0    0 -0.16319269167E+02 -0.10507884627E+03  0.11195545492E+03  0.18010167757E+03  0.92707647451E+02 0.  0.
         23    2    1    2    0    0  0.37609274679E+02  0.10089451734E+03  0.10558152972E+02  0.14085038241E+03  0.90184225112E+02 0.  0.
        -13    1    4    4    0    0  0.16792127730E+00  0.37016174022E+02  0.45766914156E+02  0.58862855590E+02  0.00000000000E+00 0.  1.
         13    1    4    4    0    0  0.37441353402E+02  0.63878343319E+02 -0.35208761184E+02  0.81987526819E+02  0.00000000000E+00 0. -1.
        -13    1    3    3    0    0  0.52861860775E+01 -0.84767102445E+02  0.12212303777E+03  0.14875295551E+03  0.00000000000E+00 0. -1.
         13    1    3    3    0    0 -0.21605455245E+02 -0.20311743825E+02 -0.10167582845E+02  0.31348722054E+02  0.00000000000E+00 0.  1.
          2    1    1    2  501    0 -0.21290005512E+02  0.41843289286E+01  0.98421667394E+01  0.23825221708E+02  0.00000000000E+00 0. -1.
<scales pt_clust_5="13000.00000" pt_clust_6="13000.00000" pt_clust_7="13000.00000" pt_clust_8="13000.00000" pt_clust_9="21.69731"></scales>
<clustering>
<clus scale="   21.697">  2  9  1 -1</clus>
<clus scale="   90.184">  5  6 -1 -1</clus>
<clus scale="   92.708">  7  8 -1 -1</clus>
<clus scale="  139.403">  2  5  1 -1</clus>
<clus scale="   21.697">  2  5  1 -1</clus>
</clustering>
</event>
<event>
 9    1  0.1504846E-005  0.1156772E+03  0.7546771E-02  0.1250503E+00
         21   -1    0    0  501  502  0.00000000000E+00  0.00000000000E+00  0.11728586627E+03  0.11728586627E+03  0.00000000000E+00 0.  1.
         -1   -1    0    0    0  501 -0.00000000000E+00 -0.00000000000E+00 -0.19315286167E+03  0.19315286167E+03  0.00000000000E+00 0.  1.
         23    2    1    2    0    0 -0.49554432544E+02  0.55048469423E+02 -0.65647738701E+02  0.13462773977E+03  0.91263502835E+02 0.  0.
         23    2    1    2    0    0  0.62337503322E+02 -0.31139834307E+02 -0.51795451582E+02  0.12617622502E+03  0.91553357958E+02 0.  0.
        -11    1    3    3    0    0 -0.62346929174E+02  0.27284755671E+02 -0.76313463741E+02  0.10225136780E+03  0.00000000000E+00 0.  1.
         11    1    3    3    0    0  0.12792496630E+02  0.27763713753E+02  0.10665725040E+02  0.32376371971E+02  0.00000000000E+00 0. -1.
        -13    1    4    4    0    0  0.27250286324E+02 -0.21423349795E+02 -0.75262216230E+02  0.82860963143E+02  0.00000000000E+00 0.  1.
         13    1    4    4    0    0  0.35087216999E+02 -0.97164845121E+01  0.23466764648E+02  0.43315261872E+02  0.00000000000E+00 0. -1.
         -1    1    1    2    0  502 -0.12783070779E+02 -0.23908635116E+02  0.41576194890E+02  0.49634763152E+02  0.00000000000E+00 0.  1.
<scales pt_clust_5="13000.00000" pt_clust_6="13000.00000" pt_clust_7="13000.00000" pt_clust_8="13000.00000" pt_clust_9="27.11143"></scales>
<clustering>
<clus scale="   27.111">  1  9  2 -1</clus>
<clus scale="   91.264">  5  6 -1 -1</clus>
<clus scale="   91.553">  7  8 -1 -1</clus>
<clus scale="  115.448">  2  5  1 -1</clus>
<clus scale="   27.111">  1  5  2 -1</clus>
</clustering>
</event>
<event>
 9    1  0.1504846E-005  0.1685480E+03  0.7546771E-02  0.1181411E+00
         21   -1    0    0  501  502  0.00000000000E+00  0.00000000000E+00  0.65898328642E+03  0.65898328642E+03  0.00000000000E+00 0.  1.
          1   -1    0    0  502    0 -0.00000000000E+00 -0.00000000000E+00 -0.65666708800E+02  0.65666708800E+02  0.00000000000E+00 0. -1.
         23    2    1    2    0    0  0.91354574525E+02  0.71142694110E+02  0.16930753844E+03  0.22545327499E+03  0.93579887893E+02 0.  0.
         23    2    1    2    0    0 -0.14916374684E+03 -0.97749094072E+02  0.27524403048E+03  0.33739181074E+03  0.79178588500E+02 0.  0.
        -11    1    4    4    0    0 -0.21869720212E+02 -0.43603751008E+01  0.95895763202E+02  0.98454532315E+02  0.00000000000E+00 0.  1.
         11    1    4    4    0    0 -0.12729402662E+03 -0.93388718971E+02  0.17934826728E+03  0.23893727842E+03  0.00000000000E+00 0. -1.
        -13    1    3    3    0    0  0.85986140300E+02  0.92351460762E+02  0.15204227350E+03  0.19758355589E+03  0.00000000000E+00 0.  1.
         13    1    3    3    0    0  0.53684342252E+01 -0.21208766652E+02  0.17265264942E+02  0.27869719095E+02  0.00000000000E+00 0. -1.
          1    1    1    2  501    0  0.57809172311E+02  0.26606399962E+02  0.14876500870E+03  0.16180490950E+03  0.00000000000E+00 0. -1.
<scales pt_clust_5="13000.00000" pt_clust_6="13000.00000" pt_clust_7="13000.00000" pt_clust_8="13000.00000" pt_clust_9="63.63805"></scales>
<clustering>
<clus scale="   63.638">  1  9  2 -1</clus>
<clus scale="   79.179">  5  6 -1 -1</clus>
<clus scale="   93.580">  7  8 -1 -1</clus>
<clus scale="  160.998">  1  5  2 -1</clus>
<clus scale="   63.638">  1  5  2 -1</clus>
</clustering>
</event>
<event>
 9    1  0.1504846E-005  0.1018116E+03  0.7546771E-02  0.1277080E+00
         21   -1    0    0  501  502  0.00000000000E+00  0.00000000000E+00  0.29322496351E+02  0.29322496351E+02  0.00000000000E+00 0. -1.
          3   -1    0    0  502    0 -0.00000000000E+00 -0.00000000000E+00 -0.83926672206E+03  0.83926672206E+03  0.00000000000E+00 0. -1.
         23    2    1    2    0    0 -0.42342366437E+02 -0.41296614346E+02 -0.50511107958E+03  0.51674567238E+03  0.91600223029E+02 0.  0.
         23    2    1    2    0    0  0.31420101889E+02  0.54285685072E+00 -0.29267991042E+03  0.30793607797E+03  0.90418917588E+02 0.  0.
        -11    1    4    4    0    0  0.87314948032E+00 -0.39403943280E+02 -0.77358537230E+02  0.86820368684E+02  0.00000000000E+00 0. -1.
         11    1    4    4    0    0  0.30546952408E+02  0.39946800131E+02 -0.21532137319E+03  0.22111570929E+03  0.00000000000E+00 0.  1.
        -13    1    3    3    0    0 -0.25579012415E+02 -0.69894749920E+02 -0.38587716732E+03  0.39298950393E+03  0.00000000000E+00 0. -1.
         13    1    3    3    0    0 -0.16763354022E+02  0.28598135574E+02 -0.11923391226E+03  0.12375616845E+03  0.00000000000E+00 0.  1.
          3    1    1    2  501    0  0.10922264549E+02  0.40753757496E+02 -0.12153235710E+02  0.43907468056E+02  0.00000000000E+00 0. -1.
<scales pt_clust_5="13000.00000" pt_clust_6="13000.00000" pt_clust_7="13000.00000" pt_clust_8="13000.00000" pt_clust_9="42.19200"></scales>
<clustering>
<clus scale="   42.192">  1  9  2 -1</clus>
<clus scale="   90.419">  5  6 -1 -1</clus>
<clus scale="   91.600">  7  8 -1 -1</clus>
<clus scale="  100.750">  1  5  2 -1</clus>
<clus scale="   42.192">  1  5  2 -1</clus>
</clustering>
</event>
<event>
 9    1  0.1504846E-005  0.1104242E+03  0.7546771E-02  0.1263179E+00
         21   -1    0    0  501  502  0.00000000000E+00  0.00000000000E+00  0.14563073283E+03  0.14563073283E+03  0.00000000000E+00 0.  1.
         -2   -1    0    0    0  501 -0.00000000000E+00 -0.00000000000E+00 -0.14253334953E+03  0.14253334953E+03  0.00000000000E+00 0.  1.
         23    2    1    2    0    0  0.97033927880E+01 -0.61254629419E+02 -0.36318856131E+02  0.11665666054E+03  0.91888147662E+02 0.  0.
         23    2    1    2    0    0  0.33438878766E+02  0.59564407584E+02 -0.72858216008E+01  0.10790557477E+03  0.83213295845E+02 0.  0.
        -13    1    3    3    0    0  0.37309729853E+02 -0.23825472293E+02  0.15615247119E+02  0.46941506306E+02  0.00000000000E+00 0.  1.
         13    1    3    3    0    0 -0.27606337065E+02 -0.37429157126E+02 -0.51934103250E+02  0.69715154233E+02  0.00000000000E+00 0. -1.
        -13    1    4    4    0    0  0.55431258143E+02  0.54135443026E+02  0.11686955463E+02  0.78357230036E+02  0.00000000000E+00 0.  1.
         13    1    4    4    0    0 -0.21992379377E+02  0.54289645583E+01 -0.18972777064E+02  0.29548344731E+02  0.00000000000E+00 0. -1.
         -2    1    1    2    0  502 -0.43142271554E+02  0.16902218354E+01  0.46702061031E+02  0.63601847058E+02  0.00000000000E+00 0.  1.
<scales pt_clust_5="13000.00000" pt_clust_6="13000.00000" pt_clust_7="13000.00000" pt_clust_8="13000.00000" pt_clust_9="43.17537"></scales>
<clustering>
<clus scale="   43.175">  1  9  2 -1</clus>
<clus scale="   83.213">  7  8 -1 -1</clus>
<clus scale="   91.888">  5  6 -1 -1</clus>
<clus scale="  103.318">  1  7  2 -1</clus>
<clus scale="   43.175">  1  5  2 -1</clus>
</clustering>
</event>
<event>
 9    1  0.1504846E-005  0.9902507E+02  0.7546771E-02  0.1282511E+00
         -2   -1    0    0    0  501 -0.00000000000E+00  0.00000000000E+00  0.36910177404E+03  0.36910177404E+03  0.00000000000E+00 0.  1.
         21   -1    0    0  501  502  0.00000000000E+00 -0.00000000000E+00 -0.92307173403E+02  0.92307173403E+02  0.00000000000E+00 0.  1.
         23    2    1    2    0    0  0.43790025292E+02 -0.26278567079E+02  0.21909829912E+03  0.24279086766E+03  0.91297378584E+02 0.  0.
         23    2    1    2    0    0  0.52080363039E+02  0.42461301441E+02  0.33006765279E+02  0.11830564063E+03  0.91604867324E+02 0.  0.
        -11    1    3    3    0    0  0.62561226619E+02  0.34017258320E+01  0.94850164856E+02  0.11367511860E+03  0.00000000000E+00 0. -1.
         11    1    3    3    0    0 -0.18771201328E+02 -0.29680292911E+02  0.12424813427E+03  0.12911574906E+03  0.00000000000E+00 0.  1.
        -11    1    4    4    0    0 -0.25618836896E+02  0.13598478515E+02  0.17813920539E+02  0.34037908085E+02  0.00000000000E+00 0. -1.
         11    1    4    4    0    0  0.77699199935E+02  0.28862822925E+02  0.15192844740E+02  0.84267732549E+02  0.00000000000E+00 0.  1.
         -2    1    1    2    0  502 -0.95870388330E+02 -0.16182734362E+02  0.24689536240E+02  0.10031243916E+03  0.00000000000E+00 0.  1.
<scales pt_clust_5="13000.00000" pt_clust_6="13000.00000" pt_clust_7="13000.00000" pt_clust_8="13000.00000" pt_clust_9="97.22660"></scales>
<clustering>
<clus scale="   91.297">  5  6 -1 -1</clus>
<clus scale="   91.605">  7  8 -1 -1</clus>
<clus scale="   97.227">  2  9  1 -1</clus>
<clus scale="   98.741">  1  5  2 -1</clus>
<clus scale="   97.227">  2  5  1 -1</clus>
</clustering>
</event>
<event>
 9    1  0.1504846E-005  0.1002019E+03  0.7546771E-02  0.1281299E+00
          1   -1    0    0  502    0 -0.00000000000E+00  0.00000000000E+00  0.44669897282E+03  0.44669897282E+03  0.00000000000E+00 0. -1.
         21   -1    0    0  501  502  0.00000000000E+00 -0.00000000000E+00 -0.55101310644E+02  0.55101310644E+02  0.00000000000E+00 0. -1.
         23    2    1    2    0    0 -0.42628846605E+02  0.63975064257E+01  0.33007804898E+03  0.34494018396E+03  0.90410538342E+02 0.  0.
         23    2    1    2    0    0  0.16295698638E+02  0.19414797781E+02  0.69581776396E+02  0.11911479243E+03  0.93296441527E+02 0.  0.
        -13    1    4    4    0    0  0.47737419911E+02 -0.16495397359E+01  0.10428792202E+02  0.48891123406E+02  0.00000000000E+00 0.  1.
         13    1    4    4    0    0 -0.31441721274E+02  0.21064337517E+02  0.59152984195E+02  0.70223669021E+02  0.00000000000E+00 0. -1.
        -13    1    3    3    0    0 -0.60585365021E+02  0.20204524226E+02  0.30290407877E+03  0.30956370942E+03  0.00000000000E+00 0. -1.
         13    1    3    3    0    0  0.17956518416E+02 -0.13807017801E+02  0.27173970207E+02  0.35376474541E+02  0.00000000000E+00 0.  1.
          1    1    1    2  501    0  0.26333147967E+02 -0.25812304207E+02 -0.80621632017E+01  0.37745307070E+02  0.00000000000E+00 0. -1.
<scales pt_clust_5="13000.00000" pt_clust_6="13000.00000" pt_clust_7="13000.00000" pt_clust_8="13000.00000" pt_clust_9="36.87424"></scales>
<clustering>
<clus scale="   36.874">  2  9  1 -1</clus>
<clus scale="   90.411">  7  8 -1 -1</clus>
<clus scale="   93.296">  5  6 -1 -1</clus>
<clus scale="   97.521">  1  7  2 -1</clus>
<clus scale="   36.874">  2  5  1 -1</clus>
</clustering>
</event>
<event>
 9    1  0.1504846E-005  0.1793641E+03  0.7546771E-02  0.1194195E+00
          3   -1    0    0  502    0 -0.00000000000E+00  0.00000000000E+00  0.19612260652E+03  0.19612260652E+03  0.00000000000E+00 0. -1.
         21   -1    0    0  501  502  0.00000000000E+00 -0.00000000000E+00 -0.26828719634E+03  0.26828719634E+03  0.00000000000E+00 0. -1.
         23    2    1    2    0    0  0.37592821627E+02 -0.22938968808E+02  0.41990230435E+02  0.10902154078E+03  0.90460490684E+02 0.  0.
         23    2    1    2    0    0  0.11115761148E+03  0.93009048455E+02 -0.46561106177E+02  0.17760913622E+03  0.91489731534E+02 0.  0.
        -11    1    4    4    0    0  0.81633498489E+02  0.72939148973E+02  0.10844824906E+02  0.11000798951E+03  0.00000000000E+00 0. -1.
         11    1    4    4    0    0  0.29524112986E+02  0.20069899482E+02 -0.57405931083E+02  0.67601146709E+02  0.00000000000E+00 0.  1.
        -13    1    3    3    0    0 -0.11511936674E+02  0.24356677320E+02  0.29064366066E+02  0.39629657971E+02  0.00000000000E+00 0.  1.
         13    1    3    3    0    0  0.49104758301E+02 -0.47295646128E+02  0.12925864370E+02  0.69391882812E+02  0.00000000000E+00 0. -1.
          3    1    1    2  501    0 -0.14875043310E+03 -0.70070079647E+02 -0.67593714083E+02  0.17777912587E+03  0.00000000000E+00 0. -1.
<scales pt_clust_5="13000.00000" pt_clust_6="13000.00000" pt_clust_7="13000.00000" pt_clust_8="13000.00000" pt_clust_9="154.27609"></scales>
<clustering>
<clus scale="   90.460">  7  8 -1 -1</clus>
<clus scale="   91.490">  5  6 -1 -1</clus>
<clus scale="  100.611">  1  7  2 -1</clus>
<clus scale="  154.276">  2  9  1 -1</clus>
<clus scale="  154.276">  2  5  1 -1</clus>
</clustering>
</event>
<event>
 9    1  0.1504846E-005  0.1033890E+03  0.7546771E-02  0.1275277E+00
         21   -1    0    0  501  502  0.00000000000E+00  0.00000000000E+00  0.22130225302E+03  0.22130225302E+03  0.00000000000E+00 0. -1.
         -1   -1    0    0    0  501 -0.00000000000E+00 -0.00000000000E+00 -0.70685289917E+02  0.70685289917E+02  0.00000000000E+00 0.  1.
         23    2    1    2    0    0 -0.28366347922E+02  0.44724575830E+02  0.48225837159E+02  0.11234517719E+03  0.86549235060E+02 0.  0.
         23    2    1    2    0    0 -0.12694153824E+02 -0.52581303618E+02  0.71849977015E+02  0.12786925736E+03  0.90896604714E+02 0.  0.
        -11    1    4    4    0    0  0.37072422461E+02 -0.10541212379E+02  0.14840361666E+02  0.41300338981E+02  0.00000000000E+00 0.  1.
         11    1    4    4    0    0 -0.49766576285E+02 -0.42040091239E+02  0.57009615349E+02  0.86568918375E+02  0.00000000000E+00 0. -1.
        -13    1    3    3    0    0 -0.14854653778E+02  0.28899643045E+02  0.73051407936E+02  0.79952225163E+02  0.00000000000E+00 0. -1.
         13    1    3    3    0    0 -0.13511694144E+02  0.15824932785E+02 -0.24825570778E+02  0.32392952022E+02  0.00000000000E+00 0.  1.
         -1    1    1    2    0  502  0.41060501745E+02  0.78567277876E+01  0.30541148934E+02  0.51773108399E+02  0.00000000000E+00 0.  1.
<scales pt_clust_5="13000.00000" pt_clust_6="13000.00000" pt_clust_7="13000.00000" pt_clust_8="13000.00000" pt_clust_9="41.80542"></scales>
<clustering>
<clus scale="   41.805">  1  9  2 -1</clus>
<clus scale="   86.549">  7  8 -1 -1</clus>
<clus scale="   90.897">  5  6 -1 -1</clus>
<clus scale="   99.588">  2  7  1 -1</clus>
<clus scale="   41.805">  1  5  2 -1</clus>
</clustering>
</event>
<event>
 9    1  0.1504846E-005  0.1334514E+03  0.7546771E-02  0.1236424E+00
         21   -1    0    0  501  502  0.00000000000E+00  0.00000000000E+00  0.37004250223E+02  0.37004250223E+02  0.00000000000E+00 0. -1.
          1   -1    0    0  502    0 -0.00000000000E+00 -0.00000000000E+00 -0.78302621360E+03  0.78302621360E+03  0.00000000000E+00 0. -1.
         23    2    1    2    0    0  0.38875888068E+02 -0.35987510291E+02 -0.40575848859E+03  0.41927629489E+03  0.91357675212E+02 0.  0.
         23    2    1    2    0    0 -0.12940480532E+02 -0.24791665337E+02 -0.14634516883E+03  0.19588576498E+03  0.12717012926E+03 0.  0.
        -11    1    3    3    0    0  0.23471045413E+02 -0.63086714685E+02 -0.33874176050E+03  0.34536474031E+03  0.00000000000E+00 0. -1.
         11    1    3    3    0    0  0.15404842655E+02  0.27099204394E+02 -0.67016728096E+02  0.73911554582E+02  0.00000000000E+00 0.  1.
        -13    1    4    4    0    0 -0.32087911379E+02 -0.49715031787E+02 -0.15275030066E+03  0.16381047828E+03  0.00000000000E+00 0.  1.
         13    1    4    4    0    0  0.19147430847E+02  0.24923366451E+02  0.64051318302E+01  0.32075286702E+02  0.00000000000E+00 0. -1.
          1    1    1    2  501    0 -0.25935407536E+02  0.60779175628E+02 -0.19391830596E+03  0.20486840396E+03  0.00000000000E+00 0. -1.
<scales pt_clust_5="13000.00000" pt_clust_6="13000.00000" pt_clust_7="13000.00000" pt_clust_8="13000.00000" pt_clust_9="66.08145"></scales>
<clustering>
<clus scale="   66.081">  1  9  2 -1</clus>
<clus scale="   91.358">  5  6 -1 -1</clus>
<clus scale="   99.916">  2  5  1 -1</clus>
<clus scale="  127.170">  7  8 -1 -1</clus>
<clus scale="   66.081">  1  5  2 -1</clus>
</clustering>
</event>
<event>
 9    1  0.1504846E-005  0.1256223E+03  0.7546771E-02  0.1245882E+00
         -3   -1    0    0    0  501 -0.00000000000E+00  0.00000000000E+00  0.36322263174E+03  0.36322263174E+03  0.00000000000E+00 0.  1.
         21   -1    0    0  501  502  0.00000000000E+00 -0.00000000000E+00 -0.53767143575E+02  0.53767143575E+02  0.00000000000E+00 0.  1.
         23    2    1    2    0    0 -0.13571881725E+02  0.46216551339E+02  0.19753323912E+03  0.23606072649E+03  0.11993798583E+03 0.  0.
         23    2    1    2    0    0 -0.29441132394E+01 -0.29135292235E+02  0.12182872513E+03  0.15518636499E+03  0.91558923946E+02 0.  0.
        -11    1    4    4    0    0 -0.30841796591E+02  0.20660429452E+02  0.63646318098E+02  0.73681229425E+02  0.00000000000E+00 0.  1.
         11    1    4    4    0    0  0.27897683352E+02 -0.49795721687E+02  0.58182407037E+02  0.81505135564E+02  0.00000000000E+00 0. -1.
        -13    1    3    3    0    0  0.50696379675E+02  0.35736443052E+02  0.11765628159E+03  0.13300457463E+03  0.00000000000E+00 0.  1.
         13    1    3    3    0    0 -0.64268261400E+02  0.10480108286E+02  0.79876957530E+02  0.10305615187E+03  0.00000000000E+00 0. -1.
         -3    1    1    2    0  502  0.16515994965E+02 -0.17081259103E+02 -0.99064760929E+01  0.25742683831E+02  0.00000000000E+00 0.  1.
<scales pt_clust_5="13000.00000" pt_clust_6="13000.00000" pt_clust_7="13000.00000" pt_clust_8="13000.00000" pt_clust_9="23.76021"></scales>
<clustering>
<clus scale="   23.760">  2  9  1 -1</clus>
<clus scale="   91.559">  5  6 -1 -1</clus>
<clus scale="   98.888">  2  5  1 -1</clus>
<clus scale="  119.938">  7  8 -1 -1</clus>
<clus scale="   23.760">  2  5  1 -1</clus>
</clustering>
</event>
<event>
 9    1  0.1504846E-005  0.1227378E+03  0.7546771E-02  0.1239259E+00
          1   -1    0    0  502    0 -0.00000000000E+00  0.00000000000E+00  0.25891511144E+03  0.25891511144E+03  0.00000000000E+00 0. -1.
         21   -1    0    0  501  502  0.00000000000E+00 -0.00000000000E+00 -0.24977732661E+03  0.24977732661E+03  0.00000000000E+00 0. -1.
         23    2    1    2    0    0 -0.60627773471E+01  0.75557099167E+02  0.15940101146E+03  0.19851783506E+03  0.90857117934E+02 0.  0.
         23    2    1    2    0    0 -0.49514350269E+02 -0.14458835229E+03 -0.12959272798E+03  0.21917240227E+03  0.88796420374E+02 0.  0.
        -11    1    4    4    0    0  0.87304046688E+01 -0.91310309582E+02 -0.40876919850E+02  0.10042268259E+03  0.00000000000E+00 0.  1.
         11    1    4    4    0    0 -0.58244754938E+02 -0.53278042708E+02 -0.88715808133E+02  0.11874971969E+03  0.00000000000E+00 0. -1.
        -13    1    3    3    0    0  0.20305059223E+02  0.76459908899E+02  0.15160909624E+03  0.17100798567E+03  0.00000000000E+00 0.  1.
         13    1    3    3    0    0 -0.26367836570E+02 -0.90280973249E+00  0.77919152155E+01  0.27509849391E+02  0.00000000000E+00 0. -1.
          1    1    1    2  501    0  0.55577127616E+02  0.69031253123E+02 -0.20670498648E+02  0.91002200721E+02  0.00000000000E+00 0. -1.
<scales pt_clust_5="13000.00000" pt_clust_6="13000.00000" pt_clust_7="13000.00000" pt_clust_8="13000.00000" pt_clust_9="88.62354"></scales>
<clustering>
<clus scale="   88.624">  2  9  1 -1</clus>
<clus scale="   88.796">  5  6 -1 -1</clus>
<clus scale="   90.857">  7  8 -1 -1</clus>
<clus scale="  121.220">  2  5  1 -1</clus>
<clus scale="   88.624">  2  5  1 -1</clus>
</clustering>
</event>
<event>
 9    1  0.1504846E-005  0.9088340E+02  0.7546771E-02  0.1301305E+00
         21   -1    0    0  501  502  0.00000000000E+00  0.00000000000E+00  0.74033008643E+02  0.74033008643E+02  0.00000000000E+00 0. -1.
         -1   -1    0    0    0  501 -0.00000000000E+00 -0.00000000000E+00 -0.18226986340E+03  0.18226986340E+03  0.00000000000E+00 0.  1.
         23    2    1    2    0    0  0.85840000868E+01 -0.87881473615E+01 -0.10758840195E+03  0.14055160457E+03  0.89602303114E+02 0.  0.
         23    2    1    2    0    0  0.12918917366E+02  0.30083305860E+01 -0.89875055702E+01  0.91974776100E+02  0.90568403450E+02 0.  0.
        -13    1    3    3    0    0  0.31660010414E+02 -0.21535229847E+02 -0.10757783198E+03  0.11418893255E+03  0.00000000000E+00 0.  1.
         13    1    3    3    0    0 -0.23076010327E+02  0.12747082485E+02 -0.10569968875E-01  0.26362672024E+02  0.00000000000E+00 0. -1.
        -13    1    4    4    0    0 -0.62253203303E+01 -0.41761678464E+02  0.11519276313E+01  0.42238836852E+02  0.00000000000E+00 0.  1.
         13    1    4    4    0    0  0.19144237697E+02  0.44770009050E+02 -0.10139433201E+02  0.49735939249E+02  0.00000000000E+00 0. -1.
         -1    1    1    2    0  502 -0.21502917453E+02  0.57798167754E+01  0.83390527586E+01  0.23776491370E+02  0.00000000000E+00 0.  1.
<scales pt_clust_5="13000.00000" pt_clust_6="13000.00000" pt_clust_7="13000.00000" pt_clust_8="13000.00000" pt_clust_9="22.26616"></scales>
<clustering>
<clus scale="   22.266">  1  9  2 -1</clus>
<clus scale="   89.602">  5  6 -1 -1</clus>
<clus scale="   89.921">  2  5  1 -1</clus>
<clus scale="   90.568">  7  8 -1 -1</clus>
<clus scale="   22.266">  1  5  2 -1</clus>
</clustering>
</event>
<event>
 9    1  0.1504846E-005  0.1001153E+03  0.7546771E-02  0.1281127E+00
         -3   -1    0    0    0  501 -0.00000000000E+00  0.00000000000E+00  0.18299581624E+03  0.18299581624E+03  0.00000000000E+00 0.  1.
         21   -1    0    0  501  502  0.00000000000E+00 -0.00000000000E+00 -0.98485556903E+02  0.98485556903E+02  0.00000000000E+00 0. -1.
         23    2    1    2    0    0 -0.12704740381E+02 -0.18551997472E+02  0.64268675250E+02  0.11313603375E+03  0.90353264894E+02 0.  0.
         23    2    1    2    0    0  0.15753932300E+02  0.65099663941E+02  0.34894778875E+02  0.11945056520E+03  0.92545336493E+02 0.  0.
        -11    1    3    3    0    0  0.30750758030E+02 -0.20835169366E+02  0.58420892629E+02  0.69229430862E+02  0.00000000000E+00 0.  1.
         11    1    3    3    0    0 -0.43455498410E+02  0.22831718940E+01  0.58477826205E+01  0.43906602892E+02  0.00000000000E+00 0. -1.
        -13    1    4    4    0    0 -0.20263719143E+02  0.44744702149E+02 -0.17986355612E+02  0.52308848889E+02  0.00000000000E+00 0. -1.
         13    1    4    4    0    0  0.36017651443E+02  0.20354961792E+02  0.52881134487E+02  0.67141716315E+02  0.00000000000E+00 0.  1.
         -3    1    1    2    0  502 -0.30491919190E+01 -0.46547666469E+02 -0.14653194788E+02  0.48894774185E+02  0.00000000000E+00 0.  1.
<scales pt_clust_5="13000.00000" pt_clust_6="13000.00000" pt_clust_7="13000.00000" pt_clust_8="13000.00000" pt_clust_9="46.64743"></scales>
<clustering>
<clus scale="   46.647">  2  9  1 -1</clus>
<clus scale="   90.353">  5  6 -1 -1</clus>
<clus scale="   92.545">  7  8 -1 -1</clus>
<clus scale="   98.093">  1  5  2 -1</clus>
<clus scale="   46.647">  2  5  1 -1</clus>
</clustering>
</event>
<event>
 9    1  0.2803003E-005  0.1040295E+03  0.7546771E-02  0.1272490E+00
         21   -1    0    0  501  502  0.00000000000E+00  0.00000000000E+00  0.34931995842E+03  0.34931995842E+03  0.00000000000E+00 0. -1.
          2   -1    0    0  502    0 -0.00000000000E+00 -0.00000000000E+00 -0.42125411554E+03  0.42125411554E+03  0.00000000000E+00 0. -1.
         23    2    1    2    0    0  0.12250944026E+02 -0.47546809611E+02 -0.29634106062E+03  0.31406076232E+03  0.91680714910E+02 0.  0.
         23    2    1    2    0    0  0.27322479629E+02  0.53679911950E+02 -0.88970988684E+02  0.14058709538E+03  0.90668868532E+02 0.  0.
        -11    1    4    4    0    0  0.14032588529E+02 -0.25206006474E+02 -0.22920273325E+02  0.36845559196E+02  0.00000000000E+00 0.  1.
         11    1    4    4    0    0  0.13289891101E+02  0.78885918424E+02 -0.66050715359E+02  0.10374153619E+03  0.00000000000E+00 0. -1.
        -13    1    3    3    0    0 -0.28747655598E+02  0.10415656902E+02 -0.12300607036E+03  0.12674938641E+03  0.00000000000E+00 0.  1.
         13    1    3    3    0    0  0.40998599625E+02 -0.57962466513E+02 -0.17333499027E+03  0.18731137591E+03  0.00000000000E+00 0. -1.
          2    1    1    2  501    0 -0.39573423656E+02 -0.61331023386E+01  0.31337789219E+03  0.31592621626E+03  0.00000000000E+00 0. -1.
<scales pt_clust_5="13000.00000" pt_clust_6="13000.00000" pt_clust_7="13000.00000" pt_clust_8="13000.00000" pt_clust_9="40.04586"></scales>
<clustering>
<clus scale="   40.046">  1  9  2 -1</clus>
<clus scale="   90.669">  5  6 -1 -1</clus>
<clus scale="   91.681">  7  8 -1 -1</clus>
<clus scale="  103.139">  1  5  2 -1</clus>
<clus scale="   40.046">  1  5  2 -1</clus>
</clustering>
</event>
<event>
 9    1  0.1504846E-005  0.1825677E+03  0.7546771E-02  0.1182340E+00
          1   -1    0    0  502    0 -0.00000000000E+00  0.00000000000E+00  0.70582608616E+03  0.70582608616E+03  0.00000000000E+00 0. -1.
         21   -1    0    0  501  502  0.00000000000E+00 -0.00000000000E+00 -0.22738199396E+03  0.22738199396E+03  0.00000000000E+00 0. -1.
         23    2    1    2    0    0 -0.36914403132E+02 -0.76215693064E+02  0.56677503892E+03  0.58019672017E+03  0.90679569481E+02 0.  0.
         23    2    1    2    0    0 -0.12498857926E+03  0.42876376354E+02 -0.12560373204E+02  0.17117278991E+03  0.10808252604E+03 0.  0.
        -11    1    4    4    0    0 -0.13782561305E+03  0.15387769552E+02 -0.19513046390E+02  0.14004799907E+03  0.00000000000E+00 0. -1.
         11    1    4    4    0    0  0.12837033785E+02  0.27488606802E+02  0.69526731855E+01  0.31124790838E+02  0.00000000000E+00 0.  1.
        -11    1    3    3    0    0  0.30404210651E+02 -0.20473194826E+02  0.16304864910E+03  0.16711801131E+03  0.00000000000E+00 0.  1.
         11    1    3    3    0    0 -0.67318613782E+02 -0.55742498238E+02  0.40372638982E+03  0.41307870886E+03  0.00000000000E+00 0. -1.
          1    1    1    2  501    0  0.16190298239E+03  0.33339316710E+02 -0.75770573516E+02  0.18183857005E+03  0.00000000000E+00 0. -1.
<scales pt_clust_5="13000.00000" pt_clust_6="13000.00000" pt_clust_7="13000.00000" pt_clust_8="13000.00000" pt_clust_9="147.13649"></scales>
<clustering>
<clus scale="   90.680">  7  8 -1 -1</clus>
<clus scale="  108.083">  5  6 -1 -1</clus>
<clus scale="  124.074">  1  7  2 -1</clus>
<clus scale="  147.136">  2  9  1 -1</clus>
<clus scale="  147.136">  2  5  1 -1</clus>
</clustering>
</event>
<event>
 9    1  0.1504846E-005  0.9388952E+02  0.7546771E-02  0.1296589E+00
          2   -1    0    0  502    0 -0.00000000000E+00  0.00000000000E+00  0.84865836029E+02  0.84865836029E+02  0.00000000000E+00 0. -1.
         21   -1    0    0  501  502  0.00000000000E+00 -0.00000000000E+00 -0.27708393108E+03  0.27708393108E+03  0.00000000000E+00 0. -1.
         23    2    1    2    0    0  0.26474702476E+02 -0.18020640110E+02  0.26772265702E+02  0.99257163792E+02  0.90053189905E+02 0.  0.
         23    2    1    2    0    0 -0.21077144944E+02 -0.32638825043E+02 -0.12855202852E+03  0.15889179902E+03  0.84920202651E+02 0.  0.
        -11    1    3    3    0    0  0.70221272334E+01  0.32809781935E+02 -0.82305600707E+01  0.34547564033E+02  0.00000000000E+00 0.  1.
         11    1    3    3    0    0  0.19452575242E+02 -0.50830422046E+02  0.35002825772E+02  0.64709599759E+02  0.00000000000E+00 0. -1.
        -13    1    4    4    0    0 -0.62259838347E+01 -0.57477651238E+02 -0.11070247113E+03  0.12488987301E+03  0.00000000000E+00 0. -1.
         13    1    4    4    0    0 -0.14851161109E+02  0.24838826195E+02 -0.17849557396E+02  0.34001926008E+02  0.00000000000E+00 0.  1.
          2    1    1    2  501    0 -0.53975575322E+01  0.50659465154E+02 -0.90438332230E+02  0.10380080430E+03  0.00000000000E+00 0. -1.
<scales pt_clust_5="13000.00000" pt_clust_6="13000.00000" pt_clust_7="13000.00000" pt_clust_8="13000.00000" pt_clust_9="50.94620"></scales>
<clustering>
<clus scale="   50.946">  2  9  1 -1</clus>
<clus scale="   84.920">  7  8 -1 -1</clus>
<clus scale="   88.978">  2  7  1 -1</clus>
<clus scale="   90.053">  5  6 -1 -1</clus>
<clus scale="   50.946">  2  5  1 -1</clus>
</clustering>
</event>
<event>
 9    1  0.1504846E-005  0.1022233E+03  0.7546771E-02  0.1279230E+00
         -3   -1    0    0    0  501 -0.00000000000E+00  0.00000000000E+00  0.12242459655E+03  0.12242459655E+03  0.00000000000E+00 0.  1.
         21   -1    0    0  501  502  0.00000000000E+00 -0.00000000000E+00 -0.16379161823E+03  0.16379161823E+03  0.00000000000E+00 0.  1.
         23    2    1    2    0    0 -0.44003661795E+02  0.12872677883E+02  0.39501789280E+02  0.10824887713E+03  0.89751879958E+02 0.  0.
         23    2    1    2    0    0  0.58244104001E+02  0.26831495164E+02 -0.23494979040E+02  0.10675660714E+03  0.82052753418E+02 0.  0.
        -11    1    3    3    0    0  0.58893653873E+01  0.38208443578E+02 -0.17975081879E+01  0.38701431769E+02  0.00000000000E+00 0. -1.
         11    1    3    3    0    0 -0.49893027182E+02 -0.25335765694E+02  0.41299297468E+02  0.69547445359E+02  0.00000000000E+00 0.  1.
        -11    1    4    4    0    0  0.35477007574E+02  0.45093680425E+02  0.14176351234E+02  0.59101835970E+02  0.00000000000E+00 0.  1.
         11    1    4    4    0    0  0.22767096427E+02 -0.18262185261E+02 -0.37671330275E+02  0.47654771166E+02  0.00000000000E+00 0. -1.
         -3    1    1    2    0  502 -0.14240442206E+02 -0.39704173047E+02 -0.57373831922E+02  0.71210730519E+02  0.00000000000E+00 0.  1.
<scales pt_clust_5="13000.00000" pt_clust_6="13000.00000" pt_clust_7="13000.00000" pt_clust_8="13000.00000" pt_clust_9="42.18070"></scales>
<clustering>
<clus scale="   42.181">  2  9  1 -1</clus>
<clus scale="   82.053">  7  8 -1 -1</clus>
<clus scale="   89.752">  5  6 -1 -1</clus>
<clus scale="   95.535">  2  7  1 -1</clus>
<clus scale="   42.181">  2  5  1 -1</clus>
</clustering>
</event>
<event>
 9    1  0.1504846E-005  0.1108666E+03  0.7546771E-02  0.1259405E+00
         21   -1    0    0  501  502  0.00000000000E+00  0.00000000000E+00  0.14239160397E+03  0.14239160397E+03  0.00000000000E+00 0.  1.
         -2   -1    0    0    0  501 -0.00000000000E+00 -0.00000000000E+00 -0.31479581317E+03  0.31479581317E+03  0.00000000000E+00 0.  1.
         23    2    1    2    0    0  0.60415029425E+02  0.23327683554E+02 -0.15471114639E+03  0.19089244285E+03  0.91160459188E+02 0.  0.
         23    2    1    2    0    0  0.20926706734E+01 -0.10378847301E+03 -0.67269134735E+02  0.15298593617E+03  0.90017408191E+02 0.  0.
        -11    1    4    4    0    0  0.19792327671E+02 -0.83436884661E+02 -0.59042957228E+01  0.85955282935E+02  0.00000000000E+00 0.  1.
         11    1    4    4    0    0 -0.17699656997E+02 -0.20351588352E+02 -0.61364839013E+02  0.67030653237E+02  0.00000000000E+00 0. -1.
        -13    1    3    3    0    0  0.86574536711E+01  0.48983329838E+02 -0.45833060552E+02  0.67638654227E+02  0.00000000000E+00 0. -1.
         13    1    3    3    0    0  0.51757575754E+02 -0.25655646284E+02 -0.10887808584E+03  0.12325378862E+03  0.00000000000E+00 0.  1.
         -2    1    1    2    0  502 -0.62507700099E+02  0.80460789459E+02  0.49576071925E+02  0.11330903812E+03  0.00000000000E+00 0.  1.
<scales pt_clust_5="13000.00000" pt_clust_6="13000.00000" pt_clust_7="13000.00000" pt_clust_8="13000.00000" pt_clust_9="101.88793"></scales>
<clustering>
<clus scale="   90.017">  5  6 -1 -1</clus>
<clus scale="   91.160">  7  8 -1 -1</clus>
<clus scale="  101.888">  1  9  2 -1</clus>
<clus scale="  109.929">  1  5  2 -1</clus>
<clus scale="  101.888">  1  5  2 -1</clus>
</clustering>
</event>
<event>
 9    1  0.1504846E-005  0.1097694E+03  0.7546771E-02  0.1262498E+00
         21   -1    0    0  501  502  0.00000000000E+00  0.00000000000E+00  0.14285836764E+03  0.14285836764E+03  0.00000000000E+00 0.  1.
          3   -1    0    0  502    0 -0.00000000000E+00 -0.00000000000E+00 -0.11931584626E+03  0.11931584626E+03  0.00000000000E+00 0. -1.
         23    2    1    2    0    0 -0.12577750657E+02  0.44647138632E+02 -0.61635301467E+01  0.10215790568E+03  0.90811242639E+02 0.  0.
         23    2    1    2    0    0  0.46869357744E+02 -0.57162620712E+02  0.29242291590E+02  0.12350923107E+03  0.94525745914E+02 0.  0.
        -11    1    3    3    0    0 -0.30900406178E+02  0.21387347548E+02 -0.41545862428E+02  0.56020642820E+02  0.00000000000E+00 0. -1.
         11    1    3    3    0    0  0.18322655521E+02  0.23259791084E+02  0.35382332281E+02  0.46137262861E+02  0.00000000000E+00 0.  1.
        -13    1    4    4    0    0 -0.73273884634E+01 -0.34929360287E+02 -0.25078383843E+02  0.43619676385E+02  0.00000000000E+00 0. -1.
         13    1    4    4    0    0  0.54196746207E+02 -0.22233260425E+02  0.54320675433E+02  0.79889554687E+02  0.00000000000E+00 0.  1.
          3    1    1    2  501    0 -0.34291607087E+02  0.12515482080E+02  0.46375993333E+00  0.36507077143E+02  0.00000000000E+00 0. -1.
<scales pt_clust_5="13000.00000" pt_clust_6="13000.00000" pt_clust_7="13000.00000" pt_clust_8="13000.00000" pt_clust_9="36.50415"></scales>
<clustering>
<clus scale="   36.504">  1  9  2 -1</clus>
<clus scale="   90.811">  5  6 -1 -1</clus>
<clus scale="   94.526">  7  8 -1 -1</clus>
<clus scale="  106.587">  2  5  1 -1</clus>
<clus scale="   36.504">  1  5  2 -1</clus>
</clustering>
</event>
<event>
 9    1  0.1504846E-005  0.3008618E+03  0.7546771E-02  0.1084961E+00
         21   -1    0    0  501  502  0.00000000000E+00  0.00000000000E+00  0.97106533003E+03  0.97106533003E+03  0.00000000000E+00 0. -1.
         -2   -1    0    0    0  501 -0.00000000000E+00 -0.00000000000E+00 -0.49168475076E+03  0.49168475076E+03  0.00000000000E+00 0.  1.
         23    2    1    2    0    0 -0.27887128431E+03 -0.56940125077E+02 -0.39302464534E+03  0.49423847661E+03  0.93765286011E+02 0.  0.
         23    2    1    2    0    0  0.30575511704E+03  0.43836851528E+02  0.88059088026E+03  0.93750448889E+03  0.89813735889E+02 0.  0.
        -11    1    3    3    0    0 -0.15380397451E+03  0.10873573409E+02 -0.16817215118E+03  0.22815733520E+03  0.00000000000E+00 0.  1.
         11    1    3    3    0    0 -0.12506730980E+03 -0.67813698486E+02 -0.22485249416E+03  0.26608114141E+03  0.00000000000E+00 0. -1.
        -13    1    4    4    0    0  0.40600888311E+02 -0.18294558166E+02  0.76150992457E+02  0.88216192631E+02  0.00000000000E+00 0.  1.
         13    1    4    4    0    0  0.26515422873E+03  0.62131409694E+02  0.80443988780E+03  0.84928829626E+03  0.00000000000E+00 0. -1.
         -2    1    1    2    0  502 -0.26883832727E+02  0.13103273549E+02 -0.81856556453E+01  0.31007115282E+02  0.00000000000E+00 0.  1.
<scales pt_clust_5="13000.00000" pt_clust_6="13000.00000" pt_clust_7="13000.00000" pt_clust_8="13000.00000" pt_clust_9="29.90714"></scales>
<clustering>
<clus scale="   29.907">  1  9  2 -1</clus>
<clus scale="   89.814">  7  8 -1 -1</clus>
<clus scale="   93.765">  5  6 -1 -1</clus>
<clus scale="  299.654">  1  7  2 -1</clus>
<clus scale="   29.907">  1  5  2 -1</clus>
</clustering>
</event>
<event>
 9    1  0.1504846E-005  0.1447616E+03  0.7546771E-02  0.1207111E+00
         21   -1    0    0  501  502  0.00000000000E+00  0.00000000000E+00  0.31540861943E+03  0.31540861943E+03  0.00000000000E+00 0.  1.
         -1   -1    0    0    0  501 -0.00000000000E+00 -0.00000000000E+00 -0.18409014315E+03  0.18409014315E+03  0.00000000000E+00 0.  1.
         23    2    1    2    0    0 -0.10892085640E+03  0.27868175002E+01 -0.58640351273E+02  0.15341482428E+03  0.90696737547E+02 0.  0.
         23    2    1    2    0    0  0.13439520113E+03 -0.46429925971E+01  0.24017833095E+03  0.28974224727E+03  0.90450603813E+02 0.  0.
        -11    1    4    4    0    0  0.16905010737E+02  0.29722780304E+02  0.25648316137E+02  0.42744112784E+02  0.00000000000E+00 0. -1.
         11    1    4    4    0    0  0.11749019040E+03 -0.34365772901E+02  0.21453001481E+03  0.24699813449E+03  0.00000000000E+00 0.  1.
        -11    1    3    3    0    0 -0.35559781459E+02 -0.20062809539E+02  0.18241765971E+02  0.44718859665E+02  0.00000000000E+00 0. -1.
         11    1    3    3    0    0 -0.73361074941E+02  0.22849627040E+02 -0.76882117243E+02  0.10869596462E+03  0.00000000000E+00 0.  1.
         -1    1    1    2    0  502 -0.25474344733E+02  0.18561750969E+01 -0.50219503395E+02  0.56341691018E+02  0.00000000000E+00 0.  1.
<scales pt_clust_5="13000.00000" pt_clust_6="13000.00000" pt_clust_7="13000.00000" pt_clust_8="13000.00000" pt_clust_9="25.54189"></scales>
<clustering>
<clus scale="   25.542">  1  9  2 -1</clus>
<clus scale="   90.451">  5  6 -1 -1</clus>
<clus scale="   90.697">  7  8 -1 -1</clus>
<clus scale="  144.608">  1  5  2 -1</clus>
<clus scale="   25.542">  1  5  2 -1</clus>
</clustering>
</event>
<event>
 9    1  0.1504846E-005  0.1601221E+03  0.7546771E-02  0.1189603E+00
         21   -1    0    0  501  502  0.00000000000E+00  0.00000000000E+00  0.18032842188E+03  0.18032842188E+03  0.00000000000E+00 0. -1.
          2   -1    0    0  502    0 -0.00000000000E+00 -0.00000000000E+00 -0.36278531428E+03  0.36278531428E+03  0.00000000000E+00 0. -1.
         23    2    1    2    0    0 -0.37993566418E+02  0.90171895729E+02 -0.10333900008E+03  0.16498132938E+03  0.83459021309E+02 0.  0.
         23    2    1    2    0    0  0.71965745068E+02 -0.18631086015E+03 -0.13937767155E+03  0.25969233589E+03  0.90128624312E+02 0.  0.
        -13    1    3    3    0    0 -0.55303510382E+02  0.43691541847E+02 -0.30354884120E+02  0.76738830324E+02  0.00000000000E+00 0.  1.
         13    1    3    3    0    0  0.17309943964E+02  0.46480353881E+02 -0.72984115963E+02  0.88242499057E+02  0.00000000000E+00 0. -1.
        -13    1    4    4    0    0  0.30757526832E+02 -0.79207824486E+02 -0.11396602753E+03  0.14215540914E+03  0.00000000000E+00 0.  1.
         13    1    4    4    0    0  0.41208218235E+02 -0.10710303566E+03 -0.25411644022E+02  0.11753692675E+03  0.00000000000E+00 0. -1.
          2    1    1    2  501    0 -0.33972178649E+02  0.96138964420E+02  0.60259779231E+02  0.11844007090E+03  0.00000000000E+00 0. -1.
<scales pt_clust_5="13000.00000" pt_clust_6="13000.00000" pt_clust_7="13000.00000" pt_clust_8="13000.00000" pt_clust_9="101.96475"></scales>
<clustering>
<clus scale="   83.459">  5  6 -1 -1</clus>
<clus scale="   90.129">  7  8 -1 -1</clus>
<clus scale="  101.965">  1  9  2 -1</clus>
<clus scale="  156.465">  2  5  1 -1</clus>
<clus scale="  101.965">  1  5  2 -1</clus>
</clustering>
</event>
<event>
 9    1  0.1504846E-005  0.2471708E+03  0.7546771E-02  0.1115250E+00
         21   -1    0    0  501  502  0.00000000000E+00  0.00000000000E+00  0.11111822345E+03  0.11111822345E+03  0.00000000000E+00 0.  1.
          1   -1    0    0  502    0 -0.00000000000E+00 -0.00000000000E+00 -0.80819759556E+03  0.80819759556E+03  0.00000000000E+00 0. -1.
         23    2    1    2    0    0  0.20923057077E+03  0.83553123505E+02 -0.52565133349E+03  0.57916873460E+03  0.91479738446E+02 0.  0.
         23    2    1    2    0    0 -0.22918321015E+03 -0.64188014334E+02 -0.17788034804E+03  0.31160330106E+03  0.93862420681E+02 0.  0.
        -11    1    4    4    0    0 -0.19882162802E+03 -0.16999139860E+02 -0.14364113387E+03  0.24586944882E+03  0.00000000000E+00 0.  1.
         11    1    4    4    0    0 -0.30361582128E+02 -0.47188874474E+02 -0.34239214169E+02  0.65733852241E+02  0.00000000000E+00 0. -1.
        -13    1    3    3    0    0  0.95245275874E+02  0.94266284680E+01 -0.13464608983E+03  0.16519713499E+03  0.00000000000E+00 0.  1.
         13    1    3    3    0    0  0.11398529489E+03  0.74126495037E+02 -0.39100524365E+03  0.41397159961E+03  0.00000000000E+00 0. -1.
          1    1    1    2  501    0  0.19952639378E+02 -0.19365109171E+02  0.64523094217E+01  0.28543783355E+02  0.00000000000E+00 0. -1.
<scales pt_clust_5="13000.00000" pt_clust_6="13000.00000" pt_clust_7="13000.00000" pt_clust_8="13000.00000" pt_clust_9="27.80495"></scales>
<clustering>
<clus scale="   27.805">  1  9  2 -1</clus>
<clus scale="   91.480">  7  8 -1 -1</clus>
<clus scale="   93.862">  5  6 -1 -1</clus>
<clus scale="  246.276">  2  7  1 -1</clus>
<clus scale="   27.805">  1  5  2 -1</clus>
</clustering>
</event>
<event>
 9    1  0.1504846E-005  0.1009713E+03  0.7546771E-02  0.1279636E+00
         21   -1    0    0  501  502  0.00000000000E+00  0.00000000000E+00  0.24910034176E+02  0.24910034176E+02  0.00000000000E+00 0.  1.
          1   -1    0    0  502    0 -0.00000000000E+00 -0.00000000000E+00 -0.66615050496E+03  0.66615050496E+03  0.00000000000E+00 0. -1.
         23    2    1    2    0    0 -0.37325180792E+02 -0.31752628020E+02 -0.42995480490E+03  0.44210931279E+03  0.90543424342E+02 0.  0.
         23    2    1    2    0    0  0.34628881176E+01  0.18650275935E+02 -0.15688665683E+03  0.18354802550E+03  0.93362895126E+02 0.  0.
        -13    1    4    4    0    0 -0.34018761074E+02 -0.21482006127E+02 -0.61758948715E+02  0.73708347144E+02  0.00000000000E+00 0.  1.
         13    1    4    4    0    0  0.37481649192E+02  0.40132282062E+02 -0.95127708118E+02  0.10983967836E+03  0.00000000000E+00 0. -1.
        -13    1    3    3    0    0 -0.63518914939E+02 -0.31716592459E+01 -0.28941480322E+03  0.29632016519E+03  0.00000000000E+00 0.  1.
         13    1    3    3    0    0  0.26193734148E+02 -0.28580968774E+02 -0.14054000168E+03  0.14578914760E+03  0.00000000000E+00 0. -1.
          1    1    1    2  501    0  0.33862292674E+02  0.13102352085E+02 -0.54399009059E+02  0.65403200854E+02  0.00000000000E+00 0. -1.
<scales pt_clust_5="13000.00000" pt_clust_6="13000.00000" pt_clust_7="13000.00000" pt_clust_8="13000.00000" pt_clust_9="36.30877"></scales>
<clustering>
<clus scale="   36.309">  1  9  2 -1</clus>
<clus scale="   90.543">  7  8 -1 -1</clus>
<clus scale="   93.363">  5  6 -1 -1</clus>
<clus scale="   98.370">  2  7  1 -1</clus>
<clus scale="   36.309">  1  5  2 -1</clus>
</clustering>
</event>
<event>
 9    1  0.1504846E-005  0.3134475E+03  0.7546771E-02  0.1078947E+00
          2   -1    0    0  502    0 -0.00000000000E+00  0.00000000000E+00  0.64906088276E+03  0.64906088276E+03  0.00000000000E+00 0. -1.
         21   -1    0    0  501  502  0.00000000000E+00 -0.00000000000E+00 -0.24224563178E+03  0.24224563178E+03  0.00000000000E+00 0.  1.
         23    2    1    2    0    0 -0.21079282155E+03 -0.22705224458E+03  0.41800134137E+03  0.52973002947E+03  0.99511041370E+02 0.  0.
         23    2    1    2    0    0  0.16789347176E+03  0.21182727437E+03  0.44931366380E+02  0.28931776321E+03  0.92881259667E+02 0.  0.
        -11    1    3    3    0    0 -0.97751762753E+02 -0.11421519910E+03  0.12289896437E+03  0.19417691488E+03  0.00000000000E+00 0.  1.
         11    1    3    3    0    0 -0.11304105879E+03 -0.11283704548E+03  0.29510237700E+03  0.33555311460E+03  0.00000000000E+00 0. -1.
        -13    1    4    4    0    0  0.15374822065E+03  0.12663700919E+03  0.25616038369E+02  0.20082736087E+03  0.00000000000E+00 0. -1.
         13    1    4    4    0    0  0.14145251101E+02  0.85190265181E+02  0.19315328011E+02  0.88490402341E+02  0.00000000000E+00 0.  1.
          2    1    1    2  501    0  0.42899349790E+02  0.15224970209E+02 -0.56117456773E+02  0.72258721861E+02  0.00000000000E+00 0. -1.
<scales pt_clust_5="13000.00000" pt_clust_6="13000.00000" pt_clust_7="13000.00000" pt_clust_8="13000.00000" pt_clust_9="45.52092"></scales>
<clustering>
<clus scale="   45.521">  2  9  1 -1</clus>
<clus scale="   92.881">  7  8 -1 -1</clus>
<clus scale="   99.511">  5  6 -1 -1</clus>
<clus scale="  311.406">  2  7  1 -1</clus>
<clus scale="   45.521">  2  5  1 -1</clus>
</clustering>
</event>
<event>
 9    1  0.1504846E-005  0.1254454E+03  0.7546771E-02  0.1234624E+00
         21   -1    0    0  501  502  0.00000000000E+00  0.00000000000E+00  0.57257189152E+02  0.57257189152E+02  0.00000000000E+00 0.  1.
          1   -1    0    0  502    0 -0.00000000000E+00 -0.00000000000E+00 -0.57210649248E+03  0.57210649248E+03  0.00000000000E+00 0. -1.
         23    2    1    2    0    0  0.91935190374E+02  0.29490010128E+02 -0.36577271245E+03  0.38891773493E+03  0.90252908200E+02 0.  0.
         23    2    1    2    0    0 -0.58715609087E+02 -0.41778765823E+02 -0.16484582951E+03  0.20167452701E+03  0.91134402470E+02 0.  0.
        -11    1    4    4    0    0 -0.51326388666E+02 -0.63427570707E+02 -0.15795467999E+03  0.17778395831E+03  0.00000000000E+00 0.  1.
         11    1    4    4    0    0 -0.73892204205E+01  0.21648804884E+02 -0.68911495186E+01  0.23890568704E+02  0.00000000000E+00 0. -1.
        -13    1    3    3    0    0  0.62030125208E+02 -0.27297377170E+02 -0.17681949805E+03  0.18936213487E+03  0.00000000000E+00 0.  1.
         13    1    3    3    0    0  0.29905065166E+02  0.56787387298E+02 -0.18895321440E+03  0.19955560005E+03  0.00000000000E+00 0. -1.
          1    1    1    2  501    0 -0.33219581287E+02  0.12288755695E+02  0.15769238642E+02  0.38771419690E+02  0.00000000000E+00 0. -1.
<scales pt_clust_5="13000.00000" pt_clust_6="13000.00000" pt_clust_7="13000.00000" pt_clust_8="13000.00000" pt_clust_9="35.41969"></scales>
<clustering>
<clus scale="   35.420">  1  9  2 -1</clus>
<clus scale="   90.253">  7  8 -1 -1</clus>
<clus scale="   91.134">  5  6 -1 -1</clus>
<clus scale="  124.806">  2  7  1 -1</clus>
<clus scale="   35.420">  1  5  2 -1</clus>
</clustering>
</event>
<event>
 9    1  0.1504846E-005  0.2953424E+03  0.7546771E-02  0.1111541E+00
          2   -1    0    0  502    0 -0.00000000000E+00  0.00000000000E+00  0.55575524485E+03  0.55575524485E+03  0.00000000000E+00 0. -1.
         21   -1    0    0  501  502  0.00000000000E+00 -0.00000000000E+00 -0.59513877339E+03  0.59513877339E+03  0.00000000000E+00 0. -1.
         23    2    1    2    0    0 -0.11383215167E+03  0.63185329477E+02  0.16746220548E+03  0.23062256375E+03  0.90515369016E+02 0.  0.
         23    2    1    2    0    0  0.36777603336E+03 -0.14035135051E+03  0.18657231868E+03  0.44569811555E+03  0.94233050490E+02 0.  0.
        -11    1    3    3    0    0 -0.10509610136E+03  0.84875107367E+02  0.14550349208E+03  0.19854531115E+03  0.00000000000E+00 0.  1.
         11    1    3    3    0    0 -0.87360503164E+01 -0.21689777889E+02  0.21958713399E+02  0.32077252597E+02  0.00000000000E+00 0. -1.
        -11    1    4    4    0    0  0.10851575597E+03  0.31246184756E+00  0.34668266881E+02  0.11391951393E+03  0.00000000000E+00 0.  1.
         11    1    4    4    0    0  0.25926027739E+03 -0.14066381236E+03  0.15190405180E+03  0.33177860162E+03  0.00000000000E+00 0. -1.
          2    1    1    2  501    0 -0.25394388168E+03  0.77166021030E+02 -0.39341805270E+03  0.47457333895E+03  0.00000000000E+00 0. -1.
<scales pt_clust_5="13000.00000" pt_clust_6="13000.00000" pt_clust_7="13000.00000" pt_clust_8="13000.00000" pt_clust_9="279.90587"></scales>
<clustering>
<clus scale="   90.515">  5  6 -1 -1</clus>
<clus scale="   94.233">  7  8 -1 -1</clus>
<clus scale="  158.566">  1  5  2 -1</clus>
<clus scale="  279.906">  2  9  1 -1</clus>
<clus scale="  279.906">  2  5  1 -1</clus>
</clustering>
</event>
<event>
 9    1  0.1504846E-005  0.1300286E+03  0.7546771E-02  0.1228268E+00
         21   -1    0    0  501  502  0.00000000000E+00  0.00000000000E+00  0.37800267623E+03  0.37800267623E+03  0.00000000000E+00 0. -1.
          1   -1    0    0  502    0 -0.00000000000E+00 -0.00000000000E+00 -0.93208811588E+02  0.93208811588E+02  0.00000000000E+00 0. -1.
         23    2    1    2    0    0 -0.65263023604E+02 -0.60268773146E+02  0.12138362725E+02  0.12744119090E+03  0.90566715855E+02 0.  0.
         23    2    1    2    0    0  0.60639925065E+02  0.83101707101E+02  0.95959528002E+02  0.16554520578E+03  0.87257606596E+02 0.  0.
        -11    1    4    4    0    0  0.26074088712E+02  0.74365085064E+02  0.19498059148E+02  0.81180036273E+02  0.00000000000E+00 0. -1.
         11    1    4    4    0    0  0.34565836353E+02  0.87366220367E+01  0.76461468854E+02  0.84365169511E+02  0.00000000000E+00 0.  1.
        -13    1    3    3    0    0 -0.29004103469E+01 -0.64234116207E+02  0.39845262001E+01  0.64422903646E+02  0.00000000000E+00 0. -1.
         13    1    3    3    0    0 -0.62362613257E+02  0.39653430610E+01  0.81538365251E+01  0.63018287250E+02  0.00000000000E+00 0.  1.
          1    1    1    2  501    0  0.46230985394E+01 -0.22832933955E+02  0.17669597392E+03  0.17822509114E+03  0.00000000000E+00 0. -1.
<scales pt_clust_5="13000.00000" pt_clust_6="13000.00000" pt_clust_7="13000.00000" pt_clust_8="13000.00000" pt_clust_9="23.29626"></scales>
<clustering>
<clus scale="   23.296">  1  9  2 -1</clus>
<clus scale="   87.258">  5  6 -1 -1</clus>
<clus scale="   90.567">  7  8 -1 -1</clus>
<clus scale="  127.746">  1  5  2 -1</clus>
<clus scale="   23.296">  1  5  2 -1</clus>
</clustering>
</event>
<event>
 9    1  0.1504846E-005  0.1821610E+03  0.7546771E-02  0.1169778E+00
         21   -1    0    0  501  502  0.00000000000E+00  0.00000000000E+00  0.47373437067E+02  0.47373437067E+02  0.00000000000E+00 0.  1.
          1   -1    0    0  502    0 -0.00000000000E+00 -0.00000000000E+00 -0.87061948100E+03  0.87061948100E+03  0.00000000000E+00 0. -1.
         23    2    1    2    0    0 -0.13834728572E+03  0.46353836924E+02 -0.51921679974E+03  0.55237936401E+03  0.11936593733E+03 0.  0.
         23    2    1    2    0    0  0.11890358325E+03 -0.31207566009E+02 -0.17029725812E+03  0.22962932266E+03  0.92825079674E+02 0.  0.
        -11    1    3    3    0    0 -0.61554034025E+02 -0.30566621557E+02 -0.29903774018E+03  0.30683348499E+03  0.00000000000E+00 0. -1.
         11    1    3    3    0    0 -0.76793251692E+02  0.76920458480E+02 -0.22017905956E+03  0.24554587903E+03  0.00000000000E+00 0.  1.
        -13    1    4    4    0    0  0.24642244542E+02 -0.51726126349E+02 -0.56892655376E+02  0.80744080891E+02  0.00000000000E+00 0. -1.
         13    1    4    4    0    0  0.94261338704E+02  0.20518560340E+02 -0.11340460274E+03  0.14888524177E+03  0.00000000000E+00 0.  1.
          1    1    1    2  501    0  0.19443702470E+02 -0.15146270915E+02 -0.13373198607E+03  0.13598423139E+03  0.00000000000E+00 0. -1.
<scales pt_clust_5="13000.00000" pt_clust_6="13000.00000" pt_clust_7="13000.00000" pt_clust_8="13000.00000" pt_clust_9="24.64686"></scales>
<clustering>
<clus scale="   24.647">  1  9  2 -1</clus>
<clus scale="   92.825">  7  8 -1 -1</clus>
<clus scale="  119.366">  5  6 -1 -1</clus>
<clus scale="  165.985">  1  7  2 -1</clus>
<clus scale="   24.647">  1  5  2 -1</clus>
</clustering>
</event>
<event>
 9    1  0.1504846E-005  0.1070988E+03  0.7546771E-02  0.1266124E+00
         21   -1    0    0  501  502  0.00000000000E+00  0.00000000000E+00  0.99847265697E+02  0.99847265697E+02  0.00000000000E+00 0. -1.
          1   -1    0    0  502    0 -0.00000000000E+00 -0.00000000000E+00 -0.25327626889E+03  0.25327626889E+03  0.00000000000E+00 0. -1.
         23    2    1    2    0    0 -0.48631820444E+02 -0.10005095713E+02 -0.16699519645E+03  0.19767675283E+03  0.93399930807E+02 0.  0.
         23    2    1    2    0    0  0.53073799794E+02  0.31390724624E+02 -0.21502992948E+02  0.11413184347E+03  0.93602848098E+02 0.  0.
        -11    1    4    4    0    0  0.55708375901E+02 -0.52075847962E+00  0.22185483583E+02  0.59965740358E+02  0.00000000000E+00 0.  1.
         11    1    4    4    0    0 -0.26345761067E+01  0.31911483104E+02 -0.43688476531E+02  0.54166103116E+02  0.00000000000E+00 0. -1.
        -13    1    3    3    0    0  0.53193583081E+00 -0.39377900077E+02 -0.11017679835E+03  0.11700354210E+03  0.00000000000E+00 0.  1.
         13    1    3    3    0    0 -0.49163756274E+02  0.29372804364E+02 -0.56818398098E+02  0.80673210731E+02  0.00000000000E+00 0. -1.
          1    1    1    2  501    0 -0.44419793503E+01 -0.21385628911E+02  0.35069186200E+02  0.41314938281E+02  0.00000000000E+00 0. -1.
<scales pt_clust_5="13000.00000" pt_clust_6="13000.00000" pt_clust_7="13000.00000" pt_clust_8="13000.00000" pt_clust_9="21.84208"></scales>
<clustering>
<clus scale="   21.842">  1  9  2 -1</clus>
<clus scale="   93.400">  7  8 -1 -1</clus>
<clus scale="   93.603">  5  6 -1 -1</clus>
<clus scale="  106.922">  2  7  1 -1</clus>
<clus scale="   21.842">  1  5  2 -1</clus>
</clustering>
</event>
<event>
 9    1  0.1504846E-005  0.1023282E+03  0.7546771E-02  0.1276248E+00
         21   -1    0    0  501  502  0.00000000000E+00  0.00000000000E+00  0.20173338059E+03  0.20173338059E+03  0.00000000000E+00 0.  1.
          1   -1    0    0  502    0 -0.00000000000E+00 -0.00000000000E+00 -0.11988995276E+03  0.11988995276E+03  0.00000000000E+00 0. -1.
         23    2    1    2    0    0  0.48013087762E+02 -0.54589573154E+01 -0.66441198415E+02  0.12343342572E+03  0.92121229509E+02 0.  0.
         23    2    1    2    0    0 -0.29831931143E+02 -0.22078819983E+02  0.10137116988E+03  0.14083351285E+03  0.90446370022E+02 0.  0.
        -13    1    3    3    0    0  0.40061677803E+02  0.40441066129E+02 -0.30388474020E+02  0.64528111791E+02  0.00000000000E+00 0. -1.
         13    1    3    3    0    0  0.79514099581E+01 -0.45900023444E+02 -0.36052724395E+02  0.58905313927E+02  0.00000000000E+00 0.  1.
        -13    1    4    4    0    0  0.12520225963E+01  0.30838948765E+02  0.13584970979E+02  0.33721799448E+02  0.00000000000E+00 0. -1.
         13    1    4    4    0    0 -0.31083953740E+02 -0.52917768748E+02  0.87786198906E+02  0.10711171340E+03  0.00000000000E+00 0.  1.
          1    1    1    2  501    0 -0.18181156618E+02  0.27537777298E+02  0.46913456362E+02  0.57356394781E+02  0.00000000000E+00 0. -1.
<scales pt_clust_5="13000.00000" pt_clust_6="13000.00000" pt_clust_7="13000.00000" pt_clust_8="13000.00000" pt_clust_9="32.99824"></scales>
<clustering>
<clus scale="   32.998">  1  9  2 -1</clus>
<clus scale="   90.446">  7  8 -1 -1</clus>
<clus scale="   92.121">  5  6 -1 -1</clus>
<clus scale="  100.823">  1  7  2 -1</clus>
<clus scale="   32.998">  1  5  2 -1</clus>
</clustering>
</event>
<event>
 9    1  0.1504846E-005  0.9352365E+02  0.7546771E-02  0.1295534E+00
         21   -1    0    0  501  502  0.00000000000E+00  0.00000000000E+00  0.54307635478E+03  0.54307635478E+03  0.00000000000E+00 0.  1.
          2   -1    0    0  502    0 -0.00000000000E+00 -0.00000000000E+00 -0.28980470838E+02  0.28980470838E+02  0.00000000000E+00 0. -1.
         23    2    1    2    0    0  0.23163556215E+01 -0.10415666636E+02  0.11036341711E+03  0.14244021499E+03  0.89416326224E+02 0.  0.
         23    2    1    2    0    0  0.16680907538E+01  0.37281117832E+02  0.18865233363E+03  0.21282848370E+03  0.91178924177E+02 0.  0.
        -11    1    4    4    0    0 -0.27887603869E+02  0.34954246656E+02  0.36234203933E+02  0.57553760463E+02  0.00000000000E+00 0. -1.
         11    1    4    4    0    0  0.29555694623E+02  0.23268711761E+01  0.15241812970E+03  0.15527472323E+03  0.00000000000E+00 0.  1.
        -11    1    3    3    0    0  0.44726122212E+02 -0.92492819347E+01  0.71868604346E+02  0.85153223751E+02  0.00000000000E+00 0.  1.
         11    1    3    3    0    0 -0.42409766591E+02 -0.11663847016E+01  0.38494812763E+02  0.57286991239E+02  0.00000000000E+00 0. -1.
          2    1    1    2  501    0 -0.39844463752E+01 -0.26865451196E+02  0.21508013320E+03  0.21678812693E+03  0.00000000000E+00 0. -1.
<scales pt_clust_5="13000.00000" pt_clust_6="13000.00000" pt_clust_7="13000.00000" pt_clust_8="13000.00000" pt_clust_9="27.15931"></scales>
<clustering>
<clus scale="   27.159">  1  9  2 -1</clus>
<clus scale="   89.416">  7  8 -1 -1</clus>
<clus scale="   91.179">  5  6 -1 -1</clus>
<clus scale="   91.806">  2  7  1 -1</clus>
<clus scale="   27.159">  1  5  2 -1</clus>
</clustering>
</event>
<event>
 9    1  0.1504846E-005  0.1726374E+03  0.7546771E-02  0.1175482E+00
          2   -1    0    0  502    0 -0.00000000000E+00  0.00000000000E+00  0.34328919710E+03  0.34328919710E+03  0.00000000000E+00 0. -1.
         21   -1    0    0  501  502  0.00000000000E+00 -0.00000000000E+00 -0.13682557021E+03  0.13682557021E+03  0.00000000000E+00 0.  1.
         23    2    1    2    0    0  0.97724876523E+02 -0.12564187389E+03  0.15451739121E+03  0.23863768943E+03  0.87956186059E+02 0.  0.
         23    2    1    2    0    0 -0.81489101237E+02  0.10598985341E+03  0.97937127580E+02  0.18889414866E+03  0.90636613963E+02 0.  0.
        -13    1    4    4    0    0 -0.54689589126E+02  0.11196804340E+03  0.10213226432E+03  0.16111732780E+03  0.00000000000E+00 0.  1.
         13    1    4    4    0    0 -0.26799512111E+02 -0.59781899832E+01 -0.41951367389E+01  0.27776820861E+02  0.00000000000E+00 0. -1.
        -13    1    3    3    0    0  0.11012763350E+03 -0.10897295656E+03  0.11154799029E+03  0.19090876109E+03  0.00000000000E+00 0.  1.
         13    1    3    3    0    0 -0.12402756981E+02 -0.16668917335E+02  0.42969400919E+02  0.47728928347E+02  0.00000000000E+00 0. -1.
          2    1    1    2  501    0 -0.16235775286E+02  0.19652020478E+02 -0.45990891898E+02  0.52582929222E+02  0.00000000000E+00 0. -1.
<scales pt_clust_5="13000.00000" pt_clust_6="13000.00000" pt_clust_7="13000.00000" pt_clust_8="13000.00000" pt_clust_9="25.49122"></scales>
<clustering>
<clus scale="   25.491">  2  9  1 -1</clus>
<clus scale="   87.956">  7  8 -1 -1</clus>
<clus scale="   90.637">  5  6 -1 -1</clus>
<clus scale="  171.245">  1  7  2 -1</clus>
<clus scale="   25.491">  2  5  1 -1</clus>
</clustering>
</event>
<event>
 9    1  0.1504846E-005  0.1061129E+03  0.7546771E-02  0.1271653E+00
         -2   -1    0    0    0  501 -0.00000000000E+00  0.00000000000E+00  0.11565426316E+03  0.11565426316E+03  0.00000000000E+00 0.  1.
         21   -1    0    0  501  502  0.00000000000E+00 -0.00000000000E+00 -0.11847157504E+03  0.11847157504E+03  0.00000000000E+00 0. -1.
         23    2    1    2    0    0  0.95637538400E+01 -0.55049761268E+02  0.17762074724E+02  0.11096870148E+03  0.94215815056E+02 0.  0.
         23    2    1    2    0    0 -0.24144915588E+02  0.34700994620E+02 -0.21591634833E+02  0.98103050659E+02  0.85853793612E+02 0.  0.
        -11    1    4    4    0    0 -0.19595587116E+02  0.94919974063E+01  0.31999332294E+02  0.38704551624E+02  0.00000000000E+00 0.  1.
         11    1    4    4    0    0 -0.45493284721E+01  0.25208997214E+02 -0.53590967126E+02  0.59398499035E+02  0.00000000000E+00 0. -1.
        -11    1    3    3    0    0 -0.36811416139E+02 -0.80233511071E+01 -0.10527127333E+02  0.39118728648E+02  0.00000000000E+00 0. -1.
         11    1    3    3    0    0  0.46375169979E+02 -0.47026410161E+02  0.28289202057E+02  0.71849972834E+02  0.00000000000E+00 0.  1.
         -2    1    1    2    0  502  0.14581161748E+02  0.20348766648E+02  0.10122482271E+01  0.25054086064E+02  0.00000000000E+00 0.  1.
<scales pt_clust_5="13000.00000" pt_clust_6="13000.00000" pt_clust_7="13000.00000" pt_clust_8="13000.00000" pt_clust_9="25.03364"></scales>
<clustering>
<clus scale="   25.034">  2  9  1 -1</clus>
<clus scale="   85.854">  5  6 -1 -1</clus>
<clus scale="   94.216">  7  8 -1 -1</clus>
<clus scale="   98.763">  2  5  1 -1</clus>
<clus scale="   25.034">  2  5  1 -1</clus>
</clustering>
</event>
<event>
 9    1  0.1504846E-005  0.1354065E+03  0.7546771E-02  0.1219939E+00
          1   -1    0    0  502    0 -0.00000000000E+00  0.00000000000E+00  0.96052297007E+03  0.96052297007E+03  0.00000000000E+00 0. -1.
         21   -1    0    0  501  502  0.00000000000E+00 -0.00000000000E+00 -0.76089434563E+02  0.76089434563E+02  0.00000000000E+00 0. -1.
         23    2    1    2    0    0  0.63263013448E+02  0.89306311568E+02  0.61161620829E+03  0.62816454615E+03  0.92403921118E+02 0.  0.
         23    2    1    2    0    0 -0.19957200591E+02 -0.82558360049E+02  0.31999456126E+03  0.34405360650E+03  0.93606582225E+02 0.  0.
        -13    1    4    4    0    0  0.17702386937E+01 -0.25924243784E+02  0.94647289476E+01  0.27654678716E+02  0.00000000000E+00 0.  1.
         13    1    4    4    0    0 -0.21727439285E+02 -0.56634116264E+02  0.31052983231E+03  0.31639892778E+03  0.00000000000E+00 0. -1.
        -13    1    3    3    0    0 -0.15661786273E+02  0.36073777763E+02  0.94467307380E+02  0.10232634634E+03  0.00000000000E+00 0.  1.
         13    1    3    3    0    0  0.78924799722E+02  0.53232533805E+02  0.51714890091E+03  0.52583819981E+03  0.00000000000E+00 0. -1.
          1    1    1    2  501    0 -0.43305812857E+02 -0.67479515196E+01 -0.47177234046E+02  0.64394251988E+02  0.00000000000E+00 0. -1.
<scales pt_clust_5="13000.00000" pt_clust_6="13000.00000" pt_clust_7="13000.00000" pt_clust_8="13000.00000" pt_clust_9="43.82840"></scales>
<clustering>
<clus scale="   43.828">  2  9  1 -1</clus>
<clus scale="   92.404">  7  8 -1 -1</clus>
<clus scale="   93.607">  5  6 -1 -1</clus>
<clus scale="  134.578">  1  7  2 -1</clus>
<clus scale="   43.828">  2  5  1 -1</clus>
</clustering>
</event>
<event>
 9    1  0.1504846E-005  0.9650817E+02  0.7546771E-02  0.1288937E+00
         21   -1    0    0  501  502  0.00000000000E+00  0.00000000000E+00  0.17530530958E+02  0.17530530958E+02  0.00000000000E+00 0.  1.
          1   -1    0    0  502    0 -0.00000000000E+00 -0.00000000000E+00 -0.77446930066E+03  0.77446930066E+03  0.00000000000E+00 0. -1.
         23    2    1    2    0    0 -0.30385906064E+02  0.29422678080E+02 -0.36158307679E+03  0.37577893752E+03  0.93158419866E+02 0.  0.
         23    2    1    2    0    0 -0.38793191304E+01 -0.12832267118E+02 -0.28147868549E+03  0.29614874823E+03  0.91072029166E+02 0.  0.
        -11    1    4    4    0    0 -0.42117833306E+02 -0.25162657511E+02 -0.19007088298E+03  0.19630081959E+03  0.00000000000E+00 0.  1.
         11    1    4    4    0    0  0.38238514175E+02  0.12330390393E+02 -0.91407802510E+02  0.99847928638E+02  0.00000000000E+00 0. -1.
        -13    1    3    3    0    0 -0.77621802169E+01 -0.32165762121E+02 -0.17224834752E+03  0.17539777911E+03  0.00000000000E+00 0.  1.
         13    1    3    3    0    0 -0.22623725847E+02  0.61588440202E+02 -0.18933472927E+03  0.20038115841E+03  0.00000000000E+00 0. -1.
          1    1    1    2  501    0  0.34265225194E+02 -0.16590410962E+02 -0.11387700742E+03  0.12007214587E+03  0.00000000000E+00 0. -1.
<scales pt_clust_5="13000.00000" pt_clust_6="13000.00000" pt_clust_7="13000.00000" pt_clust_8="13000.00000" pt_clust_9="38.07030"></scales>
<clustering>
<clus scale="   38.070">  1  9  2 -1</clus>
<clus scale="   91.072">  5  6 -1 -1</clus>
<clus scale="   93.158">  7  8 -1 -1</clus>
<clus scale="   94.496">  1  5  2 -1</clus>
<clus scale="   38.070">  1  5  2 -1</clus>
</clustering>
</event>
<event>
 9    1  0.1504846E-005  0.9782536E+02  0.7546771E-02  0.1285344E+00
          1   -1    0    0  502    0 -0.00000000000E+00  0.00000000000E+00  0.11599335244E+03  0.11599335244E+03  0.00000000000E+00 0. -1.
         21   -1    0    0  501  502  0.00000000000E+00 -0.00000000000E+00 -0.21222491607E+03  0.21222491607E+03  0.00000000000E+00 0.  1.
         23    2    1    2    0    0 -0.54396430612E+02 -0.71754150234E+01  0.18525954283E+02  0.10891413925E+03  0.92242183958E+02 0.  0.
         23    2    1    2    0    0 -0.27510324206E+02  0.17715651668E+02 -0.91674350897E+02  0.13355655977E+03  0.91446737469E+02 0.  0.
        -11    1    3    3    0    0 -0.72162545915E+02  0.19284450300E+02  0.18869045793E+02  0.77041313238E+02  0.00000000000E+00 0.  1.
         11    1    3    3    0    0  0.17766115303E+02 -0.26459865324E+02 -0.34309150960E+00  0.31872826007E+02  0.00000000000E+00 0. -1.
        -13    1    4    4    0    0  0.17757158029E+02 -0.14986158074E+02 -0.69826232287E+02  0.73590789577E+02  0.00000000000E+00 0. -1.
         13    1    4    4    0    0 -0.45267482235E+02  0.32701809742E+02 -0.21848118610E+02  0.59965770195E+02  0.00000000000E+00 0.  1.
          1    1    1    2  501    0  0.81906754819E+02 -0.10540236644E+02 -0.23083167018E+02  0.85747569487E+02  0.00000000000E+00 0. -1.
<scales pt_clust_5="13000.00000" pt_clust_6="13000.00000" pt_clust_7="13000.00000" pt_clust_8="13000.00000" pt_clust_9="82.58220"></scales>
<clustering>
<clus scale="   82.582">  2  9  1 -1</clus>
<clus scale="   91.447">  7  8 -1 -1</clus>
<clus scale="   92.242">  5  6 -1 -1</clus>
<clus scale="   97.076">  2  7  1 -1</clus>
<clus scale="   82.582">  2  5  1 -1</clus>
</clustering>
</event>
<event>
 9    1  0.1504846E-005  0.1964782E+03  0.7546771E-02  0.1152890E+00
         21   -1    0    0  501  502  0.00000000000E+00  0.00000000000E+00  0.33668513127E+03  0.33668513127E+03  0.00000000000E+00 0.  1.
          2   -1    0    0  502    0 -0.00000000000E+00 -0.00000000000E+00 -0.23369192493E+03  0.23369192493E+03  0.00000000000E+00 0. -1.
         23    2    1    2    0    0  0.81994496031E+02 -0.12468682475E+03 -0.44504814001E+02  0.17993093899E+03  0.90136356090E+02 0.  0.
         23    2    1    2    0    0 -0.17233713616E+03  0.16731786232E+03  0.77600910274E+02  0.26852481478E+03  0.91587768450E+02 0.  0.
        -11    1    3    3    0    0  0.21179504883E+02 -0.44688635667E+02  0.27238974410E+02  0.56458899315E+02  0.00000000000E+00 0.  1.
         11    1    3    3    0    0  0.60814991148E+02 -0.79998189086E+02 -0.71743788412E+02  0.12347203967E+03  0.00000000000E+00 0. -1.
        -13    1    4    4    0    0 -0.51991056283E+02  0.59214872187E+02  0.71871688807E+02  0.10665369508E+03  0.00000000000E+00 0.  1.
         13    1    4    4    0    0 -0.12034607988E+03  0.10810299013E+03  0.57292214670E+01  0.16187111971E+03  0.00000000000E+00 0. -1.
          2    1    1    2  501    0  0.90342640130E+02 -0.42631037562E+02  0.69897110075E+02  0.12192130243E+03  0.00000000000E+00 0. -1.
<scales pt_clust_5="13000.00000" pt_clust_6="13000.00000" pt_clust_7="13000.00000" pt_clust_8="13000.00000" pt_clust_9="99.89594"></scales>
<clustering>
<clus scale="   90.136">  5  6 -1 -1</clus>
<clus scale="   91.588">  7  8 -1 -1</clus>
<clus scale="   99.896">  1  9  2 -1</clus>
<clus scale="  195.806">  2  5  1 -1</clus>
<clus scale="   99.896">  1  5  2 -1</clus>
</clustering>
</event>
<event>
 9    1  0.1504846E-005  0.2754786E+03  0.7546771E-02  0.1098264E+00
         21   -1    0    0  501  502  0.00000000000E+00  0.00000000000E+00  0.36296988866E+03  0.36296988866E+03  0.00000000000E+00 0. -1.
         -1   -1    0    0    0  501 -0.00000000000E+00 -0.00000000000E+00 -0.27412384180E+03  0.27412384180E+03  0.00000000000E+00 0.  1.
         23    2    1    2    0    0  0.24718782709E+03  0.20061269788E+02 -0.44347836561E+02  0.26748891957E+03  0.89885010332E+02 0.  0.
         23    2    1    2    0    0 -0.27978662390E+03 -0.37864989179E+02  0.83065757947E+02  0.30721504457E+03  0.88129740443E+02 0.  0.
        -11    1    3    3    0    0  0.90034261139E+02 -0.12101590468E+02  0.22687861925E+02  0.93634159095E+02  0.00000000000E+00 0. -1.
         11    1    3    3    0    0  0.15715356595E+03  0.32162860256E+02 -0.67035698486E+02  0.17385476048E+03  0.00000000000E+00 0.  1.
        -13    1    4    4    0    0 -0.69029285359E+02 -0.20270961483E+02  0.61463742020E+02  0.94624234210E+02  0.00000000000E+00 0. -1.
         13    1    4    4    0    0 -0.21075733854E+03 -0.17594027696E+02  0.21602015927E+02  0.21259081036E+03  0.00000000000E+00 0.  1.
         -1    1    1    2    0  502  0.32598796814E+02  0.17803719391E+02  0.50128125473E+02  0.62389766318E+02  0.00000000000E+00 0.  1.
<scales pt_clust_5="13000.00000" pt_clust_6="13000.00000" pt_clust_7="13000.00000" pt_clust_8="13000.00000" pt_clust_9="37.14369"></scales>
<clustering>
<clus scale="   37.144">  1  9  2 -1</clus>
<clus scale="   88.130">  7  8 -1 -1</clus>
<clus scale="   89.885">  5  6 -1 -1</clus>
<clus scale="  274.911">  1  7  2 -1</clus>
<clus scale="   37.144">  1  5  2 -1</clus>
</clustering>
</event>
<event>
 9    1  0.1504846E-005  0.9267886E+02  0.7546771E-02  0.1296728E+00
         -1   -1    0    0    0  501 -0.00000000000E+00  0.00000000000E+00  0.78442508450E+02  0.78442508450E+02  0.00000000000E+00 0.  1.
         21   -1    0    0  501  502  0.00000000000E+00 -0.00000000000E+00 -0.17849537301E+03  0.17849537301E+03  0.00000000000E+00 0. -1.
         23    2    1    2    0    0  0.13990626783E+02  0.59900257674E+01  0.39340772452E+01  0.92315696450E+02  0.90967537071E+02 0.  0.
         23    2    1    2    0    0 -0.24347344097E+02  0.11486398053E+02 -0.49887021073E+02  0.10683387818E+03  0.90554028904E+02 0.  0.
        -11    1    3    3    0    0 -0.14853123408E+02 -0.21829003065E+02 -0.29886021366E+02  0.39878502014E+02  0.00000000000E+00 0. -1.
         11    1    3    3    0    0  0.28843750190E+02  0.27819028833E+02  0.33820098611E+02  0.52437194436E+02  0.00000000000E+00 0.  1.
        -13    1    4    4    0    0 -0.40419849348E+02  0.39998375269E+02 -0.14610021453E+02  0.58711898047E+02  0.00000000000E+00 0. -1.
         13    1    4    4    0    0  0.16072505251E+02 -0.28511977216E+02 -0.35276999620E+02  0.48121980134E+02  0.00000000000E+00 0.  1.
         -1    1    1    2    0  502  0.10356717315E+02 -0.17476423820E+02 -0.54099920726E+02  0.57788306825E+02  0.00000000000E+00 0.  1.
<scales pt_clust_5="13000.00000" pt_clust_6="13000.00000" pt_clust_7="13000.00000" pt_clust_8="13000.00000" pt_clust_9="20.31470"></scales>
<clustering>
<clus scale="   20.315">  2  9  1 -1</clus>
<clus scale="   90.554">  7  8 -1 -1</clus>
<clus scale="   90.968">  5  6 -1 -1</clus>
<clus scale="   92.273">  2  7  1 -1</clus>
<clus scale="   20.315">  2  5  1 -1</clus>
</clustering>
</event>
<event>
 9    1  0.1504846E-005  0.1048374E+03  0.7546771E-02  0.1273730E+00
         -2   -1    0    0    0  501 -0.00000000000E+00  0.00000000000E+00  0.19636864568E+03  0.19636864568E+03  0.00000000000E+00 0.  1.
         21   -1    0    0  501  502  0.00000000000E+00 -0.00000000000E+00 -0.19587748917E+03  0.19587748917E+03  0.00000000000E+00 0.  1.
         23    2    1    2    0    0  0.10848303771E+01  0.41222264068E+02  0.12925395534E+03  0.16782928282E+03  0.98790846189E+02 0.  0.
         23    2    1    2    0    0 -0.18989727359E+02 -0.17455353124E+02 -0.33654166211E+01  0.95537238215E+02  0.91927899785E+02 0.  0.
        -11    1    3    3    0    0  0.13219189336E+01  0.62940584444E+02  0.13169924740E+03  0.14597245084E+03  0.00000000000E+00 0. -1.
         11    1    3    3    0    0 -0.23708855641E+00 -0.21718320376E+02 -0.24452920605E+01  0.21856831980E+02  0.00000000000E+00 0.  1.
        -13    1    4    4    0    0  0.35873140472E+02 -0.10134754919E+02  0.10004037087E+02  0.38596323952E+02  0.00000000000E+00 0. -1.
         13    1    4    4    0    0 -0.54862867831E+02 -0.73205982052E+01 -0.13369453708E+02  0.56940914263E+02  0.00000000000E+00 0.  1.
         -2    1    1    2    0  502  0.17904896981E+02 -0.23766910944E+02 -0.12539738221E+03  0.12887961381E+03  0.00000000000E+00 0.  1.
<scales pt_clust_5="13000.00000" pt_clust_6="13000.00000" pt_clust_7="13000.00000" pt_clust_8="13000.00000" pt_clust_9="29.75654"></scales>
<clustering>
<clus scale="   29.757">  2  9  1 -1</clus>
<clus scale="   91.928">  7  8 -1 -1</clus>
<clus scale="   98.397">  2  7  1 -1</clus>
<clus scale="   98.791">  5  6 -1 -1</clus>
<clus scale="   29.757">  2  5  1 -1</clus>
</clustering>
</event>
<event>
 9    1  0.1504846E-005  0.9838191E+02  0.7546771E-02  0.1283932E+00
         -1   -1    0    0    0  501 -0.00000000000E+00  0.00000000000E+00  0.14750512980E+03  0.14750512980E+03  0.00000000000E+00 0.  1.
         21   -1    0    0  501  502  0.00000000000E+00 -0.00000000000E+00 -0.20916751777E+03  0.20916751777E+03  0.00000000000E+00 0. -1.
         23    2    1    2    0    0 -0.40977926844E+02  0.41818134479E+01  0.78159966542E+02  0.12583196278E+03  0.89599243497E+02 0.  0.
         23    2    1    2    0    0  0.37479065607E+02  0.36897537060E+02 -0.21792615520E+02  0.10581758950E+03  0.89198293466E+02 0.  0.
        -13    1    4    4    0    0  0.25706250556E+02 -0.17104408670E+02 -0.37291615047E+02  0.48415252415E+02  0.00000000000E+00 0. -1.
         13    1    4    4    0    0  0.11772815052E+02  0.54001945730E+02  0.15498999527E+02  0.57402337088E+02  0.00000000000E+00 0.  1.
        -13    1    3    3    0    0  0.25066544184E+02 -0.14235027490E+02  0.14486376910E+02  0.32261784838E+02  0.00000000000E+00 0.  1.
         13    1    3    3    0    0 -0.66044471029E+02  0.18416840938E+02  0.63673589631E+02  0.93570177942E+02  0.00000000000E+00 0. -1.
         -1    1    1    2    0  502  0.34988612370E+01 -0.41079350508E+02 -0.11802973899E+03  0.12502309529E+03  0.00000000000E+00 0.  1.
<scales pt_clust_5="13000.00000" pt_clust_6="13000.00000" pt_clust_7="13000.00000" pt_clust_8="13000.00000" pt_clust_9="41.22809"></scales>
<clustering>
<clus scale="   41.228">  2  9  1 -1</clus>
<clus scale="   89.198">  5  6 -1 -1</clus>
<clus scale="   89.599">  7  8 -1 -1</clus>
<clus scale="   98.017">  2  5  1 -1</clus>
<clus scale="   41.228">  2  5  1 -1</clus>
</clustering>
</event>
<event>
 9    1  0.1504846E-005  0.1846733E+03  0.7546771E-02  0.1163825E+00
         21   -1    0    0  501  502  0.00000000000E+00  0.00000000000E+00  0.90957028022E+02  0.90957028022E+02  0.00000000000E+00 0.  1.
          3   -1    0    0  502    0 -0.00000000000E+00 -0.00000000000E+00 -0.54481395387E+03  0.54481395387E+03  0.00000000000E+00 0. -1.
         23    2    1    2    0    0  0.92537534571E+02  0.12185804392E+03 -0.21385382461E+03  0.27850364344E+03  0.91750983296E+02 0.  0.
         23    2    1    2    0    0 -0.53106234690E+02 -0.16913175177E+03 -0.14995726727E+03  0.24818992062E+03  0.87665461117E+02 0.  0.
        -13    1    4    4    0    0 -0.69423549444E+02 -0.11900872810E+03 -0.13614966983E+03  0.19369935255E+03  0.00000000000E+00 0.  1.
         13    1    4    4    0    0  0.16317314754E+02 -0.50123023669E+02 -0.13807597438E+02  0.54490568078E+02  0.00000000000E+00 0. -1.
        -13    1    3    3    0    0  0.27827596653E+02  0.94472507313E+02 -0.78293341589E+02  0.12581445509E+03  0.00000000000E+00 0.  1.
         13    1    3    3    0    0  0.64709937918E+02  0.27385536610E+02 -0.13556048302E+03  0.15268918835E+03  0.00000000000E+00 0. -1.
          3    1    1    2  501    0 -0.39431299881E+02  0.47273707849E+02 -0.90045833967E+02  0.10907741782E+03  0.00000000000E+00 0. -1.
<scales pt_clust_5="13000.00000" pt_clust_6="13000.00000" pt_clust_7="13000.00000" pt_clust_8="13000.00000" pt_clust_9="61.56001"></scales>
<clustering>
<clus scale="   61.560">  1  9  2 -1</clus>
<clus scale="   87.665">  5  6 -1 -1</clus>
<clus scale="   91.751">  7  8 -1 -1</clus>
<clus scale="  182.678">  1  5  2 -1</clus>
<clus scale="   61.560">  1  5  2 -1</clus>
</clustering>
</event>
<event>
 9    1  0.1504846E-005  0.1030148E+03  0.7546771E-02  0.1287923E+00
         21   -1    0    0  501  502  0.00000000000E+00  0.00000000000E+00  0.24010592158E+02  0.24010592158E+02  0.00000000000E+00 0.  1.
          1   -1    0    0  502    0 -0.00000000000E+00 -0.00000000000E+00 -0.63354995301E+03  0.63354995301E+03  0.00000000000E+00 0. -1.
         23    2    1    2    0    0 -0.22113594351E+02  0.41721149728E+02 -0.34106991323E+03  0.34922290874E+03  0.58294844461E+02 0.  0.
         23    2    1    2    0    0  0.28719395742E+02 -0.73888833398E+02 -0.20073390258E+03  0.23306147455E+03  0.87972654165E+02 0.  0.
        -13    1    3    3    0    0 -0.25143612375E+02 -0.70603446746E+01 -0.11426372441E+03  0.11721027441E+03  0.00000000000E+00 0.  1.
         13    1    3    3    0    0  0.30300180232E+01  0.48781494403E+02 -0.22680618882E+03  0.23201263434E+03  0.00000000000E+00 0. -1.
        -13    1    4    4    0    0  0.51177163760E+02 -0.79621621471E+02 -0.15135529503E+03  0.17851366903E+03  0.00000000000E+00 0.  1.
         13    1    4    4    0    0 -0.22457768018E+02  0.57327880730E+01 -0.49378607555E+02  0.54547805524E+02  0.00000000000E+00 0. -1.
          1    1    1    2  501    0 -0.66058013901E+01  0.32167683670E+02 -0.67735545039E+02  0.75276161874E+02  0.00000000000E+00 0. -1.
<scales pt_clust_5="13000.00000" pt_clust_6="13000.00000" pt_clust_7="13000.00000" pt_clust_8="13000.00000" pt_clust_9="32.83895"></scales>
<clustering>
<clus scale="   32.839">  1  9  2 -1</clus>
<clus scale="   58.295">  5  6 -1 -1</clus>
<clus scale="   79.191">  2  5  1 -1</clus>
<clus scale="   87.973">  7  8 -1 -1</clus>
<clus scale="   32.839">  1  5  2 -1</clus>
</clustering>
</event>
<event>
 9    1  0.1504846E-005  0.1441709E+03  0.7546771E-02  0.1209019E+00
         21   -1    0    0  501  502  0.00000000000E+00  0.00000000000E+00  0.44982480806E+03  0.44982480806E+03  0.00000000000E+00 0. -1.
          3   -1    0    0  502    0 -0.00000000000E+00 -0.00000000000E+00 -0.71469435055E+02  0.71469435055E+02  0.00000000000E+00 0. -1.
         23    2    1    2    0    0 -0.10345019366E+03 -0.28466609828E+02  0.97870306189E+02  0.17397851067E+03  0.95799973361E+02 0.  0.
         23    2    1    2    0    0  0.10995332969E+03  0.26587157205E+01  0.12440590369E+03  0.18898366577E+03  0.90228562974E+02 0.  0.
        -13    1    4    4    0    0  0.29249249120E+02 -0.40625791548E+02  0.52568303980E+02  0.72590633668E+02  0.00000000000E+00 0. -1.
         13    1    4    4    0    0  0.80704080570E+02  0.43284507269E+02  0.71837599711E+02  0.11639303210E+03  0.00000000000E+00 0.  1.
        -13    1    3    3    0    0 -0.94106113303E+02 -0.49494852038E+02  0.43395062553E+02  0.11484264188E+03  0.00000000000E+00 0. -1.
         13    1    3    3    0    0 -0.93440803600E+01  0.21028242210E+02  0.54475243637E+02  0.59135868790E+02  0.00000000000E+00 0.  1.
          3    1    1    2  501    0 -0.65031360263E+01  0.25807894107E+02  0.15607916312E+03  0.15833206668E+03  0.00000000000E+00 0. -1.
<scales pt_clust_5="13000.00000" pt_clust_6="13000.00000" pt_clust_7="13000.00000" pt_clust_8="13000.00000" pt_clust_9="26.61462"></scales>
<clustering>
<clus scale="   26.615">  1  9  2 -1</clus>
<clus scale="   90.229">  5  6 -1 -1</clus>
<clus scale="   95.800">  7  8 -1 -1</clus>
<clus scale="  140.530">  1  5  2 -1</clus>
<clus scale="   26.615">  1  5  2 -1</clus>
</clustering>
</event>
<event>
 9    1  0.1504846E-005  0.1318032E+03  0.7546771E-02  0.1224847E+00
         21   -1    0    0  501  502  0.00000000000E+00  0.00000000000E+00  0.11724382401E+03  0.11724382401E+03  0.00000000000E+00 0. -1.
         -2   -1    0    0    0  501 -0.00000000000E+00 -0.00000000000E+00 -0.45033769879E+03  0.45033769879E+03  0.00000000000E+00 0.  1.
         23    2    1    2    0    0 -0.85045735008E+01 -0.90193019326E+02 -0.27014447873E+03  0.29912639570E+03  0.91057414386E+02 0.  0.
         23    2    1    2    0    0  0.53063340121E+02  0.11941978703E+03  0.29184478410E+02  0.16202045954E+03  0.91225500435E+02 0.  0.
        -13    1    4    4    0    0  0.15825788458E+02  0.11908765876E+03  0.33005051558E+02  0.12458595217E+03  0.00000000000E+00 0. -1.
         13    1    4    4    0    0  0.37237551663E+02  0.33212827399E+00 -0.38205731476E+01  0.37434507373E+02  0.00000000000E+00 0.  1.
        -13    1    3    3    0    0 -0.28102601876E+02 -0.83444010309E+02 -0.26276446873E+03  0.27712420521E+03  0.00000000000E+00 0.  1.
         13    1    3    3    0    0  0.19598028376E+02 -0.67490090170E+01 -0.73800100022E+01  0.22002190495E+02  0.00000000000E+00 0. -1.
         -2    1    1    2    0  502 -0.44558766621E+02 -0.29226767707E+02 -0.92133874467E+02  0.10643466756E+03  0.00000000000E+00 0.  1.
<scales pt_clust_5="13000.00000" pt_clust_6="13000.00000" pt_clust_7="13000.00000" pt_clust_8="13000.00000" pt_clust_9="53.28875"></scales>
<clustering>
<clus scale="   53.289">  1  9  2 -1</clus>
<clus scale="   91.057">  7  8 -1 -1</clus>
<clus scale="   91.226">  5  6 -1 -1</clus>
<clus scale="  131.687">  2  7  1 -1</clus>
<clus scale="   53.289">  1  5  2 -1</clus>
</clustering>
</event>
<event>
 9    1  0.1504846E-005  0.1693755E+03  0.7546771E-02  0.1178549E+00
         -4   -1    0    0    0  501 -0.00000000000E+00  0.00000000000E+00  0.29023908156E+03  0.29023908156E+03  0.00000000000E+00 0.  1.
         21   -1    0    0  501  502  0.00000000000E+00 -0.00000000000E+00 -0.15939917679E+03  0.15939917679E+03  0.00000000000E+00 0.  1.
         23    2    1    2    0    0 -0.16712755352E+02 -0.11833169525E+03  0.80964879530E+02  0.17066062167E+03  0.91038616961E+02 0.  0.
         23    2    1    2    0    0  0.45204537519E+02  0.17574178173E+03  0.64638263177E+02  0.21320794096E+03  0.91383242240E+02 0.  0.
        -11    1    3    3    0    0  0.30409813099E+02 -0.22701434339E+02  0.43340008781E+02  0.57606147371E+02  0.00000000000E+00 0.  1.
         11    1    3    3    0    0 -0.47122568451E+02 -0.95630260913E+02  0.37624870749E+02  0.11305447430E+03  0.00000000000E+00 0. -1.
        -11    1    4    4    0    0  0.43364752331E+02  0.29125328794E+02  0.36959031513E+02  0.63990284672E+02  0.00000000000E+00 0. -1.
         11    1    4    4    0    0  0.18397851877E+01  0.14661645294E+03  0.27679231664E+02  0.14921765629E+03  0.00000000000E+00 0.  1.
         -4    1    1    2    0  502 -0.28491782167E+02 -0.57410086481E+02 -0.14763237934E+02  0.65769695720E+02  0.00000000000E+00 0.  1.
<scales pt_clust_5="13000.00000" pt_clust_6="13000.00000" pt_clust_7="13000.00000" pt_clust_8="13000.00000" pt_clust_9="64.09134"></scales>
<clustering>
<clus scale="   64.091">  2  9  1 -1</clus>
<clus scale="   91.039">  5  6 -1 -1</clus>
<clus scale="   91.383">  7  8 -1 -1</clus>
<clus scale="  169.190">  1  5  2 -1</clus>
<clus scale="   64.091">  2  5  1 -1</clus>
</clustering>
</event>
<event>
 9    1  0.1504846E-005  0.9212177E+02  0.7546771E-02  0.1303989E+00
          3   -1    0    0  502    0 -0.00000000000E+00  0.00000000000E+00  0.35992233660E+03  0.35992233660E+03  0.00000000000E+00 0. -1.
         21   -1    0    0  501  502  0.00000000000E+00 -0.00000000000E+00 -0.17147429764E+03  0.17147429764E+03  0.00000000000E+00 0. -1.
         23    2    1    2    0    0  0.94388720287E+01  0.77277455143E+01  0.20622872115E+03  0.22225592895E+03  0.81967079814E+02 0.  0.
         23    2    1    2    0    0  0.12832095254E+02 -0.23440794327E+01  0.12991420084E+03  0.15967914397E+03  0.91921553848E+02 0.  0.
        -11    1    4    4    0    0  0.12998594054E+02 -0.42331183105E+02  0.34210992662E+02  0.55957881745E+02  0.00000000000E+00 0.  1.
         11    1    4    4    0    0 -0.16649879975E+00  0.39987103673E+02  0.95703208174E+02  0.10372126222E+03  0.00000000000E+00 0. -1.
        -13    1    3    3    0    0 -0.90512570171E+01  0.34397167676E+02  0.16972856052E+03  0.17341532417E+03  0.00000000000E+00 0. -1.
         13    1    3    3    0    0  0.18490129046E+02 -0.26669422162E+02  0.36500160623E+02  0.48840604788E+02  0.00000000000E+00 0.  1.
          3    1    1    2  501    0 -0.22270967283E+02 -0.53836660816E+01 -0.14769488302E+03  0.14946156133E+03  0.00000000000E+00 0. -1.
<scales pt_clust_5="13000.00000" pt_clust_6="13000.00000" pt_clust_7="13000.00000" pt_clust_8="13000.00000" pt_clust_9="22.91244"></scales>
<clustering>
<clus scale="   22.912">  2  9  1 -1</clus>
<clus scale="   81.967">  7  8 -1 -1</clus>
<clus scale="   82.192">  1  7  2 -1</clus>
<clus scale="   91.922">  5  6 -1 -1</clus>
<clus scale="   22.912">  2  5  1 -1</clus>
</clustering>
</event>
<event>
 9    1  0.1504846E-005  0.1686370E+03  0.7546771E-02  0.1194305E+00
         -3   -1    0    0    0  501 -0.00000000000E+00  0.00000000000E+00  0.17406288723E+03  0.17406288723E+03  0.00000000000E+00 0.  1.
         21   -1    0    0  501  502  0.00000000000E+00 -0.00000000000E+00 -0.51654707375E+03  0.51654707375E+03  0.00000000000E+00 0.  1.
         23    2    1    2    0    0  0.12593036684E+02  0.77344386356E+02  0.92546842861E+02  0.15215011956E+03  0.91891251404E+02 0.  0.
         23    2    1    2    0    0 -0.12726273747E+03  0.23193204280E+02 -0.18545038665E+03  0.24597489371E+03  0.96840453071E+02 0.  0.
        -11    1    3    3    0    0  0.33961329852E+02  0.76980609702E+02  0.98905776474E+02  0.12985275821E+03  0.00000000000E+00 0.  1.
         11    1    3    3    0    0 -0.21368293167E+02  0.36377665382E+00 -0.63589336130E+01  0.22297361347E+02  0.00000000000E+00 0. -1.
        -13    1    4    4    0    0 -0.42572433357E+02  0.53006178114E+02 -0.54167631380E+02  0.86926401568E+02  0.00000000000E+00 0.  1.
         13    1    4    4    0    0 -0.84690304114E+02 -0.29812973834E+02 -0.13128275527E+03  0.15904849214E+03  0.00000000000E+00 0. -1.
         -3    1    1    2    0  502  0.11466970079E+03 -0.10053759064E+03 -0.24958064273E+03  0.29248494770E+03  0.00000000000E+00 0.  1.
<scales pt_clust_5="13000.00000" pt_clust_6="13000.00000" pt_clust_7="13000.00000" pt_clust_8="13000.00000" pt_clust_9="138.05926"></scales>
<clustering>
<clus scale="   91.891">  5  6 -1 -1</clus>
<clus scale="   96.840">  7  8 -1 -1</clus>
<clus scale="  120.767">  1  5  2 -1</clus>
<clus scale="  138.059">  2  9  1 -1</clus>
<clus scale="  138.059">  2  5  1 -1</clus>
</clustering>
</event>
<event>
 9    1  0.1504846E-005  0.1338387E+03  0.7546771E-02  0.1221939E+00
         21   -1    0    0  501  502  0.00000000000E+00  0.00000000000E+00  0.91687753537E+03  0.91687753537E+03  0.00000000000E+00 0. -1.
          1   -1    0    0  502    0 -0.00000000000E+00 -0.00000000000E+00 -0.61081913616E+02  0.61081913616E+02  0.00000000000E+00 0. -1.
         23    2    1    2    0    0 -0.33688429424E+02  0.59860595779E+02  0.11366069338E+03  0.16109223478E+03  0.91179787685E+02 0.  0.
         23    2    1    2    0    0  0.27545378973E+02 -0.14535504913E+03  0.18791019365E+03  0.25605343478E+03  0.91467384199E+02 0.  0.
        -11    1    4    4    0    0  0.58194081610E+02 -0.11997513037E+03  0.15458036176E+03  0.20414620076E+03  0.00000000000E+00 0. -1.
         11    1    4    4    0    0 -0.30648702637E+02 -0.25379918761E+02  0.33329831891E+02  0.51907234019E+02  0.00000000000E+00 0.  1.
        -13    1    3    3    0    0 -0.36328527051E+02  0.54666994102E+01  0.19201197889E+01  0.36787681908E+02  0.00000000000E+00 0. -1.
         13    1    3    3    0    0  0.26400976272E+01  0.54393896369E+02  0.11174057360E+03  0.12430455287E+03  0.00000000000E+00 0.  1.
          1    1    1    2  501    0  0.61430504511E+01  0.85494453351E+02  0.55422473472E+03  0.56081377943E+03  0.00000000000E+00 0. -1.
<scales pt_clust_5="13000.00000" pt_clust_6="13000.00000" pt_clust_7="13000.00000" pt_clust_8="13000.00000" pt_clust_9="85.71487"></scales>
<clustering>
<clus scale="   85.715">  1  9  2 -1</clus>
<clus scale="   91.180">  7  8 -1 -1</clus>
<clus scale="   91.467">  5  6 -1 -1</clus>
<clus scale="  133.642">  2  7  1 -1</clus>
<clus scale="   85.715">  1  5  2 -1</clus>
</clustering>
</event>
<event>
 9    1  0.1504846E-005  0.1754910E+03  0.7546771E-02  0.1172333E+00
          1   -1    0    0  502    0 -0.00000000000E+00  0.00000000000E+00  0.13460498516E+03  0.13460498516E+03  0.00000000000E+00 0. -1.
         21   -1    0    0  501  502  0.00000000000E+00 -0.00000000000E+00 -0.40162010917E+03  0.40162010917E+03  0.00000000000E+00 0.  1.
         23    2    1    2    0    0  0.13519675263E+03 -0.14831791980E+02 -0.57437258074E+02  0.17349562481E+03  0.91123812676E+02 0.  0.
         23    2    1    2    0    0 -0.16185652943E+03  0.27903433416E+02 -0.41462686279E+02  0.19201237859E+03  0.90407198061E+02 0.  0.
        -11    1    3    3    0    0  0.47368752317E+02 -0.48976396582E+02 -0.35132391026E+02  0.76660100557E+02  0.00000000000E+00 0.  1.
         11    1    3    3    0    0  0.87828000314E+02  0.34144604602E+02 -0.22304867048E+02  0.96835524249E+02  0.00000000000E+00 0. -1.
        -13    1    4    4    0    0 -0.85160263479E+02  0.26958558655E+02  0.22527890336E+02  0.92122419658E+02  0.00000000000E+00 0. -1.
         13    1    4    4    0    0 -0.76696265951E+02  0.94487476036E+00 -0.63990576615E+02  0.99889958929E+02  0.00000000000E+00 0.  1.
          1    1    1    2  501    0  0.26659776799E+02 -0.13071641435E+02 -0.16811517965E+03  0.17071709094E+03  0.00000000000E+00 0. -1.
<scales pt_clust_5="13000.00000" pt_clust_6="13000.00000" pt_clust_7="13000.00000" pt_clust_8="13000.00000" pt_clust_9="29.69194"></scales>
<clustering>
<clus scale="   29.692">  2  9  1 -1</clus>
<clus scale="   90.407">  7  8 -1 -1</clus>
<clus scale="   91.124">  5  6 -1 -1</clus>
<clus scale="  175.120">  2  7  1 -1</clus>
<clus scale="   29.692">  2  5  1 -1</clus>
</clustering>
</event>
<event>
 9    1  0.1504846E-005  0.1165165E+03  0.7546771E-02  0.1255737E+00
         21   -1    0    0  501  502  0.00000000000E+00  0.00000000000E+00  0.41252257894E+03  0.41252257894E+03  0.00000000000E+00 0. -1.
          2   -1    0    0  502    0 -0.00000000000E+00 -0.00000000000E+00 -0.64939846408E+02  0.64939846408E+02  0.00000000000E+00 0. -1.
         23    2    1    2    0    0 -0.53367395726E+01 -0.34964407701E+02  0.23827447119E+02  0.11758022162E+03  0.10957358571E+03 0.  0.
         23    2    1    2    0    0  0.38567999866E+02  0.41861371246E+02  0.16926409749E+03  0.20170694678E+03  0.93784287929E+02 0.  0.
        -11    1    3    3    0    0 -0.54534234397E+02 -0.70050382056E+01  0.26279485420E+02  0.60939844400E+02  0.00000000000E+00 0.  1.
         11    1    3    3    0    0  0.49197494824E+02 -0.27959369495E+02 -0.24520383010E+01  0.56640377218E+02  0.00000000000E+00 0. -1.
        -13    1    4    4    0    0  0.18080799244E+02 -0.27998250432E+02  0.78999939952E+02  0.85742683892E+02  0.00000000000E+00 0.  1.
         13    1    4    4    0    0  0.20487200622E+02  0.69859621678E+02  0.90264157537E+02  0.11596426288E+03  0.00000000000E+00 0. -1.
          2    1    1    2  501    0 -0.33231260294E+02 -0.68969635456E+01  0.15449118793E+03  0.15817525696E+03  0.00000000000E+00 0. -1.
<scales pt_clust_5="13000.00000" pt_clust_6="13000.00000" pt_clust_7="13000.00000" pt_clust_8="13000.00000" pt_clust_9="33.93943"></scales>
<clustering>
<clus scale="   33.939">  1  9  2 -1</clus>
<clus scale="   93.784">  7  8 -1 -1</clus>
<clus scale="  101.810">  1  7  2 -1</clus>
<clus scale="  109.574">  5  6 -1 -1</clus>
<clus scale="   33.939">  1  5  2 -1</clus>
</clustering>
</event>
<event>
 9    1  0.1504846E-005  0.9161728E+02  0.7546771E-02  0.1299128E+00
         21   -1    0    0  501  502  0.00000000000E+00  0.00000000000E+00  0.60750157503E+02  0.60750157503E+02  0.00000000000E+00 0.  1.
          3   -1    0    0  502    0 -0.00000000000E+00 -0.00000000000E+00 -0.19351152861E+03  0.19351152861E+03  0.00000000000E+00 0. -1.
         23    2    1    2    0    0 -0.38121364076E+01  0.21788738367E+01 -0.96650273962E+02  0.13274189466E+03  0.90883745880E+02 0.  0.
         23    2    1    2    0    0  0.18513108791E+02  0.14093467011E+02 -0.27938759118E+02  0.98116911833E+02  0.91131734961E+02 0.  0.
        -11    1    4    4    0    0 -0.14611163644E+02  0.34552871098E+02 -0.42373185777E+02  0.56593938519E+02  0.00000000000E+00 0. -1.
         11    1    4    4    0    0  0.33124272434E+02 -0.20459404087E+02  0.14434426658E+02  0.41522973314E+02  0.00000000000E+00 0.  1.
        -13    1    3    3    0    0 -0.28864114138E+02 -0.83159435361E+01 -0.10087637154E+03  0.10525366662E+03  0.00000000000E+00 0. -1.
         13    1    3    3    0    0  0.25051977730E+02  0.10494817373E+02  0.42260975784E+01  0.27488228037E+02  0.00000000000E+00 0.  1.
          3    1    1    2  501    0 -0.14700972383E+02 -0.16272340848E+02 -0.81723380218E+01  0.23402879618E+02  0.00000000000E+00 0. -1.
<scales pt_clust_5="13000.00000" pt_clust_6="13000.00000" pt_clust_7="13000.00000" pt_clust_8="13000.00000" pt_clust_9="21.92961"></scales>
<clustering>
<clus scale="   21.930">  1  9  2 -1</clus>
<clus scale="   90.884">  7  8 -1 -1</clus>
<clus scale="   91.132">  5  6 -1 -1</clus>
<clus scale="   91.371">  2  7  1 -1</clus>
<clus scale="   21.930">  1  5  2 -1</clus>
</clustering>
</event>
<event>
 9    1  0.1504846E-005  0.1095624E+03  0.7546771E-02  0.1261422E+00
         -1   -1    0    0    0  501 -0.00000000000E+00  0.00000000000E+00  0.39208168358E+03  0.39208168358E+03  0.00000000000E+00 0.  1.
         21   -1    0    0  501  502  0.00000000000E+00 -0.00000000000E+00 -0.67261551656E+02  0.67261551656E+02  0.00000000000E+00 0. -1.
         23    2    1    2    0    0  0.23099304586E+02 -0.59880236559E+02  0.24205101408E+03  0.26671103414E+03  0.91797939594E+02 0.  0.
         23    2    1    2    0    0 -0.53200687556E+02  0.29605244074E+02  0.97929857102E+02  0.14732749448E+03  0.91697056037E+02 0.  0.
        -11    1    4    4    0    0 -0.67647973178E+02  0.34600383645E+00  0.34367356602E+02  0.75878081114E+02  0.00000000000E+00 0. -1.
         11    1    4    4    0    0  0.14447285622E+02  0.29259240238E+02  0.63562500500E+02  0.71449413370E+02  0.00000000000E+00 0.  1.
        -11    1    3    3    0    0  0.30199826585E+02  0.16343180394E+02  0.58463266100E+02  0.67801788724E+02  0.00000000000E+00 0.  1.
         11    1    3    3    0    0 -0.71005219982E+01 -0.76223416953E+02  0.18358774798E+03  0.19890924542E+03  0.00000000000E+00 0. -1.
         -1    1    1    2    0  502  0.30101382970E+02  0.30274992485E+02 -0.15160739254E+02  0.45304706614E+02  0.00000000000E+00 0.  1.
<scales pt_clust_5="13000.00000" pt_clust_6="13000.00000" pt_clust_7="13000.00000" pt_clust_8="13000.00000" pt_clust_9="42.69272"></scales>
<clustering>
<clus scale="   42.693">  2  9  1 -1</clus>
<clus scale="   91.697">  5  6 -1 -1</clus>
<clus scale="   91.798">  7  8 -1 -1</clus>
<clus scale="  109.478">  2  5  1 -1</clus>
<clus scale="   42.693">  2  5  1 -1</clus>
</clustering>
</event>
<event>
 9    1  0.1504846E-005  0.1147065E+03  0.7546771E-02  0.1252598E+00
          2   -1    0    0  502    0 -0.00000000000E+00  0.00000000000E+00  0.75353849869E+03  0.75353849869E+03  0.00000000000E+00 0. -1.
         21   -1    0    0  501  502  0.00000000000E+00 -0.00000000000E+00 -0.26081452235E+02  0.26081452235E+02  0.00000000000E+00 0.  1.
         23    2    1    2    0    0 -0.33235900770E+02 -0.39663666149E+02  0.30255136501E+03  0.32059497795E+03  0.92552579133E+02 0.  0.
         23    2    1    2    0    0  0.52965966910E+02  0.66086011684E+02  0.39630674753E+03  0.41537506033E+03  0.91129841498E+02 0.  0.
        -11    1    3    3    0    0 -0.53452979847E+02 -0.57478345438E+02  0.20953107101E+03  0.22375042115E+03  0.00000000000E+00 0. -1.
         11    1    3    3    0    0  0.20217079077E+02  0.17814679290E+02  0.93020294000E+02  0.96844556793E+02  0.00000000000E+00 0.  1.
        -13    1    4    4    0    0 -0.10956546675E+01  0.29713387462E+02  0.26365733275E+02  0.39739624366E+02  0.00000000000E+00 0. -1.
         13    1    4    4    0    0  0.54061621577E+02  0.36372624222E+02  0.36994101426E+03  0.37563543596E+03  0.00000000000E+00 0.  1.
          2    1    1    2  501    0 -0.19730066140E+02 -0.26422345536E+02  0.28598933917E+02  0.43649912653E+02  0.00000000000E+00 0. -1.
<scales pt_clust_5="13000.00000" pt_clust_6="13000.00000" pt_clust_7="13000.00000" pt_clust_8="13000.00000" pt_clust_9="32.97599"></scales>
<clustering>
<clus scale="   32.976">  2  9  1 -1</clus>
<clus scale="   91.130">  7  8 -1 -1</clus>
<clus scale="   92.553">  5  6 -1 -1</clus>
<clus scale="  113.562">  2  7  1 -1</clus>
<clus scale="   32.976">  2  5  1 -1</clus>
</clustering>
</event>
<event>
 9    1  0.1504846E-005  0.1074149E+03  0.7546771E-02  0.1266806E+00
         21   -1    0    0  501  502  0.00000000000E+00  0.00000000000E+00  0.65957130061E+03  0.65957130061E+03  0.00000000000E+00 0.  1.
         -1   -1    0    0    0  501 -0.00000000000E+00 -0.00000000000E+00 -0.10845928029E+03  0.10845928029E+03  0.00000000000E+00 0.  1.
         23    2    1    2    0    0 -0.58676570864E+02  0.11347116399E+02 -0.67501243906E+02  0.12817352389E+03  0.91106186824E+02 0.  0.
         23    2    1    2    0    0  0.25337209094E+02  0.41701116694E+02  0.40354024947E+03  0.41584359815E+03  0.87750828374E+02 0.  0.
        -11    1    4    4    0    0  0.54731474187E+02  0.91300853827E+01  0.25456644847E+03  0.26054360367E+03  0.00000000000E+00 0. -1.
         11    1    4    4    0    0 -0.29394265093E+02  0.32571031312E+02  0.14897380100E+03  0.15529999448E+03  0.00000000000E+00 0.  1.
        -13    1    3    3    0    0 -0.80554118893E+01 -0.36980669946E+02 -0.32674253880E+02  0.50000664765E+02  0.00000000000E+00 0.  1.
         13    1    3    3    0    0 -0.50621158975E+02  0.48327786345E+02 -0.34826990026E+02  0.78172859121E+02  0.00000000000E+00 0. -1.
         -1    1    1    2    0  502  0.33339361770E+02 -0.53048233093E+02  0.21507301476E+03  0.22401345887E+03  0.00000000000E+00 0.  1.
<scales pt_clust_5="13000.00000" pt_clust_6="13000.00000" pt_clust_7="13000.00000" pt_clust_8="13000.00000" pt_clust_9="62.65483"></scales>
<clustering>
<clus scale="   62.655">  1  9  2 -1</clus>
<clus scale="   87.751">  5  6 -1 -1</clus>
<clus scale="   91.106">  7  8 -1 -1</clus>
<clus scale="  104.584">  1  5  2 -1</clus>
<clus scale="   62.655">  1  5  2 -1</clus>
</clustering>
</event>
<event>
 9    1  0.1504846E-005  0.9502155E+02  0.7546771E-02  0.1292007E+00
         21   -1    0    0  501  502  0.00000000000E+00  0.00000000000E+00  0.55018888235E+03  0.55018888235E+03  0.00000000000E+00 0. -1.
         -2   -1    0    0    0  501 -0.00000000000E+00 -0.00000000000E+00 -0.94070823212E+02  0.94070823212E+02  0.00000000000E+00 0.  1.
         23    2    1    2    0    0  0.22747227666E+02 -0.45866785456E+01 -0.62179425116E+02  0.11374031951E+03  0.92369396382E+02 0.  0.
         23    2    1    2    0    0 -0.81963127445E+01 -0.98047021508E+01  0.44901877160E+03  0.45828102373E+03  0.90776250960E+02 0.  0.
        -11    1    4    4    0    0 -0.10217651792E+02 -0.49338363752E+02  0.29409676963E+03  0.29838160877E+03  0.00000000000E+00 0. -1.
         11    1    4    4    0    0  0.20213390474E+01  0.39533661601E+02  0.15492200197E+03  0.15989941496E+03  0.00000000000E+00 0.  1.
        -11    1    3    3    0    0 -0.17908744922E+02 -0.36676681759E+02 -0.14421843927E+02  0.43288470888E+02  0.00000000000E+00 0. -1.
         11    1    3    3    0    0  0.40655972588E+02  0.32090003214E+02 -0.47757581190E+02  0.70451848623E+02  0.00000000000E+00 0.  1.
         -2    1    1    2    0  502 -0.14550914921E+02  0.14391380696E+02  0.69278712654E+02  0.72238362318E+02  0.00000000000E+00 0.  1.
<scales pt_clust_5="13000.00000" pt_clust_6="13000.00000" pt_clust_7="13000.00000" pt_clust_8="13000.00000" pt_clust_9="20.46560"></scales>
<clustering>
<clus scale="   20.466">  1  9  2 -1</clus>
<clus scale="   90.776">  5  6 -1 -1</clus>
<clus scale="   92.369">  7  8 -1 -1</clus>
<clus scale="   93.474">  1  5  2 -1</clus>
<clus scale="   20.466">  1  5  2 -1</clus>
</clustering>
</event>
<event>
 9    1  0.1504846E-005  0.1284189E+03  0.7546771E-02  0.1230936E+00
          1   -1    0    0  502    0 -0.00000000000E+00  0.00000000000E+00  0.50030047127E+03  0.50030047127E+03  0.00000000000E+00 0. -1.
         21   -1    0    0  501  502  0.00000000000E+00 -0.00000000000E+00 -0.14635188782E+03  0.14635188782E+03  0.00000000000E+00 0. -1.
         23    2    1    2    0    0  0.96345674087E+02  0.14978600284E+02  0.33172363444E+03  0.35629994804E+03  0.86036247828E+02 0.  0.
         23    2    1    2    0    0 -0.19706019888E+02 -0.11724668110E+03 -0.30081939187E+02  0.15226400640E+03  0.90245737462E+02 0.  0.
        -11    1    4    4    0    0 -0.18069976550E+01 -0.93107760959E+02 -0.59257343426E+02  0.11038003960E+03  0.00000000000E+00 0. -1.
         11    1    4    4    0    0 -0.17899022233E+02 -0.24138920139E+02  0.29175404239E+02  0.41883966800E+02  0.00000000000E+00 0.  1.
        -13    1    3    3    0    0  0.71477363230E+02 -0.30081481122E+02  0.17706735276E+03  0.19330482760E+03  0.00000000000E+00 0.  1.
         13    1    3    3    0    0  0.24868310858E+02  0.45060081406E+02  0.15465628168E+03  0.16299512043E+03  0.00000000000E+00 0. -1.
          1    1    1    2  501    0 -0.76639654199E+02  0.10226808081E+03  0.52306888191E+02  0.13808840466E+03  0.00000000000E+00 0. -1.
<scales pt_clust_5="13000.00000" pt_clust_6="13000.00000" pt_clust_7="13000.00000" pt_clust_8="13000.00000" pt_clust_9="127.79827"></scales>
<clustering>
<clus scale="   86.036">  7  8 -1 -1</clus>
<clus scale="   90.246">  5  6 -1 -1</clus>
<clus scale="  127.798">  2  9  1 -1</clus>
<clus scale="  125.496">  1  7  2 -1</clus>
<clus scale="  127.798">  2  5  1 -1</clus>
</clustering>
</event>
<event>
 9    1  0.1504846E-005  0.1045976E+03  0.7546771E-02  0.1271190E+00
         21   -1    0    0  501  502  0.00000000000E+00  0.00000000000E+00  0.43005229277E+02  0.43005229277E+02  0.00000000000E+00 0.  1.
         -1   -1    0    0    0  501 -0.00000000000E+00 -0.00000000000E+00 -0.53335896978E+03  0.53335896978E+03  0.00000000000E+00 0.  1.
         23    2    1    2    0    0 -0.22782066558E+02  0.28594247342E+02 -0.23965848404E+03  0.25911843163E+03  0.91485075826E+02 0.  0.
         23    2    1    2    0    0  0.23156126213E+02 -0.62806876833E+02 -0.25822094048E+03  0.28221321318E+03  0.92115870707E+02 0.  0.
        -11    1    4    4    0    0 -0.30602104662E+02 -0.18914877695E+02 -0.14515576886E+03  0.14954751299E+03  0.00000000000E+00 0. -1.
         11    1    4    4    0    0  0.53758230875E+02 -0.43891999139E+02 -0.11306517161E+03  0.13266570019E+03  0.00000000000E+00 0.  1.
        -13    1    3    3    0    0 -0.34171888403E+02 -0.25563130035E+02 -0.91542673282E+02  0.10100125052E+03  0.00000000000E+00 0. -1.
         13    1    3    3    0    0  0.11389821845E+02  0.54157377377E+02 -0.14811581076E+03  0.15811718111E+03  0.00000000000E+00 0.  1.
         -1    1    1    2    0  502 -0.37405965483E+00  0.34212629491E+02  0.75256840109E+01  0.35032554249E+02  0.00000000000E+00 0.  1.
<scales pt_clust_5="13000.00000" pt_clust_6="13000.00000" pt_clust_7="13000.00000" pt_clust_8="13000.00000" pt_clust_9="34.21467"></scales>
<clustering>
<clus scale="   34.215">  1  9  2 -1</clus>
<clus scale="   91.485">  7  8 -1 -1</clus>
<clus scale="   92.116">  5  6 -1 -1</clus>
<clus scale="  104.042">  2  7  1 -1</clus>
<clus scale="   34.215">  1  5  2 -1</clus>
</clustering>
</event>
<event>
 9    1  0.1504846E-005  0.9462300E+02  0.7546771E-02  0.1294206E+00
         21   -1    0    0  501  502  0.00000000000E+00  0.00000000000E+00  0.10961459852E+03  0.10961459852E+03  0.00000000000E+00 0. -1.
          1   -1    0    0  502    0 -0.00000000000E+00 -0.00000000000E+00 -0.23100744588E+03  0.23100744588E+03  0.00000000000E+00 0. -1.
         23    2    1    2    0    0 -0.34609588181E+01  0.15041464921E+02 -0.89114991048E+02  0.12762804033E+03  0.90051158489E+02 0.  0.
         23    2    1    2    0    0  0.30572718613E+02  0.69339280919E+02 -0.69849887871E+01  0.12082629316E+03  0.93848686983E+02 0.  0.
        -11    1    4    4    0    0 -0.22606751243E+02  0.38285518271E+02  0.25443842238E+02  0.51227289786E+02  0.00000000000E+00 0.  1.
         11    1    4    4    0    0  0.53179469856E+02  0.31053762648E+02 -0.32428831025E+02  0.69599003373E+02  0.00000000000E+00 0. -1.
        -13    1    3    3    0    0 -0.28243870428E+02 -0.26222484728E+02 -0.20047383496E+02  0.43442289386E+02  0.00000000000E+00 0. -1.
         13    1    3    3    0    0  0.24782911610E+02  0.41263949649E+02 -0.69067607552E+02  0.84185750941E+02  0.00000000000E+00 0.  1.
          1    1    1    2  501    0 -0.27111759795E+02 -0.84380745840E+02 -0.25292867528E+02  0.92167710916E+02  0.00000000000E+00 0. -1.
<scales pt_clust_5="13000.00000" pt_clust_6="13000.00000" pt_clust_7="13000.00000" pt_clust_8="13000.00000" pt_clust_9="88.62933"></scales>
<clustering>
<clus scale="   88.629">  1  9  2 -1</clus>
<clus scale="   90.051">  7  8 -1 -1</clus>
<clus scale="   90.858">  2  7  1 -1</clus>
<clus scale="   93.849">  5  6 -1 -1</clus>
<clus scale="   88.629">  1  5  2 -1</clus>
</clustering>
</event>
<event>
 9    1  0.1504846E-005  0.9879316E+02  0.7546771E-02  0.1285860E+00
         21   -1    0    0  501  502  0.00000000000E+00  0.00000000000E+00  0.65142444704E+02  0.65142444704E+02  0.00000000000E+00 0.  1.
         -3   -1    0    0    0  501 -0.00000000000E+00 -0.00000000000E+00 -0.38286402210E+03  0.38286402210E+03  0.00000000000E+00 0.  1.
         23    2    1    2    0    0 -0.14405639163E+02 -0.16898097067E+01 -0.22613615039E+03  0.24614964655E+03  0.96133823840E+02 0.  0.
         23    2    1    2    0    0  0.23063705007E+02  0.38941798569E+02 -0.11794186792E+03  0.15540970240E+03  0.90517916612E+02 0.  0.
        -11    1    3    3    0    0 -0.55765832650E+02 -0.59164920879E+00 -0.13467336952E+03  0.14576383158E+03  0.00000000000E+00 0. -1.
         11    1    3    3    0    0  0.41360193487E+02 -0.10981604979E+01 -0.91462780876E+02  0.10038581497E+03  0.00000000000E+00 0.  1.
        -11    1    4    4    0    0 -0.20059054010E+02 -0.19217115148E+02 -0.23346993903E+02  0.36286985087E+02  0.00000000000E+00 0. -1.
         11    1    4    4    0    0  0.43122759018E+02  0.58158913718E+02 -0.94594874017E+02  0.11912271732E+03  0.00000000000E+00 0.  1.
         -3    1    1    2    0  502 -0.86580658445E+01 -0.37251988863E+02  0.26356440921E+02  0.46447117848E+02  0.00000000000E+00 0.  1.
<scales pt_clust_5="13000.00000" pt_clust_6="13000.00000" pt_clust_7="13000.00000" pt_clust_8="13000.00000" pt_clust_9="38.24491"></scales>
<clustering>
<clus scale="   38.245">  1  9  2 -1</clus>
<clus scale="   90.518">  7  8 -1 -1</clus>
<clus scale="   93.337">  1  7  2 -1</clus>
<clus scale="   96.134">  5  6 -1 -1</clus>
<clus scale="   38.245">  1  5  2 -1</clus>
</clustering>
</event>
<event>
 9    1  0.1659466E-005  0.2071920E+03  0.7546771E-02  0.1144290E+00
         21   -1    0    0  501  502  0.00000000000E+00  0.00000000000E+00  0.56893755449E+03  0.56893755449E+03  0.00000000000E+00 0.  1.
          1   -1    0    0  502    0 -0.00000000000E+00 -0.00000000000E+00 -0.21196244856E+03  0.21196244856E+03  0.00000000000E+00 0. -1.
         23    2    1    2    0    0 -0.13340170195E+03 -0.11482336789E+03 -0.99833235002E+02  0.22105467844E+03  0.88983572374E+02 0.  0.
         23    2    1    2    0    0  0.17667044567E+03  0.16343198795E+03  0.35965424035E+03  0.44290986640E+03  0.94316043693E+02 0.  0.
        -11    1    4    4    0    0  0.16027526801E+03  0.13158757391E+03  0.34825793042E+03  0.40532337367E+03  0.00000000000E+00 0.  1.
         11    1    4    4    0    0  0.16395177664E+02  0.31844414037E+02  0.11396309928E+02  0.37586492732E+02  0.00000000000E+00 0. -1.
        -13    1    3    3    0    0 -0.12766643357E+03 -0.61302740097E+02 -0.85196601850E+02  0.16527312295E+03  0.00000000000E+00 0. -1.
         13    1    3    3    0    0 -0.57352683802E+01 -0.53520627788E+02 -0.14636633153E+02  0.55781555485E+02  0.00000000000E+00 0.  1.
          1    1    1    2  501    0 -0.43268743722E+02 -0.48608620066E+02  0.97154100581E+02  0.11693545821E+03  0.00000000000E+00 0. -1.
<scales pt_clust_5="13000.00000" pt_clust_6="13000.00000" pt_clust_7="13000.00000" pt_clust_8="13000.00000" pt_clust_9="65.07674"></scales>
<clustering>
<clus scale="   65.077">  1  9  2 -1</clus>
<clus scale="   88.984">  7  8 -1 -1</clus>
<clus scale="   94.316">  5  6 -1 -1</clus>
<clus scale="  204.820">  2  7  1 -1</clus>
<clus scale="   65.077">  1  5  2 -1</clus>
</clustering>
</event>
<event>
 9    1  0.1504846E-005  0.2279079E+03  0.7546771E-02  0.1128233E+00
          2   -1    0    0  502    0 -0.00000000000E+00  0.00000000000E+00  0.12498383987E+04  0.12498383987E+04  0.00000000000E+00 0. -1.
         21   -1    0    0  501  502  0.00000000000E+00 -0.00000000000E+00 -0.11423901928E+03  0.11423901928E+03  0.00000000000E+00 0. -1.
         23    2    1    2    0    0  0.13217433460E+03 -0.14962903461E+03  0.77701546316E+03  0.80748094099E+03  0.91725336438E+02 0.  0.
         23    2    1    2    0    0 -0.16720977850E+03  0.15333646661E+03  0.41965745262E+03  0.48608970970E+03  0.93271894589E+02 0.  0.
        -11    1    4    4    0    0 -0.58913759922E+02  0.55948269006E+02  0.69746453132E+02  0.10707757766E+03  0.00000000000E+00 0.  1.
         11    1    4    4    0    0 -0.10829601858E+03  0.97388197600E+02  0.34991099949E+03  0.37901213204E+03  0.00000000000E+00 0. -1.
        -13    1    3    3    0    0  0.10171596932E+03 -0.47599757161E+02  0.36169257225E+03  0.37872601193E+03  0.00000000000E+00 0.  1.
         13    1    3    3    0    0  0.30458365278E+02 -0.10202927745E+03  0.41532289092E+03  0.42875492906E+03  0.00000000000E+00 0. -1.
          2    1    1    2  501    0  0.35035443902E+02 -0.37074319961E+01 -0.61073536395E+02  0.70506767258E+02  0.00000000000E+00 0. -1.
<scales pt_clust_5="13000.00000" pt_clust_6="13000.00000" pt_clust_7="13000.00000" pt_clust_8="13000.00000" pt_clust_9="35.23106"></scales>
<clustering>
<clus scale="   35.231">  2  9  1 -1</clus>
<clus scale="   91.725">  7  8 -1 -1</clus>
<clus scale="   93.272">  5  6 -1 -1</clus>
<clus scale="  227.279">  1  7  2 -1</clus>
<clus scale="   35.231">  2  5  1 -1</clus>
</clustering>
</event>
<event>
 9    1  0.1504846E-005  0.9514927E+02  0.7546771E-02  0.1291982E+00
         -1   -1    0    0    0  501 -0.00000000000E+00  0.00000000000E+00  0.20110890426E+03  0.20110890426E+03  0.00000000000E+00 0.  1.
         21   -1    0    0  501  502  0.00000000000E+00 -0.00000000000E+00 -0.62124842424E+02  0.62124842424E+02  0.00000000000E+00 0. -1.
         23    2    1    2    0    0 -0.89528526125E+00 -0.13989775171E+02  0.10097188202E+03  0.13651428765E+03  0.90798207189E+02 0.  0.
         23    2    1    2    0    0  0.43134689648E+01  0.34880468186E+02  0.27175958415E+02  0.10293861109E+03  0.92857804533E+02 0.  0.
        -11    1    4    4    0    0 -0.35474080154E+01  0.54585653686E+02 -0.14135820681E+02  0.56497779764E+02  0.00000000000E+00 0. -1.
         11    1    4    4    0    0  0.78608769802E+01 -0.19705185500E+02  0.41311779096E+02  0.46440831329E+02  0.00000000000E+00 0.  1.
        -11    1    3    3    0    0 -0.37532307250E+02 -0.14761251417E+02  0.89415264027E+02  0.98090050831E+02  0.00000000000E+00 0. -1.
         11    1    3    3    0    0  0.36637021989E+02  0.77147624617E+00  0.11556617997E+02  0.38424236822E+02  0.00000000000E+00 0.  1.
         -1    1    1    2    0  502 -0.34181837036E+01 -0.20890693015E+02  0.10836221397E+02  0.23780847938E+02  0.00000000000E+00 0.  1.
<scales pt_clust_5="13000.00000" pt_clust_6="13000.00000" pt_clust_7="13000.00000" pt_clust_8="13000.00000" pt_clust_9="21.16849"></scales>
<clustering>
<clus scale="   21.168">  2  9  1 -1</clus>
<clus scale="   90.798">  7  8 -1 -1</clus>
<clus scale="   92.858">  5  6 -1 -1</clus>
<clus scale="   93.140">  1  7  2 -1</clus>
<clus scale="   21.168">  2  5  1 -1</clus>
</clustering>
</event>
<event>
 9    1  0.1504846E-005  0.1421317E+03  0.7546771E-02  0.1211590E+00
         21   -1    0    0  501  502  0.00000000000E+00  0.00000000000E+00  0.21539388415E+03  0.21539388415E+03  0.00000000000E+00 0. -1.
         -1   -1    0    0    0  501 -0.00000000000E+00 -0.00000000000E+00 -0.24255937103E+03  0.24255937103E+03  0.00000000000E+00 0.  1.
         23    2    1    2    0    0 -0.70319563682E+02 -0.93256838678E+02 -0.17845353054E+03  0.23011084809E+03  0.86392481456E+02 0.  0.
         23    2    1    2    0    0  0.54110137886E+02  0.40524998727E+02  0.11494725121E+03  0.16178148349E+03  0.91598009246E+02 0.  0.
        -11    1    4    4    0    0  0.50099115054E+02 -0.17091516349E+02  0.36216964269E+02  0.64138208279E+02  0.00000000000E+00 0.  1.
         11    1    4    4    0    0  0.40110228312E+01  0.57616515075E+02  0.78730286937E+02  0.97643275215E+02  0.00000000000E+00 0. -1.
        -11    1    3    3    0    0 -0.54262389683E+02 -0.70163814658E+02 -0.18130608823E+03  0.20183970237E+03  0.00000000000E+00 0.  1.
         11    1    3    3    0    0 -0.16057173999E+02 -0.23093024020E+02  0.28525576957E+01  0.28271145725E+02  0.00000000000E+00 0. -1.
         -1    1    1    2    0  502  0.16209425796E+02  0.52731839951E+02  0.36340792453E+02  0.66060923589E+02  0.00000000000E+00 0.  1.
<scales pt_clust_5="13000.00000" pt_clust_6="13000.00000" pt_clust_7="13000.00000" pt_clust_8="13000.00000" pt_clust_9="55.16695"></scales>
<clustering>
<clus scale="   55.167">  1  9  2 -1</clus>
<clus scale="   86.392">  7  8 -1 -1</clus>
<clus scale="   91.598">  5  6 -1 -1</clus>
<clus scale="  138.834">  2  7  1 -1</clus>
<clus scale="   55.167">  1  5  2 -1</clus>
</clustering>
</event>
<event>
 9    1  0.1504846E-005  0.1164561E+03  0.7546771E-02  0.1256417E+00
          4   -1    0    0  502    0 -0.00000000000E+00  0.00000000000E+00  0.73749711708E+02  0.73749711708E+02  0.00000000000E+00 0. -1.
         21   -1    0    0  501  502  0.00000000000E+00 -0.00000000000E+00 -0.21483302117E+03  0.21483302117E+03  0.00000000000E+00 0. -1.
         23    2    1    2    0    0  0.41560988843E+02  0.46770763269E+01 -0.36915809975E+02  0.11932022647E+03  0.10547676797E+03 0.  0.
         23    2    1    2    0    0 -0.54993296340E+02 -0.23777296172E+02 -0.67594393473E+02  0.12587083248E+03  0.87663230517E+02 0.  0.
        -13    1    3    3    0    0  0.71961861148E+02 -0.17723097989E+02 -0.14855141978E+02  0.75586327503E+02  0.00000000000E+00 0. -1.
         13    1    3    3    0    0 -0.30400872305E+02  0.22400174316E+02 -0.22060667997E+02  0.43733898966E+02  0.00000000000E+00 0.  1.
        -13    1    4    4    0    0 -0.65253649285E+02 -0.46587511730E+02 -0.58526267917E+02  0.99266102122E+02  0.00000000000E+00 0. -1.
         13    1    4    4    0    0  0.10260352944E+02  0.22810215558E+02 -0.90681255562E+01  0.26604730359E+02  0.00000000000E+00 0.  1.
          4    1    1    2  501    0  0.13432307497E+02  0.19100219845E+02 -0.36573106009E+02  0.43391673925E+02  0.00000000000E+00 0. -1.
<scales pt_clust_5="13000.00000" pt_clust_6="13000.00000" pt_clust_7="13000.00000" pt_clust_8="13000.00000" pt_clust_9="23.35049"></scales>
<clustering>
<clus scale="   23.350">  2  9  1 -1</clus>
<clus scale="   87.663">  7  8 -1 -1</clus>
<clus scale="  100.606">  2  7  1 -1</clus>
<clus scale="  105.477">  5  6 -1 -1</clus>
<clus scale="   23.350">  2  5  1 -1</clus>
</clustering>
</event>
<event>
 9    1  0.1504846E-005  0.1156054E+03  0.7546771E-02  0.1254965E+00
         21   -1    0    0  501  502  0.00000000000E+00  0.00000000000E+00  0.13119110555E+03  0.13119110555E+03  0.00000000000E+00 0. -1.
         -1   -1    0    0    0  501 -0.00000000000E+00 -0.00000000000E+00 -0.14560695060E+03  0.14560695060E+03  0.00000000000E+00 0.  1.
         23    2    1    2    0    0 -0.26142654513E+02  0.42589133559E+02 -0.62530580727E+01  0.94858189845E+02  0.80384717224E+02 0.  0.
         23    2    1    2    0    0  0.48827345238E+02 -0.83925428581E+02 -0.18647616504E+01  0.13436939645E+03  0.92865871886E+02 0.  0.
        -11    1    4    4    0    0  0.20416265171E+02 -0.77878915190E+02 -0.37148072026E+02  0.88667516995E+02  0.00000000000E+00 0. -1.
         11    1    4    4    0    0  0.28411080067E+02 -0.60465133905E+01  0.35283310376E+02  0.45701879456E+02  0.00000000000E+00 0.  1.
        -13    1    3    3    0    0  0.18994235228E+02  0.43258699081E+02 -0.13505394923E+02  0.49137477654E+02  0.00000000000E+00 0.  1.
         13    1    3    3    0    0 -0.45136889741E+02 -0.66956552248E+00  0.72523368507E+01  0.45720712191E+02  0.00000000000E+00 0. -1.
         -1    1    1    2    0  502 -0.22684690725E+02  0.41336295022E+02 -0.62980253314E+01  0.47570469858E+02  0.00000000000E+00 0.  1.
<scales pt_clust_5="13000.00000" pt_clust_6="13000.00000" pt_clust_7="13000.00000" pt_clust_8="13000.00000" pt_clust_9="47.15174"></scales>
<clustering>
<clus scale="   47.152">  1  9  2 -1</clus>
<clus scale="   80.385">  7  8 -1 -1</clus>
<clus scale="   92.866">  5  6 -1 -1</clus>
<clus scale="  105.841">  2  7  1 -1</clus>
<clus scale="   47.152">  1  5  2 -1</clus>
</clustering>
</event>
<event>
 9    1  0.1504846E-005  0.9745497E+02  0.7546771E-02  0.1285889E+00
         21   -1    0    0  501  502  0.00000000000E+00  0.00000000000E+00  0.26329125823E+03  0.26329125823E+03  0.00000000000E+00 0.  1.
          1   -1    0    0  502    0 -0.00000000000E+00 -0.00000000000E+00 -0.78349083762E+02  0.78349083762E+02  0.00000000000E+00 0. -1.
         23    2    1    2    0    0 -0.56191801247E+00  0.18174175907E+02  0.17037283783E+02  0.94996053004E+02  0.91669867601E+02 0.  0.
         23    2    1    2    0    0 -0.19998205553E+02 -0.51574439812E+02  0.42011407213E+02  0.11478274990E+03  0.91379813260E+02 0.  0.
        -11    1    4    4    0    0  0.34071892343E+02 -0.38018420315E+02  0.21266895672E+02  0.55304384840E+02  0.00000000000E+00 0.  1.
         11    1    4    4    0    0 -0.54070097896E+02 -0.13556019498E+02  0.20744511541E+02  0.59478365060E+02  0.00000000000E+00 0. -1.
        -13    1    3    3    0    0  0.83186570040E+01  0.53154286511E+02 -0.26862777602E+01  0.53868305310E+02  0.00000000000E+00 0. -1.
         13    1    3    3    0    0 -0.88805750165E+01 -0.34980110603E+02  0.19723561543E+02  0.41127747694E+02  0.00000000000E+00 0.  1.
          1    1    1    2  501    0  0.20560123566E+02  0.33400263905E+02  0.12589348347E+03  0.13186153909E+03  0.00000000000E+00 0. -1.
<scales pt_clust_5="13000.00000" pt_clust_6="13000.00000" pt_clust_7="13000.00000" pt_clust_8="13000.00000" pt_clust_9="39.22112"></scales>
<clustering>
<clus scale="   39.221">  1  9  2 -1</clus>
<clus scale="   91.380">  5  6 -1 -1</clus>
<clus scale="   91.670">  7  8 -1 -1</clus>
<clus scale="   97.182">  1  5  2 -1</clus>
<clus scale="   39.221">  1  5  2 -1</clus>
</clustering>
</event>
<event>
 9    1  0.1504846E-005  0.9552436E+02  0.7546771E-02  0.1291667E+00
         21   -1    0    0  501  502  0.00000000000E+00  0.00000000000E+00  0.13388396096E+03  0.13388396096E+03  0.00000000000E+00 0. -1.
          4   -1    0    0  502    0 -0.00000000000E+00 -0.00000000000E+00 -0.25761164170E+03  0.25761164170E+03  0.00000000000E+00 0. -1.
         23    2    1    2    0    0 -0.24367382676E+02  0.19191605437E+02 -0.13543473771E+03  0.16616620929E+03  0.91140297743E+02 0.  0.
         23    2    1    2    0    0  0.30020314356E+02  0.21845925752E+01 -0.85053925490E+02  0.12607424133E+03  0.88059936222E+02 0.  0.
        -11    1    3    3    0    0 -0.30208577093E+02 -0.26963593977E+02 -0.28402398738E+02  0.49459981644E+02  0.00000000000E+00 0.  1.
         11    1    3    3    0    0  0.58411944168E+01  0.46155199413E+02 -0.10703233897E+03  0.11670622764E+03  0.00000000000E+00 0. -1.
        -13    1    4    4    0    0  0.21316356141E+02  0.38474036530E+02 -0.14595393287E+02  0.46342896233E+02  0.00000000000E+00 0. -1.
         13    1    4    4    0    0  0.87039582145E+01 -0.36289443954E+02 -0.70458532203E+02  0.79731345099E+02  0.00000000000E+00 0.  1.
          4    1    1    2  501    0 -0.56529316799E+01 -0.21376198012E+02  0.96760982467E+02  0.99255152038E+02  0.00000000000E+00 0. -1.
<scales pt_clust_5="13000.00000" pt_clust_6="13000.00000" pt_clust_7="13000.00000" pt_clust_8="13000.00000" pt_clust_9="22.11103"></scales>
<clustering>
<clus scale="   22.111">  1  9  2 -1</clus>
<clus scale="   88.060">  7  8 -1 -1</clus>
<clus scale="   91.140">  5  6 -1 -1</clus>
<clus scale="   92.590">  1  7  2 -1</clus>
<clus scale="   22.111">  1  5  2 -1</clus>
</clustering>
</event>
<event>
 9    1  0.1504846E-005  0.1387031E+03  0.7546771E-02  0.1215110E+00
         21   -1    0    0  501  502  0.00000000000E+00  0.00000000000E+00  0.41514959274E+03  0.41514959274E+03  0.00000000000E+00 0. -1.
          1   -1    0    0  502    0 -0.00000000000E+00 -0.00000000000E+00 -0.71417825422E+03  0.71417825422E+03  0.00000000000E+00 0. -1.
         23    2    1    2    0    0  0.15954846496E+02 -0.12928796457E+03 -0.52328192595E+03  0.54699011811E+03  0.91674862314E+02 0.  0.
         23    2    1    2    0    0 -0.12344348018E+02  0.63323103191E+02 -0.15835334158E+03  0.19406950503E+03  0.91787764249E+02 0.  0.
        -11    1    3    3    0    0  0.37696215254E+02 -0.21559087317E+02 -0.89159464908E+02  0.99172622598E+02  0.00000000000E+00 0.  1.
         11    1    3    3    0    0 -0.21741368758E+02 -0.10772887725E+03 -0.43412246104E+03  0.44781749551E+03  0.00000000000E+00 0. -1.
        -11    1    4    4    0    0 -0.33559185797E+02  0.18103635163E+02 -0.12859901666E+02  0.40240994375E+02  0.00000000000E+00 0. -1.
         11    1    4    4    0    0  0.21214837780E+02  0.45219468028E+02 -0.14549343992E+03  0.15382851065E+03  0.00000000000E+00 0.  1.
          1    1    1    2  501    0 -0.36104984783E+01  0.65964861379E+02  0.38260660605E+03  0.38826822382E+03  0.00000000000E+00 0. -1.
<scales pt_clust_5="13000.00000" pt_clust_6="13000.00000" pt_clust_7="13000.00000" pt_clust_8="13000.00000" pt_clust_9="66.06360"></scales>
<clustering>
<clus scale="   66.064">  1  9  2 -1</clus>
<clus scale="   91.675">  5  6 -1 -1</clus>
<clus scale="   91.788">  7  8 -1 -1</clus>
<clus scale="  138.628">  2  5  1 -1</clus>
<clus scale="   66.064">  1  5  2 -1</clus>
</clustering>
</event>
<event>
 9    1  0.1504846E-005  0.9519936E+02  0.7546771E-02  0.1291706E+00
          2   -1    0    0  502    0 -0.00000000000E+00  0.00000000000E+00  0.25884902838E+03  0.25884902838E+03  0.00000000000E+00 0. -1.
         21   -1    0    0  501  502  0.00000000000E+00 -0.00000000000E+00 -0.78004023555E+02  0.78004023555E+02  0.00000000000E+00 0. -1.
         23    2    1    2    0    0 -0.73725378643E+01  0.28380284841E+02  0.18258545100E+03  0.20669408806E+03  0.92332032559E+02 0.  0.
         23    2    1    2    0    0  0.12988034206E+02 -0.55542930249E+00  0.20913469987E+02  0.93841525879E+02  0.90553085084E+02 0.  0.
        -11    1    4    4    0    0 -0.31692330990E+02 -0.15198739921E+01  0.34751668924E+02  0.47057330498E+02  0.00000000000E+00 0.  1.
         11    1    4    4    0    0  0.44680365196E+02  0.96444468957E+00 -0.13838198937E+02  0.46784195381E+02  0.00000000000E+00 0. -1.
        -13    1    3    3    0    0 -0.45410218669E+02  0.19293426007E+02  0.58166790823E+02  0.76273847427E+02  0.00000000000E+00 0.  1.
         13    1    3    3    0    0  0.38037680804E+02  0.90868588343E+01  0.12441866018E+03  0.13042024063E+03  0.00000000000E+00 0. -1.
          2    1    1    2  501    0 -0.56154963418E+01 -0.27824855539E+02 -0.22653916169E+02  0.36317437997E+02  0.00000000000E+00 0. -1.
<scales pt_clust_5="13000.00000" pt_clust_6="13000.00000" pt_clust_7="13000.00000" pt_clust_8="13000.00000" pt_clust_9="28.38585"></scales>
<clustering>
<clus scale="   28.386">  2  9  1 -1</clus>
<clus scale="   90.553">  5  6 -1 -1</clus>
<clus scale="   92.332">  7  8 -1 -1</clus>
<clus scale="   93.475">  2  5  1 -1</clus>
<clus scale="   28.386">  2  5  1 -1</clus>
</clustering>
</event>
<event>
 9    1  0.1504846E-005  0.1274294E+03  0.7546771E-02  0.1231700E+00
          4   -1    0    0  502    0 -0.00000000000E+00  0.00000000000E+00  0.22678936195E+03  0.22678936195E+03  0.00000000000E+00 0. -1.
         21   -1    0    0  501  502  0.00000000000E+00 -0.00000000000E+00 -0.21580788575E+03  0.21580788575E+03  0.00000000000E+00 0. -1.
         23    2    1    2    0    0 -0.92463953232E+02 -0.42733284083E+02  0.11673400764E+03  0.17790499627E+03  0.87450802978E+02 0.  0.
         23    2    1    2    0    0  0.66537442779E+02  0.37441552123E+02  0.34359265452E+02  0.12210367545E+03  0.88879960172E+02 0.  0.
        -11    1    3    3    0    0 -0.28694476267E+02 -0.59272894418E+02  0.75504453866E+02  0.10018768155E+03  0.00000000000E+00 0. -1.
         11    1    3    3    0    0 -0.63769476966E+02  0.16539610335E+02  0.41229553777E+02  0.77717314719E+02  0.00000000000E+00 0.  1.
        -13    1    4    4    0    0 -0.11966060636E+02  0.35869902497E+02  0.44219106719E+01  0.38070852450E+02  0.00000000000E+00 0.  1.
         13    1    4    4    0    0  0.78503503415E+02  0.15716496265E+01  0.29937354780E+02  0.84032823005E+02  0.00000000000E+00 0. -1.
          4    1    1    2  501    0  0.25926510453E+02  0.52917319601E+01 -0.14011179689E+03  0.14258857597E+03  0.00000000000E+00 0. -1.
<scales pt_clust_5="13000.00000" pt_clust_6="13000.00000" pt_clust_7="13000.00000" pt_clust_8="13000.00000" pt_clust_9="26.46103"></scales>
<clustering>
<clus scale="   26.461">  2  9  1 -1</clus>
<clus scale="   87.451">  5  6 -1 -1</clus>
<clus scale="   88.880">  7  8 -1 -1</clus>
<clus scale="  126.437">  1  5  2 -1</clus>
<clus scale="   26.461">  2  5  1 -1</clus>
</clustering>
</event>
<event>
 9    1  0.1504846E-005  0.1223469E+03  0.7546771E-02  0.1239394E+00
          1   -1    0    0  502    0 -0.00000000000E+00  0.00000000000E+00  0.20073851400E+03  0.20073851400E+03  0.00000000000E+00 0. -1.
         21   -1    0    0  501  502  0.00000000000E+00 -0.00000000000E+00 -0.13048402547E+03  0.13048402547E+03  0.00000000000E+00 0. -1.
         23    2    1    2    0    0 -0.38690643166E+02  0.68351872333E+02  0.11209598432E+03  0.16375346921E+03  0.89892962234E+02 0.  0.
         23    2    1    2    0    0  0.29417038665E+02 -0.93726284876E+02 -0.23843063738E+02  0.13500672117E+03  0.89489353741E+02 0.  0.
        -11    1    3    3    0    0 -0.43463921048E+02  0.88382885415E+02  0.96844796779E+02  0.13812878603E+03  0.00000000000E+00 0. -1.
         11    1    3    3    0    0  0.47732778818E+01 -0.20031013083E+02  0.15251187538E+02  0.25624683182E+02  0.00000000000E+00 0.  1.
        -13    1    4    4    0    0  0.49326522290E+02 -0.15899049361E+02 -0.16258677839E+02  0.54316021364E+02  0.00000000000E+00 0.  1.
         13    1    4    4    0    0 -0.19909483625E+02 -0.77827235515E+02 -0.75843858991E+01  0.80690699809E+02  0.00000000000E+00 0. -1.
          1    1    1    2  501    0  0.92736045006E+01  0.25374412543E+02 -0.17998432047E+02  0.32462349091E+02  0.00000000000E+00 0. -1.
<scales pt_clust_5="13000.00000" pt_clust_6="13000.00000" pt_clust_7="13000.00000" pt_clust_8="13000.00000" pt_clust_9="27.01593"></scales>
<clustering>
<clus scale="   27.016">  2  9  1 -1</clus>
<clus scale="   89.489">  7  8 -1 -1</clus>
<clus scale="   89.893">  5  6 -1 -1</clus>
<clus scale="  122.051">  2  7  1 -1</clus>
<clus scale="   27.016">  2  5  1 -1</clus>
</clustering>
</event>
<event>
 9    1  0.1504846E-005  0.1733280E+03  0.7546771E-02  0.1174815E+00
         -3   -1    0    0    0  501 -0.00000000000E+00  0.00000000000E+00  0.24794312511E+03  0.24794312511E+03  0.00000000000E+00 0.  1.
         21   -1    0    0  501  502  0.00000000000E+00 -0.00000000000E+00 -0.18957695085E+03  0.18957695085E+03  0.00000000000E+00 0.  1.
         23    2    1    2    0    0 -0.21868964368E+02 -0.15555013299E+03  0.12948913636E+03  0.22187105475E+03  0.88233967513E+02 0.  0.
         23    2    1    2    0    0 -0.14652986136E+02  0.12696879984E+03 -0.50933045285E+02  0.16506860787E+03  0.91201338071E+02 0.  0.
        -11    1    4    4    0    0 -0.22221907345E+01  0.92672222599E+02 -0.76774266392E+02  0.12036347849E+03  0.00000000000E+00 0.  1.
         11    1    4    4    0    0 -0.12430795401E+02  0.34296577238E+02  0.25841221108E+02  0.44705129380E+02  0.00000000000E+00 0. -1.
        -13    1    3    3    0    0  0.13229464339E+02 -0.73635547507E+02  0.14193848184E+02  0.76149050615E+02  0.00000000000E+00 0. -1.
         13    1    3    3    0    0 -0.35098428707E+02 -0.81914585486E+02  0.11529528817E+03  0.14572200413E+03  0.00000000000E+00 0.  1.
         -3    1    1    2    0  502  0.36521950504E+02  0.28581333156E+02 -0.20189916815E+02  0.50580413349E+02  0.00000000000E+00 0.  1.
<scales pt_clust_5="13000.00000" pt_clust_6="13000.00000" pt_clust_7="13000.00000" pt_clust_8="13000.00000" pt_clust_9="46.37613"></scales>
<clustering>
<clus scale="   46.376">  2  9  1 -1</clus>
<clus scale="   88.234">  7  8 -1 -1</clus>
<clus scale="   91.201">  5  6 -1 -1</clus>
<clus scale="  171.785">  1  7  2 -1</clus>
<clus scale="   46.376">  2  5  1 -1</clus>
</clustering>
</event>
<event>
 9    1  0.1504846E-005  0.9266985E+02  0.7546771E-02  0.1302141E+00
         21   -1    0    0  501  502  0.00000000000E+00  0.00000000000E+00  0.18831682513E+03  0.18831682513E+03  0.00000000000E+00 0.  1.
         -2   -1    0    0    0  501 -0.00000000000E+00 -0.00000000000E+00 -0.93303327317E+02  0.93303327317E+02  0.00000000000E+00 0.  1.
         23    2    1    2    0    0 -0.96851084341E+01  0.13534226810E+02 -0.36591336550E+02  0.99910564621E+02  0.91467034453E+02 0.  0.
         23    2    1    2    0    0 -0.22420892873E+02 -0.18487020821E+02  0.68999869292E+02  0.11117798399E+03  0.82189389738E+02 0.  0.
        -11    1    3    3    0    0 -0.40785603006E+02  0.33520796712E+02 -0.34119707065E+02  0.62859077587E+02  0.00000000000E+00 0.  1.
         11    1    3    3    0    0  0.31100494572E+02 -0.19986569903E+02 -0.24716294845E+01  0.37051487034E+02  0.00000000000E+00 0. -1.
        -11    1    4    4    0    0  0.27012598098E+02 -0.71534205469E+01  0.49499078466E+02  0.56841979649E+02  0.00000000000E+00 0. -1.
         11    1    4    4    0    0 -0.49433490971E+02 -0.11333600274E+02  0.19500790827E+02  0.54336004340E+02  0.00000000000E+00 0.  1.
         -2    1    1    2    0  502  0.32106001307E+02  0.49527940110E+01  0.62604965075E+02  0.70531603842E+02  0.00000000000E+00 0.  1.
<scales pt_clust_5="13000.00000" pt_clust_6="13000.00000" pt_clust_7="13000.00000" pt_clust_8="13000.00000" pt_clust_9="32.48577"></scales>
<clustering>
<clus scale="   32.486">  1  9  2 -1</clus>
<clus scale="   82.189">  7  8 -1 -1</clus>
<clus scale="   83.526">  1  7  2 -1</clus>
<clus scale="   91.467">  5  6 -1 -1</clus>
<clus scale="   32.486">  1  5  2 -1</clus>
</clustering>
</event>
<event>
 9    1  0.1504846E-005  0.1190599E+03  0.7546771E-02  0.1245624E+00
         21   -1    0    0  501  502  0.00000000000E+00  0.00000000000E+00  0.76077035160E+02  0.76077035160E+02  0.00000000000E+00 0.  1.
         -1   -1    0    0    0  501 -0.00000000000E+00 -0.00000000000E+00 -0.59600398304E+03  0.59600398304E+03  0.00000000000E+00 0.  1.
         23    2    1    2    0    0  0.27217827967E+02 -0.79842555957E+02 -0.39492845431E+03  0.41441893719E+03  0.93053358752E+02 0.  0.
         23    2    1    2    0    0 -0.10039642082E+02  0.57946020065E+02 -0.17209402711E+03  0.20295798945E+03  0.90094703843E+02 0.  0.
        -11    1    3    3    0    0  0.54225784827E+02 -0.80785205481E+02 -0.28241075307E+03  0.29870138703E+03  0.00000000000E+00 0.  1.
         11    1    3    3    0    0 -0.27007956860E+02  0.94264952454E+00 -0.11251770124E+03  0.11571755016E+03  0.00000000000E+00 0. -1.
        -13    1    4    4    0    0 -0.45703333453E+02  0.24751114115E+02 -0.52759521953E+02  0.74060647414E+02  0.00000000000E+00 0.  1.
         13    1    4    4    0    0  0.35663691371E+02  0.33194905949E+02 -0.11933450516E+03  0.12889734204E+03  0.00000000000E+00 0. -1.
         -1    1    1    2    0  502 -0.17178185885E+02  0.21896535892E+02  0.47095533539E+02  0.54704091563E+02  0.00000000000E+00 0.  1.
<scales pt_clust_5="13000.00000" pt_clust_6="13000.00000" pt_clust_7="13000.00000" pt_clust_8="13000.00000" pt_clust_9="27.83071"></scales>
<clustering>
<clus scale="   27.831">  1  9  2 -1</clus>
<clus scale="   90.095">  7  8 -1 -1</clus>
<clus scale="   93.053">  5  6 -1 -1</clus>
<clus scale="  116.762">  1  7  2 -1</clus>
<clus scale="   27.831">  1  5  2 -1</clus>
</clustering>
</event>
<event>
 9    1  0.1504846E-005  0.1168236E+03  0.7546771E-02  0.1249061E+00
          1   -1    0    0  502    0 -0.00000000000E+00  0.00000000000E+00  0.15095805160E+03  0.15095805160E+03  0.00000000000E+00 0. -1.
         21   -1    0    0  501  502  0.00000000000E+00 -0.00000000000E+00 -0.18306685387E+03  0.18306685387E+03  0.00000000000E+00 0. -1.
         23    2    1    2    0    0 -0.87154117155E+02 -0.10686263383E+02  0.47552534228E+02  0.13492100717E+03  0.90732564730E+02 0.  0.
         23    2    1    2    0    0  0.56147596258E+02  0.13791230681E+02  0.77744184962E+01  0.10628118335E+03  0.88839730649E+02 0.  0.
        -11    1    3    3    0    0 -0.70995764062E+02 -0.26374911909E+02 -0.68452548464E+01  0.76045328632E+02  0.00000000000E+00 0.  1.
         11    1    3    3    0    0 -0.16158353094E+02  0.15688648526E+02  0.54397789075E+02  0.58875678539E+02  0.00000000000E+00 0. -1.
        -13    1    4    4    0    0 -0.24358756059E+02  0.69295308310E+00  0.33321590073E+01  0.24595374857E+02  0.00000000000E+00 0. -1.
         13    1    4    4    0    0  0.80506352318E+02  0.13098277598E+02  0.44422594889E+01  0.81685808491E+02  0.00000000000E+00 0.  1.
          1    1    1    2  501    0  0.31006520897E+02 -0.31049672984E+01 -0.87435754988E+02  0.92822714948E+02  0.00000000000E+00 0. -1.
<scales pt_clust_5="13000.00000" pt_clust_6="13000.00000" pt_clust_7="13000.00000" pt_clust_8="13000.00000" pt_clust_9="31.16160"></scales>
<clustering>
<clus scale="   31.162">  2  9  1 -1</clus>
<clus scale="   88.840">  7  8 -1 -1</clus>
<clus scale="   90.733">  5  6 -1 -1</clus>
<clus scale="  115.360">  2  7  1 -1</clus>
<clus scale="   31.162">  2  5  1 -1</clus>
</clustering>
</event>
<event>
 9    1  0.1504846E-005  0.1544451E+03  0.7546771E-02  0.1196636E+00
         21   -1    0    0  501  502  0.00000000000E+00  0.00000000000E+00  0.31131642704E+03  0.31131642704E+03  0.00000000000E+00 0.  1.
          3   -1    0    0  502    0 -0.00000000000E+00 -0.00000000000E+00 -0.13679688087E+03  0.13679688087E+03  0.00000000000E+00 0. -1.
         23    2    1    2    0    0  0.20858565315E+02  0.10444094814E+03 -0.12521900228E+02  0.14245498880E+03  0.93774380580E+02 0.  0.
         23    2    1    2    0    0 -0.48660097733E+02 -0.12786682400E+03  0.72010338148E+02  0.18501896927E+03  0.10163070597E+03 0.  0.
        -11    1    3    3    0    0  0.50519769311E+02  0.95786317546E+02  0.20078818231E+01  0.10831111351E+03  0.00000000000E+00 0. -1.
         11    1    3    3    0    0 -0.29661203996E+02  0.86546305903E+01 -0.14529782051E+02  0.34143875287E+02  0.00000000000E+00 0.  1.
        -11    1    4    4    0    0  0.21092350306E+02  0.69623377602E+00  0.21883136943E+02  0.30401376044E+02  0.00000000000E+00 0. -1.
         11    1    4    4    0    0 -0.69752448038E+02 -0.12856305778E+03  0.50127201205E+02  0.15461759322E+03  0.00000000000E+00 0.  1.
          3    1    1    2  501    0  0.27801532418E+02  0.23425875868E+02  0.11503110826E+03  0.12063934985E+03  0.00000000000E+00 0. -1.
<scales pt_clust_5="13000.00000" pt_clust_6="13000.00000" pt_clust_7="13000.00000" pt_clust_8="13000.00000" pt_clust_9="36.35515"></scales>
<clustering>
<clus scale="   36.355">  1  9  2 -1</clus>
<clus scale="   93.774">  5  6 -1 -1</clus>
<clus scale="  101.631">  7  8 -1 -1</clus>
<clus scale="  149.392">  2  5  1 -1</clus>
<clus scale="   36.355">  1  5  2 -1</clus>
</clustering>
</event>
<event>
 9    1  0.2776872E-005  0.1026831E+03  0.7546771E-02  0.1280893E+00
          2   -1    0    0  502    0 -0.00000000000E+00  0.00000000000E+00  0.38602120045E+03  0.38602120045E+03  0.00000000000E+00 0. -1.
         21   -1    0    0  501  502  0.00000000000E+00 -0.00000000000E+00 -0.12447053808E+03  0.12447053808E+03  0.00000000000E+00 0. -1.
         23    2    1    2    0    0  0.57358539254E+01 -0.70105210631E+01  0.34009007749E+03  0.35529417255E+03  0.10242382931E+03 0.  0.
         23    2    1    2    0    0  0.19420190418E+02  0.38918539129E+01 -0.25773393018E+02  0.96658640978E+02  0.91029307178E+02 0.  0.
        -11    1    3    3    0    0  0.41840617272E+02  0.23816941564E+02  0.10575184443E+03  0.11619525188E+03  0.00000000000E+00 0. -1.
         11    1    3    3    0    0 -0.36104763347E+02 -0.30827462627E+02  0.23433823306E+03  0.23909892067E+03  0.00000000000E+00 0.  1.
        -13    1    4    4    0    0  0.15435254714E+02  0.45620719190E+02 -0.26017030270E+02  0.54739226991E+02  0.00000000000E+00 0.  1.
         13    1    4    4    0    0  0.39849357035E+01 -0.41728865277E+02  0.24363725207E+00  0.41919413987E+02  0.00000000000E+00 0. -1.
          2    1    1    2  501    0 -0.25156044343E+02  0.31186671502E+01 -0.52766022104E+02  0.58538925003E+02  0.00000000000E+00 0. -1.
<scales pt_clust_5="13000.00000" pt_clust_6="13000.00000" pt_clust_7="13000.00000" pt_clust_8="13000.00000" pt_clust_9="25.34862"></scales>
<clustering>
<clus scale="   25.349">  2  9  1 -1</clus>
<clus scale="   91.029">  7  8 -1 -1</clus>
<clus scale="   91.321">  2  7  1 -1</clus>
<clus scale="  102.424">  5  6 -1 -1</clus>
<clus scale="   25.349">  2  5  1 -1</clus>
</clustering>
</event>
<event>
 9    1  0.1504846E-005  0.1024497E+03  0.7546771E-02  0.1276160E+00
         -1   -1    0    0    0  501 -0.00000000000E+00  0.00000000000E+00  0.40704115367E+02  0.40704115367E+02  0.00000000000E+00 0.  1.
         21   -1    0    0  501  502  0.00000000000E+00 -0.00000000000E+00 -0.44841598303E+03  0.44841598303E+03  0.00000000000E+00 0. -1.
         23    2    1    2    0    0  0.37429310135E+02 -0.89906768909E+01 -0.58553865752E+02  0.11453998337E+03  0.90603902059E+02 0.  0.
         23    2    1    2    0    0 -0.60713529697E+02  0.14300214208E+02 -0.29292295174E+03  0.31348406822E+03  0.92616286681E+02 0.  0.
        -13    1    3    3    0    0  0.62797286473E+02 -0.88831658265E+01 -0.62292818374E+02  0.88897722380E+02  0.00000000000E+00 0. -1.
         13    1    3    3    0    0 -0.25367976338E+02 -0.10751106438E+00  0.37389526211E+01  0.25642260993E+02  0.00000000000E+00 0.  1.
        -13    1    4    4    0    0 -0.10333815471E+02  0.45409453638E+02 -0.80881049063E+02  0.93330329044E+02  0.00000000000E+00 0. -1.
         13    1    4    4    0    0 -0.50379714225E+02 -0.31109239430E+02 -0.21204190268E+03  0.22015373918E+03  0.00000000000E+00 0.  1.
         -1    1    1    2    0  502  0.23284219562E+02 -0.53095373175E+01 -0.56235050173E+02  0.61096046804E+02  0.00000000000E+00 0.  1.
<scales pt_clust_5="13000.00000" pt_clust_6="13000.00000" pt_clust_7="13000.00000" pt_clust_8="13000.00000" pt_clust_9="23.88192"></scales>
<clustering>
<clus scale="   23.882">  2  9  1 -1</clus>
<clus scale="   90.604">  5  6 -1 -1</clus>
<clus scale="   92.616">  7  8 -1 -1</clus>
<clus scale="  100.634">  1  5  2 -1</clus>
<clus scale="   23.882">  2  5  1 -1</clus>
</clustering>
</event>
<event>
 9    1  0.1504846E-005  0.1072832E+03  0.7546771E-02  0.1272317E+00
         21   -1    0    0  501  502  0.00000000000E+00  0.00000000000E+00  0.17726648166E+03  0.17726648166E+03  0.00000000000E+00 0.  1.
          3   -1    0    0  502    0 -0.00000000000E+00 -0.00000000000E+00 -0.16811616134E+03  0.16811616134E+03  0.00000000000E+00 0. -1.
         23    2    1    2    0    0 -0.22457015202E+02 -0.13525954337E+02 -0.65026810289E+02  0.12765859114E+03  0.10668158633E+03 0.  0.
         23    2    1    2    0    0 -0.18963294024E+01 -0.21927008063E+02 -0.33415265543E+02  0.10185290944E+03  0.93664536735E+02 0.  0.
        -11    1    4    4    0    0  0.18279767660E+02  0.32229737638E+02 -0.47958291292E+01  0.37361823710E+02  0.00000000000E+00 0.  1.
         11    1    4    4    0    0 -0.20176097062E+02 -0.54156745701E+02 -0.28619436413E+02  0.64491085727E+02  0.00000000000E+00 0. -1.
        -11    1    3    3    0    0  0.34730093533E+02 -0.31402449015E+02 -0.13757438061E+02  0.48801232596E+02  0.00000000000E+00 0.  1.
         11    1    3    3    0    0 -0.57187108735E+02  0.17876494678E+02 -0.51269372228E+02  0.78857358541E+02  0.00000000000E+00 0. -1.
          3    1    1    2  501    0  0.24353344605E+02  0.35452962400E+02  0.10759239616E+03  0.11587114242E+03  0.00000000000E+00 0. -1.
<scales pt_clust_5="13000.00000" pt_clust_6="13000.00000" pt_clust_7="13000.00000" pt_clust_8="13000.00000" pt_clust_9="43.01160"></scales>
<clustering>
<clus scale="   43.012">  1  9  2 -1</clus>
<clus scale="   93.665">  5  6 -1 -1</clus>
<clus scale="   94.349">  1  5  2 -1</clus>
<clus scale="  106.682">  7  8 -1 -1</clus>
<clus scale="   43.012">  1  5  2 -1</clus>
</clustering>
</event>
<event>
 9    1  0.1504846E-005  0.1955594E+03  0.7546771E-02  0.1181946E+00
         -3   -1    0    0    0  501 -0.00000000000E+00  0.00000000000E+00  0.69819620193E+03  0.69819620193E+03  0.00000000000E+00 0.  1.
         21   -1    0    0  501  502  0.00000000000E+00 -0.00000000000E+00 -0.26949008453E+03  0.26949008453E+03  0.00000000000E+00 0.  1.
         23    2    1    2    0    0  0.44729474152E+02 -0.13437795811E+02  0.55190442869E+03  0.56122287927E+03  0.90505920217E+02 0.  0.
         23    2    1    2    0    0 -0.14211857418E+03  0.12580885099E+03 -0.14621403476E+03  0.25599209972E+03  0.90154617424E+02 0.  0.
        -13    1    4    4    0    0 -0.36337017649E+02  0.70412030976E+00 -0.61792682200E+02  0.71688285029E+02  0.00000000000E+00 0. -1.
         13    1    4    4    0    0 -0.10578155653E+03  0.12510473068E+03 -0.84421352562E+02  0.18430381469E+03  0.00000000000E+00 0.  1.
        -13    1    3    3    0    0  0.71153325974E+02  0.16582623617E+01  0.36838229143E+03  0.37519469382E+03  0.00000000000E+00 0.  1.
         13    1    3    3    0    0 -0.26423851822E+02 -0.15096058172E+02  0.18352213726E+03  0.18602818545E+03  0.00000000000E+00 0. -1.
         -3    1    1    2    0  502  0.97389100030E+02 -0.11237105518E+03  0.23015723472E+02  0.15047130748E+03  0.00000000000E+00 0.  1.
<scales pt_clust_5="13000.00000" pt_clust_6="13000.00000" pt_clust_7="13000.00000" pt_clust_8="13000.00000" pt_clust_9="173.53867"></scales>
<clustering>
<clus scale="   90.155">  5  6 -1 -1</clus>
<clus scale="   90.506">  7  8 -1 -1</clus>
<clus scale="  101.846">  1  7  2 -1</clus>
<clus scale="  173.539">  2  9  1 -1</clus>
<clus scale="  173.539">  2  5  1 -1</clus>
</clustering>
</event>
<event>
 9    1  0.1504846E-005  0.1244728E+03  0.7546771E-02  0.1237284E+00
         -3   -1    0    0    0  501 -0.00000000000E+00  0.00000000000E+00  0.17432896661E+03  0.17432896661E+03  0.00000000000E+00 0.  1.
         21   -1    0    0  501  502  0.00000000000E+00 -0.00000000000E+00 -0.15616190478E+03  0.15616190478E+03  0.00000000000E+00 0. -1.
         23    2    1    2    0    0  0.76235890302E+02 -0.78376185247E+01  0.62928020735E+02  0.13615552191E+03  0.93300863434E+02 0.  0.
         23    2    1    2    0    0 -0.92772646978E+02 -0.31171371063E+02  0.93054863731E+00  0.13202259436E+03  0.88604069317E+02 0.  0.
        -11    1    4    4    0    0 -0.47087530194E+02 -0.15230659305E+02  0.44766206838E+02  0.66732464044E+02  0.00000000000E+00 0.  1.
         11    1    4    4    0    0 -0.45685116784E+02 -0.15940711759E+02 -0.43835658201E+02  0.65290130317E+02  0.00000000000E+00 0. -1.
        -13    1    3    3    0    0  0.93542572500E+02  0.61365658088E+01  0.64603381795E+02  0.11384843982E+03  0.00000000000E+00 0.  1.
         13    1    3    3    0    0 -0.17306682199E+02 -0.13974184333E+02 -0.16753610604E+01  0.22307082086E+02  0.00000000000E+00 0. -1.
         -3    1    1    2    0  502  0.16536756676E+02  0.39008989588E+02 -0.45691507536E+02  0.62312755123E+02  0.00000000000E+00 0.  1.
<scales pt_clust_5="13000.00000" pt_clust_6="13000.00000" pt_clust_7="13000.00000" pt_clust_8="13000.00000" pt_clust_9="42.36939"></scales>
<clustering>
<clus scale="   42.369">  2  9  1 -1</clus>
<clus scale="   88.604">  5  6 -1 -1</clus>
<clus scale="   93.301">  7  8 -1 -1</clus>
<clus scale="  120.992">  2  5  1 -1</clus>
<clus scale="   42.369">  2  5  1 -1</clus>
</clustering>
</event>
<event>
 9    1  0.1504846E-005  0.1697635E+03  0.7546771E-02  0.1178275E+00
         -2   -1    0    0    0  501 -0.00000000000E+00  0.00000000000E+00  0.24619501517E+03  0.24619501517E+03  0.00000000000E+00 0.  1.
         21   -1    0    0  501  502  0.00000000000E+00 -0.00000000000E+00 -0.15157905070E+03  0.15157905070E+03  0.00000000000E+00 0.  1.
         23    2    1    2    0    0 -0.33513053626E+02  0.14489619140E+03  0.93766800470E+02  0.19867852019E+03  0.92535995540E+02 0.  0.
         23    2    1    2    0    0  0.43116678956E+02 -0.12729593165E+03  0.28500405600E+02  0.16494016652E+03  0.91267098087E+02 0.  0.
        -11    1    4    4    0    0  0.49588282206E+02 -0.24680965688E+02  0.28121616375E+02  0.62120633504E+02  0.00000000000E+00 0. -1.
         11    1    4    4    0    0 -0.64716032494E+01 -0.10261496597E+03  0.37878922522E+00  0.10281953302E+03  0.00000000000E+00 0.  1.
        -11    1    3    3    0    0 -0.35999544039E+02  0.82481134309E+01  0.31287729624E+02  0.48403724766E+02  0.00000000000E+00 0. -1.
         11    1    3    3    0    0  0.24864904125E+01  0.13664807797E+03  0.62479070846E+02  0.15027479543E+03  0.00000000000E+00 0.  1.
         -2    1    1    2    0  502 -0.96036253302E+01 -0.17600259746E+02 -0.27651241606E+02  0.34155379151E+02  0.00000000000E+00 0.  1.
<scales pt_clust_5="13000.00000" pt_clust_6="13000.00000" pt_clust_7="13000.00000" pt_clust_8="13000.00000" pt_clust_9="20.04991"></scales>
<clustering>
<clus scale="   20.050">  2  9  1 -1</clus>
<clus scale="   91.267">  5  6 -1 -1</clus>
<clus scale="   92.536">  7  8 -1 -1</clus>
<clus scale="  169.075">  2  5  1 -1</clus>
<clus scale="   20.050">  2  5  1 -1</clus>
</clustering>
</event>
<event>
 9    1  0.1504846E-005  0.1113872E+03  0.7546771E-02  0.1263652E+00
          1   -1    0    0  502    0 -0.00000000000E+00  0.00000000000E+00  0.15691718510E+03  0.15691718510E+03  0.00000000000E+00 0. -1.
         21   -1    0    0  501  502  0.00000000000E+00 -0.00000000000E+00 -0.23921544113E+03  0.23921544113E+03  0.00000000000E+00 0. -1.
         23    2    1    2    0    0 -0.37440507293E+02  0.53419735314E+02  0.47014628119E+02  0.12183648318E+03  0.91533019553E+02 0.  0.
         23    2    1    2    0    0  0.45006160975E+01 -0.66382210845E+02  0.33959249766E+02  0.10723073097E+03  0.76930784205E+02 0.  0.
        -11    1    4    4    0    0 -0.35309089111E+02 -0.34676423859E+02  0.25387678465E+02  0.55621222239E+02  0.00000000000E+00 0. -1.
         11    1    4    4    0    0  0.39809705209E+02 -0.31705786986E+02  0.85715713004E+01  0.51609508734E+02  0.00000000000E+00 0.  1.
        -11    1    3    3    0    0 -0.13656712666E+02  0.72635789593E+02  0.52651163959E+02  0.90744745285E+02  0.00000000000E+00 0.  1.
         11    1    3    3    0    0 -0.23783794626E+02 -0.19216054279E+02 -0.56365358400E+01  0.31091737892E+02  0.00000000000E+00 0. -1.
          1    1    1    2  501    0  0.32939891195E+02  0.12962475531E+02 -0.16327213391E+03  0.16706541208E+03  0.00000000000E+00 0. -1.
<scales pt_clust_5="13000.00000" pt_clust_6="13000.00000" pt_clust_7="13000.00000" pt_clust_8="13000.00000" pt_clust_9="35.39862"></scales>
<clustering>
<clus scale="   35.399">  2  9  1 -1</clus>
<clus scale="   76.931">  5  6 -1 -1</clus>
<clus scale="   91.533">  7  8 -1 -1</clus>
<clus scale="   99.735">  2  5  1 -1</clus>
<clus scale="   35.399">  2  5  1 -1</clus>
</clustering>
</event>
<event>
 9    1  0.1504846E-005  0.1023402E+03  0.7546771E-02  0.1276148E+00
         21   -1    0    0  501  502  0.00000000000E+00  0.00000000000E+00  0.38293042121E+02  0.38293042121E+02  0.00000000000E+00 0.  1.
          1   -1    0    0  502    0 -0.00000000000E+00 -0.00000000000E+00 -0.55572341303E+03  0.55572341303E+03  0.00000000000E+00 0. -1.
         23    2    1    2    0    0 -0.12457576474E+02 -0.44505550620E+02 -0.42059146382E+03  0.43271896161E+03  0.90623314087E+02 0.  0.
         23    2    1    2    0    0 -0.80541746986E+01  0.41442095446E+02 -0.97383276589E+02  0.14055109549E+03  0.92134634531E+02 0.  0.
        -11    1    4    4    0    0 -0.59449090482E+01  0.71153486393E+02 -0.72241059916E+02  0.10157229596E+03  0.00000000000E+00 0. -1.
         11    1    4    4    0    0 -0.21092656504E+01 -0.29711390947E+02 -0.25142216672E+02  0.38978799530E+02  0.00000000000E+00 0.  1.
        -11    1    3    3    0    0 -0.13156258674E+02  0.26617495002E+02 -0.15177380515E+03  0.15465078762E+03  0.00000000000E+00 0. -1.
         11    1    3    3    0    0  0.69868219968E+00 -0.71123045622E+02 -0.26881765866E+03  0.27806817399E+03  0.00000000000E+00 0.  1.
          1    1    1    2  501    0  0.20511751173E+02  0.30634551745E+01  0.54436949406E+00  0.20746398047E+02  0.00000000000E+00 0. -1.
<scales pt_clust_5="13000.00000" pt_clust_6="13000.00000" pt_clust_7="13000.00000" pt_clust_8="13000.00000" pt_clust_9="20.73925"></scales>
<clustering>
<clus scale="   20.739">  1  9  2 -1</clus>
<clus scale="   90.623">  7  8 -1 -1</clus>
<clus scale="   92.135">  5  6 -1 -1</clus>
<clus scale="  100.982">  2  7  1 -1</clus>
<clus scale="   20.739">  1  5  2 -1</clus>
</clustering>
</event>
<event>
 9    1  0.1504846E-005  0.1064320E+03  0.7546771E-02  0.1273175E+00
          1   -1    0    0  502    0 -0.00000000000E+00  0.00000000000E+00  0.42432167516E+03  0.42432167516E+03  0.00000000000E+00 0. -1.
         21   -1    0    0  501  502  0.00000000000E+00 -0.00000000000E+00 -0.37493788479E+02  0.37493788479E+02  0.00000000000E+00 0.  1.
         23    2    1    2    0    0 -0.21016624608E+02 -0.24070844234E+01  0.22846921960E+03  0.25166688375E+03  0.10339508452E+03 0.  0.
         23    2    1    2    0    0  0.24842708193E+02  0.30762495605E+02  0.83904916220E+02  0.13038624996E+03  0.91635407608E+02 0.  0.
        -11    1    3    3    0    0 -0.48123931789E+02  0.79484599154E+01  0.21352824874E+03  0.21902831743E+03  0.00000000000E+00 0. -1.
         11    1    3    3    0    0  0.27107307181E+02 -0.10355544339E+02  0.14940970868E+02  0.32638566323E+02  0.00000000000E+00 0.  1.
        -13    1    4    4    0    0  0.52875671689E+02  0.27924491616E+02  0.24467641841E+02  0.64608663396E+02  0.00000000000E+00 0.  1.
         13    1    4    4    0    0 -0.28032963496E+02  0.28380039885E+01  0.59437274378E+02  0.65777586567E+02  0.00000000000E+00 0. -1.
          1    1    1    2  501    0 -0.38260835840E+01 -0.28355411181E+02  0.74453750855E+02  0.79762329926E+02  0.00000000000E+00 0. -1.
<scales pt_clust_5="13000.00000" pt_clust_6="13000.00000" pt_clust_7="13000.00000" pt_clust_8="13000.00000" pt_clust_9="28.61239"></scales>
<clustering>
<clus scale="   28.612">  2  9  1 -1</clus>
<clus scale="   91.635">  7  8 -1 -1</clus>
<clus scale="   95.049">  2  7  1 -1</clus>
<clus scale="  103.395">  5  6 -1 -1</clus>
<clus scale="   28.612">  2  5  1 -1</clus>
</clustering>
</event>
<event>
 9    1  0.1504846E-005  0.1304436E+03  0.7546771E-02  0.1227673E+00
          1   -1    0    0  502    0 -0.00000000000E+00  0.00000000000E+00  0.47978710593E+03  0.47978710593E+03  0.00000000000E+00 0. -1.
         21   -1    0    0  501  502  0.00000000000E+00 -0.00000000000E+00 -0.19312449831E+03  0.19312449831E+03  0.00000000000E+00 0.  1.
         23    2    1    2    0    0  0.29412579569E+02  0.86803994896E+02  0.35449041480E+03  0.37781354775E+03  0.93164313496E+02 0.  0.
         23    2    1    2    0    0 -0.90045583499E+02 -0.59311441341E+02  0.58690876461E+02  0.15213239986E+03  0.89853179838E+02 0.  0.
        -13    1    4    4    0    0 -0.31544378808E+02 -0.46801479557E+02 -0.13841423413E+02  0.58112058346E+02  0.00000000000E+00 0.  1.
         13    1    4    4    0    0 -0.58501204691E+02 -0.12509961785E+02  0.72532299874E+02  0.94020341518E+02  0.00000000000E+00 0. -1.
        -13    1    3    3    0    0 -0.16341523659E+02  0.47940559459E+02  0.66276943005E+02  0.83414482021E+02  0.00000000000E+00 0.  1.
         13    1    3    3    0    0  0.45754103228E+02  0.38863435437E+02  0.28821347179E+03  0.29439906573E+03  0.00000000000E+00 0. -1.
          1    1    1    2  501    0  0.60633003930E+02 -0.27492553555E+02 -0.12651868364E+03  0.14296565663E+03  0.00000000000E+00 0. -1.
<scales pt_clust_5="13000.00000" pt_clust_6="13000.00000" pt_clust_7="13000.00000" pt_clust_8="13000.00000" pt_clust_9="66.57478"></scales>
<clustering>
<clus scale="   66.575">  2  9  1 -1</clus>
<clus scale="   89.853">  5  6 -1 -1</clus>
<clus scale="   93.164">  7  8 -1 -1</clus>
<clus scale="  128.100">  2  5  1 -1</clus>
<clus scale="   66.575">  2  5  1 -1</clus>
</clustering>
</event>
<event>
 9    1  0.1504846E-005  0.1531515E+03  0.7546771E-02  0.1196897E+00
          2   -1    0    0  502    0 -0.00000000000E+00  0.00000000000E+00  0.13368752710E+03  0.13368752710E+03  0.00000000000E+00 0. -1.
         21   -1    0    0  501  502  0.00000000000E+00 -0.00000000000E+00 -0.53848979546E+03  0.53848979546E+03  0.00000000000E+00 0. -1.
         23    2    1    2    0    0  0.10039690613E+03  0.56999066383E+02  0.21115601960E+02  0.14896329134E+03  0.91737457946E+02 0.  0.
         23    2    1    2    0    0 -0.10230498260E+03 -0.99363733140E+02 -0.10354116146E+03  0.19805999362E+03  0.90374377060E+02 0.  0.
        -13    1    4    4    0    0 -0.17591468361E+02  0.17270637016E+02 -0.13705800461E+02  0.28206092042E+02  0.00000000000E+00 0. -1.
         13    1    4    4    0    0 -0.84713514242E+02 -0.11663437016E+03 -0.89835360994E+02  0.16985390158E+03  0.00000000000E+00 0.  1.
        -13    1    3    3    0    0  0.71346918383E+02  0.73135665274E+01 -0.24217474399E+02  0.75699122085E+02  0.00000000000E+00 0.  1.
         13    1    3    3    0    0  0.29049987750E+02  0.49685499856E+02  0.45333076359E+02  0.73264169253E+02  0.00000000000E+00 0. -1.
          2    1    1    2  501    0  0.19080764700E+01  0.42364666757E+02 -0.32237670886E+03  0.32515403759E+03  0.00000000000E+00 0. -1.
<scales pt_clust_5="13000.00000" pt_clust_6="13000.00000" pt_clust_7="13000.00000" pt_clust_8="13000.00000" pt_clust_9="42.40761"></scales>
<clustering>
<clus scale="   42.408">  2  9  1 -1</clus>
<clus scale="   90.374">  5  6 -1 -1</clus>
<clus scale="   91.737">  7  8 -1 -1</clus>
<clus scale="  152.339">  2  5  1 -1</clus>
<clus scale="   42.408">  2  5  1 -1</clus>
</clustering>
</event>
<event>
 9    1  0.1504846E-005  0.1151309E+03  0.7546771E-02  0.1253077E+00
         21   -1    0    0  501  502  0.00000000000E+00  0.00000000000E+00  0.31898065793E+02  0.31898065793E+02  0.00000000000E+00 0. -1.
          1   -1    0    0  502    0 -0.00000000000E+00 -0.00000000000E+00 -0.10558880194E+04  0.10558880194E+04  0.00000000000E+00 0. -1.
         23    2    1    2    0    0 -0.55778989109E+02 -0.62192930418E+02 -0.66855876760E+03  0.68016668247E+03  0.93148451348E+02 0.  0.
         23    2    1    2    0    0 -0.17415728480E+02  0.59985409217E+02 -0.28964149779E+03  0.30917844120E+03  0.88303761781E+02 0.  0.
        -11    1    3    3    0    0  0.21035997768E+02  0.29741522055E+01 -0.68743924495E+02  0.71951969663E+02  0.00000000000E+00 0.  1.
         11    1    3    3    0    0 -0.76814986877E+02 -0.65167082623E+02 -0.59981484310E+03  0.60821471280E+03  0.00000000000E+00 0. -1.
        -13    1    4    4    0    0 -0.46896010945E+02  0.17877168574E+02 -0.19635597009E+03  0.20266843856E+03  0.00000000000E+00 0.  1.
         13    1    4    4    0    0  0.29480282466E+02  0.42108240642E+02 -0.93285527695E+02  0.10651000264E+03  0.00000000000E+00 0. -1.
          1    1    1    2  501    0  0.73194717588E+02  0.22075212015E+01 -0.65789688266E+02  0.98440961570E+02  0.00000000000E+00 0. -1.
<scales pt_clust_5="13000.00000" pt_clust_6="13000.00000" pt_clust_7="13000.00000" pt_clust_8="13000.00000" pt_clust_9="73.22800"></scales>
<clustering>
<clus scale="   73.228">  1  9  2 -1</clus>
<clus scale="   88.304">  7  8 -1 -1</clus>
<clus scale="   93.148">  5  6 -1 -1</clus>
<clus scale="  111.248">  1  7  2 -1</clus>
<clus scale="   73.228">  1  5  2 -1</clus>
</clustering>
</event>
<event>
 9    1  0.1504846E-005  0.1977643E+03  0.7546771E-02  0.1170714E+00
          2   -1    0    0  502    0 -0.00000000000E+00  0.00000000000E+00  0.12108994189E+04  0.12108994189E+04  0.00000000000E+00 0. -1.
         21   -1    0    0  501  502  0.00000000000E+00 -0.00000000000E+00 -0.61760760501E+02  0.61760760501E+02  0.00000000000E+00 0.  1.
         23    2    1    2    0    0  0.90389813117E+02  0.13828994603E+01  0.14131146528E+03  0.18997264994E+03  0.89154062051E+02 0.  0.
         23    2    1    2    0    0  0.13206203777E+03  0.49390931319E+02  0.40963539742E+03  0.44245613980E+03  0.89924584581E+02 0.  0.
        -11    1    4    4    0    0  0.15902623995E+02 -0.22600945624E+02  0.10493260138E+03  0.10851058485E+03  0.00000000000E+00 0. -1.
         11    1    4    4    0    0  0.11615941378E+03  0.71991876943E+02  0.30470279604E+03  0.33394555495E+03  0.00000000000E+00 0.  1.
        -11    1    3    3    0    0  0.10253718567E+03  0.19055736686E+02  0.10632086980E+03  0.14893328339E+03  0.00000000000E+00 0.  1.
         11    1    3    3    0    0 -0.12147372548E+02 -0.17672837225E+02  0.34990595475E+02  0.41039366553E+02  0.00000000000E+00 0. -1.
          2    1    1    2  501    0 -0.22245185089E+03 -0.50773830780E+02  0.59819179567E+03  0.64023138963E+03  0.00000000000E+00 0. -1.
<scales pt_clust_5="13000.00000" pt_clust_6="13000.00000" pt_clust_7="13000.00000" pt_clust_8="13000.00000" pt_clust_9="176.13726"></scales>
<clustering>
<clus scale="   89.154">  7  8 -1 -1</clus>
<clus scale="   89.925">  5  6 -1 -1</clus>
<clus scale="  126.967">  1  7  2 -1</clus>
<clus scale="  176.137">  2  9  1 -1</clus>
<clus scale="  176.137">  2  5  1 -1</clus>
</clustering>
</event>
<event>
 9    1  0.1504846E-005  0.2265123E+03  0.7546771E-02  0.1129691E+00
         -2   -1    0    0    0  501 -0.00000000000E+00  0.00000000000E+00  0.31654098225E+03  0.31654098225E+03  0.00000000000E+00 0.  1.
         21   -1    0    0  501  502  0.00000000000E+00 -0.00000000000E+00 -0.34283375454E+03  0.34283375454E+03  0.00000000000E+00 0. -1.
         23    2    1    2    0    0 -0.12252462195E+03 -0.17249513953E+03  0.19564809047E+03  0.30259581665E+03  0.92299495128E+02 0.  0.
         23    2    1    2    0    0  0.10653290574E+03  0.16008739553E+03 -0.98865258747E+02  0.23205004859E+03  0.84235689883E+02 0.  0.
        -11    1    4    4    0    0  0.11951425179E+03  0.13406653556E+03 -0.75843059153E+02  0.19496066772E+03  0.00000000000E+00 0. -1.
         11    1    4    4    0    0 -0.12981346049E+02  0.26020859969E+02 -0.23022199594E+02  0.37089380865E+02  0.00000000000E+00 0.  1.
        -13    1    3    3    0    0 -0.22583572095E+02  0.68181917300E+01  0.93350973064E+01  0.25370248496E+02  0.00000000000E+00 0. -1.
         13    1    3    3    0    0 -0.99941049859E+02 -0.17931333126E+03  0.18631299316E+03  0.27722556815E+03  0.00000000000E+00 0.  1.
         -2    1    1    2    0  502  0.15991716217E+02  0.12407744002E+02 -0.12307560401E+03  0.12472887156E+03  0.00000000000E+00 0.  1.
<scales pt_clust_5="13000.00000" pt_clust_6="13000.00000" pt_clust_7="13000.00000" pt_clust_8="13000.00000" pt_clust_9="20.24073"></scales>
<clustering>
<clus scale="   20.241">  2  9  1 -1</clus>
<clus scale="   84.236">  5  6 -1 -1</clus>
<clus scale="   92.299">  7  8 -1 -1</clus>
<clus scale="  223.348">  2  5  1 -1</clus>
<clus scale="   20.241">  2  5  1 -1</clus>
</clustering>
</event>
<event>
 9    1  0.1504846E-005  0.9778332E+02  0.7546771E-02  0.1286479E+00
         21   -1    0    0  501  502  0.00000000000E+00  0.00000000000E+00  0.21756194131E+03  0.21756194131E+03  0.00000000000E+00 0. -1.
          1   -1    0    0  502    0 -0.00000000000E+00 -0.00000000000E+00 -0.41234508408E+03  0.41234508408E+03  0.00000000000E+00 0. -1.
         23    2    1    2    0    0  0.18523341473E+02  0.75412619193E+01 -0.17869261737E+03  0.20089733641E+03  0.89603032656E+02 0.  0.
         23    2    1    2    0    0 -0.34463203055E+01 -0.56646842430E+02 -0.20571777891E+03  0.23254806454E+03  0.92401601077E+02 0.  0.
        -11    1    3    3    0    0  0.61875386811E+01 -0.40102763020E+02 -0.10196394720E+03  0.10974134939E+03  0.00000000000E+00 0. -1.
         11    1    3    3    0    0  0.12335802792E+02  0.47644024940E+02 -0.76728670171E+02  0.91155987018E+02  0.00000000000E+00 0.  1.
        -13    1    4    4    0    0  0.43668611250E+02 -0.20254651850E+02 -0.78393227690E+02  0.91992916454E+02  0.00000000000E+00 0. -1.
         13    1    4    4    0    0 -0.47114931555E+02 -0.36392190580E+02 -0.12732455122E+03  0.14055514808E+03  0.00000000000E+00 0.  1.
          1    1    1    2  501    0 -0.15077021167E+02  0.49105580511E+02  0.18962725351E+03  0.19646162444E+03  0.00000000000E+00 0. -1.
<scales pt_clust_5="13000.00000" pt_clust_6="13000.00000" pt_clust_7="13000.00000" pt_clust_8="13000.00000" pt_clust_9="51.36803"></scales>
<clustering>
<clus scale="   51.368">  1  9  2 -1</clus>
<clus scale="   89.603">  5  6 -1 -1</clus>
<clus scale="   92.402">  7  8 -1 -1</clus>
<clus scale="   95.143">  2  5  1 -1</clus>
<clus scale="   51.368">  1  5  2 -1</clus>
</clustering>
</event>
<event>
 9    1  0.1504846E-005  0.1363226E+03  0.7546771E-02  0.1236251E+00
          1   -1    0    0  502    0 -0.00000000000E+00  0.00000000000E+00  0.60479562530E+03  0.60479562530E+03  0.00000000000E+00 0. -1.
         21   -1    0    0  501  502  0.00000000000E+00 -0.00000000000E+00 -0.76526914955E+02  0.76526914955E+02  0.00000000000E+00 0. -1.
         23    2    1    2    0    0  0.92584876522E+01  0.38724946231E+01  0.24285859642E+03  0.26043958639E+03  0.93529484631E+02 0.  0.
         23    2    1    2    0    0  0.43996808991E+02 -0.87671275110E+02  0.29140345130E+03  0.32141294670E+03  0.93639410485E+02 0.  0.
        -13    1    4    4    0    0 -0.45383635129E+01 -0.86569732626E+02  0.19802239120E+03  0.21616609995E+03  0.00000000000E+00 0.  1.
         13    1    4    4    0    0  0.48535172504E+02 -0.11015424847E+01  0.93381060100E+02  0.10524684675E+03  0.00000000000E+00 0. -1.
        -13    1    3    3    0    0 -0.11178794775E+02 -0.40463264555E+02  0.14684079911E+03  0.15272348056E+03  0.00000000000E+00 0. -1.
         13    1    3    3    0    0  0.20437282427E+02  0.44335759178E+02  0.96017797315E+02  0.10771610583E+03  0.00000000000E+00 0.  1.
          1    1    1    2  501    0 -0.53255296643E+02  0.83798780487E+02 -0.59933373799E+01  0.99470007161E+02  0.00000000000E+00 0. -1.
<scales pt_clust_5="13000.00000" pt_clust_6="13000.00000" pt_clust_7="13000.00000" pt_clust_8="13000.00000" pt_clust_9="99.07326"></scales>
<clustering>
<clus scale="   93.529">  7  8 -1 -1</clus>
<clus scale="   93.639">  5  6 -1 -1</clus>
<clus scale="   94.066">  1  7  2 -1</clus>
<clus scale="   99.073">  2  9  1 -1</clus>
<clus scale="   99.073">  2  5  1 -1</clus>
</clustering>
</event>
<event>
 9    1  0.1504846E-005  0.1217867E+03  0.7546771E-02  0.1240602E+00
         21   -1    0    0  501  502  0.00000000000E+00  0.00000000000E+00  0.15960926507E+03  0.15960926507E+03  0.00000000000E+00 0. -1.
         -1   -1    0    0    0  501 -0.00000000000E+00 -0.00000000000E+00 -0.18487844800E+03  0.18487844800E+03  0.00000000000E+00 0.  1.
         23    2    1    2    0    0 -0.21917954936E+02  0.79708844887E+02 -0.92154328655E+02  0.15273994163E+03  0.89460453713E+02 0.  0.
         23    2    1    2    0    0  0.67758381470E+02 -0.56291836710E+02  0.59146922373E+02  0.13969413489E+03  0.90863214542E+02 0.  0.
        -11    1    4    4    0    0  0.14912590626E+01  0.22444204261E+02  0.36982927655E+01  0.22795690994E+02  0.00000000000E+00 0.  1.
         11    1    4    4    0    0  0.66267122407E+02 -0.78736040972E+02  0.55448629608E+02  0.11689844390E+03  0.00000000000E+00 0. -1.
        -11    1    3    3    0    0  0.27911262247E+02  0.32282056107E+01 -0.35627036919E+02  0.45373402246E+02  0.00000000000E+00 0. -1.
         11    1    3    3    0    0 -0.49829217183E+02  0.76480639276E+02 -0.56527291736E+02  0.10736653939E+03  0.00000000000E+00 0.  1.
         -1    1    1    2    0  502 -0.45840426534E+02 -0.23417008177E+02  0.77382233577E+01  0.52053636544E+02  0.00000000000E+00 0.  1.
<scales pt_clust_5="13000.00000" pt_clust_6="13000.00000" pt_clust_7="13000.00000" pt_clust_8="13000.00000" pt_clust_9="51.47525"></scales>
<clustering>
<clus scale="   51.475">  1  9  2 -1</clus>
<clus scale="   89.460">  7  8 -1 -1</clus>
<clus scale="   90.863">  5  6 -1 -1</clus>
<clus scale="  120.744">  2  7  1 -1</clus>
<clus scale="   51.475">  1  5  2 -1</clus>
</clustering>
</event>
<event>
 9    1  0.1504846E-005  0.9929980E+02  0.7546771E-02  0.1282035E+00
         -1   -1    0    0    0  501 -0.00000000000E+00  0.00000000000E+00  0.36861197133E+03  0.36861197133E+03  0.00000000000E+00 0.  1.
         21   -1    0    0  501  502  0.00000000000E+00 -0.00000000000E+00 -0.65134660605E+02  0.65134660605E+02  0.00000000000E+00 0.  1.
         23    2    1    2    0    0  0.10446318550E+02 -0.27629022168E+02  0.20408972542E+03  0.22541738198E+03  0.91037858269E+02 0.  0.
         23    2    1    2    0    0 -0.40306046173E+02  0.66737370571E+02  0.31201317108E+02  0.12424338064E+03  0.91566595736E+02 0.  0.
        -11    1    4    4    0    0 -0.63602720602E+02  0.60762249279E+02  0.41693500937E+01  0.88061004342E+02  0.00000000000E+00 0.  1.
         11    1    4    4    0    0  0.23296674429E+02  0.59751212923E+01  0.27031967014E+02  0.36182376298E+02  0.00000000000E+00 0. -1.
        -13    1    3    3    0    0 -0.31951026053E+02  0.14832977008E+02  0.64880058477E+02  0.73826196304E+02  0.00000000000E+00 0.  1.
         13    1    3    3    0    0  0.42397344602E+02 -0.42461999176E+02  0.13920966694E+03  0.15159118567E+03  0.00000000000E+00 0. -1.
         -1    1    1    2    0  502  0.29859727623E+02 -0.39108348403E+02  0.68186268200E+02  0.84085869322E+02  0.00000000000E+00 0.  1.
<scales pt_clust_5="13000.00000" pt_clust_6="13000.00000" pt_clust_7="13000.00000" pt_clust_8="13000.00000" pt_clust_9="49.20436"></scales>
<clustering>
<clus scale="   49.204">  2  9  1 -1</clus>
<clus scale="   91.038">  7  8 -1 -1</clus>
<clus scale="   91.567">  5  6 -1 -1</clus>
<clus scale="   98.812">  1  7  2 -1</clus>
<clus scale="   49.204">  2  5  1 -1</clus>
</clustering>
</event>
<event>
 9    1  0.1504846E-005  0.1083815E+03  0.7546771E-02  0.1264505E+00
         21   -1    0    0  501  502  0.00000000000E+00  0.00000000000E+00  0.22112269441E+03  0.22112269441E+03  0.00000000000E+00 0. -1.
         -1   -1    0    0    0  501 -0.00000000000E+00 -0.00000000000E+00 -0.74983160066E+02  0.74983160066E+02  0.00000000000E+00 0.  1.
         23    2    1    2    0    0  0.55500429899E+02 -0.25640659188E+02  0.17054714828E+02  0.11172914061E+03  0.91949967052E+02 0.  0.
         23    2    1    2    0    0 -0.40162219319E+02  0.12290868316E+02  0.77640499738E+02  0.12905948637E+03  0.94150063827E+02 0.  0.
        -11    1    4    4    0    0 -0.41888589535E+02 -0.19582960989E+02  0.84578813315E+02  0.96393578397E+02  0.00000000000E+00 0.  1.
         11    1    4    4    0    0  0.17263702156E+01  0.31873829304E+02 -0.69383135769E+01  0.32665907977E+02  0.00000000000E+00 0. -1.
        -11    1    3    3    0    0 -0.24377058494E+02  0.31657544694E+01  0.99508520172E+01  0.26519472809E+02  0.00000000000E+00 0.  1.
         11    1    3    3    0    0  0.79877488393E+02 -0.28806413658E+02  0.71038628109E+01  0.85209667800E+02  0.00000000000E+00 0. -1.
         -1    1    1    2    0  502 -0.15338210580E+02  0.13349790873E+02  0.51444319774E+02  0.55317227490E+02  0.00000000000E+00 0.  1.
<scales pt_clust_5="13000.00000" pt_clust_6="13000.00000" pt_clust_7="13000.00000" pt_clust_8="13000.00000" pt_clust_9="20.33415"></scales>
<clustering>
<clus scale="   20.334">  1  9  2 -1</clus>
<clus scale="   91.950">  7  8 -1 -1</clus>
<clus scale="   94.150">  5  6 -1 -1</clus>
<clus scale="  106.476">  2  7  1 -1</clus>
<clus scale="   20.334">  1  5  2 -1</clus>
</clustering>
</event>
<event>
 9    1  0.1504846E-005  0.1971607E+03  0.7546771E-02  0.1152171E+00
          1   -1    0    0  502    0 -0.00000000000E+00  0.00000000000E+00  0.37200436702E+03  0.37200436702E+03  0.00000000000E+00 0. -1.
         21   -1    0    0  501  502  0.00000000000E+00 -0.00000000000E+00 -0.48593298755E+03  0.48593298755E+03  0.00000000000E+00 0. -1.
         23    2    1    2    0    0 -0.18017922843E+03  0.10151202875E+02  0.31381255169E+03  0.37298014575E+03  0.89823550643E+02 0.  0.
         23    2    1    2    0    0  0.11108091408E+03 -0.20888314652E+02 -0.35866675540E+03  0.38666612238E+03  0.89964201827E+02 0.  0.
        -11    1    3    3    0    0 -0.12765537861E+03 -0.24253390188E+02  0.25842332286E+03  0.28925202924E+03  0.00000000000E+00 0. -1.
         11    1    3    3    0    0 -0.52523849814E+02  0.34404593063E+02  0.55389228826E+02  0.83728116503E+02  0.00000000000E+00 0.  1.
        -13    1    4    4    0    0  0.80705139521E+02  0.26618990967E+02 -0.17507975279E+03  0.19461451658E+03  0.00000000000E+00 0.  1.
         13    1    4    4    0    0  0.30375774561E+02 -0.47507305619E+02 -0.18358700260E+03  0.19205160580E+03  0.00000000000E+00 0. -1.
          1    1    1    2  501    0  0.69098314345E+02  0.10737111777E+02 -0.69074416816E+02  0.98291086438E+02  0.00000000000E+00 0. -1.
<scales pt_clust_5="13000.00000" pt_clust_6="13000.00000" pt_clust_7="13000.00000" pt_clust_8="13000.00000" pt_clust_9="69.92755"></scales>
<clustering>
<clus scale="   69.928">  2  9  1 -1</clus>
<clus scale="   89.824">  5  6 -1 -1</clus>
<clus scale="   89.964">  7  8 -1 -1</clus>
<clus scale="  197.097">  1  5  2 -1</clus>
<clus scale="   69.928">  2  5  1 -1</clus>
</clustering>
</event>
<event>
 9    1  0.1504846E-005  0.1676224E+03  0.7546771E-02  0.1201257E+00
         21   -1    0    0  501  502  0.00000000000E+00  0.00000000000E+00  0.38010367825E+03  0.38010367825E+03  0.00000000000E+00 0.  1.
          1   -1    0    0  502    0 -0.00000000000E+00 -0.00000000000E+00 -0.28589107828E+03  0.28589107828E+03  0.00000000000E+00 0. -1.
         23    2    1    2    0    0 -0.52863306225E+02  0.12267758212E+02 -0.17578891576E+03  0.20510855594E+03  0.90679379020E+02 0.  0.
         23    2    1    2    0    0 -0.12080309067E+03  0.39516131568E+02  0.22546271880E+03  0.27427083925E+03  0.90753205593E+02 0.  0.
        -13    1    4    4    0    0 -0.10379159817E+03 -0.50500873804E+01  0.12143220272E+03  0.15982483878E+03  0.00000000000E+00 0.  1.
         13    1    4    4    0    0 -0.17011492500E+02  0.44566218948E+02  0.10403051607E+03  0.11444600047E+03  0.00000000000E+00 0. -1.
        -13    1    3    3    0    0 -0.77382349681E+02  0.19071362908E+02 -0.12394970385E+03  0.14736103288E+03  0.00000000000E+00 0.  1.
         13    1    3    3    0    0  0.24519043456E+02 -0.68036046952E+01 -0.51839211911E+02  0.57747523068E+02  0.00000000000E+00 0. -1.
          1    1    1    2  501    0  0.17366639690E+03 -0.51783889780E+02  0.44538796935E+02  0.18661536133E+03  0.00000000000E+00 0. -1.
<scales pt_clust_5="13000.00000" pt_clust_6="13000.00000" pt_clust_7="13000.00000" pt_clust_8="13000.00000" pt_clust_9="140.92955"></scales>
<clustering>
<clus scale="   90.679">  7  8 -1 -1</clus>
<clus scale="   90.753">  5  6 -1 -1</clus>
<clus scale="  105.678">  2  7  1 -1</clus>
<clus scale="  140.930">  1  9  2 -1</clus>
<clus scale="  140.930">  1  5  2 -1</clus>
</clustering>
</event>
<event>
 9    1  0.1504846E-005  0.9282586E+02  0.7546771E-02  0.1300663E+00
         -1   -1    0    0    0  501 -0.00000000000E+00  0.00000000000E+00  0.14185074035E+03  0.14185074035E+03  0.00000000000E+00 0.  1.
         21   -1    0    0  501  502  0.00000000000E+00 -0.00000000000E+00 -0.43874748764E+03  0.43874748764E+03  0.00000000000E+00 0.  1.
         23    2    1    2    0    0 -0.27674819386E+01 -0.10448802787E+02  0.11700752221E+03  0.14943203176E+03  0.92316495967E+02 0.  0.
         23    2    1    2    0    0  0.14937997379E+02 -0.12148653306E+02 -0.23807220724E+03  0.25347072475E+03  0.84842789338E+02 0.  0.
        -13    1    3    3    0    0 -0.21518945351E+02 -0.37552075727E+02  0.10630867009E+03  0.11478134316E+03  0.00000000000E+00 0.  1.
         13    1    3    3    0    0  0.18751463413E+02  0.27103272940E+02  0.10698852115E+02  0.34650688604E+02  0.00000000000E+00 0. -1.
        -13    1    4    4    0    0 -0.10728072649E+02 -0.36252053332E+02 -0.53138484932E+02  0.65215040400E+02  0.00000000000E+00 0.  1.
         13    1    4    4    0    0  0.25666070028E+02  0.24103400026E+02 -0.18493372231E+03  0.18825568435E+03  0.00000000000E+00 0. -1.
         -1    1    1    2    0  502 -0.12170515440E+02  0.22597456094E+02 -0.17583206226E+03  0.17769547148E+03  0.00000000000E+00 0.  1.
<scales pt_clust_5="13000.00000" pt_clust_6="13000.00000" pt_clust_7="13000.00000" pt_clust_8="13000.00000" pt_clust_9="25.66645"></scales>
<clustering>
<clus scale="   25.666">  2  9  1 -1</clus>
<clus scale="   84.843">  7  8 -1 -1</clus>
<clus scale="   85.397">  2  7  1 -1</clus>
<clus scale="   92.316">  5  6 -1 -1</clus>
<clus scale="   25.666">  2  5  1 -1</clus>
</clustering>
</event>
<event>
 9    1  0.1504846E-005  0.1505732E+03  0.7546771E-02  0.1200688E+00
         -1   -1    0    0    0  501 -0.00000000000E+00  0.00000000000E+00  0.34597224944E+03  0.34597224944E+03  0.00000000000E+00 0.  1.
         21   -1    0    0  501  502  0.00000000000E+00 -0.00000000000E+00 -0.97402912594E+02  0.97402912594E+02  0.00000000000E+00 0. -1.
         23    2    1    2    0    0  0.10563845550E+03 -0.41496388282E+02  0.19457983844E+03  0.24265822831E+03  0.90223437761E+02 0.  0.
         23    2    1    2    0    0 -0.12323476769E+03  0.59427607271E+02  0.64360003753E+02  0.17353778366E+03  0.85174549024E+02 0.  0.
        -11    1    3    3    0    0  0.60836634113E+02  0.17011777286E+02  0.50681351872E+02  0.80988246334E+02  0.00000000000E+00 0. -1.
         11    1    3    3    0    0  0.44801821386E+02 -0.58508165568E+02  0.14389848656E+03  0.16166998198E+03  0.00000000000E+00 0.  1.
        -13    1    4    4    0    0 -0.41326968300E+02 -0.87539417412E+01  0.50857373579E+02  0.66113706992E+02  0.00000000000E+00 0.  1.
         13    1    4    4    0    0 -0.81907799391E+02  0.68181549013E+02  0.13502630174E+02  0.10742407667E+03  0.00000000000E+00 0. -1.
         -1    1    1    2    0  502  0.17596312192E+02 -0.17931218989E+02 -0.10370505339E+02  0.27179150063E+02  0.00000000000E+00 0.  1.
<scales pt_clust_5="13000.00000" pt_clust_6="13000.00000" pt_clust_7="13000.00000" pt_clust_8="13000.00000" pt_clust_9="25.12287"></scales>
<clustering>
<clus scale="   25.123">  2  9  1 -1</clus>
<clus scale="   85.175">  7  8 -1 -1</clus>
<clus scale="   90.223">  5  6 -1 -1</clus>
<clus scale="  147.603">  2  7  1 -1</clus>
<clus scale="   25.123">  2  5  1 -1</clus>
</clustering>
</event>
<event>
 9    1  0.2233055E-005  0.1023057E+03  0.7546771E-02  0.1275588E+00
         21   -1    0    0  501  502  0.00000000000E+00  0.00000000000E+00  0.29536529164E+03  0.29536529164E+03  0.00000000000E+00 0. -1.
         -3   -1    0    0    0  501 -0.00000000000E+00 -0.00000000000E+00 -0.18888263702E+03  0.18888263702E+03  0.00000000000E+00 0.  1.
         23    2    1    2    0    0  0.45176389528E+02 -0.15611231045E+01 -0.14405597837E+03  0.17676721551E+03  0.91930301312E+02 0.  0.
         23    2    1    2    0    0 -0.40728019612E+02 -0.24511223719E+02  0.70082943499E+02  0.12509702108E+03  0.92076457601E+02 0.  0.
        -13    1    3    3    0    0  0.49522430532E+02 -0.37076562521E+02 -0.11536067790E+03  0.13090159899E+03  0.00000000000E+00 0.  1.
         13    1    3    3    0    0 -0.43460410043E+01  0.35515439417E+02 -0.28695300475E+02  0.45865616520E+02  0.00000000000E+00 0. -1.
        -13    1    4    4    0    0  0.15703933719E+02 -0.34099834653E+02  0.41304352210E+01  0.37768674226E+02  0.00000000000E+00 0.  1.
         13    1    4    4    0    0 -0.56431953331E+02  0.95886109347E+01  0.65952508278E+02  0.87328346856E+02  0.00000000000E+00 0. -1.
         -3    1    1    2    0  502 -0.44483699158E+01  0.26072346823E+02  0.18045568949E+03  0.18238369207E+03  0.00000000000E+00 0.  1.
<scales pt_clust_5="13000.00000" pt_clust_6="13000.00000" pt_clust_7="13000.00000" pt_clust_8="13000.00000" pt_clust_9="26.44911"></scales>
<clustering>
<clus scale="   26.449">  1  9  2 -1</clus>
<clus scale="   91.930">  5  6 -1 -1</clus>
<clus scale="   92.076">  7  8 -1 -1</clus>
<clus scale="  102.174">  2  5  1 -1</clus>
<clus scale="   26.449">  1  5  2 -1</clus>
</clustering>
</event>
<event>
 9    1  0.1504846E-005  0.1208910E+03  0.7546771E-02  0.1242101E+00
          1   -1    0    0  502    0 -0.00000000000E+00  0.00000000000E+00  0.45196577534E+03  0.45196577534E+03  0.00000000000E+00 0. -1.
         21   -1    0    0  501  502  0.00000000000E+00 -0.00000000000E+00 -0.10317575350E+03  0.10317575350E+03  0.00000000000E+00 0. -1.
         23    2    1    2    0    0  0.27606928115E+02  0.80009258052E+02  0.26454204765E+03  0.29266590411E+03  0.92234552096E+02 0.  0.
         23    2    1    2    0    0 -0.95536829293E+02 -0.18985528101E+02  0.10414362680E+03  0.16901866092E+03  0.90739609378E+02 0.  0.
        -11    1    3    3    0    0  0.38932043039E+01  0.95622145182E+02  0.18652686140E+03  0.20964498971E+03  0.00000000000E+00 0. -1.
         11    1    3    3    0    0  0.23713723811E+02 -0.15612887129E+02  0.78015186252E+02  0.83020914398E+02  0.00000000000E+00 0.  1.
        -13    1    4    4    0    0  0.25420238886E+00  0.26795718628E+02  0.24343890513E+02  0.36203593205E+02  0.00000000000E+00 0.  1.
         13    1    4    4    0    0 -0.95791031682E+02 -0.45781246729E+02  0.79799736283E+02  0.13281506772E+03  0.00000000000E+00 0. -1.
          1    1    1    2  501    0  0.67929901178E+02 -0.61023729951E+02 -0.19895652603E+02  0.93456963805E+02  0.00000000000E+00 0. -1.
<scales pt_clust_5="13000.00000" pt_clust_6="13000.00000" pt_clust_7="13000.00000" pt_clust_8="13000.00000" pt_clust_9="91.31466"></scales>
<clustering>
<clus scale="   90.740">  7  8 -1 -1</clus>
<clus scale="   91.315">  2  9  1 -1</clus>
<clus scale="   92.235">  5  6 -1 -1</clus>
<clus scale="  119.754">  2  7  1 -1</clus>
<clus scale="   91.315">  2  5  1 -1</clus>
</clustering>
</event>
<event>
 9    1  0.1504846E-005  0.1081319E+03  0.7546771E-02  0.1264094E+00
          2   -1    0    0  502    0 -0.00000000000E+00  0.00000000000E+00  0.85748814262E+02  0.85748814262E+02  0.00000000000E+00 0. -1.
         21   -1    0    0  501  502  0.00000000000E+00 -0.00000000000E+00 -0.26514302185E+03  0.26514302185E+03  0.00000000000E+00 0. -1.
         23    2    1    2    0    0 -0.44073265387E+02 -0.50781002181E+02  0.12650323264E+01  0.11015452740E+03  0.87242516557E+02 0.  0.
         23    2    1    2    0    0  0.64006891224E+02  0.13984912382E+02 -0.92222038312E+02  0.14289846014E+03  0.87307534959E+02 0.  0.
        -11    1    4    4    0    0 -0.12723648478E+02  0.28287707576E+02 -0.23692251956E+02  0.39030865136E+02  0.00000000000E+00 0.  1.
         11    1    4    4    0    0  0.76730539702E+02 -0.14302795194E+02 -0.68529786356E+02  0.10386759500E+03  0.00000000000E+00 0. -1.
        -13    1    3    3    0    0 -0.66303243645E+02 -0.47228805713E+02 -0.14480759640E+02  0.82682359706E+02  0.00000000000E+00 0.  1.
         13    1    3    3    0    0  0.22229978257E+02 -0.35521964680E+01  0.15745791966E+02  0.27472167692E+02  0.00000000000E+00 0. -1.
          2    1    1    2  501    0 -0.19933625837E+02  0.36796089799E+02 -0.88437201607E+02  0.97838848581E+02  0.00000000000E+00 0. -1.
<scales pt_clust_5="13000.00000" pt_clust_6="13000.00000" pt_clust_7="13000.00000" pt_clust_8="13000.00000" pt_clust_9="41.84856"></scales>
<clustering>
<clus scale="   41.849">  2  9  1 -1</clus>
<clus scale="   87.243">  7  8 -1 -1</clus>
<clus scale="   87.308">  5  6 -1 -1</clus>
<clus scale="  108.079">  1  7  2 -1</clus>
<clus scale="   41.849">  2  5  1 -1</clus>
</clustering>
</event>
<event>
 9    1  0.1504846E-005  0.9586063E+02  0.7546771E-02  0.1289570E+00
         21   -1    0    0  501  502  0.00000000000E+00  0.00000000000E+00  0.15098474205E+03  0.15098474205E+03  0.00000000000E+00 0. -1.
          3   -1    0    0  502    0 -0.00000000000E+00 -0.00000000000E+00 -0.54669944557E+03  0.54669944557E+03  0.00000000000E+00 0. -1.
         23    2    1    2    0    0 -0.19049445532E+02 -0.77882737662E+01 -0.31440123561E+03  0.32783412213E+03  0.90573374121E+02 0.  0.
         23    2    1    2    0    0  0.47386585406E+02 -0.80317218904E+02 -0.18787628966E+03  0.22870756192E+03  0.91177324688E+02 0.  0.
        -13    1    3    3    0    0  0.13922832223E+02 -0.40381602862E+02 -0.10487861535E+03  0.11324329148E+03  0.00000000000E+00 0.  1.
         13    1    3    3    0    0 -0.32972277755E+02  0.32593329096E+02 -0.20952262026E+03  0.21459083066E+03  0.00000000000E+00 0. -1.
        -13    1    4    4    0    0  0.69265113297E+02 -0.71398604956E+02 -0.11477946273E+03  0.15188726666E+03  0.00000000000E+00 0.  1.
         13    1    4    4    0    0 -0.21878527891E+02 -0.89186139483E+01 -0.73096826924E+02  0.76820295259E+02  0.00000000000E+00 0. -1.
          3    1    1    2  501    0 -0.28337139874E+02  0.88105492670E+02  0.10656282175E+03  0.14114250357E+03  0.00000000000E+00 0. -1.
<scales pt_clust_5="13000.00000" pt_clust_6="13000.00000" pt_clust_7="13000.00000" pt_clust_8="13000.00000" pt_clust_9="92.55037"></scales>
<clustering>
<clus scale="   90.573">  5  6 -1 -1</clus>
<clus scale="   91.177">  7  8 -1 -1</clus>
<clus scale="   92.550">  1  9  2 -1</clus>
<clus scale="   95.286">  2  5  1 -1</clus>
<clus scale="   92.550">  1  5  2 -1</clus>
</clustering>
</event>
<event>
 9    1  0.1504846E-005  0.1101081E+03  0.7546771E-02  0.1261068E+00
         -1   -1    0    0    0  501 -0.00000000000E+00  0.00000000000E+00  0.82794825043E+02  0.82794825043E+02  0.00000000000E+00 0.  1.
         21   -1    0    0  501  502  0.00000000000E+00 -0.00000000000E+00 -0.88919690632E+03  0.88919690632E+03  0.00000000000E+00 0.  1.
         23    2    1    2    0    0  0.46990174002E+02 -0.15958249338E+02  0.11450413926E+02  0.10336131323E+03  0.89942798036E+02 0.  0.
         23    2    1    2    0    0 -0.12236053195E+03  0.50831079740E+02 -0.26940384413E+03  0.31392984303E+03  0.91747570364E+02 0.  0.
        -11    1    3    3    0    0  0.73940611030E+02 -0.96579569366E+01  0.38894437526E+01  0.74670060026E+02  0.00000000000E+00 0.  1.
         11    1    3    3    0    0 -0.26950437028E+02 -0.63002924018E+01  0.75609701731E+01  0.28691253202E+02  0.00000000000E+00 0. -1.
        -13    1    4    4    0    0 -0.11870424776E+03  0.93447084943E+01 -0.20945116613E+03  0.24093113747E+03  0.00000000000E+00 0.  1.
         13    1    4    4    0    0 -0.36562841874E+01  0.41486371245E+02 -0.59952678004E+02  0.72998705557E+02  0.00000000000E+00 0. -1.
         -1    1    1    2    0  502  0.75370357944E+02 -0.34872830401E+02 -0.54844865107E+03  0.55470057511E+03  0.00000000000E+00 0.  1.
<scales pt_clust_5="13000.00000" pt_clust_6="13000.00000" pt_clust_7="13000.00000" pt_clust_8="13000.00000" pt_clust_9="83.04701"></scales>
<clustering>
<clus scale="   83.047">  2  9  1 -1</clus>
<clus scale="   89.943">  5  6 -1 -1</clus>
<clus scale="   91.748">  7  8 -1 -1</clus>
<clus scale="  108.609">  1  5  2 -1</clus>
<clus scale="   83.047">  2  5  1 -1</clus>
</clustering>
</event>
<event>
 9    1  0.1504846E-005  0.9583284E+02  0.7546771E-02  0.1289947E+00
         21   -1    0    0  501  502  0.00000000000E+00  0.00000000000E+00  0.39085658239E+03  0.39085658239E+03  0.00000000000E+00 0. -1.
         -1   -1    0    0    0  501 -0.00000000000E+00 -0.00000000000E+00 -0.58346922551E+02  0.58346922551E+02  0.00000000000E+00 0.  1.
         23    2    1    2    0    0  0.19387815328E+02  0.11496668855E+00  0.38425741079E+01  0.94304888895E+02  0.92210336151E+02 0.  0.
         23    2    1    2    0    0 -0.28810866334E+02 -0.29560842090E+02  0.23373228288E+03  0.25505638920E+03  0.93375972337E+02 0.  0.
        -11    1    3    3    0    0  0.42678844166E+02 -0.72779854444E+01  0.34315048182E+02  0.55244686108E+02  0.00000000000E+00 0. -1.
         11    1    3    3    0    0 -0.23291028838E+02  0.73929521329E+01 -0.30472474074E+02  0.39060202787E+02  0.00000000000E+00 0.  1.
        -13    1    4    4    0    0  0.30702318508E+02  0.73417537053E+01  0.84726840840E+02  0.90416653710E+02  0.00000000000E+00 0. -1.
         13    1    4    4    0    0 -0.59513184842E+02 -0.36902595796E+02  0.14900544204E+03  0.16463973549E+03  0.00000000000E+00 0.  1.
         -1    1    1    2    0  502  0.94230510061E+01  0.29445875402E+02  0.94934802857E+02  0.99842226847E+02  0.00000000000E+00 0.  1.
<scales pt_clust_5="13000.00000" pt_clust_6="13000.00000" pt_clust_7="13000.00000" pt_clust_8="13000.00000" pt_clust_9="30.91688"></scales>
<clustering>
<clus scale="   30.917">  1  9  2 -1</clus>
<clus scale="   92.210">  5  6 -1 -1</clus>
<clus scale="   93.376">  7  8 -1 -1</clus>
<clus scale="   94.697">  2  5  1 -1</clus>
<clus scale="   30.917">  1  5  2 -1</clus>
</clustering>
</event>
<event>
 9    1  0.1504846E-005  0.1113625E+03  0.7546771E-02  0.1258442E+00
          1   -1    0    0  502    0 -0.00000000000E+00  0.00000000000E+00  0.26926252088E+03  0.26926252088E+03  0.00000000000E+00 0. -1.
         21   -1    0    0  501  502  0.00000000000E+00 -0.00000000000E+00 -0.84301014484E+02  0.84301014484E+02  0.00000000000E+00 0.  1.
         23    2    1    2    0    0 -0.47306031789E+02  0.41884931393E+02  0.19050336998E+03  0.22102331398E+03  0.92561132392E+02 0.  0.
         23    2    1    2    0    0  0.26390096852E+02 -0.46662465474E+02  0.63723586218E+01  0.10799944191E+03  0.93538492627E+02 0.  0.
        -13    1    4    4    0    0  0.38544309733E+02 -0.22455259570E+02 -0.36262230062E+02  0.57487840664E+02  0.00000000000E+00 0.  1.
         13    1    4    4    0    0 -0.12154212881E+02 -0.24207205905E+02  0.42634588683E+02  0.50511601248E+02  0.00000000000E+00 0. -1.
        -13    1    3    3    0    0 -0.33037550009E+02 -0.23426269390E+02  0.10463751409E+03  0.11220195704E+03  0.00000000000E+00 0.  1.
         13    1    3    3    0    0 -0.14268481779E+02  0.65311200783E+02  0.85865855885E+02  0.10882135694E+03  0.00000000000E+00 0. -1.
          1    1    1    2  501    0  0.20915934937E+02  0.47775340809E+01 -0.11914222204E+02  0.24540779468E+02  0.00000000000E+00 0. -1.
<scales pt_clust_5="13000.00000" pt_clust_6="13000.00000" pt_clust_7="13000.00000" pt_clust_8="13000.00000" pt_clust_9="21.45463"></scales>
<clustering>
<clus scale="   21.455">  2  9  1 -1</clus>
<clus scale="   92.561">  7  8 -1 -1</clus>
<clus scale="   93.538">  5  6 -1 -1</clus>
<clus scale="  110.543">  1  7  2 -1</clus>
<clus scale="   21.455">  2  5  1 -1</clus>
</clustering>
</event>
<event>
 9    1  0.1504846E-005  0.1190027E+03  0.7546771E-02  0.1245614E+00
         21   -1    0    0  501  502  0.00000000000E+00  0.00000000000E+00  0.36389383438E+02  0.36389383438E+02  0.00000000000E+00 0.  1.
          2   -1    0    0  502    0 -0.00000000000E+00 -0.00000000000E+00 -0.69654900923E+03  0.69654900923E+03  0.00000000000E+00 0. -1.
         23    2    1    2    0    0  0.14729109981E+02  0.73101726670E+02 -0.40194946418E+03  0.41962727523E+03  0.94672431246E+02 0.  0.
         23    2    1    2    0    0 -0.62234679725E+02 -0.49441787942E+02 -0.15291118800E+03  0.19539400375E+03  0.92083329274E+02 0.  0.
        -13    1    4    4    0    0 -0.42416904369E+02  0.74212530925E+01 -0.16199000457E+02  0.46007351472E+02  0.00000000000E+00 0.  1.
         13    1    4    4    0    0 -0.19817775356E+02 -0.56863041034E+02 -0.13671218754E+03  0.14938665228E+03  0.00000000000E+00 0. -1.
        -13    1    3    3    0    0 -0.38662358128E+02  0.15673225587E+02 -0.12406942222E+03  0.13089556703E+03  0.00000000000E+00 0. -1.
         13    1    3    3    0    0  0.53391468109E+02  0.57428501083E+02 -0.27788004195E+03  0.28873170820E+03  0.00000000000E+00 0.  1.
          2    1    1    2  501    0  0.47505569744E+02 -0.23659938728E+02 -0.10529897362E+03  0.11791711369E+03  0.00000000000E+00 0. -1.
<scales pt_clust_5="13000.00000" pt_clust_6="13000.00000" pt_clust_7="13000.00000" pt_clust_8="13000.00000" pt_clust_9="53.07138"></scales>
<clustering>
<clus scale="   53.071">  1  9  2 -1</clus>
<clus scale="   92.083">  5  6 -1 -1</clus>
<clus scale="   94.672">  7  8 -1 -1</clus>
<clus scale="  116.953">  1  5  2 -1</clus>
<clus scale="   53.071">  1  5  2 -1</clus>
</clustering>
</event>
<event>
 9    1  0.2891353E-005  0.1259793E+03  0.7546771E-02  0.1233552E+00
         21   -1    0    0  501  502  0.00000000000E+00  0.00000000000E+00  0.40864414293E+03  0.40864414293E+03  0.00000000000E+00 0. -1.
          1   -1    0    0  502    0 -0.00000000000E+00 -0.00000000000E+00 -0.46518017034E+03  0.46518017034E+03  0.00000000000E+00 0. -1.
         23    2    1    2    0    0  0.71110498603E+02 -0.55883765950E+02 -0.34402555138E+03  0.36745363482E+03  0.92135201935E+02 0.  0.
         23    2    1    2    0    0 -0.20467612021E+02  0.83468631567E+02 -0.70093448288E+02  0.14416740841E+03  0.92115224353E+02 0.  0.
        -11    1    4    4    0    0 -0.13226218643E+02  0.19462196078E+02  0.21712292064E+02  0.32017707014E+02  0.00000000000E+00 0.  1.
         11    1    4    4    0    0 -0.72413933782E+01  0.64006435490E+02 -0.91805740351E+02  0.11214970140E+03  0.00000000000E+00 0. -1.
        -13    1    3    3    0    0  0.80484908800E+02 -0.18656093257E+02 -0.28741423403E+03  0.29905319306E+03  0.00000000000E+00 0. -1.
         13    1    3    3    0    0 -0.93744101969E+01 -0.37227672694E+02 -0.56611317351E+02  0.68400441760E+02  0.00000000000E+00 0.  1.
          1    1    1    2  501    0 -0.50642886582E+02 -0.27584865617E+02  0.35758297226E+03  0.36220327004E+03  0.00000000000E+00 0. -1.
<scales pt_clust_5="13000.00000" pt_clust_6="13000.00000" pt_clust_7="13000.00000" pt_clust_8="13000.00000" pt_clust_9="57.66825"></scales>
<clustering>
<clus scale="   57.668">  1  9  2 -1</clus>
<clus scale="   92.115">  5  6 -1 -1</clus>
<clus scale="   92.135">  7  8 -1 -1</clus>
<clus scale="  125.965">  1  5  2 -1</clus>
<clus scale="   57.668">  1  5  2 -1</clus>
</clustering>
</event>
<event>
 9    1  0.1504846E-005  0.1025335E+03  0.7546771E-02  0.1276917E+00
          1   -1    0    0  502    0 -0.00000000000E+00  0.00000000000E+00  0.50137046526E+03  0.50137046526E+03  0.00000000000E+00 0. -1.
         21   -1    0    0  501  502  0.00000000000E+00 -0.00000000000E+00 -0.71677517196E+02  0.71677517196E+02  0.00000000000E+00 0. -1.
         23    2    1    2    0    0 -0.14584657450E+02 -0.47891481526E+02  0.35734565676E+03  0.37281615632E+03  0.93753196064E+02 0.  0.
         23    2    1    2    0    0 -0.28643088572E+02 -0.73768394935E+01 -0.63805527899E+01  0.94774257561E+02  0.89814275917E+02 0.  0.
        -11    1    3    3    0    0 -0.52075266853E+01  0.22626825433E+02  0.30575856253E+02  0.38392376183E+02  0.00000000000E+00 0.  1.
         11    1    3    3    0    0 -0.93771307642E+01 -0.70518306959E+02  0.32676980051E+03  0.33442378014E+03  0.00000000000E+00 0. -1.
        -11    1    4    4    0    0 -0.60857121366E+02 -0.37087724856E+01  0.29340637032E+01  0.61040584402E+02  0.00000000000E+00 0. -1.
         11    1    4    4    0    0  0.32214032793E+02 -0.36680670079E+01 -0.93146164931E+01  0.33733673159E+02  0.00000000000E+00 0.  1.
          1    1    1    2  501    0  0.43227746022E+02  0.55268321020E+02  0.78727844096E+02  0.10545756858E+03  0.00000000000E+00 0. -1.
<scales pt_clust_5="13000.00000" pt_clust_6="13000.00000" pt_clust_7="13000.00000" pt_clust_8="13000.00000" pt_clust_9="70.16570"></scales>
<clustering>
<clus scale="   70.166">  2  9  1 -1</clus>
<clus scale="   89.814">  7  8 -1 -1</clus>
<clus scale="   93.753">  5  6 -1 -1</clus>
<clus scale="   98.945">  2  7  1 -1</clus>
<clus scale="   70.166">  2  5  1 -1</clus>
</clustering>
</event>
<event>
 9    1  0.1504846E-005  0.2252400E+03  0.7546771E-02  0.1130088E+00
         -3   -1    0    0    0  501 -0.00000000000E+00  0.00000000000E+00  0.30175199020E+03  0.30175199020E+03  0.00000000000E+00 0.  1.
         21   -1    0    0  501  502  0.00000000000E+00 -0.00000000000E+00 -0.38350969406E+03  0.38350969406E+03  0.00000000000E+00 0. -1.
         23    2    1    2    0    0  0.16719928048E+03 -0.11229487679E+03  0.19254918311E+03  0.29343636167E+03  0.91999846147E+02 0.  0.
         23    2    1    2    0    0 -0.19588293375E+03  0.11912669679E+03 -0.26076310480E+03  0.35937752197E+03  0.92701201983E+02 0.  0.
        -11    1    4    4    0    0 -0.15860445910E+03  0.12612206204E+03 -0.24591002516E+03  0.31864382852E+03  0.00000000000E+00 0. -1.
         11    1    4    4    0    0 -0.37278474645E+02 -0.69953652499E+01 -0.14853079634E+02  0.40733693442E+02  0.00000000000E+00 0.  1.
        -13    1    3    3    0    0  0.12750731106E+03 -0.11299407153E+03  0.18762460837E+03  0.25343395242E+03  0.00000000000E+00 0.  1.
         13    1    3    3    0    0  0.39691969416E+02  0.69919474017E+00  0.49245747378E+01  0.40002409249E+02  0.00000000000E+00 0. -1.
         -3    1    1    2    0  502  0.28683653269E+02 -0.68318199976E+01 -0.13543782178E+02  0.32447800620E+02  0.00000000000E+00 0.  1.
<scales pt_clust_5="13000.00000" pt_clust_6="13000.00000" pt_clust_7="13000.00000" pt_clust_8="13000.00000" pt_clust_9="29.48603"></scales>
<clustering>
<clus scale="   29.486">  2  9  1 -1</clus>
<clus scale="   92.000">  7  8 -1 -1</clus>
<clus scale="   92.701">  5  6 -1 -1</clus>
<clus scale="  224.952">  1  7  2 -1</clus>
<clus scale="   29.486">  2  5  1 -1</clus>
</clustering>
</event>
<event>
 9    1  0.1504846E-005  0.1586045E+03  0.7546771E-02  0.1191786E+00
          1   -1    0    0  502    0 -0.00000000000E+00  0.00000000000E+00  0.11578262555E+03  0.11578262555E+03  0.00000000000E+00 0. -1.
         21   -1    0    0  501  502  0.00000000000E+00 -0.00000000000E+00 -0.54973306583E+03  0.54973306583E+03  0.00000000000E+00 0. -1.
         23    2    1    2    0    0  0.14500408564E+03  0.41558855650E+02 -0.13634003633E+01  0.17552815040E+03  0.89749369850E+02 0.  0.
         23    2    1    2    0    0 -0.89565253632E+02  0.42500101102E+02 -0.21026817997E+03  0.24592802407E+03  0.80247693196E+02 0.  0.
        -11    1    4    4    0    0 -0.66585415994E+02  0.80401681813E+01 -0.59779684489E+02  0.89843600803E+02  0.00000000000E+00 0. -1.
         11    1    4    4    0    0 -0.22979837638E+02  0.34459932921E+02 -0.15048849548E+03  0.15608442327E+03  0.00000000000E+00 0.  1.
        -11    1    3    3    0    0  0.40233034711E+02 -0.45549428987E+01  0.36950643658E+02  0.54816007276E+02  0.00000000000E+00 0. -1.
         11    1    3    3    0    0  0.10477105093E+03  0.46113798548E+02 -0.38314044022E+02  0.12071214313E+03  0.00000000000E+00 0.  1.
          1    1    1    2  501    0 -0.55438832008E+02 -0.84058956752E+02 -0.22231885995E+03  0.24405951691E+03  0.00000000000E+00 0. -1.
<scales pt_clust_5="13000.00000" pt_clust_6="13000.00000" pt_clust_7="13000.00000" pt_clust_8="13000.00000" pt_clust_9="100.69445"></scales>
<clustering>
<clus scale="   80.248">  5  6 -1 -1</clus>
<clus scale="   89.749">  7  8 -1 -1</clus>
<clus scale="  100.694">  2  9  1 -1</clus>
<clus scale="  153.428">  2  5  1 -1</clus>
<clus scale="  100.694">  2  5  1 -1</clus>
</clustering>
</event>
<event>
 9    1  0.1504846E-005  0.1856974E+03  0.7546771E-02  0.1162751E+00
         21   -1    0    0  501  502  0.00000000000E+00  0.00000000000E+00  0.51283945609E+03  0.51283945609E+03  0.00000000000E+00 0. -1.
          1   -1    0    0  502    0 -0.00000000000E+00 -0.00000000000E+00 -0.10568384650E+03  0.10568384650E+03  0.00000000000E+00 0. -1.
         23    2    1    2    0    0  0.17127605426E+03  0.34263579609E+02  0.55293759422E+02  0.20453768383E+03  0.90932857775E+02 0.  0.
         23    2    1    2    0    0 -0.11965868153E+03 -0.30149854889E+02  0.31275642889E+03  0.34909717701E+03  0.93941691352E+02 0.  0.
        -11    1    4    4    0    0 -0.55077971177E+02  0.33414030636E+02  0.12552021225E+03  0.14108651259E+03  0.00000000000E+00 0.  1.
         11    1    4    4    0    0 -0.64580710350E+02 -0.63563885524E+02  0.18723621664E+03  0.20801066442E+03  0.00000000000E+00 0. -1.
        -13    1    3    3    0    0  0.10635847819E+03 -0.15068344249E+02  0.59678693511E+02  0.12288501674E+03  0.00000000000E+00 0.  1.
         13    1    3    3    0    0  0.64917576077E+02  0.49331923858E+02 -0.43849340892E+01  0.81652667085E+02  0.00000000000E+00 0. -1.
          1    1    1    2  501    0 -0.51617372738E+02 -0.41137247203E+01  0.39105421283E+02  0.64888441753E+02  0.00000000000E+00 0. -1.
<scales pt_clust_5="13000.00000" pt_clust_6="13000.00000" pt_clust_7="13000.00000" pt_clust_8="13000.00000" pt_clust_9="51.78106"></scales>
<clustering>
<clus scale="   51.781">  1  9  2 -1</clus>
<clus scale="   90.933">  7  8 -1 -1</clus>
<clus scale="   93.942">  5  6 -1 -1</clus>
<clus scale="  184.194">  2  7  1 -1</clus>
<clus scale="   51.781">  1  5  2 -1</clus>
</clustering>
</event>
<event>
 9    1  0.1504846E-005  0.1255330E+03  0.7546771E-02  0.1234660E+00
         21   -1    0    0  501  502  0.00000000000E+00  0.00000000000E+00  0.33094461241E+03  0.33094461241E+03  0.00000000000E+00 0.  1.
          1   -1    0    0  502    0 -0.00000000000E+00 -0.00000000000E+00 -0.13186998384E+03  0.13186998384E+03  0.00000000000E+00 0. -1.
         23    2    1    2    0    0 -0.80878116966E+02  0.11446830731E+02 -0.68161389607E+02  0.14042829385E+03  0.91661501971E+02 0.  0.
         23    2    1    2    0    0  0.11397453198E+03 -0.39801929509E+00  0.21966187394E+03  0.26338843701E+03  0.90176369007E+02 0.  0.
        -11    1    4    4    0    0  0.61209182782E+02  0.41979666976E+01  0.19600005135E+03  0.20537820505E+03  0.00000000000E+00 0.  1.
         11    1    4    4    0    0  0.52765349202E+02 -0.45959859926E+01  0.23661822592E+02  0.58010231960E+02  0.00000000000E+00 0. -1.
        -13    1    3    3    0    0 -0.96289367692E+02  0.26686342697E+02 -0.63087270837E+02  0.11816855317E+03  0.00000000000E+00 0. -1.
         13    1    3    3    0    0  0.15411250726E+02 -0.15239511966E+02 -0.50741187707E+01  0.22259740681E+02  0.00000000000E+00 0.  1.
          1    1    1    2  501    0 -0.33096415018E+02 -0.11048811436E+02  0.47574144238E+02  0.58997865395E+02  0.00000000000E+00 0. -1.
<scales pt_clust_5="13000.00000" pt_clust_6="13000.00000" pt_clust_7="13000.00000" pt_clust_8="13000.00000" pt_clust_9="34.89196"></scales>
<clustering>
<clus scale="   34.892">  1  9  2 -1</clus>
<clus scale="   90.176">  5  6 -1 -1</clus>
<clus scale="   91.662">  7  8 -1 -1</clus>
<clus scale="  124.453">  1  5  2 -1</clus>
<clus scale="   34.892">  1  5  2 -1</clus>
</clustering>
</event>
<event>
 9    1  0.1504846E-005  0.1177381E+03  0.7546771E-02  0.1247711E+00
         -3   -1    0    0    0  501 -0.00000000000E+00  0.00000000000E+00  0.79072763736E+02  0.79072763736E+02  0.00000000000E+00 0.  1.
         21   -1    0    0  501  502  0.00000000000E+00 -0.00000000000E+00 -0.65696175703E+03  0.65696175703E+03  0.00000000000E+00 0. -1.
         23    2    1    2    0    0 -0.81679744722E+02 -0.76037035021E+02 -0.35022969122E+02  0.14745148762E+03  0.89789316968E+02 0.  0.
         23    2    1    2    0    0  0.29879225167E+02  0.14958189591E+02 -0.93551098035E+02  0.13218647090E+03  0.87206304890E+02 0.  0.
        -13    1    3    3    0    0 -0.27391862446E+02  0.15560388836E+02  0.81739194789E+01  0.32546163962E+02  0.00000000000E+00 0.  1.
         13    1    3    3    0    0 -0.54287882276E+02 -0.91597423857E+02 -0.43196888601E+02  0.11490532365E+03  0.00000000000E+00 0. -1.
        -13    1    4    4    0    0 -0.30192064072E+02  0.56096798461E+01 -0.44520687977E+02  0.54084386830E+02  0.00000000000E+00 0. -1.
         13    1    4    4    0    0  0.60071289239E+02  0.93485097451E+01 -0.49030410058E+02  0.78102084068E+02  0.00000000000E+00 0.  1.
         -3    1    1    2    0  502  0.51800519555E+02  0.61078845430E+02 -0.44931492614E+03  0.45639656225E+03  0.00000000000E+00 0.  1.
<scales pt_clust_5="13000.00000" pt_clust_6="13000.00000" pt_clust_7="13000.00000" pt_clust_8="13000.00000" pt_clust_9="80.08695"></scales>
<clustering>
<clus scale="   80.087">  2  9  1 -1</clus>
<clus scale="   87.206">  7  8 -1 -1</clus>
<clus scale="   89.789">  5  6 -1 -1</clus>
<clus scale="  115.780">  2  7  1 -1</clus>
<clus scale="   80.087">  2  5  1 -1</clus>
</clustering>
</event>
<event>
 9    1  0.1504846E-005  0.9492193E+02  0.7546771E-02  0.1292342E+00
         21   -1    0    0  501  502  0.00000000000E+00  0.00000000000E+00  0.56908340575E+02  0.56908340575E+02  0.00000000000E+00 0. -1.
         -1   -1    0    0    0  501 -0.00000000000E+00 -0.00000000000E+00 -0.36173905870E+03  0.36173905870E+03  0.00000000000E+00 0.  1.
         23    2    1    2    0    0 -0.13879966039E+02 -0.14969791129E+01 -0.27532204356E+03  0.29120345991E+03  0.93820749221E+02 0.  0.
         23    2    1    2    0    0  0.15016319162E+02 -0.25674490317E+02 -0.21720422651E+02  0.99155480290E+02  0.92061735901E+02 0.  0.
        -11    1    3    3    0    0  0.25314214001E+02  0.33633683776E+02 -0.12978569144E+03  0.13644178179E+03  0.00000000000E+00 0.  1.
         11    1    3    3    0    0 -0.39194180039E+02 -0.35130662889E+02 -0.14553635213E+03  0.15476167812E+03  0.00000000000E+00 0. -1.
        -11    1    4    4    0    0 -0.38263830359E+02 -0.12639250056E+02 -0.18126168711E+02  0.44186302718E+02  0.00000000000E+00 0.  1.
         11    1    4    4    0    0  0.53280149521E+02 -0.13035240261E+02 -0.35942539400E+01  0.54969177572E+02  0.00000000000E+00 0. -1.
         -1    1    1    2    0  502 -0.11363531232E+01  0.27171469430E+02 -0.77882519104E+01  0.28288459082E+02  0.00000000000E+00 0.  1.
<scales pt_clust_5="13000.00000" pt_clust_6="13000.00000" pt_clust_7="13000.00000" pt_clust_8="13000.00000" pt_clust_9="27.19522"></scales>
<clustering>
<clus scale="   27.195">  1  9  2 -1</clus>
<clus scale="   92.062">  7  8 -1 -1</clus>
<clus scale="   93.184">  1  7  2 -1</clus>
<clus scale="   93.821">  5  6 -1 -1</clus>
<clus scale="   27.195">  1  5  2 -1</clus>
</clustering>
</event>
<event>
 9    1  0.1504846E-005  0.9968137E+02  0.7546771E-02  0.1281037E+00
         21   -1    0    0  501  502  0.00000000000E+00  0.00000000000E+00  0.15307439396E+03  0.15307439396E+03  0.00000000000E+00 0. -1.
          2   -1    0    0  502    0 -0.00000000000E+00 -0.00000000000E+00 -0.20979939691E+03  0.20979939691E+03  0.00000000000E+00 0.  1.
         23    2    1    2    0    0  0.16891468649E+02  0.35030053420E+02 -0.15361361922E+03  0.18265931258E+03  0.90856227675E+02 0.  0.
         23    2    1    2    0    0 -0.42565128397E+01 -0.53922294656E+02  0.30331557374E+02  0.10988382369E+03  0.90712290094E+02 0.  0.
        -11    1    4    4    0    0  0.54613900682E+01  0.24513000933E+02 -0.31247692951E+00  0.25115963809E+02  0.00000000000E+00 0.  1.
         11    1    4    4    0    0 -0.97179029079E+01 -0.78435295588E+02  0.30644034304E+02  0.84767859884E+02  0.00000000000E+00 0. -1.
        -11    1    3    3    0    0 -0.26068926028E+02  0.27339048769E+02 -0.12472712024E+03  0.13032216624E+03  0.00000000000E+00 0.  1.
         11    1    3    3    0    0  0.42960394677E+02  0.76910046509E+01 -0.28886498984E+02  0.52337146340E+02  0.00000000000E+00 0. -1.
          2    1    1    2  501    0 -0.12634955809E+02  0.18892241236E+02  0.66557058897E+02  0.70330654598E+02  0.00000000000E+00 0.  1.
<scales pt_clust_5="13000.00000" pt_clust_6="13000.00000" pt_clust_7="13000.00000" pt_clust_8="13000.00000" pt_clust_9="22.72793"></scales>
<clustering>
<clus scale="   22.728">  1  9  2 -1</clus>
<clus scale="   90.712">  5  6 -1 -1</clus>
<clus scale="   90.856">  7  8 -1 -1</clus>
<clus scale="   99.550">  1  5  2 -1</clus>
<clus scale="   22.728">  1  5  2 -1</clus>
</clustering>
</event>
<event>
 9    1  0.1504846E-005  0.1135933E+03  0.7546771E-02  0.1254191E+00
          1   -1    0    0  502    0 -0.00000000000E+00  0.00000000000E+00  0.45644758901E+03  0.45644758901E+03  0.00000000000E+00 0. -1.
         21   -1    0    0  501  502  0.00000000000E+00 -0.00000000000E+00 -0.17826447573E+03  0.17826447573E+03  0.00000000000E+00 0. -1.
         23    2    1    2    0    0  0.24459344105E+02  0.70821674608E+02  0.37153979723E+03  0.38965737491E+03  0.90427207119E+02 0.  0.
         23    2    1    2    0    0  0.27794790887E+01 -0.45254830001E+02  0.38085613794E+02  0.10840662118E+03  0.90806147341E+02 0.  0.
        -11    1    4    4    0    0 -0.39424784967E+02 -0.21377640723E+02  0.39691917373E+02  0.59889610930E+02  0.00000000000E+00 0.  1.
         11    1    4    4    0    0  0.42204264056E+02 -0.23877189277E+02 -0.16063035791E+01  0.48517010248E+02  0.00000000000E+00 0. -1.
        -13    1    3    3    0    0  0.41887353607E+02  0.59970927708E+02  0.35720483839E+03  0.36461810039E+03  0.00000000000E+00 0. -1.
         13    1    3    3    0    0 -0.17428009502E+02  0.10850746900E+02  0.14334958838E+02  0.25039274518E+02  0.00000000000E+00 0.  1.
          1    1    1    2  501    0 -0.27238823194E+02 -0.25566844608E+02 -0.13144229774E+03  0.13664806866E+03  0.00000000000E+00 0. -1.
<scales pt_clust_5="13000.00000" pt_clust_6="13000.00000" pt_clust_7="13000.00000" pt_clust_8="13000.00000" pt_clust_9="37.35796"></scales>
<clustering>
<clus scale="   37.358">  2  9  1 -1</clus>
<clus scale="   90.427">  7  8 -1 -1</clus>
<clus scale="   90.806">  5  6 -1 -1</clus>
<clus scale="  113.291">  1  7  2 -1</clus>
<clus scale="   37.358">  2  5  1 -1</clus>
</clustering>
</event>
<event>
 9    1  0.1504846E-005  0.1202153E+03  0.7546771E-02  0.1245789E+00
          2   -1    0    0  502    0 -0.00000000000E+00  0.00000000000E+00  0.60555220978E+03  0.60555220978E+03  0.00000000000E+00 0. -1.
         21   -1    0    0  501  502  0.00000000000E+00 -0.00000000000E+00 -0.35781648633E+02  0.35781648633E+02  0.00000000000E+00 0.  1.
         23    2    1    2    0    0  0.79384200889E+02  0.41620854353E+02  0.40895865806E+03  0.42654911334E+03  0.81626069541E+02 0.  0.
         23    2    1    2    0    0 -0.47004461257E+02 -0.24168315504E+02  0.12285220091E+03  0.16192665543E+03  0.91291027033E+02 0.  0.
        -11    1    4    4    0    0  0.14283588988E+02 -0.19195420427E+02 -0.68067807924E+00  0.23936340622E+02  0.00000000000E+00 0.  1.
         11    1    4    4    0    0 -0.61288050244E+02 -0.49728950771E+01  0.12353287899E+03  0.13799031481E+03  0.00000000000E+00 0. -1.
        -13    1    3    3    0    0  0.21849986878E+02 -0.21390083890E+02  0.17198358182E+03  0.17468059432E+03  0.00000000000E+00 0.  1.
         13    1    3    3    0    0  0.57534214011E+02  0.63010938243E+02  0.23697507623E+03  0.25186851902E+03  0.00000000000E+00 0. -1.
          2    1    1    2  501    0 -0.32379739632E+02 -0.17452538849E+02  0.37959702177E+02  0.52858089639E+02  0.00000000000E+00 0. -1.
<scales pt_clust_5="13000.00000" pt_clust_6="13000.00000" pt_clust_7="13000.00000" pt_clust_8="13000.00000" pt_clust_9="36.78367"></scales>
<clustering>
<clus scale="   36.784">  2  9  1 -1</clus>
<clus scale="   81.626">  7  8 -1 -1</clus>
<clus scale="   91.291">  5  6 -1 -1</clus>
<clus scale="  113.051">  1  7  2 -1</clus>
<clus scale="   36.784">  2  5  1 -1</clus>
</clustering>
</event>
<event>
 9    1  0.1504846E-005  0.1437706E+03  0.7546771E-02  0.1208374E+00
         21   -1    0    0  501  502  0.00000000000E+00  0.00000000000E+00  0.11424877545E+03  0.11424877545E+03  0.00000000000E+00 0. -1.
         -1   -1    0    0    0  501 -0.00000000000E+00 -0.00000000000E+00 -0.36048221889E+03  0.36048221889E+03  0.00000000000E+00 0.  1.
         23    2    1    2    0    0  0.11242615917E+03 -0.23787346783E+02 -0.27627058759E+03  0.31272389614E+03  0.90913797184E+02 0.  0.
         23    2    1    2    0    0 -0.90210824688E+02  0.35725741963E+02  0.18763817447E+02  0.13438221339E+03  0.91061390830E+02 0.  0.
        -13    1    3    3    0    0  0.30004770979E+02 -0.27974510084E+02 -0.24521499871E+02  0.47792922612E+02  0.00000000000E+00 0. -1.
         13    1    3    3    0    0  0.82421388188E+02  0.41871633009E+01 -0.25174908772E+03  0.26493097353E+03  0.00000000000E+00 0.  1.
        -13    1    4    4    0    0 -0.40466465669E+02 -0.48534455813E+01 -0.32580817589E+02  0.52178543987E+02  0.00000000000E+00 0.  1.
         13    1    4    4    0    0 -0.49744359019E+02  0.40579187544E+02  0.51344635036E+02  0.82203669401E+02  0.00000000000E+00 0. -1.
         -1    1    1    2    0  502 -0.22215334479E+02 -0.11938395180E+02  0.11273326709E+02  0.27624884807E+02  0.00000000000E+00 0.  1.
<scales pt_clust_5="13000.00000" pt_clust_6="13000.00000" pt_clust_7="13000.00000" pt_clust_8="13000.00000" pt_clust_9="25.21996"></scales>
<clustering>
<clus scale="   25.220">  1  9  2 -1</clus>
<clus scale="   90.914">  5  6 -1 -1</clus>
<clus scale="   91.061">  7  8 -1 -1</clus>
<clus scale="  143.677">  2  5  1 -1</clus>
<clus scale="   25.220">  1  5  2 -1</clus>
</clustering>
</event>
<event>
 9    1  0.1504846E-005  0.1334265E+03  0.7546771E-02  0.1222588E+00
          1   -1    0    0  502    0 -0.00000000000E+00  0.00000000000E+00  0.16947850889E+03  0.16947850889E+03  0.00000000000E+00 0. -1.
         21   -1    0    0  501  502  0.00000000000E+00 -0.00000000000E+00 -0.20754871394E+03  0.20754871394E+03  0.00000000000E+00 0. -1.
         23    2    1    2    0    0 -0.30135572202E+02  0.88175858308E+02  0.29600610906E+02  0.13440374955E+03  0.92222757643E+02 0.  0.
         23    2    1    2    0    0  0.54222436111E+02 -0.84263455471E+02  0.31812480473E+02  0.14019100685E+03  0.92742018433E+02 0.  0.
        -11    1    3    3    0    0 -0.39155422277E+01  0.26536838057E+02  0.56245812049E+02  0.62314738369E+02  0.00000000000E+00 0. -1.
         11    1    3    3    0    0 -0.26220029974E+02  0.61639020251E+02 -0.26645201142E+02  0.72089011183E+02  0.00000000000E+00 0.  1.
        -13    1    4    4    0    0 -0.17656431704E+02 -0.27521570184E+02 -0.16528834798E+02  0.36638624233E+02  0.00000000000E+00 0.  1.
         13    1    4    4    0    0  0.71878867815E+02 -0.56741885287E+02  0.48341315271E+02  0.10355238262E+03  0.00000000000E+00 0. -1.
          1    1    1    2  501    0 -0.24086863910E+02 -0.39124028370E+01 -0.99483296434E+02  0.10243246643E+03  0.00000000000E+00 0. -1.
<scales pt_clust_5="13000.00000" pt_clust_6="13000.00000" pt_clust_7="13000.00000" pt_clust_8="13000.00000" pt_clust_9="24.40254"></scales>
<clustering>
<clus scale="   24.403">  2  9  1 -1</clus>
<clus scale="   92.223">  5  6 -1 -1</clus>
<clus scale="   92.742">  7  8 -1 -1</clus>
<clus scale="  133.066">  1  5  2 -1</clus>
<clus scale="   24.403">  2  5  1 -1</clus>
</clustering>
</event>
<event>
 9    1  0.1504846E-005  0.9223353E+02  0.7546771E-02  0.1297853E+00
         -1   -1    0    0    0  501 -0.00000000000E+00  0.00000000000E+00  0.14402758997E+03  0.14402758997E+03  0.00000000000E+00 0.  1.
         21   -1    0    0  501  502  0.00000000000E+00 -0.00000000000E+00 -0.13345080376E+03  0.13345080376E+03  0.00000000000E+00 0.  1.
         23    2    1    2    0    0 -0.15766310146E+01 -0.25364987837E+01  0.54943902818E+02  0.10680799920E+03  0.91543413991E+02 0.  0.
         23    2    1    2    0    0  0.20046619738E+02  0.11442080951E+02  0.25974976295E+02  0.97400619650E+02  0.90991170645E+02 0.  0.
        -11    1    4    4    0    0  0.43595233847E+01  0.43698909359E+02  0.39499889367E+02  0.59066415020E+02  0.00000000000E+00 0.  1.
         11    1    4    4    0    0  0.15687096353E+02 -0.32256828409E+02 -0.13524913072E+02  0.38334204630E+02  0.00000000000E+00 0. -1.
        -13    1    3    3    0    0 -0.49660595223E+01 -0.38912143234E+02 -0.18581309734E+01  0.39271736516E+02  0.00000000000E+00 0. -1.
         13    1    3    3    0    0  0.33894285077E+01  0.36375644450E+02  0.56802033792E+02  0.67536262686E+02  0.00000000000E+00 0.  1.
         -1    1    1    2    0  502 -0.18469988723E+02 -0.89055821669E+01 -0.70342092900E+02  0.73269774878E+02  0.00000000000E+00 0.  1.
<scales pt_clust_5="13000.00000" pt_clust_6="13000.00000" pt_clust_7="13000.00000" pt_clust_8="13000.00000" pt_clust_9="20.50487"></scales>
<clustering>
<clus scale="   20.505">  2  9  1 -1</clus>
<clus scale="   90.991">  5  6 -1 -1</clus>
<clus scale="   91.543">  7  8 -1 -1</clus>
<clus scale="   91.685">  2  5  1 -1</clus>
<clus scale="   20.505">  2  5  1 -1</clus>
</clustering>
</event>
<event>
 9    1  0.1504846E-005  0.9554915E+02  0.7546771E-02  0.1291453E+00
          1   -1    0    0  502    0 -0.00000000000E+00  0.00000000000E+00  0.48265381179E+03  0.48265381179E+03  0.00000000000E+00 0. -1.
         21   -1    0    0  501  502  0.00000000000E+00 -0.00000000000E+00 -0.32802785080E+02  0.32802785080E+02  0.00000000000E+00 0.  1.
         23    2    1    2    0    0  0.10255994073E+01 -0.17854606246E+02  0.23024967571E+03  0.24871930492E+03  0.92339269294E+02 0.  0.
         23    2    1    2    0    0 -0.31197466331E+02  0.20954998750E+02  0.21516975576E+03  0.23608451029E+03  0.89585034061E+02 0.  0.
        -11    1    3    3    0    0 -0.30736808198E+02 -0.30103240967E+02  0.19509847660E+03  0.19978581548E+03  0.00000000000E+00 0.  1.
         11    1    3    3    0    0  0.31762407606E+02  0.12248634722E+02  0.35151199115E+02  0.48933489439E+02  0.00000000000E+00 0. -1.
        -13    1    4    4    0    0  0.16087332688E+02 -0.19338395017E+02  0.11874302053E+03  0.12137825473E+03  0.00000000000E+00 0. -1.
         13    1    4    4    0    0 -0.47284799019E+02  0.40293393767E+02  0.96426735224E+02  0.11470625556E+03  0.00000000000E+00 0.  1.
          1    1    1    2  501    0  0.30171866924E+02 -0.31003925043E+01  0.44315952386E+01  0.30652781663E+02  0.00000000000E+00 0. -1.
<scales pt_clust_5="13000.00000" pt_clust_6="13000.00000" pt_clust_7="13000.00000" pt_clust_8="13000.00000" pt_clust_9="30.33074"></scales>
<clustering>
<clus scale="   30.331">  2  9  1 -1</clus>
<clus scale="   89.585">  7  8 -1 -1</clus>
<clus scale="   92.339">  5  6 -1 -1</clus>
<clus scale="   92.890">  2  7  1 -1</clus>
<clus scale="   30.331">  2  5  1 -1</clus>
</clustering>
</event>
<event>
 9    1  0.1504846E-005  0.1016240E+03  0.7546771E-02  0.1279066E+00
          4   -1    0    0  502    0 -0.00000000000E+00  0.00000000000E+00  0.27641033837E+03  0.27641033837E+03  0.00000000000E+00 0. -1.
         21   -1    0    0  501  502  0.00000000000E+00 -0.00000000000E+00 -0.84639212096E+02  0.84639212096E+02  0.00000000000E+00 0.  1.
         23    2    1    2    0    0  0.19365664080E+02 -0.48677012843E+02  0.21431920504E+03  0.23810790740E+03  0.89544253810E+02 0.  0.
         23    2    1    2    0    0 -0.14980606209E+02  0.28333608762E+02  0.20086621575E+01  0.90752881886E+02  0.84881322440E+02 0.  0.
        -11    1    4    4    0    0 -0.50327030514E+02  0.20220556843E+02  0.43526802551E+01  0.54411641629E+02  0.00000000000E+00 0.  1.
         11    1    4    4    0    0  0.35346424305E+02  0.81130519185E+01 -0.23440180975E+01  0.36341240257E+02  0.00000000000E+00 0. -1.
        -13    1    3    3    0    0 -0.14970610340E+02 -0.50057530899E+02  0.58030711759E+02  0.78086100433E+02  0.00000000000E+00 0.  1.
         13    1    3    3    0    0  0.34336274420E+02  0.13805180555E+01  0.15628849328E+03  0.16002180696E+03  0.00000000000E+00 0. -1.
          4    1    1    2  501    0 -0.43850578719E+01  0.20343404082E+02 -0.24556740920E+02  0.32188761188E+02  0.00000000000E+00 0. -1.
<scales pt_clust_5="13000.00000" pt_clust_6="13000.00000" pt_clust_7="13000.00000" pt_clust_8="13000.00000" pt_clust_9="20.81064"></scales>
<clustering>
<clus scale="   20.811">  2  9  1 -1</clus>
<clus scale="   84.881">  5  6 -1 -1</clus>
<clus scale="   89.544">  7  8 -1 -1</clus>
<clus scale="   97.540">  2  5  1 -1</clus>
<clus scale="   20.811">  2  5  1 -1</clus>
</clustering>
</event>
<event>
 9    1  0.1504846E-005  0.1322126E+03  0.7546771E-02  0.1243367E+00
         21   -1    0    0  501  502  0.00000000000E+00  0.00000000000E+00  0.12871915028E+03  0.12871915028E+03  0.00000000000E+00 0. -1.
          1   -1    0    0  502    0 -0.00000000000E+00 -0.00000000000E+00 -0.80657955097E+03  0.80657955097E+03  0.00000000000E+00 0. -1.
         23    2    1    2    0    0 -0.53055373577E+01  0.78742796556E+00 -0.33308352913E+03  0.34482981954E+03  0.89074116872E+02 0.  0.
         23    2    1    2    0    0  0.17258736456E+02 -0.96081140313E+02 -0.43726392173E+03  0.45713612119E+03  0.90797833337E+02 0.  0.
        -11    1    4    4    0    0 -0.32661433794E+02 -0.53117369316E+02 -0.15050967561E+03  0.16291527440E+03  0.00000000000E+00 0.  1.
         11    1    4    4    0    0  0.49920170250E+02 -0.42963770998E+02 -0.28675424612E+03  0.29422084679E+03  0.00000000000E+00 0. -1.
        -13    1    3    3    0    0 -0.13124154604E+02 -0.42758264374E+02 -0.18075496552E+03  0.18620652557E+03  0.00000000000E+00 0.  1.
         13    1    3    3    0    0  0.78186172464E+01  0.43545692339E+02 -0.15232856361E+03  0.15862329397E+03  0.00000000000E+00 0. -1.
          1    1    1    2  501    0 -0.11953199098E+02  0.95293712348E+02  0.92487050164E+02  0.13333276053E+03  0.00000000000E+00 0. -1.
<scales pt_clust_5="13000.00000" pt_clust_6="13000.00000" pt_clust_7="13000.00000" pt_clust_8="13000.00000" pt_clust_9="96.10369"></scales>
<clustering>
<clus scale="   89.074">  7  8 -1 -1</clus>
<clus scale="   89.235">  2  7  1 -1</clus>
<clus scale="   90.798">  5  6 -1 -1</clus>
<clus scale="   96.104">  1  9  2 -1</clus>
<clus scale="   96.104">  1  5  2 -1</clus>
</clustering>
</event>
<event>
 9    1  0.1504846E-005  0.1213622E+03  0.7546771E-02  0.1242010E+00
          1   -1    0    0  502    0 -0.00000000000E+00  0.00000000000E+00  0.45505902576E+03  0.45505902576E+03  0.00000000000E+00 0. -1.
         21   -1    0    0  501  502  0.00000000000E+00 -0.00000000000E+00 -0.20627764726E+03  0.20627764726E+03  0.00000000000E+00 0. -1.
         23    2    1    2    0    0 -0.72119072407E+02 -0.16436612291E+02  0.30135848383E+03  0.32356003123E+03  0.91666979912E+02 0.  0.
         23    2    1    2    0    0  0.94493316234E+02  0.87596447935E+01  0.11222917791E+03  0.17128143582E+03  0.87955805334E+02 0.  0.
        -13    1    3    3    0    0 -0.20975380651E+02 -0.33150245628E+02  0.23441007004E+03  0.23766991041E+03  0.00000000000E+00 0. -1.
         13    1    3    3    0    0 -0.51143691756E+02  0.16713633337E+02  0.66948413793E+02  0.85890120824E+02  0.00000000000E+00 0.  1.
        -13    1    4    4    0    0 -0.12125931153E+02  0.18352167056E+02  0.24032092493E+02  0.32578853749E+02  0.00000000000E+00 0.  1.
         13    1    4    4    0    0  0.10661924739E+03 -0.95925222627E+01  0.88197085417E+02  0.13870258207E+03  0.00000000000E+00 0. -1.
          1    1    1    2  501    0 -0.22374243827E+02  0.76769674972E+01 -0.16480628324E+03  0.16649520597E+03  0.00000000000E+00 0. -1.
<scales pt_clust_5="13000.00000" pt_clust_6="13000.00000" pt_clust_7="13000.00000" pt_clust_8="13000.00000" pt_clust_9="23.65465"></scales>
<clustering>
<clus scale="   23.655">  2  9  1 -1</clus>
<clus scale="   87.956">  7  8 -1 -1</clus>
<clus scale="   91.667">  5  6 -1 -1</clus>
<clus scale="  118.584">  2  7  1 -1</clus>
<clus scale="   23.655">  2  5  1 -1</clus>
</clustering>
</event>
<event>
 9    1  0.1504846E-005  0.1586971E+03  0.7546771E-02  0.1213876E+00
         -1   -1    0    0    0  501 -0.00000000000E+00  0.00000000000E+00  0.40513656542E+03  0.40513656542E+03  0.00000000000E+00 0.  1.
         21   -1    0    0  501  502  0.00000000000E+00 -0.00000000000E+00 -0.11959297553E+03  0.11959297553E+03  0.00000000000E+00 0.  1.
         23    2    1    2    0    0 -0.22227262216E+02 -0.10542758955E+02  0.13948451820E+03  0.16876737673E+03  0.91767617810E+02 0.  0.
         23    2    1    2    0    0  0.64196804146E+02 -0.11144043174E+03  0.16096226212E+03  0.22610283130E+03  0.93131310582E+02 0.  0.
        -11    1    4    4    0    0  0.76120196669E+02 -0.74626931741E+02  0.70750070765E+02  0.12794153272E+03  0.00000000000E+00 0.  1.
         11    1    4    4    0    0 -0.11923392523E+02 -0.36813499994E+02  0.90212191351E+02  0.98161298582E+02  0.00000000000E+00 0. -1.
        -13    1    3    3    0    0 -0.39159909614E+02  0.29565482413E+02  0.54868100848E+02  0.73607912360E+02  0.00000000000E+00 0. -1.
         13    1    3    3    0    0  0.16932647399E+02 -0.40108241368E+02  0.84616417352E+02  0.95159464369E+02  0.00000000000E+00 0.  1.
         -1    1    1    2    0  502 -0.41969541930E+02  0.12198319069E+03 -0.14903190423E+02  0.12985933292E+03  0.00000000000E+00 0.  1.
<scales pt_clust_5="13000.00000" pt_clust_6="13000.00000" pt_clust_7="13000.00000" pt_clust_8="13000.00000" pt_clust_9="128.49643"></scales>
<clustering>
<clus scale="   91.768">  7  8 -1 -1</clus>
<clus scale="   93.131">  5  6 -1 -1</clus>
<clus scale="   95.008">  1  7  2 -1</clus>
<clus scale="  128.496">  2  9  1 -1</clus>
<clus scale="  128.496">  2  5  1 -1</clus>
</clustering>
</event>
<event>
 9    1  0.1504846E-005  0.2397587E+03  0.7546771E-02  0.1130964E+00
          2   -1    0    0  502    0 -0.00000000000E+00  0.00000000000E+00  0.14737144987E+04  0.14737144987E+04  0.00000000000E+00 0. -1.
         21   -1    0    0  501  502  0.00000000000E+00 -0.00000000000E+00 -0.11169878204E+03  0.11169878204E+03  0.00000000000E+00 0. -1.
         23    2    1    2    0    0  0.13956273751E+03  0.76357378392E+02  0.15019626859E+03  0.23639170261E+03  0.89520450358E+02 0.  0.
         23    2    1    2    0    0 -0.30518923717E+03 -0.17091181955E+03  0.10028488436E+04  0.10661057015E+04  0.92326827385E+02 0.  0.
        -11    1    3    3    0    0  0.76353439587E+02  0.46804144049E+02  0.13953863258E+03  0.16580562602E+03  0.00000000000E+00 0.  1.
         11    1    3    3    0    0  0.63209297919E+02  0.29553234343E+02  0.10657636003E+02  0.70586076593E+02  0.00000000000E+00 0. -1.
        -13    1    4    4    0    0 -0.27359130259E+03 -0.15881598763E+03  0.96405048563E+03  0.10146270535E+04  0.00000000000E+00 0. -1.
         13    1    4    4    0    0 -0.31597934576E+02 -0.12095831913E+02  0.38798357965E+02  0.51478648000E+02  0.00000000000E+00 0.  1.
          2    1    1    2  501    0  0.16562649966E+03  0.94554441154E+02  0.20897060447E+03  0.28291587666E+03  0.00000000000E+00 0. -1.
<scales pt_clust_5="13000.00000" pt_clust_6="13000.00000" pt_clust_7="13000.00000" pt_clust_8="13000.00000" pt_clust_9="221.26907"></scales>
<clustering>
<clus scale="   89.520">  5  6 -1 -1</clus>
<clus scale="   92.327">  7  8 -1 -1</clus>
<clus scale="  182.544">  1  5  2 -1</clus>
<clus scale="  221.269">  2  9  1 -1</clus>
<clus scale="  221.269">  2  5  1 -1</clus>
</clustering>
</event>
<event>
 9    1  0.1504846E-005  0.1006326E+03  0.7546771E-02  0.1287717E+00
         21   -1    0    0  501  502  0.00000000000E+00  0.00000000000E+00  0.21894261053E+02  0.21894261053E+02  0.00000000000E+00 0.  1.
         -3   -1    0    0    0  501 -0.00000000000E+00 -0.00000000000E+00 -0.90216121568E+03  0.90216121568E+03  0.00000000000E+00 0.  1.
         23    2    1    2    0    0 -0.23522509072E+02  0.61767646101E+01 -0.37057115044E+03  0.37994434082E+03  0.80269942897E+02 0.  0.
         23    2    1    2    0    0 -0.42806059552E+01 -0.55195492656E+02 -0.44326289721E+03  0.45699523590E+03  0.96425015415E+02 0.  0.
        -13    1    3    3    0    0 -0.41032677408E+02 -0.24773928682E+02 -0.19459563385E+03  0.20041179823E+03  0.00000000000E+00 0.  1.
         13    1    3    3    0    0  0.17510168336E+02  0.30950693293E+02 -0.17597551659E+03  0.17953254259E+03  0.00000000000E+00 0. -1.
        -13    1    4    4    0    0 -0.37879923239E+02  0.80790668738E+01 -0.13015741231E+03  0.13579805552E+03  0.00000000000E+00 0. -1.
         13    1    4    4    0    0  0.33599317284E+02 -0.63274559530E+02 -0.31310548490E+03  0.32119718037E+03  0.00000000000E+00 0.  1.
         -3    1    1    2    0  502  0.27803115027E+02  0.49018728046E+02 -0.66432906984E+02  0.87115900012E+02  0.00000000000E+00 0.  1.
<scales pt_clust_5="13000.00000" pt_clust_6="13000.00000" pt_clust_7="13000.00000" pt_clust_8="13000.00000" pt_clust_9="56.35467"></scales>
<clustering>
<clus scale="   56.355">  1  9  2 -1</clus>
<clus scale="   80.270">  5  6 -1 -1</clus>
<clus scale="   85.278">  2  5  1 -1</clus>
<clus scale="   96.425">  7  8 -1 -1</clus>
<clus scale="   56.355">  1  5  2 -1</clus>
</clustering>
</event>
<event>
 9    1  0.1504846E-005  0.1581881E+03  0.7546771E-02  0.1191238E+00
          1   -1    0    0  502    0 -0.00000000000E+00  0.00000000000E+00  0.93853598336E+03  0.93853598336E+03  0.00000000000E+00 0. -1.
         21   -1    0    0  501  502  0.00000000000E+00 -0.00000000000E+00 -0.61570651060E+02  0.61570651060E+02  0.00000000000E+00 0.  1.
         23    2    1    2    0    0  0.12531122105E+03 -0.44043672470E+02  0.80251074574E+03  0.81813315796E+03  0.87610615286E+02 0.  0.
         23    2    1    2    0    0 -0.10665843323E+03  0.31202358463E+02  0.62772791678E+02  0.15649230360E+03  0.90552797623E+02 0.  0.
        -11    1    3    3    0    0  0.33028977176E+02 -0.57050062515E+02  0.33440679378E+03  0.34084237807E+03  0.00000000000E+00 0.  1.
         11    1    3    3    0    0  0.92282243878E+02  0.13006390045E+02  0.46810395197E+03  0.47729077988E+03  0.00000000000E+00 0. -1.
        -13    1    4    4    0    0 -0.61570431572E+02  0.13287217896E+02  0.82773983039E+02  0.10401442434E+03  0.00000000000E+00 0. -1.
         13    1    4    4    0    0 -0.45088001657E+02  0.17915140567E+02 -0.20001191362E+02  0.52477879253E+02  0.00000000000E+00 0.  1.
          1    1    1    2  501    0 -0.18652787825E+02  0.12841314007E+02  0.11681794883E+02  0.25481172868E+02  0.00000000000E+00 0. -1.
<scales pt_clust_5="13000.00000" pt_clust_6="13000.00000" pt_clust_7="13000.00000" pt_clust_8="13000.00000" pt_clust_9="22.64566"></scales>
<clustering>
<clus scale="   22.646">  2  9  1 -1</clus>
<clus scale="   87.611">  5  6 -1 -1</clus>
<clus scale="   90.553">  7  8 -1 -1</clus>
<clus scale="  156.523">  1  5  2 -1</clus>
<clus scale="   22.646">  2  5  1 -1</clus>
</clustering>
</event>
<event>
 9    1  0.1504846E-005  0.9741328E+02  0.7546771E-02  0.1292624E+00
         -1   -1    0    0    0  501 -0.00000000000E+00  0.00000000000E+00  0.44395619953E+03  0.44395619953E+03  0.00000000000E+00 0.  1.
         21   -1    0    0  501  502  0.00000000000E+00 -0.00000000000E+00 -0.52601007255E+02  0.52601007255E+02  0.00000000000E+00 0.  1.
         23    2    1    2    0    0 -0.11296297337E+02  0.10084144351E+02  0.22434152501E+03  0.23868793964E+03  0.80084432834E+02 0.  0.
         23    2    1    2    0    0  0.45408696974E+02 -0.64376428860E+02  0.14701789595E+03  0.19070425515E+03  0.92453106208E+02 0.  0.
        -11    1    4    4    0    0  0.71174241953E+02 -0.36804479080E+02  0.12000013706E+03  0.14429267234E+03  0.00000000000E+00 0.  1.
         11    1    4    4    0    0 -0.25765544979E+02 -0.27571949780E+02  0.27017758893E+02  0.46411582804E+02  0.00000000000E+00 0. -1.
        -13    1    3    3    0    0 -0.23174631305E+02 -0.24901061066E+02  0.49997822527E+02  0.60472379115E+02  0.00000000000E+00 0.  1.
         13    1    3    3    0    0  0.11878333968E+02  0.34985205417E+02  0.17434370249E+03  0.17821556052E+03  0.00000000000E+00 0. -1.
         -1    1    1    2    0  502 -0.34112399637E+02  0.54292284509E+02  0.19995771303E+02  0.67165011994E+02  0.00000000000E+00 0.  1.
<scales pt_clust_5="13000.00000" pt_clust_6="13000.00000" pt_clust_7="13000.00000" pt_clust_8="13000.00000" pt_clust_9="64.11948"></scales>
<clustering>
<clus scale="   64.119">  2  9  1 -1</clus>
<clus scale="   80.084">  7  8 -1 -1</clus>
<clus scale="   85.763">  1  7  2 -1</clus>
<clus scale="   92.453">  5  6 -1 -1</clus>
<clus scale="   64.119">  2  5  1 -1</clus>
</clustering>
</event>
<event>
 9    1  0.1504846E-005  0.1253886E+03  0.7546771E-02  0.1235133E+00
          1   -1    0    0  502    0 -0.00000000000E+00  0.00000000000E+00  0.71025889989E+03  0.71025889989E+03  0.00000000000E+00 0. -1.
         21   -1    0    0  501  502  0.00000000000E+00 -0.00000000000E+00 -0.43488146855E+02  0.43488146855E+02  0.00000000000E+00 0. -1.
         23    2    1    2    0    0 -0.51664537307E+02 -0.66981571348E+02  0.39428225665E+03  0.41433106787E+03  0.95162915982E+02 0.  0.
         23    2    1    2    0    0  0.92721221473E+02  0.12697389459E+02  0.15374741066E+03  0.20255155999E+03  0.92900051444E+02 0.  0.
        -11    1    3    3    0    0 -0.59468250477E+01  0.24147678870E+02  0.63631751941E+02  0.68318921084E+02  0.00000000000E+00 0.  1.
         11    1    3    3    0    0 -0.45717712259E+02 -0.91129250218E+02  0.33065050471E+03  0.34601214679E+03  0.00000000000E+00 0. -1.
        -13    1    4    4    0    0  0.76485329881E+02 -0.23413856646E+02  0.13886216678E+03  0.16025266217E+03  0.00000000000E+00 0. -1.
         13    1    4    4    0    0  0.16235891593E+02  0.36111246105E+02  0.14885243878E+02  0.42298897815E+02  0.00000000000E+00 0.  1.
          1    1    1    2  501    0 -0.41056684166E+02  0.54284181889E+02  0.11874108572E+03  0.13686441888E+03  0.00000000000E+00 0. -1.
<scales pt_clust_5="13000.00000" pt_clust_6="13000.00000" pt_clust_7="13000.00000" pt_clust_8="13000.00000" pt_clust_9="68.06191"></scales>
<clustering>
<clus scale="   68.062">  2  9  1 -1</clus>
<clus scale="   92.900">  7  8 -1 -1</clus>
<clus scale="   95.163">  5  6 -1 -1</clus>
<clus scale="  123.680">  2  7  1 -1</clus>
<clus scale="   68.062">  2  5  1 -1</clus>
</clustering>
</event>
<event>
 9    1  0.1504846E-005  0.1183335E+03  0.7546771E-02  0.1247579E+00
          3   -1    0    0  502    0 -0.00000000000E+00  0.00000000000E+00  0.13166215558E+03  0.13166215558E+03  0.00000000000E+00 0. -1.
         21   -1    0    0  501  502  0.00000000000E+00 -0.00000000000E+00 -0.31197805484E+03  0.31197805484E+03  0.00000000000E+00 0. -1.
         23    2    1    2    0    0  0.39873565445E+02 -0.70984728337E+02  0.34464474746E+02  0.12746463164E+03  0.91818840234E+02 0.  0.
         23    2    1    2    0    0 -0.86415363453E+02  0.84423244218E+01 -0.47318583543E+02  0.13145648795E+03  0.86619120250E+02 0.  0.
        -11    1    4    4    0    0 -0.42939848339E+02  0.70360976482E+01  0.22660925680E+02  0.49059706463E+02  0.00000000000E+00 0. -1.
         11    1    4    4    0    0 -0.43475515114E+02  0.14062267736E+01 -0.69979509223E+02  0.82396781486E+02  0.00000000000E+00 0.  1.
        -13    1    3    3    0    0 -0.26404055277E+02 -0.75902793451E+01 -0.44578162457E+01  0.27832689437E+02  0.00000000000E+00 0.  1.
         13    1    3    3    0    0  0.66277620722E+02 -0.63394448992E+02  0.38922290991E+02  0.99631942205E+02  0.00000000000E+00 0. -1.
          3    1    1    2  501    0  0.46541798008E+02  0.62542403915E+02 -0.16746179046E+03  0.18471909082E+03  0.00000000000E+00 0. -1.
<scales pt_clust_5="13000.00000" pt_clust_6="13000.00000" pt_clust_7="13000.00000" pt_clust_8="13000.00000" pt_clust_9="77.95955"></scales>
<clustering>
<clus scale="   77.960">  2  9  1 -1</clus>
<clus scale="   86.619">  5  6 -1 -1</clus>
<clus scale="   91.819">  7  8 -1 -1</clus>
<clus scale="  114.346">  2  5  1 -1</clus>
<clus scale="   77.960">  2  5  1 -1</clus>
</clustering>
</event>
<event>
 9    1  0.1504846E-005  0.1249442E+03  0.7546771E-02  0.1235423E+00
         21   -1    0    0  501  502  0.00000000000E+00  0.00000000000E+00  0.53285148395E+02  0.53285148395E+02  0.00000000000E+00 0. -1.
          1   -1    0    0  502    0 -0.00000000000E+00 -0.00000000000E+00 -0.43602099628E+03  0.43602099628E+03  0.00000000000E+00 0. -1.
         23    2    1    2    0    0  0.83852687642E+02  0.51419587337E+02 -0.24968464956E+03  0.28345372361E+03  0.91259750254E+02 0.  0.
         23    2    1    2    0    0 -0.41107652982E+02 -0.55715347872E+02 -0.10218055776E+03  0.15295073871E+03  0.90327310192E+02 0.  0.
        -11    1    4    4    0    0 -0.21755954687E+02  0.21620031748E+02 -0.12943683580E+02  0.33290933927E+02  0.00000000000E+00 0.  1.
         11    1    4    4    0    0 -0.19351698295E+02 -0.77335379620E+02 -0.89236874183E+02  0.11965980479E+03  0.00000000000E+00 0. -1.
        -11    1    3    3    0    0  0.65786757100E+02 -0.93528473241E+01 -0.16328436607E+03  0.17628714464E+03  0.00000000000E+00 0. -1.
         11    1    3    3    0    0  0.18065930542E+02  0.60772434661E+02 -0.86400283488E+02  0.10716657897E+03  0.00000000000E+00 0.  1.
          1    1    1    2  501    0 -0.42745034660E+02  0.42957605349E+01 -0.30870640564E+02  0.52901682351E+02  0.00000000000E+00 0. -1.
<scales pt_clust_5="13000.00000" pt_clust_6="13000.00000" pt_clust_7="13000.00000" pt_clust_8="13000.00000" pt_clust_9="42.96035"></scales>
<clustering>
<clus scale="   42.960">  1  9  2 -1</clus>
<clus scale="   90.327">  5  6 -1 -1</clus>
<clus scale="   91.260">  7  8 -1 -1</clus>
<clus scale="  124.265">  1  5  2 -1</clus>
<clus scale="   42.960">  1  5  2 -1</clus>
</clustering>
</event>
<event>
 9    1  0.1504846E-005  0.1309066E+03  0.7546771E-02  0.1227853E+00
          1   -1    0    0  502    0 -0.00000000000E+00  0.00000000000E+00  0.30018753954E+03  0.30018753954E+03  0.00000000000E+00 0. -1.
         21   -1    0    0  501  502  0.00000000000E+00 -0.00000000000E+00 -0.15743020545E+03  0.15743020545E+03  0.00000000000E+00 0.  1.
         23    2    1    2    0    0 -0.60503692081E+02  0.75818359438E+02  0.22096251755E+03  0.25817186246E+03  0.91755959059E+02 0.  0.
         23    2    1    2    0    0  0.72123384925E+02 -0.44812567922E+02 -0.63446464026E+01  0.12032374179E+03  0.85015289234E+02 0.  0.
        -11    1    4    4    0    0  0.37859698108E+02 -0.51498895398E+02 -0.37008610069E+02  0.73858853141E+02  0.00000000000E+00 0.  1.
         11    1    4    4    0    0  0.34263686817E+02  0.66863274759E+01  0.30663963667E+02  0.46464888649E+02  0.00000000000E+00 0. -1.
        -13    1    3    3    0    0 -0.36734935207E+02 -0.14967292369E+02  0.67096244199E+02  0.77944732285E+02  0.00000000000E+00 0. -1.
         13    1    3    3    0    0 -0.23768756874E+02  0.90785651807E+02  0.15386627335E+03  0.18022713018E+03  0.00000000000E+00 0.  1.
          1    1    1    2  501    0 -0.11619692844E+02 -0.31005791516E+02 -0.71860537054E+02  0.79122140739E+02  0.00000000000E+00 0. -1.
<scales pt_clust_5="13000.00000" pt_clust_6="13000.00000" pt_clust_7="13000.00000" pt_clust_8="13000.00000" pt_clust_9="33.11157"></scales>
<clustering>
<clus scale="   33.112">  2  9  1 -1</clus>
<clus scale="   85.015">  5  6 -1 -1</clus>
<clus scale="   91.756">  7  8 -1 -1</clus>
<clus scale="  126.273">  2  5  1 -1</clus>
<clus scale="   33.112">  2  5  1 -1</clus>
</clustering>
</event>
<event>
 9    1  0.1504846E-005  0.9338593E+02  0.7546771E-02  0.1296357E+00
          1   -1    0    0  502    0 -0.00000000000E+00  0.00000000000E+00  0.85546400460E+03  0.85546400460E+03  0.00000000000E+00 0. -1.
         21   -1    0    0  501  502  0.00000000000E+00 -0.00000000000E+00 -0.21599871353E+02  0.21599871353E+02  0.00000000000E+00 0. -1.
         23    2    1    2    0    0  0.52498044106E+01  0.24271559952E+01  0.47572462682E+03  0.48441223281E+03  0.91147348793E+02 0.  0.
         23    2    1    2    0    0 -0.47831737539E+02  0.19049636254E+02  0.30254765274E+03  0.31940597549E+03  0.88511757662E+02 0.  0.
        -13    1    3    3    0    0 -0.55729307866E+01 -0.43292008494E+02  0.19936380684E+03  0.20408621471E+03  0.00000000000E+00 0.  1.
         13    1    3    3    0    0  0.10822735197E+02  0.45719164490E+02  0.27636081999E+03  0.28032601810E+03  0.00000000000E+00 0. -1.
        -13    1    4    4    0    0  0.19126375569E+02  0.28780794852E+02  0.11137662641E+03  0.11661434434E+03  0.00000000000E+00 0.  1.
         13    1    4    4    0    0 -0.66958113108E+02 -0.97311585976E+01  0.19117102633E+03  0.20279163116E+03  0.00000000000E+00 0. -1.
          1    1    1    2  501    0  0.42581933128E+02 -0.21476792249E+02  0.55591853680E+02  0.73245667652E+02  0.00000000000E+00 0. -1.
<scales pt_clust_5="13000.00000" pt_clust_6="13000.00000" pt_clust_7="13000.00000" pt_clust_8="13000.00000" pt_clust_9="47.69144"></scales>
<clustering>
<clus scale="   47.691">  2  9  1 -1</clus>
<clus scale="   88.512">  7  8 -1 -1</clus>
<clus scale="   90.815">  2  7  1 -1</clus>
<clus scale="   91.147">  5  6 -1 -1</clus>
<clus scale="   47.691">  2  5  1 -1</clus>
</clustering>
</event>
<event>
 9    1  0.1504846E-005  0.1065047E+03  0.7546771E-02  0.1268300E+00
         21   -1    0    0  501  502  0.00000000000E+00  0.00000000000E+00  0.64992501586E+02  0.64992501586E+02  0.00000000000E+00 0. -1.
          4   -1    0    0  502    0 -0.00000000000E+00 -0.00000000000E+00 -0.32598445337E+03  0.32598445337E+03  0.00000000000E+00 0. -1.
         23    2    1    2    0    0 -0.31546719148E+01 -0.46836381688E+02 -0.18330273691E+03  0.21027381637E+03  0.91714698320E+02 0.  0.
         23    2    1    2    0    0  0.44029094204E+02  0.46914102846E+02 -0.80569413458E+02  0.13972729226E+03  0.94301599319E+02 0.  0.
        -11    1    3    3    0    0  0.19601428092E+02  0.11096545062E+02 -0.74397748283E+01  0.23721288857E+02  0.00000000000E+00 0.  1.
         11    1    3    3    0    0 -0.22756100007E+02 -0.57932926750E+02 -0.17586296209E+03  0.18655252752E+03  0.00000000000E+00 0. -1.
        -13    1    4    4    0    0  0.41081944342E+02  0.74009551666E+02 -0.48188288707E+02  0.97402520795E+02  0.00000000000E+00 0. -1.
         13    1    4    4    0    0  0.29471498616E+01 -0.27095448820E+02 -0.32381124751E+02  0.42324771461E+02  0.00000000000E+00 0.  1.
          4    1    1    2  501    0 -0.40874422289E+02 -0.77721157842E-01  0.28801985892E+01  0.40975846324E+02  0.00000000000E+00 0. -1.
<scales pt_clust_5="13000.00000" pt_clust_6="13000.00000" pt_clust_7="13000.00000" pt_clust_8="13000.00000" pt_clust_9="40.87450"></scales>
<clustering>
<clus scale="   40.874">  1  9  2 -1</clus>
<clus scale="   91.715">  5  6 -1 -1</clus>
<clus scale="   94.302">  7  8 -1 -1</clus>
<clus scale="  104.221">  2  5  1 -1</clus>
<clus scale="   40.874">  1  5  2 -1</clus>
</clustering>
</event>
<event>
 9    1  0.1504846E-005  0.9611941E+02  0.7546771E-02  0.1290608E+00
         -1   -1    0    0    0  501 -0.00000000000E+00  0.00000000000E+00  0.13530316158E+03  0.13530316158E+03  0.00000000000E+00 0.  1.
         21   -1    0    0  501  502  0.00000000000E+00 -0.00000000000E+00 -0.10245702158E+03  0.10245702158E+03  0.00000000000E+00 0. -1.
         23    2    1    2    0    0  0.20230453926E+02 -0.19050555863E+02  0.41074098154E+02  0.10345662204E+03  0.90796454561E+02 0.  0.
         23    2    1    2    0    0 -0.11789342501E+01  0.42929022329E+02  0.11635239830E+02  0.97866105159E+02  0.87167108986E+02 0.  0.
        -11    1    3    3    0    0  0.42234462804E+02 -0.19138249661E+02  0.59024512408E+02  0.75059413223E+02  0.00000000000E+00 0.  1.
         11    1    3    3    0    0 -0.22004008878E+02  0.87693798356E-01 -0.17950414254E+02  0.28397208820E+02  0.00000000000E+00 0. -1.
        -13    1    4    4    0    0  0.10591909291E+02  0.66850627030E+02  0.18823595925E+02  0.70253274944E+02  0.00000000000E+00 0. -1.
         13    1    4    4    0    0 -0.11770843541E+02 -0.23921604701E+02 -0.71883560953E+01  0.27612830215E+02  0.00000000000E+00 0.  1.
         -1    1    1    2    0  502 -0.19051519676E+02 -0.23878466466E+02 -0.19863197985E+02  0.36437455961E+02  0.00000000000E+00 0.  1.
<scales pt_clust_5="13000.00000" pt_clust_6="13000.00000" pt_clust_7="13000.00000" pt_clust_8="13000.00000" pt_clust_9="30.54737"></scales>
<clustering>
<clus scale="   30.547">  2  9  1 -1</clus>
<clus scale="   87.167">  7  8 -1 -1</clus>
<clus scale="   90.796">  5  6 -1 -1</clus>
<clus scale="   92.699">  2  7  1 -1</clus>
<clus scale="   30.547">  2  5  1 -1</clus>
</clustering>
</event>
<event>
 9    1  0.1504846E-005  0.1422428E+03  0.7546771E-02  0.1224213E+00
         21   -1    0    0  501  502  0.00000000000E+00  0.00000000000E+00  0.78313757213E+03  0.78313757213E+03  0.00000000000E+00 0.  1.
         -2   -1    0    0    0  501 -0.00000000000E+00 -0.00000000000E+00 -0.98288679963E+02  0.98288679963E+02  0.00000000000E+00 0.  1.
         23    2    1    2    0    0  0.11374634601E+02 -0.52582239686E+02  0.95741267798E+01  0.10659153273E+03  0.91519488109E+02 0.  0.
         23    2    1    2    0    0  0.10250020271E+03  0.44030624475E+02  0.67876160110E+02  0.15679453103E+03  0.86789195206E+02 0.  0.
        -11    1    4    4    0    0  0.11372978697E+03  0.21747834560E+02  0.61177875200E+02  0.13095863914E+03  0.00000000000E+00 0.  1.
         11    1    4    4    0    0 -0.11229584262E+02  0.22282789915E+02  0.66982849105E+01  0.25835891892E+02  0.00000000000E+00 0. -1.
        -13    1    3    3    0    0  0.20329751856E+02  0.14646430293E+02  0.26725221856E+02  0.36634058117E+02  0.00000000000E+00 0.  1.
         13    1    3    3    0    0 -0.89551172556E+01 -0.67228669979E+02 -0.17151095076E+02  0.69957474615E+02  0.00000000000E+00 0. -1.
         -2    1    1    2    0  502 -0.11387483731E+03  0.85516152111E+01  0.60739860527E+03  0.61804018832E+03  0.00000000000E+00 0.  1.
<scales pt_clust_5="13000.00000" pt_clust_6="13000.00000" pt_clust_7="13000.00000" pt_clust_8="13000.00000" pt_clust_9="112.69717"></scales>
<clustering>
<clus scale="   86.789">  5  6 -1 -1</clus>
<clus scale="   91.519">  7  8 -1 -1</clus>
<clus scale="  106.161">  2  7  1 -1</clus>
<clus scale="  112.697">  1  9  2 -1</clus>
<clus scale="  112.697">  1  5  2 -1</clus>
</clustering>
</event>
<event>
 9    1  0.1504846E-005  0.1248400E+03  0.7546771E-02  0.1235725E+00
         21   -1    0    0  501  502  0.00000000000E+00  0.00000000000E+00  0.55247567696E+02  0.55247567696E+02  0.00000000000E+00 0. -1.
          1   -1    0    0  502    0 -0.00000000000E+00 -0.00000000000E+00 -0.11995822887E+04  0.11995822887E+04  0.00000000000E+00 0. -1.
         23    2    1    2    0    0 -0.75309760894E+02 -0.35179898926E+01 -0.63709276498E+03  0.64794359021E+03  0.90883268892E+02 0.  0.
         23    2    1    2    0    0  0.10119250950E+03 -0.19622484929E+01 -0.54460350297E+03  0.56110597703E+03  0.89460424857E+02 0.  0.
        -11    1    4    4    0    0  0.51185052059E+02  0.37446739659E+02 -0.17676566670E+03  0.18779847920E+03  0.00000000000E+00 0.  1.
         11    1    4    4    0    0  0.50007457441E+02 -0.39408988152E+02 -0.36783783627E+03  0.37330749783E+03  0.00000000000E+00 0. -1.
        -13    1    3    3    0    0  0.85759839402E+01  0.26753062144E+02 -0.12248793652E+03  0.12566848621E+03  0.00000000000E+00 0. -1.
         13    1    3    3    0    0 -0.83885744835E+02 -0.30271052036E+02 -0.51460482846E+03  0.52227510400E+03  0.00000000000E+00 0.  1.
          1    1    1    2  501    0 -0.25882748606E+02  0.54802383855E+01  0.37361546927E+02  0.45780289175E+02  0.00000000000E+00 0. -1.
<scales pt_clust_5="13000.00000" pt_clust_6="13000.00000" pt_clust_7="13000.00000" pt_clust_8="13000.00000" pt_clust_9="26.45656"></scales>
<clustering>
<clus scale="   26.457">  1  9  2 -1</clus>
<clus scale="   89.460">  5  6 -1 -1</clus>
<clus scale="   90.883">  7  8 -1 -1</clus>
<clus scale="  123.808">  1  5  2 -1</clus>
<clus scale="   26.457">  1  5  2 -1</clus>
</clustering>
</event>
<event>
 9    1  0.1504846E-005  0.9681027E+02  0.7546771E-02  0.1287940E+00
          2   -1    0    0  502    0 -0.00000000000E+00  0.00000000000E+00  0.66713763217E+03  0.66713763217E+03  0.00000000000E+00 0. -1.
         21   -1    0    0  501  502  0.00000000000E+00 -0.00000000000E+00 -0.44815629977E+02  0.44815629977E+02  0.00000000000E+00 0. -1.
         23    2    1    2    0    0  0.43507218530E+02 -0.14979415799E+02  0.40043133014E+03  0.41299679520E+03  0.90021340425E+02 0.  0.
         23    2    1    2    0    0 -0.11805160707E+02  0.23193470565E+01  0.24222563290E+03  0.25922224437E+03  0.91532363409E+02 0.  0.
        -11    1    4    4    0    0 -0.36582575607E+02 -0.22028853074E+02  0.59583512312E+02  0.73305867059E+02  0.00000000000E+00 0.  1.
         11    1    4    4    0    0  0.24777414900E+02  0.24348200131E+02  0.18264212059E+03  0.18591637731E+03  0.00000000000E+00 0. -1.
        -13    1    3    3    0    0 -0.22322932155E+02 -0.21139266022E+02  0.77676953651E+02  0.83539756981E+02  0.00000000000E+00 0.  1.
         13    1    3    3    0    0  0.65830150685E+02  0.61598502230E+01  0.32275437648E+03  0.32945703822E+03  0.00000000000E+00 0. -1.
          2    1    1    2  501    0 -0.31702057822E+02  0.12660068743E+02 -0.20334960847E+02  0.39734222572E+02  0.00000000000E+00 0. -1.
<scales pt_clust_5="13000.00000" pt_clust_6="13000.00000" pt_clust_7="13000.00000" pt_clust_8="13000.00000" pt_clust_9="34.13646"></scales>
<clustering>
<clus scale="   34.136">  2  9  1 -1</clus>
<clus scale="   90.021">  7  8 -1 -1</clus>
<clus scale="   91.532">  5  6 -1 -1</clus>
<clus scale="   95.383">  1  7  2 -1</clus>
<clus scale="   34.136">  2  5  1 -1</clus>
</clustering>
</event>
<event>
 9    1  0.1504846E-005  0.1285976E+03  0.7546771E-02  0.1229672E+00
         -4   -1    0    0    0  501 -0.00000000000E+00  0.00000000000E+00  0.46746802003E+03  0.46746802003E+03  0.00000000000E+00 0.  1.
         21   -1    0    0  501  502  0.00000000000E+00 -0.00000000000E+00 -0.64166695931E+02  0.64166695931E+02  0.00000000000E+00 0.  1.
         23    2    1    2    0    0 -0.96038840812E+02 -0.48581727174E+01  0.30092256246E+03  0.32886006969E+03  0.91364632390E+02 0.  0.
         23    2    1    2    0    0  0.76107063905E+02  0.33893828651E+02  0.11165830929E+03  0.16635411565E+03  0.90912248686E+02 0.  0.
        -11    1    3    3    0    0 -0.65546950656E+02  0.40277892315E+02  0.19781824262E+03  0.21225166304E+03  0.00000000000E+00 0.  1.
         11    1    3    3    0    0 -0.30491890156E+02 -0.45136065032E+02  0.10310431985E+03  0.11660840666E+03  0.00000000000E+00 0. -1.
        -13    1    4    4    0    0  0.89328179456E+02  0.83597128811E+01  0.62288334565E+02  0.10922108344E+03  0.00000000000E+00 0.  1.
         13    1    4    4    0    0 -0.13221115551E+02  0.25534115770E+02  0.49369974729E+02  0.57133032209E+02  0.00000000000E+00 0. -1.
         -4    1    1    2    0  502  0.19931776907E+02 -0.29035655934E+02 -0.92795476575E+01  0.36420530624E+02  0.00000000000E+00 0.  1.
<scales pt_clust_5="13000.00000" pt_clust_6="13000.00000" pt_clust_7="13000.00000" pt_clust_8="13000.00000" pt_clust_9="35.21853"></scales>
<clustering>
<clus scale="   35.219">  2  9  1 -1</clus>
<clus scale="   90.912">  7  8 -1 -1</clus>
<clus scale="   91.365">  5  6 -1 -1</clus>
<clus scale="  128.277">  2  7  1 -1</clus>
<clus scale="   35.219">  2  5  1 -1</clus>
</clustering>
</event>
<event>
 9    1  0.1504846E-005  0.1537443E+03  0.7546771E-02  0.1196057E+00
          2   -1    0    0  502    0 -0.00000000000E+00  0.00000000000E+00  0.10079000497E+04  0.10079000497E+04  0.00000000000E+00 0. -1.
         21   -1    0    0  501  502  0.00000000000E+00 -0.00000000000E+00 -0.57346651569E+02  0.57346651569E+02  0.00000000000E+00 0.  1.
         23    2    1    2    0    0 -0.56326087740E+02 -0.10197255952E+03  0.75375423227E+03  0.76866402478E+03  0.95540092484E+02 0.  0.
         23    2    1    2    0    0  0.59210723729E+02  0.12977404026E+03  0.10710906158E+03  0.20263823407E+03  0.96138917727E+02 0.  0.
        -13    1    4    4    0    0  0.35618318507E+02  0.13594716332E+03  0.10946610375E+03  0.17813793447E+03  0.00000000000E+00 0.  1.
         13    1    4    4    0    0  0.23592405222E+02 -0.61731230550E+01 -0.23570421693E+01  0.24500299594E+02  0.00000000000E+00 0. -1.
        -13    1    3    3    0    0 -0.83140756530E+02 -0.80643754939E+02  0.60826861128E+03  0.61919827525E+03  0.00000000000E+00 0. -1.
         13    1    3    3    0    0  0.26814668790E+02 -0.21328804583E+02  0.14548562099E+03  0.14946574953E+03  0.00000000000E+00 0.  1.
          2    1    1    2  501    0 -0.28846359893E+01 -0.27801480741E+02  0.89690104246E+02  0.93944442389E+02  0.00000000000E+00 0. -1.
<scales pt_clust_5="13000.00000" pt_clust_6="13000.00000" pt_clust_7="13000.00000" pt_clust_8="13000.00000" pt_clust_9="27.95075"></scales>
<clustering>
<clus scale="   27.951">  2  9  1 -1</clus>
<clus scale="   95.540">  7  8 -1 -1</clus>
<clus scale="   96.139">  5  6 -1 -1</clus>
<clus scale="  153.371">  1  7  2 -1</clus>
<clus scale="   27.951">  2  5  1 -1</clus>
</clustering>
</event>
<event>
 9    1  0.1504846E-005  0.1124625E+03  0.7546771E-02  0.1257662E+00
         21   -1    0    0  501  502  0.00000000000E+00  0.00000000000E+00  0.23905576165E+03  0.23905576165E+03  0.00000000000E+00 0.  1.
         -3   -1    0    0    0  501 -0.00000000000E+00 -0.00000000000E+00 -0.16870935624E+03  0.16870935624E+03  0.00000000000E+00 0.  1.
         23    2    1    2    0    0 -0.51944946096E+01  0.80933868421E+02 -0.34107351665E+02  0.12225189157E+03  0.84881916353E+02 0.  0.
         23    2    1    2    0    0  0.80393859370E+02 -0.25879107821E+02 -0.25569631950E+02  0.12553806318E+03  0.89292207852E+02 0.  0.
        -11    1    3    3    0    0 -0.31052362007E+02  0.81695083724E+02 -0.11988769335E+02  0.88216021680E+02  0.00000000000E+00 0.  1.
         11    1    3    3    0    0  0.25857867398E+02 -0.76121530278E+00 -0.22118582329E+02  0.34035869893E+02  0.00000000000E+00 0. -1.
        -11    1    4    4    0    0  0.22163116624E+02 -0.24264158530E+01 -0.52645305786E+02  0.57171841440E+02  0.00000000000E+00 0.  1.
         11    1    4    4    0    0  0.58230742746E+02 -0.23452691968E+02  0.27075673837E+02  0.68366221740E+02  0.00000000000E+00 0. -1.
         -3    1    1    2    0  502 -0.75199364760E+02 -0.55054760600E+02  0.13002338903E+03  0.15997516313E+03  0.00000000000E+00 0.  1.
<scales pt_clust_5="13000.00000" pt_clust_6="13000.00000" pt_clust_7="13000.00000" pt_clust_8="13000.00000" pt_clust_9="93.19856"></scales>
<clustering>
<clus scale="   84.882">  5  6 -1 -1</clus>
<clus scale="   89.292">  7  8 -1 -1</clus>
<clus scale="   93.199">  1  9  2 -1</clus>
<clus scale="  108.994">  2  5  1 -1</clus>
<clus scale="   93.199">  1  5  2 -1</clus>
</clustering>
</event>
<event>
 9    1  0.1504846E-005  0.9436468E+02  0.7546771E-02  0.1294774E+00
          1   -1    0    0  502    0 -0.00000000000E+00  0.00000000000E+00  0.38947061767E+03  0.38947061767E+03  0.00000000000E+00 0. -1.
         21   -1    0    0  501  502  0.00000000000E+00 -0.00000000000E+00 -0.60222736499E+02  0.60222736499E+02  0.00000000000E+00 0.  1.
         23    2    1    2    0    0 -0.14103533941E+02  0.17509289619E+02  0.19281339018E+03  0.21491278436E+03  0.92222646644E+02 0.  0.
         23    2    1    2    0    0 -0.14906652138E+02 -0.22662980385E+02  0.16789345131E+03  0.19167816143E+03  0.88410902153E+02 0.  0.
        -11    1    3    3    0    0 -0.38137196259E+02 -0.23701809248E+02  0.11719994405E+03  0.12550716468E+03  0.00000000000E+00 0.  1.
         11    1    3    3    0    0  0.24033662318E+02  0.41211098867E+02  0.75613446131E+02  0.89405619678E+02  0.00000000000E+00 0. -1.
        -13    1    4    4    0    0  0.30320764915E+02  0.14530186006E+02  0.68811280398E+02  0.76586339516E+02  0.00000000000E+00 0. -1.
         13    1    4    4    0    0 -0.45227417053E+02 -0.37193166392E+02  0.99082170908E+02  0.11509182191E+03  0.00000000000E+00 0.  1.
          1    1    1    2  501    0  0.29010186079E+02  0.51536907666E+01 -0.31458960312E+02  0.43102408387E+02  0.00000000000E+00 0. -1.
<scales pt_clust_5="13000.00000" pt_clust_6="13000.00000" pt_clust_7="13000.00000" pt_clust_8="13000.00000" pt_clust_9="29.46441"></scales>
<clustering>
<clus scale="   29.464">  2  9  1 -1</clus>
<clus scale="   88.411">  7  8 -1 -1</clus>
<clus scale="   90.643">  2  7  1 -1</clus>
<clus scale="   92.223">  5  6 -1 -1</clus>
<clus scale="   29.464">  2  5  1 -1</clus>
</clustering>
</event>
<event>
 9    1  0.1504846E-005  0.1019781E+03  0.7546771E-02  0.1279166E+00
         21   -1    0    0  501  502  0.00000000000E+00  0.00000000000E+00  0.48538808788E+03  0.48538808788E+03  0.00000000000E+00 0. -1.
         -3   -1    0    0    0  501 -0.00000000000E+00 -0.00000000000E+00 -0.44045935605E+03  0.44045935605E+03  0.00000000000E+00 0.  1.
         23    2    1    2    0    0  0.31282357586E+02 -0.51508770809E+01 -0.42434566389E+03  0.43513596434E+03  0.90933753745E+02 0.  0.
         23    2    1    2    0    0 -0.33746284514E+02  0.30786570427E+02  0.28169440525E+03  0.30137180457E+03  0.96884477627E+02 0.  0.
        -13    1    3    3    0    0  0.49222486104E+02  0.27350696673E+02 -0.20155085067E+03  0.20926934595E+03  0.00000000000E+00 0. -1.
         13    1    3    3    0    0 -0.17940128518E+02 -0.32501573754E+02 -0.22279481322E+03  0.22586661839E+03  0.00000000000E+00 0.  1.
        -13    1    4    4    0    0 -0.39831635474E+02 -0.98221562046E+01  0.44006752177E+02  0.60163345770E+02  0.00000000000E+00 0.  1.
         13    1    4    4    0    0  0.60853509594E+01  0.40608726632E+02  0.23768765307E+03  0.24120845880E+03  0.00000000000E+00 0. -1.
         -3    1    1    2    0  502  0.24639269281E+01 -0.25635693346E+02  0.18757999048E+03  0.18933967502E+03  0.00000000000E+00 0.  1.
<scales pt_clust_5="13000.00000" pt_clust_6="13000.00000" pt_clust_7="13000.00000" pt_clust_8="13000.00000" pt_clust_9="25.75383"></scales>
<clustering>
<clus scale="   25.754">  1  9  2 -1</clus>
<clus scale="   90.934">  5  6 -1 -1</clus>
<clus scale="   96.343">  2  5  1 -1</clus>
<clus scale="   96.884">  7  8 -1 -1</clus>
<clus scale="   25.754">  1  5  2 -1</clus>
</clustering>
</event>
<event>
 9    1  0.1504846E-005  0.1187563E+03  0.7546771E-02  0.1246045E+00
         21   -1    0    0  501  502  0.00000000000E+00  0.00000000000E+00  0.34837731061E+03  0.34837731061E+03  0.00000000000E+00 0. -1.
         -2   -1    0    0    0  501 -0.00000000000E+00 -0.00000000000E+00 -0.38211892044E+03  0.38211892044E+03  0.00000000000E+00 0.  1.
         23    2    1    2    0    0  0.23479138263E+02  0.74335468136E+02 -0.34817531626E+03  0.36705213970E+03  0.86163743213E+02 0.  0.
         23    2    1    2    0    0 -0.45583876735E+02 -0.92882777196E+02  0.30317609179E+03  0.33247061846E+03  0.88971171660E+02 0.  0.
        -11    1    3    3    0    0  0.56330754795E+02  0.47400642891E+02 -0.22775211625E+03  0.23935538711E+03  0.00000000000E+00 0. -1.
         11    1    3    3    0    0 -0.32851616532E+02  0.26934825245E+02 -0.12042320002E+03  0.12769675259E+03  0.00000000000E+00 0.  1.
        -11    1    4    4    0    0 -0.17206269269E+02 -0.34219410780E+02  0.22699219464E+02  0.44522784511E+02  0.00000000000E+00 0.  1.
         11    1    4    4    0    0 -0.28377607466E+02 -0.58663366416E+02  0.28047687233E+03  0.28794783395E+03  0.00000000000E+00 0. -1.
         -2    1    1    2    0  502  0.22104738472E+02  0.18547309060E+02  0.11257614642E+02  0.30973472904E+02  0.00000000000E+00 0.  1.
<scales pt_clust_5="13000.00000" pt_clust_6="13000.00000" pt_clust_7="13000.00000" pt_clust_8="13000.00000" pt_clust_9="28.85519"></scales>
<clustering>
<clus scale="   28.855">  1  9  2 -1</clus>
<clus scale="   86.164">  5  6 -1 -1</clus>
<clus scale="   88.971">  7  8 -1 -1</clus>
<clus scale="  116.668">  2  5  1 -1</clus>
<clus scale="   28.855">  1  5  2 -1</clus>
</clustering>
</event>
<event>
 9    1  0.1504846E-005  0.1110671E+03  0.7546771E-02  0.1258743E+00
          2   -1    0    0  502    0 -0.00000000000E+00  0.00000000000E+00  0.84505714614E+03  0.84505714614E+03  0.00000000000E+00 0. -1.
         21   -1    0    0  501  502  0.00000000000E+00 -0.00000000000E+00 -0.22309025867E+02  0.22309025867E+02  0.00000000000E+00 0.  1.
         23    2    1    2    0    0  0.45413053600E+02  0.42086372853E+02  0.36273751586E+03  0.37895567942E+03  0.90527859439E+02 0.  0.
         23    2    1    2    0    0 -0.73483985574E+02 -0.85295331179E+01  0.37627296767E+03  0.39393282050E+03  0.90161365344E+02 0.  0.
        -11    1    3    3    0    0  0.12291329115E+02  0.63537868045E+02  0.16338512551E+03  0.17573513219E+03  0.00000000000E+00 0. -1.
         11    1    3    3    0    0  0.33121724485E+02 -0.21451495192E+02  0.19935239035E+03  0.20322054723E+03  0.00000000000E+00 0.  1.
        -11    1    4    4    0    0 -0.47178473861E+02 -0.41061646785E+02  0.13157429115E+03  0.14568342844E+03  0.00000000000E+00 0.  1.
         11    1    4    4    0    0 -0.26305511712E+02  0.32532113667E+02  0.24469867652E+03  0.24824939206E+03  0.00000000000E+00 0. -1.
          2    1    1    2  501    0  0.28070931973E+02 -0.33556839735E+02  0.83737636740E+02  0.94477672080E+02  0.00000000000E+00 0. -1.
<scales pt_clust_5="13000.00000" pt_clust_6="13000.00000" pt_clust_7="13000.00000" pt_clust_8="13000.00000" pt_clust_9="43.74973"></scales>
<clustering>
<clus scale="   43.750">  2  9  1 -1</clus>
<clus scale="   90.161">  7  8 -1 -1</clus>
<clus scale="   90.528">  5  6 -1 -1</clus>
<clus scale="  110.769">  2  7  1 -1</clus>
<clus scale="   43.750">  2  5  1 -1</clus>
</clustering>
</event>
<event>
 9    1  0.1504846E-005  0.1118379E+03  0.7546771E-02  0.1258006E+00
          4   -1    0    0  502    0 -0.00000000000E+00  0.00000000000E+00  0.14671286314E+03  0.14671286314E+03  0.00000000000E+00 0. -1.
         21   -1    0    0  501  502  0.00000000000E+00 -0.00000000000E+00 -0.13906369881E+03  0.13906369881E+03  0.00000000000E+00 0. -1.
         23    2    1    2    0    0  0.67734621580E+02 -0.95678605780E+01  0.32967823152E+02  0.11831241869E+03  0.90727218279E+02 0.  0.
         23    2    1    2    0    0 -0.42996896818E+02  0.46268814267E+02  0.72205444556E+01  0.11253041247E+03  0.92851608274E+02 0.  0.
        -11    1    3    3    0    0  0.18107455412E+02  0.20230347927E+02 -0.24626452088E+02  0.36655273307E+02  0.00000000000E+00 0.  1.
         11    1    3    3    0    0  0.49627166168E+02 -0.29798208505E+02  0.57594275240E+02  0.81657145385E+02  0.00000000000E+00 0. -1.
        -13    1    4    4    0    0  0.24107498690E+02  0.31010331101E+02 -0.12015242856E+02  0.41075274667E+02  0.00000000000E+00 0.  1.
         13    1    4    4    0    0 -0.67104395509E+02  0.15258483167E+02  0.19235787311E+02  0.71455137804E+02  0.00000000000E+00 0. -1.
          4    1    1    2  501    0 -0.24737724762E+02 -0.36700953689E+02 -0.32539203279E+02  0.54933730786E+02  0.00000000000E+00 0. -1.
<scales pt_clust_5="13000.00000" pt_clust_6="13000.00000" pt_clust_7="13000.00000" pt_clust_8="13000.00000" pt_clust_9="44.25963"></scales>
<clustering>
<clus scale="   44.260">  2  9  1 -1</clus>
<clus scale="   90.727">  5  6 -1 -1</clus>
<clus scale="   92.852">  7  8 -1 -1</clus>
<clus scale="  110.081">  1  5  2 -1</clus>
<clus scale="   44.260">  2  5  1 -1</clus>
</clustering>
</event>
<event>
 9    1  0.1504846E-005  0.1109824E+03  0.7546771E-02  0.1261421E+00
         21   -1    0    0  501  502  0.00000000000E+00  0.00000000000E+00  0.24362168806E+02  0.24362168806E+02  0.00000000000E+00 0.  1.
          1   -1    0    0  502    0 -0.00000000000E+00 -0.00000000000E+00 -0.91946679849E+03  0.91946679849E+03  0.00000000000E+00 0. -1.
         23    2    1    2    0    0  0.15933986085E+02  0.63591334925E+02 -0.58942599014E+03  0.59944022342E+03  0.87222897288E+02 0.  0.
         23    2    1    2    0    0  0.22014731596E+02 -0.49122460656E+02 -0.26773547117E+03  0.28880873378E+03  0.93970940385E+02 0.  0.
        -11    1    3    3    0    0 -0.21991579511E+02  0.67285548326E+02 -0.36468706084E+03  0.37149377777E+03  0.00000000000E+00 0. -1.
         11    1    3    3    0    0  0.37925565596E+02 -0.36942134007E+01 -0.22473892930E+03  0.22794644565E+03  0.00000000000E+00 0.  1.
        -11    1    4    4    0    0  0.18885345849E+02  0.25254582992E+02 -0.10925561327E+03  0.11371560703E+03  0.00000000000E+00 0. -1.
         11    1    4    4    0    0  0.31293857470E+01 -0.74377043648E+02 -0.15847985789E+03  0.17509312675E+03  0.00000000000E+00 0.  1.
          1    1    1    2  501    0 -0.37948717681E+02 -0.14468874269E+02 -0.37943168380E+02  0.55580010103E+02  0.00000000000E+00 0. -1.
<scales pt_clust_5="13000.00000" pt_clust_6="13000.00000" pt_clust_7="13000.00000" pt_clust_8="13000.00000" pt_clust_9="40.61346"></scales>
<clustering>
<clus scale="   40.613">  1  9  2 -1</clus>
<clus scale="   87.223">  5  6 -1 -1</clus>
<clus scale="   93.971">  7  8 -1 -1</clus>
<clus scale="  105.330">  2  5  1 -1</clus>
<clus scale="   40.613">  1  5  2 -1</clus>
</clustering>
</event>
<event>
 9    1  0.1504846E-005  0.1263285E+03  0.7546771E-02  0.1233903E+00
         21   -1    0    0  501  502  0.00000000000E+00  0.00000000000E+00  0.22389927022E+03  0.22389927022E+03  0.00000000000E+00 0. -1.
          1   -1    0    0  502    0 -0.00000000000E+00 -0.00000000000E+00 -0.21986383473E+03  0.21986383473E+03  0.00000000000E+00 0. -1.
         23    2    1    2    0    0  0.67480059803E+02 -0.36069389402E+02 -0.89595012954E+02  0.15019714726E+03  0.93152334253E+02 0.  0.
         23    2    1    2    0    0 -0.39830789291E+02  0.13546286144E+03  0.24137740411E+02  0.16917632423E+03  0.90007330606E+02 0.  0.
        -13    1    3    3    0    0  0.10791291893E+02 -0.51290545691E+02 -0.71735770337E+02  0.88843642451E+02  0.00000000000E+00 0.  1.
         13    1    3    3    0    0  0.56688767910E+02  0.15221156289E+02 -0.17859242617E+02  0.61353504812E+02  0.00000000000E+00 0. -1.
        -13    1    4    4    0    0  0.22960681826E+02  0.62531581378E+02  0.29359596014E+02  0.72796823129E+02  0.00000000000E+00 0.  1.
         13    1    4    4    0    0 -0.62791471117E+02  0.72931280058E+02 -0.52218556033E+01  0.96379501098E+02  0.00000000000E+00 0. -1.
          1    1    1    2  501    0 -0.27649270512E+02 -0.99393472035E+02  0.69492708030E+02  0.12438963346E+03  0.00000000000E+00 0. -1.
<scales pt_clust_5="13000.00000" pt_clust_6="13000.00000" pt_clust_7="13000.00000" pt_clust_8="13000.00000" pt_clust_9="103.16756"></scales>
<clustering>
<clus scale="   90.007">  7  8 -1 -1</clus>
<clus scale="   93.152">  5  6 -1 -1</clus>
<clus scale="  103.168">  1  9  2 -1</clus>
<clus scale="  124.028">  1  7  2 -1</clus>
<clus scale="  103.168">  1  5  2 -1</clus>
</clustering>
</event>
<event>
 9    1  0.1504846E-005  0.9626364E+02  0.7546771E-02  0.1289368E+00
          2   -1    0    0  502    0 -0.00000000000E+00  0.00000000000E+00  0.41799775454E+03  0.41799775454E+03  0.00000000000E+00 0. -1.
         21   -1    0    0  501  502  0.00000000000E+00 -0.00000000000E+00 -0.12764655947E+03  0.12764655947E+03  0.00000000000E+00 0.  1.
         23    2    1    2    0    0  0.24539013029E+02  0.16698867621E+02  0.37757323082E+03  0.38968266029E+03  0.91706138100E+02 0.  0.
         23    2    1    2    0    0 -0.79534020279E+00 -0.37624205009E+02 -0.70101617408E+02  0.11997915147E+03  0.89802820982E+02 0.  0.
        -11    1    4    4    0    0  0.32053354135E+02 -0.49068581957E+02 -0.59724913436E+02  0.83679200113E+02  0.00000000000E+00 0.  1.
         11    1    4    4    0    0 -0.32848694338E+02  0.11444376947E+02 -0.10376703972E+02  0.36299951360E+02  0.00000000000E+00 0. -1.
        -11    1    3    3    0    0  0.26463030960E+02  0.52890354762E+02  0.20589154924E+03  0.21421720679E+03  0.00000000000E+00 0. -1.
         11    1    3    3    0    0 -0.19240179303E+01 -0.36191487141E+02  0.17168168157E+03  0.17546545351E+03  0.00000000000E+00 0.  1.
          2    1    1    2  501    0 -0.23743672827E+02  0.20925337388E+02 -0.17120418337E+02  0.35982502250E+02  0.00000000000E+00 0. -1.
<scales pt_clust_5="13000.00000" pt_clust_6="13000.00000" pt_clust_7="13000.00000" pt_clust_8="13000.00000" pt_clust_9="31.64857"></scales>
<clustering>
<clus scale="   31.649">  2  9  1 -1</clus>
<clus scale="   89.803">  5  6 -1 -1</clus>
<clus scale="   91.706">  7  8 -1 -1</clus>
<clus scale="   94.452">  2  5  1 -1</clus>
<clus scale="   31.649">  2  5  1 -1</clus>
</clustering>
</event>
<event>
 9    1  0.1504846E-005  0.1621560E+03  0.7546771E-02  0.1186306E+00
         -1   -1    0    0    0  501 -0.00000000000E+00  0.00000000000E+00  0.34393807307E+03  0.34393807307E+03  0.00000000000E+00 0.  1.
         21   -1    0    0  501  502  0.00000000000E+00 -0.00000000000E+00 -0.14516594783E+03  0.14516594783E+03  0.00000000000E+00 0.  1.
         23    2    1    2    0    0  0.12772374893E+03  0.59246023765E+02  0.22006711822E+03  0.27675320479E+03  0.91320055123E+02 0.  0.
         23    2    1    2    0    0 -0.96170209349E+02 -0.72436016113E+02  0.26577865452E+02  0.15351704748E+03  0.91462644492E+02 0.  0.
        -11    1    4    4    0    0 -0.10758568957E+02 -0.63744625350E+02  0.18738448383E+02  0.67307157976E+02  0.00000000000E+00 0.  1.
         11    1    4    4    0    0 -0.85411640391E+02 -0.86913907632E+01  0.78394170697E+01  0.86209889501E+02  0.00000000000E+00 0. -1.
        -11    1    3    3    0    0  0.58259670206E+01  0.41690464351E+02  0.36587520539E+02  0.55773500595E+02  0.00000000000E+00 0. -1.
         11    1    3    3    0    0  0.12189778191E+03  0.17555559414E+02  0.18347959768E+03  0.22097970419E+03  0.00000000000E+00 0.  1.
         -1    1    1    2    0  502 -0.31553539586E+02  0.13189992348E+02 -0.47872858422E+02  0.58833768637E+02  0.00000000000E+00 0.  1.
<scales pt_clust_5="13000.00000" pt_clust_6="13000.00000" pt_clust_7="13000.00000" pt_clust_8="13000.00000" pt_clust_9="34.19944"></scales>
<clustering>
<clus scale="   34.199">  2  9  1 -1</clus>
<clus scale="   91.320">  7  8 -1 -1</clus>
<clus scale="   91.463">  5  6 -1 -1</clus>
<clus scale="  162.076">  1  7  2 -1</clus>
<clus scale="   34.199">  2  5  1 -1</clus>
</clustering>
</event>
<event>
 9    1  0.1504846E-005  0.1080892E+03  0.7546771E-02  0.1267966E+00
         21   -1    0    0  501  502  0.00000000000E+00  0.00000000000E+00  0.94627330101E+02  0.94627330101E+02  0.00000000000E+00 0. -1.
          1   -1    0    0  502    0 -0.00000000000E+00 -0.00000000000E+00 -0.62588582773E+03  0.62588582773E+03  0.00000000000E+00 0. -1.
         23    2    1    2    0    0 -0.34849659554E+02 -0.41098434463E+02 -0.38177148843E+03  0.39566372549E+03  0.88863570724E+02 0.  0.
         23    2    1    2    0    0  0.53757983067E+02 -0.16671823051E+02 -0.21050254858E+03  0.23872264558E+03  0.97515681455E+02 0.  0.
        -11    1    3    3    0    0  0.28631297541E+02 -0.59708763795E+01 -0.14915660895E+03  0.15199702812E+03  0.00000000000E+00 0. -1.
         11    1    3    3    0    0 -0.63480957095E+02 -0.35127558083E+02 -0.23261487948E+03  0.24366669737E+03  0.00000000000E+00 0.  1.
        -13    1    4    4    0    0  0.41204334263E+02  0.19033930694E+02 -0.19066051388E+03  0.19598856914E+03  0.00000000000E+00 0. -1.
         13    1    4    4    0    0  0.12553648804E+02 -0.35705753745E+02 -0.19842034699E+02  0.42734076447E+02  0.00000000000E+00 0.  1.
          1    1    1    2  501    0 -0.18908323513E+02  0.57770257514E+02  0.61015539381E+02  0.86126786758E+02  0.00000000000E+00 0. -1.
<scales pt_clust_5="13000.00000" pt_clust_6="13000.00000" pt_clust_7="13000.00000" pt_clust_8="13000.00000" pt_clust_9="60.78591"></scales>
<clustering>
<clus scale="   60.786">  1  9  2 -1</clus>
<clus scale="   88.864">  5  6 -1 -1</clus>
<clus scale="   97.516">  7  8 -1 -1</clus>
<clus scale="  100.353">  2  5  1 -1</clus>
<clus scale="   60.786">  1  5  2 -1</clus>
</clustering>
</event>
<event>
 9    1  0.1504846E-005  0.1055176E+03  0.7546771E-02  0.1269316E+00
         21   -1    0    0  501  502  0.00000000000E+00  0.00000000000E+00  0.12084935710E+03  0.12084935710E+03  0.00000000000E+00 0. -1.
          2   -1    0    0  502    0 -0.00000000000E+00 -0.00000000000E+00 -0.22528337311E+03  0.22528337311E+03  0.00000000000E+00 0. -1.
         23    2    1    2    0    0  0.22516811974E+02 -0.39819753149E+02 -0.13389816549E+03  0.16835613926E+03  0.91227470322E+02 0.  0.
         23    2    1    2    0    0 -0.61381548453E+02  0.45543987288E+02 -0.12791641116E+02  0.12008095475E+03  0.91727097095E+02 0.  0.
        -11    1    4    4    0    0 -0.12795073010E+02 -0.24107353603E+02 -0.21456462934E+02  0.34716828668E+02  0.00000000000E+00 0.  1.
         11    1    4    4    0    0 -0.48586475442E+02  0.69651340891E+02  0.86648218187E+01  0.85364126077E+02  0.00000000000E+00 0. -1.
        -11    1    3    3    0    0 -0.16654656225E+02  0.22478109925E+02 -0.44531141149E+02  0.52589595280E+02  0.00000000000E+00 0.  1.
         11    1    3    3    0    0  0.39171468199E+02 -0.62297863074E+02 -0.89367024342E+02  0.11576654398E+03  0.00000000000E+00 0. -1.
          2    1    1    2  501    0  0.38864736479E+02 -0.57242341382E+01  0.42255790594E+02  0.57695636202E+02  0.00000000000E+00 0. -1.
<scales pt_clust_5="13000.00000" pt_clust_6="13000.00000" pt_clust_7="13000.00000" pt_clust_8="13000.00000" pt_clust_9="39.28402"></scales>
<clustering>
<clus scale="   39.284">  1  9  2 -1</clus>
<clus scale="   91.227">  7  8 -1 -1</clus>
<clus scale="   91.727">  5  6 -1 -1</clus>
<clus scale="  105.084">  2  7  1 -1</clus>
<clus scale="   39.284">  1  5  2 -1</clus>
</clustering>
</event>
<event>
 9    1  0.1504846E-005  0.1802664E+03  0.7546771E-02  0.1170955E+00
         21   -1    0    0  501  502  0.00000000000E+00  0.00000000000E+00  0.15629551694E+03  0.15629551694E+03  0.00000000000E+00 0.  1.
          1   -1    0    0  502    0 -0.00000000000E+00 -0.00000000000E+00 -0.58549488799E+03  0.58549488799E+03  0.00000000000E+00 0. -1.
         23    2    1    2    0    0 -0.27868924336E+02  0.14899411283E+03  0.13293910058E+01  0.16673035340E+03  0.69435731901E+02 0.  0.
         23    2    1    2    0    0  0.16669651865E+03 -0.53030126084E+02 -0.31060287169E+03  0.36802284019E+03  0.91469904340E+02 0.  0.
        -11    1    3    3    0    0 -0.38940083519E+02  0.11599298441E+03 -0.22687184348E+02  0.12444039083E+03  0.00000000000E+00 0.  1.
         11    1    3    3    0    0  0.11071159183E+02  0.33001128413E+02  0.24016575354E+02  0.42289962567E+02  0.00000000000E+00 0. -1.
        -13    1    4    4    0    0  0.12986868018E+03  0.17844595963E+01 -0.18385991953E+03  0.22510781505E+03  0.00000000000E+00 0.  1.
         13    1    4    4    0    0  0.36827838474E+02 -0.54814585680E+02 -0.12674295215E+03  0.14291502514E+03  0.00000000000E+00 0. -1.
          1    1    1    2  501    0 -0.13882759431E+03 -0.95963986742E+02 -0.11992589037E+03  0.20703721133E+03  0.00000000000E+00 0. -1.
<scales pt_clust_5="13000.00000" pt_clust_6="13000.00000" pt_clust_7="13000.00000" pt_clust_8="13000.00000" pt_clust_9="155.33591"></scales>
<clustering>
<clus scale="   69.436">  5  6 -1 -1</clus>
<clus scale="   91.470">  7  8 -1 -1</clus>
<clus scale="  166.725">  2  5  1 -1</clus>
<clus scale="  155.336">  1  9  2 -1</clus>
<clus scale="  155.336">  1  5  2 -1</clus>
</clustering>
</event>
<event>
 9    1  0.1558600E-005  0.1266708E+03  0.7546771E-02  0.1232524E+00
          2   -1    0    0  502    0 -0.00000000000E+00  0.00000000000E+00  0.37101193241E+03  0.37101193241E+03  0.00000000000E+00 0. -1.
         21   -1    0    0  501  502  0.00000000000E+00 -0.00000000000E+00 -0.22300248945E+03  0.22300248945E+03  0.00000000000E+00 0.  1.
         23    2    1    2    0    0  0.52323907973E+02 -0.70000477798E+02  0.33474309405E+03  0.35828016228E+03  0.93133653606E+02 0.  0.
         23    2    1    2    0    0 -0.51914741951E+02  0.42947133397E+02 -0.13402846508E+03  0.17648995611E+03  0.92981065057E+02 0.  0.
        -11    1    4    4    0    0 -0.23025055479E+01  0.60545880358E+02 -0.56964334415E+02  0.83162735378E+02  0.00000000000E+00 0. -1.
         11    1    4    4    0    0 -0.49612236403E+02 -0.17598746962E+02 -0.77064130662E+02  0.93327220736E+02  0.00000000000E+00 0.  1.
        -13    1    3    3    0    0  0.69581796615E+02 -0.18466189112E+02  0.21625191220E+03  0.22791997739E+03  0.00000000000E+00 0. -1.
         13    1    3    3    0    0 -0.17257888642E+02 -0.51534288686E+02  0.11849118185E+03  0.13036018490E+03  0.00000000000E+00 0.  1.
          2    1    1    2  501    0 -0.40916602232E+00  0.27053344401E+02 -0.52705186018E+02  0.59244303467E+02  0.00000000000E+00 0. -1.
<scales pt_clust_5="13000.00000" pt_clust_6="13000.00000" pt_clust_7="13000.00000" pt_clust_8="13000.00000" pt_clust_9="27.05644"></scales>
<clustering>
<clus scale="   27.056">  2  9  1 -1</clus>
<clus scale="   92.981">  5  6 -1 -1</clus>
<clus scale="   93.134">  7  8 -1 -1</clus>
<clus scale="  126.559">  2  5  1 -1</clus>
<clus scale="   27.056">  2  5  1 -1</clus>
</clustering>
</event>
<event>
 9    1  0.1504846E-005  0.1081331E+03  0.7546771E-02  0.1266926E+00
         21   -1    0    0  501  502  0.00000000000E+00  0.00000000000E+00  0.69206087451E+02  0.69206087451E+02  0.00000000000E+00 0.  1.
          1   -1    0    0  502    0 -0.00000000000E+00 -0.00000000000E+00 -0.59797091143E+03  0.59797091143E+03  0.00000000000E+00 0. -1.
         23    2    1    2    0    0 -0.61460548418E+02  0.21528039220E+02 -0.47062276201E+03  0.48323580011E+03  0.88262103400E+02 0.  0.
         23    2    1    2    0    0  0.36932278568E+02 -0.48579679713E+02 -0.89926543855E+02  0.13552962408E+03  0.80978498581E+02 0.  0.
        -11    1    3    3    0    0 -0.83228747209E+02  0.25676200760E+02 -0.39124813738E+03  0.40082589319E+03  0.00000000000E+00 0.  1.
         11    1    3    3    0    0  0.21768198791E+02 -0.41481615397E+01 -0.79374624634E+02  0.82409906920E+02  0.00000000000E+00 0. -1.
        -11    1    4    4    0    0 -0.88208850683E+01 -0.51561192526E+02 -0.30784681618E+02  0.60696467858E+02  0.00000000000E+00 0.  1.
         11    1    4    4    0    0  0.45753163637E+02  0.29815128126E+01 -0.59141862237E+02  0.74833156223E+02  0.00000000000E+00 0. -1.
          1    1    1    2  501    0  0.24528269850E+02  0.27051640493E+02  0.31784481889E+02  0.48411574692E+02  0.00000000000E+00 0. -1.
<scales pt_clust_5="13000.00000" pt_clust_6="13000.00000" pt_clust_7="13000.00000" pt_clust_8="13000.00000" pt_clust_9="36.51612"></scales>
<clustering>
<clus scale="   36.516">  1  9  2 -1</clus>
<clus scale="   80.978">  7  8 -1 -1</clus>
<clus scale="   88.262">  5  6 -1 -1</clus>
<clus scale="  102.275">  1  7  2 -1</clus>
<clus scale="   36.516">  1  5  2 -1</clus>
</clustering>
</event>
<event>
 9    1  0.1504846E-005  0.9618638E+02  0.7546771E-02  0.1288864E+00
          2   -1    0    0  502    0 -0.00000000000E+00  0.00000000000E+00  0.16631383108E+03  0.16631383108E+03  0.00000000000E+00 0. -1.
         21   -1    0    0  501  502  0.00000000000E+00 -0.00000000000E+00 -0.88832978341E+02  0.88832978341E+02  0.00000000000E+00 0.  1.
         23    2    1    2    0    0 -0.32766735118E+02  0.57748466396E+01  0.78986444609E+02  0.12542316047E+03  0.91570207860E+02 0.  0.
         23    2    1    2    0    0  0.12961587660E+02 -0.29491870169E+02  0.94721326500E+01  0.96932621104E+02  0.90930954996E+02 0.  0.
        -11    1    4    4    0    0  0.14820519689E+02 -0.55535246439E+02  0.28950364983E+02  0.64357866913E+02  0.00000000000E+00 0.  1.
         11    1    4    4    0    0 -0.18589320294E+01  0.26043376270E+02 -0.19478232333E+02  0.32574754192E+02  0.00000000000E+00 0. -1.
        -13    1    3    3    0    0  0.23191426940E+02 -0.16102546438E+02  0.27654803141E+01  0.28368682851E+02  0.00000000000E+00 0.  1.
         13    1    3    3    0    0 -0.55958162058E+02  0.21877393078E+02  0.76220964295E+02  0.97054477624E+02  0.00000000000E+00 0. -1.
          2    1    1    2  501    0  0.19805147458E+02  0.23717023530E+02 -0.10977724525E+02  0.32791027838E+02  0.00000000000E+00 0. -1.
<scales pt_clust_5="13000.00000" pt_clust_6="13000.00000" pt_clust_7="13000.00000" pt_clust_8="13000.00000" pt_clust_9="30.89888"></scales>
<clustering>
<clus scale="   30.899">  2  9  1 -1</clus>
<clus scale="   90.931">  5  6 -1 -1</clus>
<clus scale="   91.570">  7  8 -1 -1</clus>
<clus scale="   95.578">  2  5  1 -1</clus>
<clus scale="   30.899">  2  5  1 -1</clus>
</clustering>
</event>
<event>
 9    1  0.1504846E-005  0.1203393E+03  0.7546771E-02  0.1243113E+00
         21   -1    0    0  501  502  0.00000000000E+00  0.00000000000E+00  0.14548975728E+03  0.14548975728E+03  0.00000000000E+00 0. -1.
         -1   -1    0    0    0  501 -0.00000000000E+00 -0.00000000000E+00 -0.20094340727E+03  0.20094340727E+03  0.00000000000E+00 0.  1.
         23    2    1    2    0    0  0.42939136235E+02  0.28771613546E+02 -0.29695545349E+02  0.10770891396E+03  0.89709584582E+02 0.  0.
         23    2    1    2    0    0 -0.87587276607E+02 -0.58331331308E+02 -0.81405711276E+02  0.16149802786E+03  0.91545878883E+02 0.  0.
        -13    1    4    4    0    0  0.93606006583E+01 -0.32342819787E+02 -0.23861467793E+01  0.33754592768E+02  0.00000000000E+00 0. -1.
         13    1    4    4    0    0 -0.96947877265E+02 -0.25988511521E+02 -0.79019564496E+02  0.12774343510E+03  0.00000000000E+00 0.  1.
        -13    1    3    3    0    0  0.69258645329E+02  0.84057835391E+01 -0.24946894825E+02  0.74092946433E+02  0.00000000000E+00 0.  1.
         13    1    3    3    0    0 -0.26319509094E+02  0.20365830007E+02 -0.47486505237E+01  0.33615967525E+02  0.00000000000E+00 0. -1.
         -1    1    1    2    0  502  0.44648140372E+02  0.29559717763E+02  0.55647606638E+02  0.77226222731E+02  0.00000000000E+00 0.  1.
<scales pt_clust_5="13000.00000" pt_clust_6="13000.00000" pt_clust_7="13000.00000" pt_clust_8="13000.00000" pt_clust_9="53.54655"></scales>
<clustering>
<clus scale="   53.547">  1  9  2 -1</clus>
<clus scale="   89.710">  7  8 -1 -1</clus>
<clus scale="   91.546">  5  6 -1 -1</clus>
<clus scale="  118.948">  2  7  1 -1</clus>
<clus scale="   53.547">  1  5  2 -1</clus>
</clustering>
</event>
<event>
 9    1  0.1504846E-005  0.9212393E+02  0.7546771E-02  0.1298421E+00
          1   -1    0    0  502    0 -0.00000000000E+00  0.00000000000E+00  0.29369040052E+03  0.29369040052E+03  0.00000000000E+00 0. -1.
         21   -1    0    0  501  502  0.00000000000E+00 -0.00000000000E+00 -0.84205152788E+02  0.84205152788E+02  0.00000000000E+00 0. -1.
         23    2    1    2    0    0  0.17198519911E+02  0.20738187918E+00  0.20497806683E+03  0.22500570397E+03  0.91190607220E+02 0.  0.
         23    2    1    2    0    0  0.55530708315E+00  0.15383745716E+02  0.48107302081E+02  0.10329900139E+03  0.90107730947E+02 0.  0.
        -13    1    3    3    0    0 -0.31104839418E+02  0.52663897459E+01  0.30449173790E+02  0.43845160288E+02  0.00000000000E+00 0. -1.
         13    1    3    3    0    0  0.48303359329E+02 -0.50590078668E+01  0.17452889304E+03  0.18116054368E+03  0.00000000000E+00 0.  1.
        -13    1    4    4    0    0  0.41226893677E+02 -0.97460160011E+01  0.14172995667E+02  0.44671192018E+02  0.00000000000E+00 0.  1.
         13    1    4    4    0    0 -0.40671586594E+02  0.25129761717E+02  0.33934306414E+02  0.58627809372E+02  0.00000000000E+00 0. -1.
          1    1    1    2  501    0 -0.17753826994E+02 -0.15591127595E+02 -0.43600121180E+02  0.49590847942E+02  0.00000000000E+00 0. -1.
<scales pt_clust_5="13000.00000" pt_clust_6="13000.00000" pt_clust_7="13000.00000" pt_clust_8="13000.00000" pt_clust_9="23.62798"></scales>
<clustering>
<clus scale="   23.628">  2  9  1 -1</clus>
<clus scale="   90.108">  7  8 -1 -1</clus>
<clus scale="   91.052">  2  7  1 -1</clus>
<clus scale="   91.191">  5  6 -1 -1</clus>
<clus scale="   23.628">  2  5  1 -1</clus>
</clustering>
</event>
<event>
 9    1  0.1504846E-005  0.9271852E+02  0.7546771E-02  0.1297244E+00
         21   -1    0    0  501  502  0.00000000000E+00  0.00000000000E+00  0.76415998094E+02  0.76415998094E+02  0.00000000000E+00 0. -1.
         -3   -1    0    0    0  501 -0.00000000000E+00 -0.00000000000E+00 -0.16722082007E+03  0.16722082007E+03  0.00000000000E+00 0.  1.
         23    2    1    2    0    0 -0.10868725671E+02 -0.20100738703E+02 -0.44646154825E+02  0.10252192131E+03  0.89416420837E+02 0.  0.
         23    2    1    2    0    0 -0.26181906943E+02  0.13814394186E+02 -0.36452585520E+02  0.10230155475E+03  0.90887223383E+02 0.  0.
        -11    1    4    4    0    0  0.64883360932E+01  0.47210134403E+02 -0.26529213124E+02  0.54540759479E+02  0.00000000000E+00 0. -1.
         11    1    4    4    0    0 -0.32670243036E+02 -0.33395740218E+02 -0.99233723964E+01  0.47760795266E+02  0.00000000000E+00 0.  1.
        -11    1    3    3    0    0 -0.49334041540E+02 -0.20663587708E+02 -0.21643605748E+02  0.57699888920E+02  0.00000000000E+00 0.  1.
         11    1    3    3    0    0  0.38465315869E+02  0.56284900520E+00 -0.23002549076E+02  0.44822032394E+02  0.00000000000E+00 0. -1.
         -3    1    1    2    0  502  0.37050632613E+02  0.62863445172E+01 -0.97060816277E+01  0.38813342100E+02  0.00000000000E+00 0.  1.
<scales pt_clust_5="13000.00000" pt_clust_6="13000.00000" pt_clust_7="13000.00000" pt_clust_8="13000.00000" pt_clust_9="37.58015"></scales>
<clustering>
<clus scale="   37.580">  1  9  2 -1</clus>
<clus scale="   89.416">  7  8 -1 -1</clus>
<clus scale="   90.887">  5  6 -1 -1</clus>
<clus scale="   91.277">  2  7  1 -1</clus>
<clus scale="   37.580">  1  5  2 -1</clus>
</clustering>
</event>
<event>
 9    1  0.1504846E-005  0.1130166E+03  0.7546771E-02  0.1255750E+00
         21   -1    0    0  501  502  0.00000000000E+00  0.00000000000E+00  0.87398889967E+02  0.87398889967E+02  0.00000000000E+00 0. -1.
          1   -1    0    0  502    0 -0.00000000000E+00 -0.00000000000E+00 -0.30750969125E+03  0.30750969125E+03  0.00000000000E+00 0. -1.
         23    2    1    2    0    0  0.71171345142E+02 -0.24976839942E+02 -0.20613687653E+03  0.23853073114E+03  0.93355743948E+02 0.  0.
         23    2    1    2    0    0 -0.36541732873E+02  0.17071227460E+02 -0.44543897403E+02  0.10951387690E+03  0.91555477117E+02 0.  0.
        -13    1    3    3    0    0  0.15535402520E+02  0.31116146813E+02 -0.10233252284E+03  0.10808102773E+03  0.00000000000E+00 0. -1.
         13    1    3    3    0    0  0.55635942621E+02 -0.56092986754E+02 -0.10380435369E+03  0.13044970341E+03  0.00000000000E+00 0.  1.
        -13    1    4    4    0    0 -0.28198169553E+02 -0.34709369925E+02 -0.33599380893E+02  0.55935637327E+02  0.00000000000E+00 0. -1.
         13    1    4    4    0    0 -0.83435633204E+01  0.51780597385E+02 -0.10944516510E+02  0.53578239576E+02  0.00000000000E+00 0.  1.
          1    1    1    2  501    0 -0.34629612268E+02  0.79056124816E+01  0.30569972648E+02  0.46863973181E+02  0.00000000000E+00 0. -1.
<scales pt_clust_5="13000.00000" pt_clust_6="13000.00000" pt_clust_7="13000.00000" pt_clust_8="13000.00000" pt_clust_9="35.52054"></scales>
<clustering>
<clus scale="   35.521">  1  9  2 -1</clus>
<clus scale="   91.555">  7  8 -1 -1</clus>
<clus scale="   93.356">  5  6 -1 -1</clus>
<clus scale="  111.534">  1  7  2 -1</clus>
<clus scale="   35.521">  1  5  2 -1</clus>
</clustering>
</event>
<event>
 9    1  0.1504846E-005  0.1704839E+03  0.7546771E-02  0.1177958E+00
          1   -1    0    0  502    0 -0.00000000000E+00  0.00000000000E+00  0.18210745343E+03  0.18210745343E+03  0.00000000000E+00 0. -1.
         21   -1    0    0  501  502  0.00000000000E+00 -0.00000000000E+00 -0.31475520462E+03  0.31475520462E+03  0.00000000000E+00 0.  1.
         23    2    1    2    0    0  0.10764713665E+03 -0.93254749408E+02  0.97969590139E+02  0.19566249767E+03  0.91659249858E+02 0.  0.
         23    2    1    2    0    0 -0.11751948170E+03  0.68920094882E+02 -0.18856748725E+03  0.25162366560E+03  0.95895587916E+02 0.  0.
        -11    1    3    3    0    0  0.11099617337E+03 -0.64049341209E+02  0.10472600324E+03  0.16549925790E+03  0.00000000000E+00 0. -1.
         11    1    3    3    0    0 -0.33490367166E+01 -0.29205408198E+02 -0.67564131023E+01  0.30163239762E+02  0.00000000000E+00 0.  1.
        -11    1    4    4    0    0  0.71497660052E+01  0.37064768569E+02 -0.37971883990E+02  0.53542321548E+02  0.00000000000E+00 0. -1.
         11    1    4    4    0    0 -0.12466924771E+03  0.31855326313E+02 -0.15059560326E+03  0.19808134405E+03  0.00000000000E+00 0.  1.
          1    1    1    2  501    0  0.98723450514E+01  0.24334654526E+02 -0.42049854073E+02  0.49576494786E+02  0.00000000000E+00 0. -1.
<scales pt_clust_5="13000.00000" pt_clust_6="13000.00000" pt_clust_7="13000.00000" pt_clust_8="13000.00000" pt_clust_9="26.26097"></scales>
<clustering>
<clus scale="   26.261">  2  9  1 -1</clus>
<clus scale="   91.659">  5  6 -1 -1</clus>
<clus scale="   95.896">  7  8 -1 -1</clus>
<clus scale="  168.138">  1  5  2 -1</clus>
<clus scale="   26.261">  2  5  1 -1</clus>
</clustering>
</event>
<event>
 9    1  0.1504846E-005  0.9618649E+02  0.7546771E-02  0.1289997E+00
         21   -1    0    0  501  502  0.00000000000E+00  0.00000000000E+00  0.75029390186E+02  0.75029390186E+02  0.00000000000E+00 0.  1.
         -1   -1    0    0    0  501 -0.00000000000E+00 -0.00000000000E+00 -0.59096461006E+03  0.59096461006E+03  0.00000000000E+00 0.  1.
         23    2    1    2    0    0 -0.20560245630E+01 -0.26209586503E+02 -0.40855085121E+03  0.41917187478E+03  0.90000516235E+02 0.  0.
         23    2    1    2    0    0 -0.54038137958E+02  0.13266293134E+02 -0.14288378256E+03  0.17918861085E+03  0.92718218553E+02 0.  0.
        -11    1    3    3    0    0 -0.45126170675E+02 -0.13025589343E+02 -0.24869297575E+03  0.25308937837E+03  0.00000000000E+00 0.  1.
         11    1    3    3    0    0  0.43070146112E+02 -0.13183997159E+02 -0.15985787546E+03  0.16608249641E+03  0.00000000000E+00 0. -1.
        -11    1    4    4    0    0 -0.23636918182E+02  0.48140879095E+02 -0.11015629781E+03  0.12251799088E+03  0.00000000000E+00 0. -1.
         11    1    4    4    0    0 -0.30401219776E+02 -0.34874585961E+02 -0.32727484749E+02  0.56670619971E+02  0.00000000000E+00 0.  1.
         -1    1    1    2    0  502  0.56094162521E+02  0.12943293369E+02  0.35499413897E+02  0.67633514615E+02  0.00000000000E+00 0.  1.
<scales pt_clust_5="13000.00000" pt_clust_6="13000.00000" pt_clust_7="13000.00000" pt_clust_8="13000.00000" pt_clust_9="57.56808"></scales>
<clustering>
<clus scale="   57.568">  1  9  2 -1</clus>
<clus scale="   90.001">  5  6 -1 -1</clus>
<clus scale="   92.718">  7  8 -1 -1</clus>
<clus scale="   93.570">  2  5  1 -1</clus>
<clus scale="   57.568">  1  5  2 -1</clus>
</clustering>
</event>
<event>
 9    1  0.1504846E-005  0.9240387E+02  0.7546771E-02  0.1300124E+00
          3   -1    0    0  502    0 -0.00000000000E+00  0.00000000000E+00  0.33440621692E+02  0.33440621692E+02  0.00000000000E+00 0. -1.
         21   -1    0    0  501  502  0.00000000000E+00 -0.00000000000E+00 -0.45100799769E+03  0.45100799769E+03  0.00000000000E+00 0.  1.
         23    2    1    2    0    0  0.95321971915E+01  0.74986428856E+01 -0.79386727252E+02  0.12177752966E+03  0.91544643965E+02 0.  0.
         23    2    1    2    0    0 -0.17415911685E+02  0.25638511935E+02 -0.19618690021E+03  0.21664900712E+03  0.86526557754E+02 0.  0.
        -13    1    3    3    0    0  0.38309226225E+02 -0.27045829934E+02 -0.34258287593E+02  0.58074986006E+02  0.00000000000E+00 0.  1.
         13    1    3    3    0    0 -0.28777029034E+02  0.34544472819E+02 -0.45128439659E+02  0.63702543657E+02  0.00000000000E+00 0. -1.
        -13    1    4    4    0    0 -0.50869534051E+02  0.12128715766E+02 -0.85443645851E+02  0.10017700263E+03  0.00000000000E+00 0. -1.
         13    1    4    4    0    0  0.33453622366E+02  0.13509796169E+02 -0.11074325436E+03  0.11647200448E+03  0.00000000000E+00 0.  1.
          3    1    1    2  501    0  0.78837144932E+01 -0.33137154821E+02 -0.14199374853E+03  0.14602208260E+03  0.00000000000E+00 0. -1.
<scales pt_clust_5="13000.00000" pt_clust_6="13000.00000" pt_clust_7="13000.00000" pt_clust_8="13000.00000" pt_clust_9="34.06206"></scales>
<clustering>
<clus scale="   34.062">  2  9  1 -1</clus>
<clus scale="   86.527">  7  8 -1 -1</clus>
<clus scale="   87.435">  2  7  1 -1</clus>
<clus scale="   91.545">  5  6 -1 -1</clus>
<clus scale="   34.062">  2  5  1 -1</clus>
</clustering>
</event>
<event>
 9    1  0.1504846E-005  0.1014503E+03  0.7546771E-02  0.1278380E+00
          2   -1    0    0  502    0 -0.00000000000E+00  0.00000000000E+00  0.52726306367E+03  0.52726306367E+03  0.00000000000E+00 0. -1.
         21   -1    0    0  501  502  0.00000000000E+00 -0.00000000000E+00 -0.26174913866E+02  0.26174913866E+02  0.00000000000E+00 0. -1.
         23    2    1    2    0    0 -0.29709655566E+02  0.24687440257E+02  0.23323826532E+03  0.25369031375E+03  0.92013876911E+02 0.  0.
         23    2    1    2    0    0  0.17070347611E+02 -0.46901856830E+02  0.24435073697E+03  0.26502818304E+03  0.89674267235E+02 0.  0.
        -11    1    3    3    0    0  0.20650297360E+02  0.41504817508E+02  0.98318118500E+02  0.10869929661E+03  0.00000000000E+00 0.  1.
         11    1    3    3    0    0 -0.50359952925E+02 -0.16817377251E+02  0.13492014682E+03  0.14499101715E+03  0.00000000000E+00 0. -1.
        -11    1    4    4    0    0  0.36939795403E+02  0.29462754586E+01  0.16584477927E+03  0.16993445747E+03  0.00000000000E+00 0.  1.
         11    1    4    4    0    0 -0.19869447791E+02 -0.49848132289E+02  0.78505957698E+02  0.95093725567E+02  0.00000000000E+00 0. -1.
          2    1    1    2  501    0  0.12639307954E+02  0.22214416573E+02  0.23499147516E+02  0.34719480745E+02  0.00000000000E+00 0. -1.
<scales pt_clust_5="13000.00000" pt_clust_6="13000.00000" pt_clust_7="13000.00000" pt_clust_8="13000.00000" pt_clust_9="25.55841"></scales>
<clustering>
<clus scale="   25.558">  2  9  1 -1</clus>
<clus scale="   89.674">  7  8 -1 -1</clus>
<clus scale="   92.014">  5  6 -1 -1</clus>
<clus scale="   99.333">  2  7  1 -1</clus>
<clus scale="   25.558">  2  5  1 -1</clus>
</clustering>
</event>
<event>
 9    1  0.1504846E-005  0.1230986E+03  0.7546771E-02  0.1238970E+00
         -3   -1    0    0    0  501 -0.00000000000E+00  0.00000000000E+00  0.10159251287E+03  0.10159251287E+03  0.00000000000E+00 0.  1.
         21   -1    0    0  501  502  0.00000000000E+00 -0.00000000000E+00 -0.33345215154E+03  0.33345215154E+03  0.00000000000E+00 0. -1.
         23    2    1    2    0    0 -0.45499470850E+02 -0.66551660399E+02  0.34198232174E+02  0.12503185751E+03  0.89241923775E+02 0.  0.
         23    2    1    2    0    0  0.28604493013E+02  0.83196207683E+02 -0.17877704914E+03  0.21956711564E+03  0.92242392511E+02 0.  0.
        -11    1    3    3    0    0  0.14468656536E+02 -0.41010430259E+02 -0.12031042030E+02  0.45121429325E+02  0.00000000000E+00 0. -1.
         11    1    3    3    0    0 -0.59968127387E+02 -0.25541230140E+02  0.46229274204E+02  0.79910428185E+02  0.00000000000E+00 0.  1.
        -11    1    4    4    0    0  0.23730416928E+02  0.46017138444E+02 -0.17427165712E+03  0.18180022055E+03  0.00000000000E+00 0. -1.
         11    1    4    4    0    0  0.48740760849E+01  0.37179069240E+02 -0.45053920253E+01  0.37766895087E+02  0.00000000000E+00 0.  1.
         -3    1    1    2    0  502  0.16894977838E+02 -0.16644547285E+02 -0.87280821700E+02  0.90445691258E+02  0.00000000000E+00 0.  1.
<scales pt_clust_5="13000.00000" pt_clust_6="13000.00000" pt_clust_7="13000.00000" pt_clust_8="13000.00000" pt_clust_9="23.71669"></scales>
<clustering>
<clus scale="   23.717">  2  9  1 -1</clus>
<clus scale="   89.242">  5  6 -1 -1</clus>
<clus scale="   92.242">  7  8 -1 -1</clus>
<clus scale="  120.867">  1  5  2 -1</clus>
<clus scale="   23.717">  2  5  1 -1</clus>
</clustering>
</event>
<event>
 9    1  0.1504846E-005  0.1320402E+03  0.7546771E-02  0.1225786E+00
         21   -1    0    0  501  502  0.00000000000E+00  0.00000000000E+00  0.44312830660E+02  0.44312830660E+02  0.00000000000E+00 0. -1.
          2   -1    0    0  502    0 -0.00000000000E+00 -0.00000000000E+00 -0.79342496060E+03  0.79342496060E+03  0.00000000000E+00 0. -1.
         23    2    1    2    0    0 -0.80636494332E+02 -0.75469495345E+02 -0.59184500999E+03  0.60907721830E+03  0.92177291451E+02 0.  0.
         23    2    1    2    0    0  0.54826375849E+02  0.27482896094E+02 -0.12918497601E+03  0.16736226358E+03  0.86948997574E+02 0.  0.
        -11    1    4    4    0    0 -0.13349774613E+02  0.35277918784E+02 -0.48583546472E+02  0.61506983536E+02  0.00000000000E+00 0.  1.
         11    1    4    4    0    0  0.68176150462E+02 -0.77950226905E+01 -0.80601429538E+02  0.10585528005E+03  0.00000000000E+00 0. -1.
        -13    1    3    3    0    0 -0.25626064565E+02 -0.80101838249E+02 -0.27904805875E+03  0.29144608210E+03  0.00000000000E+00 0.  1.
         13    1    3    3    0    0 -0.55010429766E+02  0.46323429043E+01 -0.31279695123E+03  0.31763113620E+03  0.00000000000E+00 0. -1.
          2    1    1    2  501    0  0.25810118483E+02  0.47986599251E+02 -0.28082143943E+02  0.61298309375E+02  0.00000000000E+00 0. -1.
<scales pt_clust_5="13000.00000" pt_clust_6="13000.00000" pt_clust_7="13000.00000" pt_clust_8="13000.00000" pt_clust_9="54.48739"></scales>
<clustering>
<clus scale="   54.487">  1  9  2 -1</clus>
<clus scale="   86.949">  5  6 -1 -1</clus>
<clus scale="   92.177">  7  8 -1 -1</clus>
<clus scale="  128.445">  1  5  2 -1</clus>
<clus scale="   54.487">  1  5  2 -1</clus>
</clustering>
</event>
<event>
 9    1  0.1504846E-005  0.2966420E+03  0.7546771E-02  0.1087573E+00
         21   -1    0    0  501  502  0.00000000000E+00  0.00000000000E+00  0.10723211580E+04  0.10723211580E+04  0.00000000000E+00 0. -1.
          1   -1    0    0  502    0 -0.00000000000E+00 -0.00000000000E+00 -0.17887826943E+03  0.17887826943E+03  0.00000000000E+00 0. -1.
         23    2    1    2    0    0 -0.20284477813E+03 -0.22712574815E+02  0.21578568426E+03  0.30590004229E+03  0.73140339572E+02 0.  0.
         23    2    1    2    0    0  0.38665247500E+03  0.11610225544E+03  0.28718266089E+03  0.50373707817E+03  0.91089478335E+02 0.  0.
        -11    1    3    3    0    0 -0.12145541231E+03  0.20307551651E+02  0.14171373290E+03  0.18774076789E+03  0.00000000000E+00 0. -1.
         11    1    3    3    0    0 -0.81389365821E+02 -0.43020126467E+02  0.74071951354E+02  0.11815927440E+03  0.00000000000E+00 0.  1.
        -11    1    4    4    0    0  0.22864238481E+03  0.37218280395E+02  0.12151133821E+03  0.26158659338E+03  0.00000000000E+00 0. -1.
         11    1    4    4    0    0  0.15801009020E+03  0.78883975042E+02  0.16567132268E+03  0.24215048479E+03  0.00000000000E+00 0.  1.
          1    1    1    2  501    0 -0.18380769687E+03 -0.93389680622E+02  0.39047454339E+03  0.44156230694E+03  0.00000000000E+00 0. -1.
<scales pt_clust_5="13000.00000" pt_clust_6="13000.00000" pt_clust_7="13000.00000" pt_clust_8="13000.00000" pt_clust_9="206.17202"></scales>
<clustering>
<clus scale="   73.140">  5  6 -1 -1</clus>
<clus scale="   91.089">  7  8 -1 -1</clus>
<clus scale="  206.172">  1  9  2 -1</clus>
<clus scale="  291.631">  2  5  1 -1</clus>
<clus scale="  206.172">  1  5  2 -1</clus>
</clustering>
</event>
<event>
 9    1  0.1504846E-005  0.1024804E+03  0.7546771E-02  0.1275779E+00
         -3   -1    0    0    0  501 -0.00000000000E+00  0.00000000000E+00  0.49394069388E+03  0.49394069388E+03  0.00000000000E+00 0.  1.
         21   -1    0    0  501  502  0.00000000000E+00 -0.00000000000E+00 -0.75826228093E+02  0.75826228093E+02  0.00000000000E+00 0.  1.
         23    2    1    2    0    0 -0.40518230443E+02  0.30168883578E+02  0.26707625529E+03  0.28632515386E+03  0.90002661384E+02 0.  0.
         23    2    1    2    0    0  0.21715845303E+02 -0.37753152656E+02  0.20345798945E+03  0.22723781763E+03  0.91350937696E+02 0.  0.
        -11    1    4    4    0    0 -0.19781594457E+02 -0.53066814009E+02  0.10498063270E+03  0.11928256986E+03  0.00000000000E+00 0.  1.
         11    1    4    4    0    0  0.41497439760E+02  0.15313661353E+02  0.98477356748E+02  0.10795524778E+03  0.00000000000E+00 0. -1.
        -13    1    3    3    0    0 -0.12120016360E+02 -0.25985844915E+02  0.15643271811E+03  0.15903884503E+03  0.00000000000E+00 0.  1.
         13    1    3    3    0    0 -0.28398214083E+02  0.56154728493E+02  0.11064353718E+03  0.12728630883E+03  0.00000000000E+00 0. -1.
         -3    1    1    2    0  502  0.18802385140E+02  0.75842690772E+01 -0.52419778955E+02  0.56203950485E+02  0.00000000000E+00 0.  1.
<scales pt_clust_5="13000.00000" pt_clust_6="13000.00000" pt_clust_7="13000.00000" pt_clust_8="13000.00000" pt_clust_9="20.27439"></scales>
<clustering>
<clus scale="   20.274">  2  9  1 -1</clus>
<clus scale="   90.003">  7  8 -1 -1</clus>
<clus scale="   91.351">  5  6 -1 -1</clus>
<clus scale="  101.280">  1  7  2 -1</clus>
<clus scale="   20.274">  2  5  1 -1</clus>
</clustering>
</event>
<event>
 9    1  0.1504846E-005  0.1281330E+03  0.7546771E-02  0.1230913E+00
         21   -1    0    0  501  502  0.00000000000E+00  0.00000000000E+00  0.91076733076E+02  0.91076733076E+02  0.00000000000E+00 0.  1.
          2   -1    0    0  502    0 -0.00000000000E+00 -0.00000000000E+00 -0.57937355499E+03  0.57937355499E+03  0.00000000000E+00 0. -1.
         23    2    1    2    0    0 -0.47644824878E+02  0.61185600364E+02 -0.22656664597E+03  0.25610594869E+03  0.90797053154E+02 0.  0.
         23    2    1    2    0    0  0.84482598763E+02 -0.11020671705E+03 -0.24142422259E+02  0.16897108866E+03  0.93196256748E+02 0.  0.
        -11    1    3    3    0    0 -0.25277051392E+02  0.62920480033E+02 -0.22338106646E+03  0.23344596160E+03  0.00000000000E+00 0. -1.
         11    1    3    3    0    0 -0.22367773486E+02 -0.17348796693E+01 -0.31855795053E+01  0.22659987091E+02  0.00000000000E+00 0.  1.
        -11    1    4    4    0    0  0.51524523610E+02 -0.40794457114E+02  0.32687784899E+02  0.73399288458E+02  0.00000000000E+00 0.  1.
         11    1    4    4    0    0  0.32958075153E+02 -0.69412259937E+02 -0.56830207158E+02  0.95571800197E+02  0.00000000000E+00 0. -1.
          2    1    1    2  501    0 -0.36837773885E+02  0.49021116687E+02 -0.23758775369E+03  0.24537325072E+03  0.00000000000E+00 0. -1.
<scales pt_clust_5="13000.00000" pt_clust_6="13000.00000" pt_clust_7="13000.00000" pt_clust_8="13000.00000" pt_clust_9="61.31962"></scales>
<clustering>
<clus scale="   61.320">  1  9  2 -1</clus>
<clus scale="   90.797">  5  6 -1 -1</clus>
<clus scale="   93.196">  7  8 -1 -1</clus>
<clus scale="  126.399">  2  5  1 -1</clus>
<clus scale="   61.320">  1  5  2 -1</clus>
</clustering>
</event>
<event>
 9    1  0.1504846E-005  0.1657499E+03  0.7546771E-02  0.1182685E+00
         21   -1    0    0  501  502  0.00000000000E+00  0.00000000000E+00  0.10188296827E+04  0.10188296827E+04  0.00000000000E+00 0.  1.
         -2   -1    0    0    0  501 -0.00000000000E+00 -0.00000000000E+00 -0.27687561543E+03  0.27687561543E+03  0.00000000000E+00 0.  1.
         23    2    1    2    0    0 -0.13285886573E+03 -0.43555799692E+02 -0.20293638197E+03  0.26342370866E+03  0.93060675183E+02 0.  0.
         23    2    1    2    0    0  0.59368767744E+02  0.16312811328E+03  0.22290198144E+03  0.29677789789E+03  0.90864709446E+02 0.  0.
        -11    1    4    4    0    0  0.34550510349E+02  0.16677433735E+03  0.18645589476E+03  0.25253359788E+03  0.00000000000E+00 0.  1.
         11    1    4    4    0    0  0.24818257395E+02 -0.36462240696E+01  0.36446086674E+02  0.44244300016E+02  0.00000000000E+00 0. -1.
        -13    1    3    3    0    0 -0.80501809844E+02 -0.41938225259E+02 -0.54173080826E+02  0.10570751540E+03  0.00000000000E+00 0.  1.
         13    1    3    3    0    0 -0.52357055889E+02 -0.16175744331E+01 -0.14876330114E+03  0.15771619326E+03  0.00000000000E+00 0. -1.
         -2    1    1    2    0  502  0.73490097989E+02 -0.11957231359E+03  0.72198846779E+03  0.73550369156E+03  0.00000000000E+00 0.  1.
<scales pt_clust_5="13000.00000" pt_clust_6="13000.00000" pt_clust_7="13000.00000" pt_clust_8="13000.00000" pt_clust_9="140.35075"></scales>
<clustering>
<clus scale="   90.865">  5  6 -1 -1</clus>
<clus scale="   93.061">  7  8 -1 -1</clus>
<clus scale="  140.351">  1  9  2 -1</clus>
<clus scale="  164.527">  1  5  2 -1</clus>
<clus scale="  140.351">  1  5  2 -1</clus>
</clustering>
</event>
<event>
 9    1  0.1504846E-005  0.9920571E+02  0.7546771E-02  0.1282265E+00
         21   -1    0    0  501  502  0.00000000000E+00  0.00000000000E+00  0.69134731665E+02  0.69134731665E+02  0.00000000000E+00 0.  1.
         -4   -1    0    0    0  501 -0.00000000000E+00 -0.00000000000E+00 -0.43389487810E+03  0.43389487810E+03  0.00000000000E+00 0.  1.
         23    2    1    2    0    0  0.37809115522E+02  0.61379157792E+01 -0.27513206328E+03  0.29228353883E+03  0.90911009244E+02 0.  0.
         23    2    1    2    0    0 -0.39364681371E+02  0.14330142834E+02 -0.13062686893E+03  0.16489564407E+03  0.91500073306E+02 0.  0.
        -13    1    4    4    0    0  0.15430992045E+02 -0.14338798878E+02 -0.86233881438E+02  0.88769358321E+02  0.00000000000E+00 0.  1.
         13    1    4    4    0    0 -0.54795673416E+02  0.28668941712E+02 -0.44392987490E+02  0.76126285751E+02  0.00000000000E+00 0. -1.
        -13    1    3    3    0    0  0.32648056479E+02  0.43673118196E+02 -0.20970145901E+03  0.21667473031E+03  0.00000000000E+00 0.  1.
         13    1    3    3    0    0  0.51610590429E+01 -0.37535202417E+02 -0.65430604266E+02  0.75608808518E+02  0.00000000000E+00 0. -1.
         -4    1    1    2    0  502  0.15555658495E+01 -0.20468058613E+02  0.40998785772E+02  0.45850426861E+02  0.00000000000E+00 0.  1.
<scales pt_clust_5="13000.00000" pt_clust_6="13000.00000" pt_clust_7="13000.00000" pt_clust_8="13000.00000" pt_clust_9="20.52708"></scales>
<clustering>
<clus scale="   20.527">  1  9  2 -1</clus>
<clus scale="   90.911">  7  8 -1 -1</clus>
<clus scale="   91.500">  5  6 -1 -1</clus>
<clus scale="   98.663">  2  7  1 -1</clus>
<clus scale="   20.527">  1  5  2 -1</clus>
</clustering>
</event>
<event>
 9    1  0.1504846E-005  0.1450484E+03  0.7546771E-02  0.1209580E+00
          1   -1    0    0  502    0 -0.00000000000E+00  0.00000000000E+00  0.52908213464E+03  0.52908213464E+03  0.00000000000E+00 0. -1.
         21   -1    0    0  501  502  0.00000000000E+00 -0.00000000000E+00 -0.12435282486E+03  0.12435282486E+03  0.00000000000E+00 0.  1.
         23    2    1    2    0    0 -0.99267330157E+02 -0.62258327958E+01  0.39357594036E+03  0.41900520524E+03  0.10378139215E+03 0.  0.
         23    2    1    2    0    0  0.10466208304E+03  0.35856380304E+02  0.76463526350E+02  0.16250973408E+03  0.91229990547E+02 0.  0.
        -13    1    3    3    0    0 -0.86743148350E+02 -0.26398839624E+02  0.38195462361E+03  0.39256923850E+03  0.00000000000E+00 0. -1.
         13    1    3    3    0    0 -0.12524181807E+02  0.20173006829E+02  0.11621316748E+02  0.26435966738E+02  0.00000000000E+00 0.  1.
        -13    1    4    4    0    0  0.29560846575E+02  0.24606823029E+02  0.77548640019E+02  0.86562872865E+02  0.00000000000E+00 0. -1.
         13    1    4    4    0    0  0.75101236461E+02  0.11249557274E+02 -0.10851136693E+01  0.75946861215E+02  0.00000000000E+00 0.  1.
          1    1    1    2  501    0 -0.53947528786E+01 -0.29630547508E+02 -0.65310156928E+02  0.71920020177E+02  0.00000000000E+00 0. -1.
<scales pt_clust_5="13000.00000" pt_clust_6="13000.00000" pt_clust_7="13000.00000" pt_clust_8="13000.00000" pt_clust_9="30.11765"></scales>
<clustering>
<clus scale="   30.118">  2  9  1 -1</clus>
<clus scale="   91.230">  7  8 -1 -1</clus>
<clus scale="  103.781">  5  6 -1 -1</clus>
<clus scale="  136.350">  2  7  1 -1</clus>
<clus scale="   30.118">  2  5  1 -1</clus>
</clustering>
</event>
<event>
 9    1  0.1504846E-005  0.1454618E+03  0.7546771E-02  0.1206471E+00
         21   -1    0    0  501  502  0.00000000000E+00  0.00000000000E+00  0.10013493607E+04  0.10013493607E+04  0.00000000000E+00 0. -1.
          2   -1    0    0  502    0 -0.00000000000E+00 -0.00000000000E+00 -0.40244730589E+02  0.40244730589E+02  0.00000000000E+00 0. -1.
         23    2    1    2    0    0  0.80492710961E+02 -0.69672072178E+02  0.20975220030E+03  0.25140213582E+03  0.88734289910E+02 0.  0.
         23    2    1    2    0    0 -0.45588898994E+02  0.13382668120E+03  0.45394429859E+03  0.48394746741E+03  0.90287300745E+02 0.  0.
        -13    1    3    3    0    0  0.53159262360E+02  0.97296457845E+01  0.93462701006E+02  0.10796226036E+03  0.00000000000E+00 0. -1.
         13    1    3    3    0    0  0.27333448601E+02 -0.79401717962E+02  0.11628949930E+03  0.14343987547E+03  0.00000000000E+00 0.  1.
        -13    1    4    4    0    0  0.26476179657E+02  0.36767728109E+02  0.15498283168E+03  0.16146991061E+03  0.00000000000E+00 0.  1.
         13    1    4    4    0    0 -0.72065078651E+02  0.97058953096E+02  0.29896146692E+03  0.32247755680E+03  0.00000000000E+00 0. -1.
          2    1    1    2  501    0 -0.34903811967E+02 -0.64154609027E+02  0.29740813120E+03  0.30624448804E+03  0.00000000000E+00 0. -1.
<scales pt_clust_5="13000.00000" pt_clust_6="13000.00000" pt_clust_7="13000.00000" pt_clust_8="13000.00000" pt_clust_9="73.03485"></scales>
<clustering>
<clus scale="   73.035">  1  9  2 -1</clus>
<clus scale="   88.734">  5  6 -1 -1</clus>
<clus scale="   90.287">  7  8 -1 -1</clus>
<clus scale="  144.503">  2  5  1 -1</clus>
<clus scale="   73.035">  1  5  2 -1</clus>
</clustering>
</event>
<event>
 9    1  0.1504846E-005  0.1123785E+03  0.7546771E-02  0.1259469E+00
         -2   -1    0    0    0  501 -0.00000000000E+00  0.00000000000E+00  0.17931473577E+03  0.17931473577E+03  0.00000000000E+00 0.  1.
         21   -1    0    0  501  502  0.00000000000E+00 -0.00000000000E+00 -0.12990534821E+03  0.12990534821E+03  0.00000000000E+00 0.  1.
         23    2    1    2    0    0  0.73646182183E+02 -0.21806441784E+02  0.11220348686E+03  0.16373467407E+03  0.91214801295E+02 0.  0.
         23    2    1    2    0    0 -0.33627749105E+02  0.11410725848E+02 -0.40606309953E+02  0.98561600466E+02  0.82489311454E+02 0.  0.
        -13    1    4    4    0    0 -0.38500870321E+02  0.39633434914E+02 -0.91280438641E+01  0.56003994173E+02  0.00000000000E+00 0. -1.
         13    1    4    4    0    0  0.48731212161E+01 -0.28222709066E+02 -0.31478266088E+02  0.42557606292E+02  0.00000000000E+00 0.  1.
        -13    1    3    3    0    0  0.11061290950E+01 -0.30653131986E+02  0.76462062340E+02  0.82384980424E+02  0.00000000000E+00 0.  1.
         13    1    3    3    0    0  0.72540053088E+02  0.88466902018E+01  0.35741424524E+02  0.81349693647E+02  0.00000000000E+00 0. -1.
         -2    1    1    2    0  502 -0.40018433078E+02  0.10395715936E+02 -0.22187789355E+02  0.46923809439E+02  0.00000000000E+00 0.  1.
<scales pt_clust_5="13000.00000" pt_clust_6="13000.00000" pt_clust_7="13000.00000" pt_clust_8="13000.00000" pt_clust_9="41.34666"></scales>
<clustering>
<clus scale="   41.347">  2  9  1 -1</clus>
<clus scale="   82.489">  5  6 -1 -1</clus>
<clus scale="   91.215">  7  8 -1 -1</clus>
<clus scale="  105.420">  2  5  1 -1</clus>
<clus scale="   41.347">  2  5  1 -1</clus>
</clustering>
</event>
<event>
 9    1  0.1504846E-005  0.1088169E+03  0.7546771E-02  0.1264379E+00
          2   -1    0    0  502    0 -0.00000000000E+00  0.00000000000E+00  0.19849556657E+03  0.19849556657E+03  0.00000000000E+00 0. -1.
         21   -1    0    0  501  502  0.00000000000E+00 -0.00000000000E+00 -0.11242253326E+03  0.11242253326E+03  0.00000000000E+00 0. -1.
         23    2    1    2    0    0 -0.27732472120E+02  0.36980851462E+02  0.98111444403E+02  0.14241918616E+03  0.92307614410E+02 0.  0.
         23    2    1    2    0    0  0.20355487429E+02 -0.58714990808E+02  0.31989869589E+02  0.11884730529E+03  0.96122495824E+02 0.  0.
        -11    1    4    4    0    0  0.19016152927E+01 -0.83521541474E+02  0.23400978856E+02  0.86758687417E+02  0.00000000000E+00 0. -1.
         11    1    4    4    0    0  0.18453872137E+02  0.24806550666E+02  0.85888907332E+01  0.32088617870E+02  0.00000000000E+00 0.  1.
        -13    1    3    3    0    0 -0.46569912460E+02  0.58397591682E+02  0.69762427307E+02  0.10220485177E+03  0.00000000000E+00 0.  1.
         13    1    3    3    0    0  0.18837440340E+02 -0.21416740220E+02  0.28349017096E+02  0.40214334391E+02  0.00000000000E+00 0. -1.
          2    1    1    2  501    0  0.73769846908E+01  0.21734139346E+02 -0.44028280681E+02  0.49651608392E+02  0.00000000000E+00 0. -1.
<scales pt_clust_5="13000.00000" pt_clust_6="13000.00000" pt_clust_7="13000.00000" pt_clust_8="13000.00000" pt_clust_9="22.95197"></scales>
<clustering>
<clus scale="   22.952">  2  9  1 -1</clus>
<clus scale="   92.308">  7  8 -1 -1</clus>
<clus scale="   96.122">  5  6 -1 -1</clus>
<clus scale="  105.462">  1  7  2 -1</clus>
<clus scale="   22.952">  2  5  1 -1</clus>
</clustering>
</event>
<event>
 9    1  0.1504846E-005  0.1050918E+03  0.7546771E-02  0.1270478E+00
         21   -1    0    0  501  502  0.00000000000E+00  0.00000000000E+00  0.16701023557E+03  0.16701023557E+03  0.00000000000E+00 0.  1.
         -1   -1    0    0    0  501 -0.00000000000E+00 -0.00000000000E+00 -0.13770150604E+03  0.13770150604E+03  0.00000000000E+00 0.  1.
         23    2    1    2    0    0 -0.22625458086E+02 -0.50762109637E+02 -0.71273463961E+02  0.12817443661E+03  0.90884962491E+02 0.  0.
         23    2    1    2    0    0  0.27887140694E+02  0.28846487468E+02  0.33745138058E+02  0.10600240740E+03  0.92130144779E+02 0.  0.
        -11    1    3    3    0    0 -0.23966461085E+02  0.22648116934E+02 -0.19155682360E+02  0.38134874121E+02  0.00000000000E+00 0. -1.
         11    1    3    3    0    0  0.13410029985E+01 -0.73410226571E+02 -0.52117781601E+02  0.90039562489E+02  0.00000000000E+00 0.  1.
        -13    1    4    4    0    0  0.43882479896E+02 -0.10415636483E+02 -0.87868846048E+01  0.45949612253E+02  0.00000000000E+00 0.  1.
         13    1    4    4    0    0 -0.15995339201E+02  0.39262123952E+02  0.42532022662E+02  0.60052795148E+02  0.00000000000E+00 0. -1.
         -1    1    1    2    0  502 -0.52616826084E+01  0.21915622168E+02  0.66837055442E+02  0.70534897597E+02  0.00000000000E+00 0.  1.
<scales pt_clust_5="13000.00000" pt_clust_6="13000.00000" pt_clust_7="13000.00000" pt_clust_8="13000.00000" pt_clust_9="22.53841"></scales>
<clustering>
<clus scale="   22.538">  1  9  2 -1</clus>
<clus scale="   90.885">  5  6 -1 -1</clus>
<clus scale="   92.130">  7  8 -1 -1</clus>
<clus scale="  104.002">  2  5  1 -1</clus>
<clus scale="   22.538">  1  5  2 -1</clus>
</clustering>
</event>
<event>
 9    1  0.1504846E-005  0.1865251E+03  0.7546771E-02  0.1161926E+00
          1   -1    0    0  502    0 -0.00000000000E+00  0.00000000000E+00  0.92058424791E+03  0.92058424791E+03  0.00000000000E+00 0. -1.
         21   -1    0    0  501  502  0.00000000000E+00 -0.00000000000E+00 -0.78905381534E+02  0.78905381534E+02  0.00000000000E+00 0. -1.
         23    2    1    2    0    0 -0.15617592784E+03 -0.46610366934E+02  0.69058944026E+03  0.71544617066E+03  0.91575113237E+02 0.  0.
         23    2    1    2    0    0  0.16689623857E+03 -0.35767989029E+01  0.11672641601E+03  0.22228187574E+03  0.88977683440E+02 0.  0.
        -11    1    3    3    0    0 -0.11928909405E+03 -0.73618562366E+02  0.48605569770E+03  0.50586531997E+03  0.00000000000E+00 0. -1.
         11    1    3    3    0    0 -0.36886833793E+02  0.27008195431E+02  0.20453374256E+03  0.20958085069E+03  0.00000000000E+00 0.  1.
        -11    1    4    4    0    0  0.23483102365E+02  0.20527071210E+02  0.57189698303E+02  0.65141986009E+02  0.00000000000E+00 0.  1.
         11    1    4    4    0    0  0.14341313620E+03 -0.24103870113E+02  0.59536717705E+02  0.15713988973E+03  0.00000000000E+00 0. -1.
          1    1    1    2  501    0 -0.10720310728E+02  0.50187165837E+02  0.34363010106E+02  0.61761583047E+02  0.00000000000E+00 0. -1.
<scales pt_clust_5="13000.00000" pt_clust_6="13000.00000" pt_clust_7="13000.00000" pt_clust_8="13000.00000" pt_clust_9="51.31936"></scales>
<clustering>
<clus scale="   51.319">  2  9  1 -1</clus>
<clus scale="   88.978">  7  8 -1 -1</clus>
<clus scale="   91.575">  5  6 -1 -1</clus>
<clus scale="  185.264">  2  7  1 -1</clus>
<clus scale="   51.319">  2  5  1 -1</clus>
</clustering>
</event>
<event>
 9    1  0.1504846E-005  0.1131573E+03  0.7546771E-02  0.1255988E+00
          1   -1    0    0  502    0 -0.00000000000E+00  0.00000000000E+00  0.43981389704E+02  0.43981389704E+02  0.00000000000E+00 0. -1.
         21   -1    0    0  501  502  0.00000000000E+00 -0.00000000000E+00 -0.38927682741E+03  0.38927682741E+03  0.00000000000E+00 0.  1.
         23    2    1    2    0    0 -0.52500175204E+02 -0.30715904188E+02 -0.95665691008E+02  0.14390918914E+03  0.88646461381E+02 0.  0.
         23    2    1    2    0    0  0.75415391236E+02  0.18550323385E+02 -0.20093299172E+03  0.23417219926E+03  0.91820237482E+02 0.  0.
        -11    1    4    4    0    0  0.64597526169E+02  0.46525561380E+02 -0.18213913339E+03  0.19877658856E+03  0.00000000000E+00 0.  1.
         11    1    4    4    0    0  0.10817865067E+02 -0.27975237995E+02 -0.18793858327E+02  0.35395610693E+02  0.00000000000E+00 0. -1.
        -13    1    3    3    0    0 -0.75261634390E+02 -0.92201518309E+01 -0.73044227365E+02  0.10528430064E+03  0.00000000000E+00 0.  1.
         13    1    3    3    0    0  0.22761459186E+02 -0.21495752357E+02 -0.22621463643E+02  0.38624888492E+02  0.00000000000E+00 0. -1.
          1    1    1    2  501    0 -0.22915216032E+02  0.12165580803E+02 -0.48696754984E+02  0.55176828725E+02  0.00000000000E+00 0. -1.
<scales pt_clust_5="13000.00000" pt_clust_6="13000.00000" pt_clust_7="13000.00000" pt_clust_8="13000.00000" pt_clust_9="25.94433"></scales>
<clustering>
<clus scale="   25.944">  2  9  1 -1</clus>
<clus scale="   88.646">  7  8 -1 -1</clus>
<clus scale="   91.820">  5  6 -1 -1</clus>
<clus scale="  110.598">  1  7  2 -1</clus>
<clus scale="   25.944">  2  5  1 -1</clus>
</clustering>
</event>
<event>
 9    1  0.1504846E-005  0.1035411E+03  0.7546771E-02  0.1273940E+00
         21   -1    0    0  501  502  0.00000000000E+00  0.00000000000E+00  0.18094764657E+03  0.18094764657E+03  0.00000000000E+00 0. -1.
          2   -1    0    0  502    0 -0.00000000000E+00 -0.00000000000E+00 -0.17255482986E+03  0.17255482986E+03  0.00000000000E+00 0. -1.
         23    2    1    2    0    0 -0.12923163333E+02 -0.60003346128E+02 -0.59125256721E+02  0.12873718168E+03  0.96488632840E+02 0.  0.
         23    2    1    2    0    0  0.48728371391E+02 -0.34409724245E+02  0.21658872105E+02  0.11386485684E+03  0.94538963300E+02 0.  0.
        -11    1    4    4    0    0  0.32775323851E+00  0.29350651978E+02  0.16444814802E+02  0.33645209578E+02  0.00000000000E+00 0. -1.
         11    1    4    4    0    0  0.48400618152E+02 -0.63760376223E+02  0.52140573030E+01  0.80219647264E+02  0.00000000000E+00 0.  1.
        -13    1    3    3    0    0  0.72267365187E+01 -0.23816825405E+02 -0.78977778458E+02  0.82806741170E+02  0.00000000000E+00 0.  1.
         13    1    3    3    0    0 -0.20149899851E+02 -0.36186520723E+02  0.19852521737E+02  0.45930440509E+02  0.00000000000E+00 0. -1.
          2    1    1    2  501    0 -0.35805208058E+02  0.94413070373E+02  0.45859201333E+02  0.11090043791E+03  0.00000000000E+00 0. -1.
<scales pt_clust_5="13000.00000" pt_clust_6="13000.00000" pt_clust_7="13000.00000" pt_clust_8="13000.00000" pt_clust_9="100.97446"></scales>
<clustering>
<clus scale="   94.539">  5  6 -1 -1</clus>
<clus scale="   96.489">  7  8 -1 -1</clus>
<clus scale="  100.974">  1  9  2 -1</clus>
<clus scale="  101.727">  1  5  2 -1</clus>
<clus scale="  100.974">  1  5  2 -1</clus>
</clustering>
</event>
<event>
 9    1  0.1504846E-005  0.9403240E+02  0.7546771E-02  0.1294062E+00
         -1   -1    0    0    0  501 -0.00000000000E+00  0.00000000000E+00  0.10161633896E+03  0.10161633896E+03  0.00000000000E+00 0.  1.
         21   -1    0    0  501  502  0.00000000000E+00 -0.00000000000E+00 -0.17427420630E+03  0.17427420630E+03  0.00000000000E+00 0. -1.
         23    2    1    2    0    0 -0.89646555091E+01 -0.17461171847E+02  0.17946984034E+02  0.95858164916E+02  0.92094711979E+02 0.  0.
         23    2    1    2    0    0  0.14341230993E+02 -0.17077949191E+02 -0.15484146576E+02  0.97177213129E+02  0.93307688330E+02 0.  0.
        -11    1    4    4    0    0 -0.27646123938E+02 -0.26605851395E+02  0.18242862723E+02  0.42485074291E+02  0.00000000000E+00 0.  1.
         11    1    4    4    0    0  0.41987354930E+02  0.95279022040E+01 -0.33727009299E+02  0.54692138838E+02  0.00000000000E+00 0. -1.
        -13    1    3    3    0    0 -0.35052010330E+02  0.13875897207E+02  0.35205910771E+02  0.51581393008E+02  0.00000000000E+00 0.  1.
         13    1    3    3    0    0  0.26087354821E+02 -0.31337069054E+02 -0.17258926737E+02  0.44276771908E+02  0.00000000000E+00 0. -1.
         -1    1    1    2    0  502 -0.53765754836E+01  0.34539121037E+02 -0.75120704796E+02  0.82855167220E+02  0.00000000000E+00 0.  1.
<scales pt_clust_5="13000.00000" pt_clust_6="13000.00000" pt_clust_7="13000.00000" pt_clust_8="13000.00000" pt_clust_9="34.95509"></scales>
<clustering>
<clus scale="   34.955">  2  9  1 -1</clus>
<clus scale="   92.095">  7  8 -1 -1</clus>
<clus scale="   92.829">  1  7  2 -1</clus>
<clus scale="   93.308">  5  6 -1 -1</clus>
<clus scale="   34.955">  2  5  1 -1</clus>
</clustering>
</event>
<event>
 9    1  0.1504846E-005  0.9603302E+02  0.7546771E-02  0.1289663E+00
         21   -1    0    0  501  502  0.00000000000E+00  0.00000000000E+00  0.36816481342E+02  0.36816481342E+02  0.00000000000E+00 0. -1.
          2   -1    0    0  502    0 -0.00000000000E+00 -0.00000000000E+00 -0.52288942777E+03  0.52288942777E+03  0.00000000000E+00 0. -1.
         23    2    1    2    0    0  0.10128866672E+02 -0.56970761727E+02 -0.23640594520E+03  0.25934522596E+03  0.89576300821E+02 0.  0.
         23    2    1    2    0    0  0.23042078548E+02 -0.66320878606E+01 -0.12471977755E+03  0.15628624827E+03  0.91079341858E+02 0.  0.
        -13    1    4    4    0    0  0.47323553636E+01 -0.46692752720E+02 -0.44005738807E+02  0.64335941680E+02  0.00000000000E+00 0. -1.
         13    1    4    4    0    0  0.18309723185E+02  0.40060664859E+02 -0.80714038745E+02  0.91950306593E+02  0.00000000000E+00 0.  1.
        -13    1    3    3    0    0  0.33035939037E+01  0.23465932273E+02 -0.78533611827E+02  0.82031042275E+02  0.00000000000E+00 0.  1.
         13    1    3    3    0    0  0.68252727685E+01 -0.80436694000E+02 -0.15787233337E+03  0.17731418368E+03  0.00000000000E+00 0. -1.
          2    1    1    2  501    0 -0.33170945221E+02  0.63602849588E+02 -0.12494722368E+03  0.14407443488E+03  0.00000000000E+00 0. -1.
<scales pt_clust_5="13000.00000" pt_clust_6="13000.00000" pt_clust_7="13000.00000" pt_clust_8="13000.00000" pt_clust_9="71.73308"></scales>
<clustering>
<clus scale="   71.733">  1  9  2 -1</clus>
<clus scale="   89.576">  7  8 -1 -1</clus>
<clus scale="   91.079">  5  6 -1 -1</clus>
<clus scale="   94.609">  2  7  1 -1</clus>
<clus scale="   71.733">  1  5  2 -1</clus>
</clustering>
</event>
<event>
 9    1  0.1504846E-005  0.1003955E+03  0.7546771E-02  0.1280000E+00
         21   -1    0    0  501  502  0.00000000000E+00  0.00000000000E+00  0.11451046663E+03  0.11451046663E+03  0.00000000000E+00 0.  1.
         -2   -1    0    0    0  501 -0.00000000000E+00 -0.00000000000E+00 -0.63173132261E+03  0.63173132261E+03  0.00000000000E+00 0.  1.
         23    2    1    2    0    0 -0.42030382108E+02  0.19427012932E+02 -0.44382756535E+03  0.45557675660E+03  0.91778600644E+02 0.  0.
         23    2    1    2    0    0  0.19568403283E+02 -0.67891883788E+01 -0.16774510576E+03  0.19285644345E+03  0.92877186598E+02 0.  0.
        -11    1    3    3    0    0  0.18861175023E+02  0.35157465414E+02 -0.16928306664E+03  0.17392109690E+03  0.00000000000E+00 0. -1.
         11    1    3    3    0    0 -0.60891557131E+02 -0.15730452481E+02 -0.27454449871E+03  0.28165565969E+03  0.00000000000E+00 0.  1.
        -11    1    4    4    0    0 -0.25198189539E+02  0.14167325950E+02 -0.12243877051E+03  0.12580506510E+03  0.00000000000E+00 0.  1.
         11    1    4    4    0    0  0.44766592822E+02 -0.20956514329E+02 -0.45306335246E+02  0.67051378354E+02  0.00000000000E+00 0. -1.
         -2    1    1    2    0  502  0.22461978825E+02 -0.12637824554E+02  0.94351815122E+02  0.97808589188E+02  0.00000000000E+00 0.  1.
<scales pt_clust_5="13000.00000" pt_clust_6="13000.00000" pt_clust_7="13000.00000" pt_clust_8="13000.00000" pt_clust_9="25.77315"></scales>
<clustering>
<clus scale="   25.773">  1  9  2 -1</clus>
<clus scale="   91.779">  5  6 -1 -1</clus>
<clus scale="   92.877">  7  8 -1 -1</clus>
<clus scale="   99.380">  2  5  1 -1</clus>
<clus scale="   25.773">  1  5  2 -1</clus>
</clustering>
</event>
<event>
 9    1  0.1504846E-005  0.1341579E+03  0.7546771E-02  0.1221700E+00
         21   -1    0    0  501  502  0.00000000000E+00  0.00000000000E+00  0.13077137955E+03  0.13077137955E+03  0.00000000000E+00 0.  1.
          3   -1    0    0  502    0 -0.00000000000E+00 -0.00000000000E+00 -0.44919962817E+03  0.44919962817E+03  0.00000000000E+00 0. -1.
         23    2    1    2    0    0  0.61443568953E+02  0.86566065022E+02 -0.35389980267E+03  0.38036071657E+03  0.90333872931E+02 0.  0.
         23    2    1    2    0    0 -0.13889740220E+02 -0.73545280764E+02 -0.25757737117E+02  0.12099773779E+03  0.91515891090E+02 0.  0.
        -11    1    4    4    0    0  0.23212400333E+01 -0.91563269842E+02 -0.10111765618E+02  0.92149163552E+02  0.00000000000E+00 0.  1.
         11    1    4    4    0    0 -0.16210980253E+02  0.18017989078E+02 -0.15645971499E+02  0.28848574234E+02  0.00000000000E+00 0. -1.
        -13    1    3    3    0    0  0.38597196985E+02 -0.10191708337E+02 -0.10605884843E+03  0.11332296265E+03  0.00000000000E+00 0.  1.
         13    1    3    3    0    0  0.22846371968E+02  0.96757773359E+02 -0.24784095424E+03  0.26703775391E+03  0.00000000000E+00 0. -1.
          3    1    1    2  501    0 -0.47553828734E+02 -0.13020784259E+02  0.61229291162E+02  0.78612553362E+02  0.00000000000E+00 0. -1.
<scales pt_clust_5="13000.00000" pt_clust_6="13000.00000" pt_clust_7="13000.00000" pt_clust_8="13000.00000" pt_clust_9="49.30423"></scales>
<clustering>
<clus scale="   49.304">  1  9  2 -1</clus>
<clus scale="   90.334">  7  8 -1 -1</clus>
<clus scale="   91.516">  5  6 -1 -1</clus>
<clus scale="  133.354">  2  7  1 -1</clus>
<clus scale="   49.304">  1  5  2 -1</clus>
</clustering>
</event>
<event>
 9    1  0.1504846E-005  0.1412271E+03  0.7546771E-02  0.1213147E+00
          1   -1    0    0  502    0 -0.00000000000E+00  0.00000000000E+00  0.22965818850E+03  0.22965818850E+03  0.00000000000E+00 0. -1.
         21   -1    0    0  501  502  0.00000000000E+00 -0.00000000000E+00 -0.29687859207E+03  0.29687859207E+03  0.00000000000E+00 0. -1.
         23    2    1    2    0    0 -0.72648393546E+01  0.59870288679E+02  0.19078012741E+02  0.11123756785E+03  0.91501893830E+02 0.  0.
         23    2    1    2    0    0  0.13613698021E+02 -0.16887478723E+03  0.88606041447E+02  0.20911032346E+03  0.84688076265E+02 0.  0.
        -11    1    4    4    0    0  0.70596062750E+01 -0.46990269527E+02  0.71510340104E+02  0.85858326403E+02  0.00000000000E+00 0.  1.
         11    1    4    4    0    0  0.65540917458E+01 -0.12188451771E+03  0.17095701343E+02  0.12325199706E+03  0.00000000000E+00 0. -1.
        -13    1    3    3    0    0  0.39418954194E+02  0.15887647248E+02  0.20271415802E+02  0.47087170051E+02  0.00000000000E+00 0.  1.
         13    1    3    3    0    0 -0.46683793549E+02  0.43982641431E+02 -0.11934030612E+01  0.64150397802E+02  0.00000000000E+00 0. -1.
          1    1    1    2  501    0 -0.63488586662E+01  0.10900449855E+03 -0.17490445776E+03  0.20618888926E+03  0.00000000000E+00 0. -1.
<scales pt_clust_5="13000.00000" pt_clust_6="13000.00000" pt_clust_7="13000.00000" pt_clust_8="13000.00000" pt_clust_9="109.18923"></scales>
<clustering>
<clus scale="   84.688">  5  6 -1 -1</clus>
<clus scale="   91.502">  7  8 -1 -1</clus>
<clus scale="  109.189">  2  9  1 -1</clus>
<clus scale="  136.911">  2  5  1 -1</clus>
<clus scale="  109.189">  2  5  1 -1</clus>
</clustering>
</event>
<event>
 9    1  0.1504846E-005  0.2162694E+03  0.7546771E-02  0.1137282E+00
         21   -1    0    0  501  502  0.00000000000E+00  0.00000000000E+00  0.14726673046E+03  0.14726673046E+03  0.00000000000E+00 0. -1.
         -3   -1    0    0    0  501 -0.00000000000E+00 -0.00000000000E+00 -0.43919250538E+03  0.43919250538E+03  0.00000000000E+00 0.  1.
         23    2    1    2    0    0 -0.44799400489E+02  0.19370514263E+03 -0.20653586121E+03  0.30246375404E+03  0.96429207065E+02 0.  0.
         23    2    1    2    0    0  0.24608832855E+02 -0.18181716104E+03 -0.92037007111E+01  0.20428775206E+03  0.89362759768E+02 0.  0.
        -13    1    4    4    0    0  0.43570748243E+02 -0.16069405746E+03 -0.29898221608E+02  0.16915937414E+03  0.00000000000E+00 0. -1.
         13    1    4    4    0    0 -0.18961915388E+02 -0.21123103577E+02  0.20694520897E+02  0.35128377917E+02  0.00000000000E+00 0.  1.
        -13    1    3    3    0    0 -0.43107866928E+02  0.97018661449E+02 -0.16722286326E+03  0.19807673982E+03  0.00000000000E+00 0.  1.
         13    1    3    3    0    0 -0.16915335610E+01  0.96686481185E+02 -0.39312997945E+02  0.10438701422E+03  0.00000000000E+00 0. -1.
         -3    1    1    2    0  502  0.20190567634E+02 -0.11887981596E+02 -0.76186212999E+02  0.79707729731E+02  0.00000000000E+00 0.  1.
<scales pt_clust_5="13000.00000" pt_clust_6="13000.00000" pt_clust_7="13000.00000" pt_clust_8="13000.00000" pt_clust_9="23.43040"></scales>
<clustering>
<clus scale="   23.430">  1  9  2 -1</clus>
<clus scale="   89.363">  5  6 -1 -1</clus>
<clus scale="   96.429">  7  8 -1 -1</clus>
<clus scale="  213.212">  1  5  2 -1</clus>
<clus scale="   23.430">  1  5  2 -1</clus>
</clustering>
</event>
<event>
 9    1  0.1504846E-005  0.1423434E+03  0.7546771E-02  0.1216856E+00
         21   -1    0    0  501  502  0.00000000000E+00  0.00000000000E+00  0.52731470467E+02  0.52731470467E+02  0.00000000000E+00 0. -1.
          2   -1    0    0  502    0 -0.00000000000E+00 -0.00000000000E+00 -0.81009612680E+03  0.81009612680E+03  0.00000000000E+00 0. -1.
         23    2    1    2    0    0 -0.61266041774E+02  0.64588730175E+02 -0.31629572192E+03  0.34808285147E+03  0.11486276961E+03 0.  0.
         23    2    1    2    0    0  0.10255186832E+03  0.33848168515E+02 -0.33860511659E+03  0.36678131632E+03  0.90622981720E+02 0.  0.
        -11    1    3    3    0    0 -0.75227769861E+02  0.76009779710E+00 -0.21260904732E+03  0.22552694320E+03  0.00000000000E+00 0.  1.
         11    1    3    3    0    0  0.13961728087E+02  0.63828632378E+02 -0.10368667460E+03  0.12255590827E+03  0.00000000000E+00 0. -1.
        -11    1    4    4    0    0  0.49806506788E+02 -0.21653709325E+02 -0.21180443073E+03  0.21865655289E+03  0.00000000000E+00 0.  1.
         11    1    4    4    0    0  0.52745361536E+02  0.55501877841E+02 -0.12680068586E+03  0.14812476343E+03  0.00000000000E+00 0. -1.
          2    1    1    2  501    0 -0.41285826549E+02 -0.98436898691E+02 -0.10246381783E+03  0.14796342947E+03  0.00000000000E+00 0. -1.
<scales pt_clust_5="13000.00000" pt_clust_6="13000.00000" pt_clust_7="13000.00000" pt_clust_8="13000.00000" pt_clust_9="106.74429"></scales>
<clustering>
<clus scale="   90.623">  7  8 -1 -1</clus>
<clus scale="  106.744">  1  9  2 -1</clus>
<clus scale="  114.863">  5  6 -1 -1</clus>
<clus scale="  123.615">  1  7  2 -1</clus>
<clus scale="  106.744">  1  5  2 -1</clus>
</clustering>
</event>
<event>
 9    1  0.1504846E-005  0.1134289E+03  0.7546771E-02  0.1257178E+00
         21   -1    0    0  501  502  0.00000000000E+00  0.00000000000E+00  0.55204005453E+02  0.55204005453E+02  0.00000000000E+00 0. -1.
          2   -1    0    0  502    0 -0.00000000000E+00 -0.00000000000E+00 -0.42572576780E+03  0.42572576780E+03  0.00000000000E+00 0. -1.
         23    2    1    2    0    0 -0.65424187464E+02  0.16124192760E+02 -0.25996667676E+03  0.28332045043E+03  0.90263451670E+02 0.  0.
         23    2    1    2    0    0  0.77557188748E+02  0.27371544347E+02 -0.64346224282E+02  0.13300013052E+03  0.82366735842E+02 0.  0.
        -11    1    4    4    0    0  0.53485227613E+02  0.46661407652E+02 -0.72119122992E+02  0.10118855883E+03  0.00000000000E+00 0. -1.
         11    1    4    4    0    0  0.24071961135E+02 -0.19289863305E+02  0.77728987104E+01  0.31811571693E+02  0.00000000000E+00 0.  1.
        -13    1    3    3    0    0 -0.12147174088E+01 -0.24014205722E+02 -0.13559547189E+03  0.13771089141E+03  0.00000000000E+00 0.  1.
         13    1    3    3    0    0 -0.64209470056E+02  0.40138398482E+02 -0.12437120487E+03  0.14560955902E+03  0.00000000000E+00 0. -1.
          2    1    1    2  501    0 -0.12133001283E+02 -0.43495737108E+02 -0.46208861301E+02  0.64609192298E+02  0.00000000000E+00 0. -1.
<scales pt_clust_5="13000.00000" pt_clust_6="13000.00000" pt_clust_7="13000.00000" pt_clust_8="13000.00000" pt_clust_9="45.15627"></scales>
<clustering>
<clus scale="   45.156">  1  9  2 -1</clus>
<clus scale="   82.367">  5  6 -1 -1</clus>
<clus scale="   90.263">  7  8 -1 -1</clus>
<clus scale="  107.252">  1  5  2 -1</clus>
<clus scale="   45.156">  1  5  2 -1</clus>
</clustering>
</event>
<event>
 9    1  0.1504846E-005  0.9764655E+02  0.7546771E-02  0.1286195E+00
         21   -1    0    0  501  502  0.00000000000E+00  0.00000000000E+00  0.38287377530E+02  0.38287377530E+02  0.00000000000E+00 0. -1.
          3   -1    0    0  502    0 -0.00000000000E+00 -0.00000000000E+00 -0.62766863983E+03  0.62766863983E+03  0.00000000000E+00 0. -1.
         23    2    1    2    0    0  0.37825156595E+02  0.22933856605E+02 -0.36213394205E+03  0.37568354784E+03  0.89668455322E+02 0.  0.
         23    2    1    2    0    0  0.31894105164E+02 -0.45225111692E+02 -0.14615992654E+03  0.18103492592E+03  0.91369445691E+02 0.  0.
        -11    1    3    3    0    0  0.45266411863E+02 -0.24786544706E+02 -0.17953838775E+03  0.18680860129E+03  0.00000000000E+00 0. -1.
         11    1    3    3    0    0 -0.74412552671E+01  0.47720401312E+02 -0.18259555430E+03  0.18887494655E+03  0.00000000000E+00 0.  1.
        -11    1    4    4    0    0 -0.21712784886E+02 -0.11372667426E+02 -0.32919917495E+01  0.24730948255E+02  0.00000000000E+00 0.  1.
         11    1    4    4    0    0  0.53606890050E+02 -0.33852444266E+02 -0.14286793479E+03  0.15630397767E+03  0.00000000000E+00 0. -1.
          3    1    1    2  501    0 -0.69719261759E+02  0.22291255086E+02 -0.81087393719E+02  0.10923754361E+03  0.00000000000E+00 0. -1.
<scales pt_clust_5="13000.00000" pt_clust_6="13000.00000" pt_clust_7="13000.00000" pt_clust_8="13000.00000" pt_clust_9="73.19614"></scales>
<clustering>
<clus scale="   73.196">  1  9  2 -1</clus>
<clus scale="   89.668">  5  6 -1 -1</clus>
<clus scale="   91.369">  7  8 -1 -1</clus>
<clus scale="   96.057">  2  5  1 -1</clus>
<clus scale="   73.196">  1  5  2 -1</clus>
</clustering>
</event>
<event>
 9    1  0.1504846E-005  0.1385923E+03  0.7546771E-02  0.1215463E+00
         21   -1    0    0  501  502  0.00000000000E+00  0.00000000000E+00  0.14849194462E+03  0.14849194462E+03  0.00000000000E+00 0.  1.
         -1   -1    0    0    0  501 -0.00000000000E+00 -0.00000000000E+00 -0.29078379432E+03  0.29078379432E+03  0.00000000000E+00 0.  1.
         23    2    1    2    0    0  0.61641026458E+02 -0.47985999180E+02 -0.74583778844E+02  0.14076258836E+03  0.90272332174E+02 0.  0.
         23    2    1    2    0    0 -0.10523713774E+03  0.83783732723E+02 -0.13456717258E+03  0.21103607855E+03  0.91287093739E+02 0.  0.
        -11    1    4    4    0    0 -0.75209790647E+02  0.80087724672E+02 -0.14233106350E+03  0.17980180168E+03  0.00000000000E+00 0.  1.
         11    1    4    4    0    0 -0.30027347095E+02  0.36960080513E+01  0.77638909165E+01  0.31234276864E+02  0.00000000000E+00 0. -1.
        -13    1    3    3    0    0  0.10735700139E+02 -0.38673241457E+02  0.10219507687E+02  0.41416339766E+02  0.00000000000E+00 0.  1.
         13    1    3    3    0    0  0.50905326319E+02 -0.93127577227E+01 -0.84803286531E+02  0.99346248598E+02  0.00000000000E+00 0. -1.
         -1    1    1    2    0  502  0.43596111284E+02 -0.35797733543E+02  0.66859101726E+02  0.87477072022E+02  0.00000000000E+00 0.  1.
<scales pt_clust_5="13000.00000" pt_clust_6="13000.00000" pt_clust_7="13000.00000" pt_clust_8="13000.00000" pt_clust_9="56.41009"></scales>
<clustering>
<clus scale="   56.410">  1  9  2 -1</clus>
<clus scale="   90.272">  7  8 -1 -1</clus>
<clus scale="   91.287">  5  6 -1 -1</clus>
<clus scale="  137.926">  2  7  1 -1</clus>
<clus scale="   56.410">  1  5  2 -1</clus>
</clustering>
</event>
<event>
 9    1  0.1504846E-005  0.1248351E+03  0.7546771E-02  0.1235333E+00
         21   -1    0    0  501  502  0.00000000000E+00  0.00000000000E+00  0.26334582901E+03  0.26334582901E+03  0.00000000000E+00 0.  1.
          1   -1    0    0  502    0 -0.00000000000E+00 -0.00000000000E+00 -0.76235876467E+02  0.76235876467E+02  0.00000000000E+00 0. -1.
         23    2    1    2    0    0 -0.86713827099E+02 -0.34207337179E+02  0.38838292108E+02  0.13559393502E+03  0.90486863981E+02 0.  0.
         23    2    1    2    0    0  0.72557211902E+02  0.16114952053E+02  0.12467967346E+03  0.17105866474E+03  0.90508591483E+02 0.  0.
        -11    1    3    3    0    0 -0.90697611640E+02 -0.27013045042E+01  0.47852159600E+02  0.10258256666E+03  0.00000000000E+00 0. -1.
         11    1    3    3    0    0  0.39837845406E+01 -0.31506032674E+02 -0.90138674915E+01  0.33011368365E+02  0.00000000000E+00 0.  1.
        -13    1    4    4    0    0  0.63317141391E+02 -0.68395609633E+01  0.13087746228E+03  0.14554982006E+03  0.00000000000E+00 0.  1.
         13    1    4    4    0    0  0.92400705113E+01  0.22954513016E+02 -0.61977888185E+01  0.25508844684E+02  0.00000000000E+00 0. -1.
          1    1    1    2  501    0  0.14156615197E+02  0.18092385126E+02  0.23591986975E+02  0.32929105710E+02  0.00000000000E+00 0. -1.
<scales pt_clust_5="13000.00000" pt_clust_6="13000.00000" pt_clust_7="13000.00000" pt_clust_8="13000.00000" pt_clust_9="22.97268"></scales>
<clustering>
<clus scale="   22.973">  1  9  2 -1</clus>
<clus scale="   90.487">  5  6 -1 -1</clus>
<clus scale="   90.509">  7  8 -1 -1</clus>
<clus scale="  124.819">  2  5  1 -1</clus>
<clus scale="   22.973">  1  5  2 -1</clus>
</clustering>
</event>
<event>
 9    1  0.1504846E-005  0.1493237E+03  0.7546771E-02  0.1202879E+00
         21   -1    0    0  501  502  0.00000000000E+00  0.00000000000E+00  0.40340643594E+03  0.40340643594E+03  0.00000000000E+00 0. -1.
          1   -1    0    0  502    0 -0.00000000000E+00 -0.00000000000E+00 -0.14585625868E+03  0.14585625868E+03  0.00000000000E+00 0. -1.
         23    2    1    2    0    0  0.11623195029E+03 -0.17024098396E+02 -0.26315125891E+02  0.15126802601E+03  0.91596089694E+02 0.  0.
         23    2    1    2    0    0 -0.94244793741E+02  0.48956855592E+02  0.39608220117E+02  0.15067977085E+03  0.99281052505E+02 0.  0.
        -13    1    3    3    0    0  0.92952565924E+02 -0.10659056727E+02  0.23014936087E+02  0.96350829188E+02  0.00000000000E+00 0.  1.
         13    1    3    3    0    0  0.23279384369E+02 -0.63650416688E+01 -0.49330061978E+02  0.54917196822E+02  0.00000000000E+00 0. -1.
        -13    1    4    4    0    0  0.96911127400E+01 -0.18751594438E+02  0.28239265915E+01  0.21295880388E+02  0.00000000000E+00 0. -1.
         13    1    4    4    0    0 -0.10393590648E+03  0.67708450030E+02  0.36784293525E+02  0.12938389046E+03  0.00000000000E+00 0.  1.
          1    1    1    2  501    0 -0.21987156553E+02 -0.31932757196E+02  0.24425708304E+03  0.24731489775E+03  0.00000000000E+00 0. -1.
<scales pt_clust_5="13000.00000" pt_clust_6="13000.00000" pt_clust_7="13000.00000" pt_clust_8="13000.00000" pt_clust_9="38.77030"></scales>
<clustering>
<clus scale="   38.770">  1  9  2 -1</clus>
<clus scale="   91.596">  5  6 -1 -1</clus>
<clus scale="   99.281">  7  8 -1 -1</clus>
<clus scale="  144.328">  2  5  1 -1</clus>
<clus scale="   38.770">  1  5  2 -1</clus>
</clustering>
</event>
<event>
 9    1  0.1504846E-005  0.2777894E+03  0.7546771E-02  0.1096942E+00
         21   -1    0    0  501  502  0.00000000000E+00  0.00000000000E+00  0.62973570944E+02  0.62973570944E+02  0.00000000000E+00 0.  1.
          2   -1    0    0  502    0 -0.00000000000E+00 -0.00000000000E+00 -0.16562892462E+04  0.16562892462E+04  0.00000000000E+00 0.  1.
         23    2    1    2    0    0  0.13457186357E+02  0.27646193988E+03 -0.10647120911E+04  0.11038074563E+04  0.90370147279E+02 0.  0.
         23    2    1    2    0    0 -0.53787472062E+02 -0.23263524240E+03 -0.42442966093E+03  0.49545737073E+03  0.91242648905E+02 0.  0.
        -13    1    4    4    0    0 -0.71953051860E+02 -0.18962203230E+03 -0.38135120182E+03  0.43192880887E+03  0.00000000000E+00 0.  1.
         13    1    4    4    0    0  0.18165579798E+02 -0.43013210104E+02 -0.43078459111E+02  0.63528561862E+02  0.00000000000E+00 0. -1.
        -13    1    3    3    0    0 -0.23636752424E+02  0.22528599746E+03 -0.87486985248E+03  0.90371994306E+03  0.00000000000E+00 0.  1.
         13    1    3    3    0    0  0.37093938781E+02  0.51175942414E+02 -0.18984223867E+03  0.20008751325E+03  0.00000000000E+00 0. -1.
          2    1    1    2  501    0  0.40330285704E+02 -0.43826697477E+02 -0.10417392320E+03  0.11999799012E+03  0.00000000000E+00 0.  1.
<scales pt_clust_5="13000.00000" pt_clust_6="13000.00000" pt_clust_7="13000.00000" pt_clust_8="13000.00000" pt_clust_9="59.55931"></scales>
<clustering>
<clus scale="   59.559">  1  9  2 -1</clus>
<clus scale="   90.370">  7  8 -1 -1</clus>
<clus scale="   91.243">  5  6 -1 -1</clus>
<clus scale="  277.504">  2  7  1 -1</clus>
<clus scale="   59.559">  1  5  2 -1</clus>
</clustering>
</event>
<event>
 9    1  0.1504846E-005  0.9897105E+02  0.7546771E-02  0.1284016E+00
          2   -1    0    0  502    0 -0.00000000000E+00  0.00000000000E+00  0.21352187496E+03  0.21352187496E+03  0.00000000000E+00 0. -1.
         21   -1    0    0  501  502  0.00000000000E+00 -0.00000000000E+00 -0.89897302675E+02  0.89897302675E+02  0.00000000000E+00 0.  1.
         23    2    1    2    0    0  0.23705966384E+02  0.24488037986E+02  0.87594235133E+02  0.13127179335E+03  0.91640039575E+02 0.  0.
         23    2    1    2    0    0 -0.59200035216E+02  0.20789362883E+02  0.36825293871E+02  0.11461040568E+03  0.88558461160E+02 0.  0.
        -11    1    4    4    0    0  0.11964596115E+02  0.21588208362E+02  0.35738246655E+02  0.43432989471E+02  0.00000000000E+00 0. -1.
         11    1    4    4    0    0 -0.71164631331E+02 -0.79884547872E+00  0.10870472160E+01  0.71177416209E+02  0.00000000000E+00 0.  1.
        -13    1    3    3    0    0 -0.66620893901E+01  0.38911440382E+02  0.22467677448E+01  0.39541517332E+02  0.00000000000E+00 0.  1.
         13    1    3    3    0    0  0.30368055774E+02 -0.14423402396E+02  0.85347467388E+02  0.91730276015E+02  0.00000000000E+00 0. -1.
          2    1    1    2  501    0  0.35494068832E+02 -0.45277400869E+02 -0.79495671433E+00  0.57536978613E+02  0.00000000000E+00 0. -1.
<scales pt_clust_5="13000.00000" pt_clust_6="13000.00000" pt_clust_7="13000.00000" pt_clust_8="13000.00000" pt_clust_9="57.53149"></scales>
<clustering>
<clus scale="   57.531">  2  9  1 -1</clus>
<clus scale="   88.558">  5  6 -1 -1</clus>
<clus scale="   91.640">  7  8 -1 -1</clus>
<clus scale="   96.125">  2  5  1 -1</clus>
<clus scale="   57.531">  2  5  1 -1</clus>
</clustering>
</event>
<event>
 9    1  0.1504846E-005  0.3106451E+03  0.7546771E-02  0.1119520E+00
         21   -1    0    0  501  502  0.00000000000E+00  0.00000000000E+00  0.46632555509E+03  0.46632555509E+03  0.00000000000E+00 0. -1.
          1   -1    0    0  502    0 -0.00000000000E+00 -0.00000000000E+00 -0.38770422520E+03  0.38770422520E+03  0.00000000000E+00 0. -1.
         23    2    1    2    0    0  0.62395198146E+02 -0.91391097373E+01 -0.12126625045E+03  0.16468977773E+03  0.91872386005E+02 0.  0.
         23    2    1    2    0    0 -0.30356538044E+03  0.90666625409E+02  0.26898497203E+03  0.42555175002E+03  0.91482236543E+02 0.  0.
        -11    1    4    4    0    0 -0.27861713119E+02  0.41019766894E+02  0.42665349796E+02  0.65415811599E+02  0.00000000000E+00 0.  1.
         11    1    4    4    0    0 -0.27570366732E+03  0.49646858515E+02  0.22631962223E+03  0.36013593842E+03  0.00000000000E+00 0. -1.
        -13    1    3    3    0    0  0.86544058414E+02 -0.70335623323E+01 -0.10007074674E+03  0.13248961997E+03  0.00000000000E+00 0. -1.
         13    1    3    3    0    0 -0.24148860268E+02 -0.21055474050E+01 -0.21195503713E+02  0.32200157760E+02  0.00000000000E+00 0.  1.
          1    1    1    2  501    0  0.24117018229E+03 -0.81527515671E+02 -0.69097391691E+02  0.26378825254E+03  0.00000000000E+00 0. -1.
<scales pt_clust_5="13000.00000" pt_clust_6="13000.00000" pt_clust_7="13000.00000" pt_clust_8="13000.00000" pt_clust_9="296.86949"></scales>
<clustering>
<clus scale="   91.482">  5  6 -1 -1</clus>
<clus scale="   91.872">  7  8 -1 -1</clus>
<clus scale="  111.433">  2  7  1 -1</clus>
<clus scale="  296.869">  1  9  2 -1</clus>
<clus scale="  296.869">  1  5  2 -1</clus>
</clustering>
</event>
<event>
 9    1  0.1504846E-005  0.9445212E+02  0.7546771E-02  0.1293045E+00
         21   -1    0    0  501  502  0.00000000000E+00  0.00000000000E+00  0.44664833314E+02  0.44664833314E+02  0.00000000000E+00 0. -1.
         -4   -1    0    0    0  501 -0.00000000000E+00 -0.00000000000E+00 -0.34028630772E+03  0.34028630772E+03  0.00000000000E+00 0.  1.
         23    2    1    2    0    0  0.30733337451E+02  0.29405417454E+01 -0.13838927913E+03  0.16843966878E+03  0.90923839690E+02 0.  0.
         23    2    1    2    0    0  0.70934125370E+01 -0.32213072214E+02 -0.12555208539E+03  0.15914097969E+03  0.92057192805E+02 0.  0.
        -11    1    4    4    0    0  0.48427364992E+02 -0.27446968014E+02 -0.63675539216E+02  0.84576119725E+02  0.00000000000E+00 0.  1.
         11    1    4    4    0    0 -0.41333952455E+02 -0.47661041993E+01 -0.61876546175E+02  0.74564859963E+02  0.00000000000E+00 0. -1.
        -13    1    3    3    0    0  0.18872091698E+02  0.35338330600E+02 -0.19328359268E+02  0.44480770302E+02  0.00000000000E+00 0. -1.
         13    1    3    3    0    0  0.11861245753E+02 -0.32397788855E+02 -0.11906091986E+03  0.12395889848E+03  0.00000000000E+00 0.  1.
         -4    1    1    2    0  502 -0.37826749988E+02  0.29272530468E+02 -0.31680109877E+02  0.57370492560E+02  0.00000000000E+00 0.  1.
<scales pt_clust_5="13000.00000" pt_clust_6="13000.00000" pt_clust_7="13000.00000" pt_clust_8="13000.00000" pt_clust_9="47.83037"></scales>
<clustering>
<clus scale="   47.830">  1  9  2 -1</clus>
<clus scale="   90.924">  7  8 -1 -1</clus>
<clus scale="   92.057">  5  6 -1 -1</clus>
<clus scale="   93.348">  2  7  1 -1</clus>
<clus scale="   47.830">  1  5  2 -1</clus>
</clustering>
</event>
<event>
 9    1  0.1504846E-005  0.1074729E+03  0.7546771E-02  0.1269564E+00
         21   -1    0    0  501  502  0.00000000000E+00  0.00000000000E+00  0.12598349476E+03  0.12598349476E+03  0.00000000000E+00 0.  1.
          1   -1    0    0  502    0 -0.00000000000E+00 -0.00000000000E+00 -0.18564351281E+03  0.18564351281E+03  0.00000000000E+00 0. -1.
         23    2    1    2    0    0 -0.21702019108E+02  0.28992044472E+02 -0.10025222924E+03  0.14246303049E+03  0.94518195673E+02 0.  0.
         23    2    1    2    0    0  0.15271467576E+02 -0.69143734291E+01 -0.17957142333E+02  0.10626085832E+03  0.10338222656E+03 0.  0.
        -11    1    3    3    0    0  0.35785270657E+02  0.24303877724E+02 -0.48267462031E+02  0.64815213949E+02  0.00000000000E+00 0. -1.
         11    1    3    3    0    0 -0.57487289765E+02  0.46881667475E+01 -0.51984767205E+02  0.77647816540E+02  0.00000000000E+00 0.  1.
        -13    1    4    4    0    0 -0.15451137226E+02 -0.44754162538E+02 -0.30003968386E+02  0.56052750378E+02  0.00000000000E+00 0.  1.
         13    1    4    4    0    0  0.30722604801E+02  0.37839789109E+02  0.12046826053E+02  0.50208107946E+02  0.00000000000E+00 0. -1.
          1    1    1    2  501    0  0.64305515322E+01 -0.22077671042E+02  0.58549353519E+02  0.62903118756E+02  0.00000000000E+00 0. -1.
<scales pt_clust_5="13000.00000" pt_clust_6="13000.00000" pt_clust_7="13000.00000" pt_clust_8="13000.00000" pt_clust_9="22.99512"></scales>
<clustering>
<clus scale="   22.995">  1  9  2 -1</clus>
<clus scale="   94.518">  5  6 -1 -1</clus>
<clus scale="   98.976">  2  5  1 -1</clus>
<clus scale="  103.382">  7  8 -1 -1</clus>
<clus scale="   22.995">  1  5  2 -1</clus>
</clustering>
</event>
<event>
 9    1  0.1504846E-005  0.1213055E+03  0.7546771E-02  0.1241050E+00
         21   -1    0    0  501  502  0.00000000000E+00  0.00000000000E+00  0.54785555052E+02  0.54785555052E+02  0.00000000000E+00 0.  1.
         -2   -1    0    0    0  501 -0.00000000000E+00 -0.00000000000E+00 -0.42737464508E+03  0.42737464508E+03  0.00000000000E+00 0.  1.
         23    2    1    2    0    0  0.45167233115E+01 -0.78271473827E+02 -0.27313523358E+03  0.29870893609E+03  0.92072516360E+02 0.  0.
         23    2    1    2    0    0  0.21285290058E+02  0.79609656160E+02 -0.63342613660E+02  0.13904905147E+03  0.92366612384E+02 0.  0.
        -11    1    4    4    0    0  0.18874254063E+02  0.23808366566E+02  0.21678255982E+02  0.37323217538E+02  0.00000000000E+00 0.  1.
         11    1    4    4    0    0  0.24110359942E+01  0.55801289595E+02 -0.85020869642E+02  0.10172583393E+03  0.00000000000E+00 0. -1.
        -13    1    3    3    0    0 -0.18224012472E+02 -0.92291870149E+02 -0.21853798532E+03  0.23792594427E+03  0.00000000000E+00 0.  1.
         13    1    3    3    0    0  0.22740735783E+02  0.14020396322E+02 -0.54597248262E+02  0.60782991822E+02  0.00000000000E+00 0. -1.
         -2    1    1    2    0  502 -0.25802013369E+02 -0.13381823336E+01 -0.36111242784E+02  0.44402212572E+02  0.00000000000E+00 0.  1.
<scales pt_clust_5="13000.00000" pt_clust_6="13000.00000" pt_clust_7="13000.00000" pt_clust_8="13000.00000" pt_clust_9="25.83670"></scales>
<clustering>
<clus scale="   25.837">  1  9  2 -1</clus>
<clus scale="   92.073">  7  8 -1 -1</clus>
<clus scale="   92.367">  5  6 -1 -1</clus>
<clus scale="  121.082">  2  7  1 -1</clus>
<clus scale="   25.837">  1  5  2 -1</clus>
</clustering>
</event>
<event>
 9    1  0.1504846E-005  0.1074035E+03  0.7546771E-02  0.1265678E+00
         -3   -1    0    0    0  501 -0.00000000000E+00  0.00000000000E+00  0.35678600098E+03  0.35678600098E+03  0.00000000000E+00 0.  1.
         21   -1    0    0  501  502  0.00000000000E+00 -0.00000000000E+00 -0.97926117939E+02  0.97926117939E+02  0.00000000000E+00 0. -1.
         23    2    1    2    0    0  0.39683329802E+02  0.35558205436E+02  0.26430228782E+03  0.28447860411E+03  0.90737115940E+02 0.  0.
         23    2    1    2    0    0 -0.51032100982E+02 -0.56260055258E+02  0.35355588036E+02  0.12309714444E+03  0.90185476743E+02 0.  0.
        -11    1    4    4    0    0 -0.50107727152E+02  0.10455649659E+02  0.15650791374E+02  0.53526182385E+02  0.00000000000E+00 0. -1.
         11    1    4    4    0    0 -0.92437383005E+00 -0.66715704917E+02  0.19704796662E+02  0.69570962054E+02  0.00000000000E+00 0.  1.
        -11    1    3    3    0    0  0.55907990893E+02  0.51182926740E+02  0.15097463056E+03  0.16893411292E+03  0.00000000000E+00 0.  1.
         11    1    3    3    0    0 -0.16224661090E+02 -0.15624721304E+02  0.11332765726E+03  0.11554449119E+03  0.00000000000E+00 0. -1.
         -3    1    1    2    0  502  0.11348771180E+02  0.20701849822E+02 -0.40797992821E+02  0.47136370369E+02  0.00000000000E+00 0.  1.
<scales pt_clust_5="13000.00000" pt_clust_6="13000.00000" pt_clust_7="13000.00000" pt_clust_8="13000.00000" pt_clust_9="23.60850"></scales>
<clustering>
<clus scale="   23.608">  2  9  1 -1</clus>
<clus scale="   90.185">  5  6 -1 -1</clus>
<clus scale="   90.737">  7  8 -1 -1</clus>
<clus scale="  106.938">  2  5  1 -1</clus>
<clus scale="   23.608">  2  5  1 -1</clus>
</clustering>
</event>
<event>
 9    1  0.1504846E-005  0.1248737E+03  0.7546771E-02  0.1237864E+00
          2   -1    0    0  502    0 -0.00000000000E+00  0.00000000000E+00  0.20433212321E+03  0.20433212321E+03  0.00000000000E+00 0. -1.
         21   -1    0    0  501  502  0.00000000000E+00 -0.00000000000E+00 -0.20028419800E+03  0.20028419800E+03  0.00000000000E+00 0.  1.
         23    2    1    2    0    0  0.66793325788E+02 -0.32092875526E+02  0.10394359599E+03  0.15878882571E+03  0.94436851875E+02 0.  0.
         23    2    1    2    0    0 -0.90877984847E+02  0.37327981597E+02  0.12290508910E+02  0.13096576971E+03  0.85725083176E+02 0.  0.
        -11    1    3    3    0    0  0.34302755923E+02  0.27842566372E+02  0.14861969824E+02  0.46612935042E+02  0.00000000000E+00 0.  1.
         11    1    3    3    0    0  0.32490569865E+02 -0.59935441899E+02  0.89081626167E+02  0.11217589066E+03  0.00000000000E+00 0. -1.
        -11    1    4    4    0    0 -0.65470816507E+02  0.50110247654E+02 -0.23044166724E+02  0.85606649005E+02  0.00000000000E+00 0.  1.
         11    1    4    4    0    0 -0.25407168341E+02 -0.12782266056E+02  0.35334675634E+02  0.45359120702E+02  0.00000000000E+00 0. -1.
          2    1    1    2  501    0  0.24084659059E+02 -0.52351060709E+01 -0.11218617969E+03  0.11486172579E+03  0.00000000000E+00 0. -1.
<scales pt_clust_5="13000.00000" pt_clust_6="13000.00000" pt_clust_7="13000.00000" pt_clust_8="13000.00000" pt_clust_9="24.64705"></scales>
<clustering>
<clus scale="   24.647">  2  9  1 -1</clus>
<clus scale="   85.725">  7  8 -1 -1</clus>
<clus scale="   94.437">  5  6 -1 -1</clus>
<clus scale="  118.423">  2  7  1 -1</clus>
<clus scale="   24.647">  2  5  1 -1</clus>
</clustering>
</event>
<event>
 9    1  0.1504846E-005  0.2032109E+03  0.7546771E-02  0.1161940E+00
          2   -1    0    0  502    0 -0.00000000000E+00  0.00000000000E+00  0.77774047942E+03  0.77774047942E+03  0.00000000000E+00 0. -1.
         21   -1    0    0  501  502  0.00000000000E+00 -0.00000000000E+00 -0.17818178852E+03  0.17818178852E+03  0.00000000000E+00 0. -1.
         23    2    1    2    0    0  0.41288987788E+02 -0.10346076855E+03  0.22852322507E+03  0.26969670446E+03  0.90025201246E+02 0.  0.
         23    2    1    2    0    0  0.13992300664E+03 -0.65936474454E+02 -0.47938645836E+02  0.19932462991E+03  0.11621586756E+03 0.  0.
        -11    1    3    3    0    0 -0.26375592815E+02 -0.45675336560E+02  0.66822197510E+02  0.85129985001E+02  0.00000000000E+00 0.  1.
         11    1    3    3    0    0  0.67664580603E+02 -0.57785431990E+02  0.16170102756E+03  0.18456671946E+03  0.00000000000E+00 0. -1.
        -11    1    4    4    0    0  0.68353193029E+02 -0.60866628523E+02 -0.79224268018E+02  0.12105118797E+03  0.00000000000E+00 0. -1.
         11    1    4    4    0    0  0.71569813612E+02 -0.50698459306E+01  0.31285622183E+02  0.78273441943E+02  0.00000000000E+00 0.  1.
          2    1    1    2  501    0 -0.18121199443E+03  0.16939724300E+03  0.41897411167E+03  0.48690093357E+03  0.00000000000E+00 0. -1.
<scales pt_clust_5="13000.00000" pt_clust_6="13000.00000" pt_clust_7="13000.00000" pt_clust_8="13000.00000" pt_clust_9="166.69903"></scales>
<clustering>
<clus scale="   90.025">  5  6 -1 -1</clus>
<clus scale="  116.216">  7  8 -1 -1</clus>
<clus scale="  143.225">  1  5  2 -1</clus>
<clus scale="  166.699">  2  9  1 -1</clus>
<clus scale="  166.699">  2  5  1 -1</clus>
</clustering>
</event>
<event>
 9    1  0.1504846E-005  0.9785389E+02  0.7546771E-02  0.1286820E+00
         21   -1    0    0  501  502  0.00000000000E+00  0.00000000000E+00  0.55978993929E+03  0.55978993929E+03  0.00000000000E+00 0. -1.
         -1   -1    0    0    0  501 -0.00000000000E+00 -0.00000000000E+00 -0.34154391461E+02  0.34154391461E+02  0.00000000000E+00 0.  1.
         23    2    1    2    0    0 -0.15992383653E+01 -0.22268472035E+02  0.92170642740E+02  0.13277307741E+03  0.92923733733E+02 0.  0.
         23    2    1    2    0    0 -0.31728699739E+02 -0.50303118359E+01  0.20689422386E+03  0.23054114115E+03  0.96498619009E+02 0.  0.
        -13    1    3    3    0    0 -0.16948092181E+02  0.33433853127E+02  0.41514319165E+02  0.55932987219E+02  0.00000000000E+00 0.  1.
         13    1    3    3    0    0  0.15348853816E+02 -0.55702325162E+02  0.50656323575E+02  0.76840090188E+02  0.00000000000E+00 0. -1.
        -13    1    4    4    0    0  0.44176112222E+01  0.41324698165E+02  0.10470254062E+03  0.11264931415E+03  0.00000000000E+00 0.  1.
         13    1    4    4    0    0 -0.36146310961E+02 -0.46355010000E+02  0.10219168324E+03  0.11789182699E+03  0.00000000000E+00 0. -1.
         -1    1    1    2    0  502  0.33327938104E+02  0.27298783871E+02  0.22657068123E+03  0.23063011220E+03  0.00000000000E+00 0.  1.
<scales pt_clust_5="13000.00000" pt_clust_6="13000.00000" pt_clust_7="13000.00000" pt_clust_8="13000.00000" pt_clust_9="43.08103"></scales>
<clustering>
<clus scale="   43.081">  1  9  2 -1</clus>
<clus scale="   92.924">  5  6 -1 -1</clus>
<clus scale="   94.330">  2  5  1 -1</clus>
<clus scale="   96.499">  7  8 -1 -1</clus>
<clus scale="   43.081">  1  5  2 -1</clus>
</clustering>
</event>
<event>
 9    1  0.1504846E-005  0.1363832E+03  0.7546771E-02  0.1218590E+00
         21   -1    0    0  501  502  0.00000000000E+00  0.00000000000E+00  0.45675200978E+02  0.45675200978E+02  0.00000000000E+00 0. -1.
          2   -1    0    0  502    0 -0.00000000000E+00 -0.00000000000E+00 -0.61689987305E+03  0.61689987305E+03  0.00000000000E+00 0. -1.
         23    2    1    2    0    0  0.91806256820E+02  0.50692906942E+02 -0.33565120060E+03  0.36351998666E+03  0.92124332472E+02 0.  0.
         23    2    1    2    0    0 -0.67638443862E+02 -0.70388272170E+02 -0.23212439760E+03  0.26768811899E+03  0.90805975224E+02 0.  0.
        -11    1    4    4    0    0  0.19547045283E+02 -0.29853023435E+02 -0.81814590049E+02  0.89257588655E+02  0.00000000000E+00 0.  1.
         11    1    4    4    0    0 -0.87185489144E+02 -0.40535248736E+02 -0.15030980755E+03  0.17843053033E+03  0.00000000000E+00 0. -1.
        -11    1    3    3    0    0  0.31041154676E+02  0.69384555577E+02 -0.18380960538E+03  0.19890636205E+03  0.00000000000E+00 0.  1.
         11    1    3    3    0    0  0.60765102145E+02 -0.18691648635E+02 -0.15184159522E+03  0.16461362461E+03  0.00000000000E+00 0. -1.
          2    1    1    2  501    0 -0.24167812958E+02  0.19695365228E+02 -0.34490738679E+01  0.31366968378E+02  0.00000000000E+00 0. -1.
<scales pt_clust_5="13000.00000" pt_clust_6="13000.00000" pt_clust_7="13000.00000" pt_clust_8="13000.00000" pt_clust_9="31.17676"></scales>
<clustering>
<clus scale="   31.177">  1  9  2 -1</clus>
<clus scale="   90.806">  5  6 -1 -1</clus>
<clus scale="   92.124">  7  8 -1 -1</clus>
<clus scale="  135.496">  1  5  2 -1</clus>
<clus scale="   31.177">  1  5  2 -1</clus>
</clustering>
</event>
<event>
 9    1  0.1504846E-005  0.1147575E+03  0.7546771E-02  0.1252138E+00
         21   -1    0    0  501  502  0.00000000000E+00  0.00000000000E+00  0.81905710009E+02  0.81905710009E+02  0.00000000000E+00 0. -1.
          2   -1    0    0  502    0 -0.00000000000E+00 -0.00000000000E+00 -0.37565612598E+03  0.37565612598E+03  0.00000000000E+00 0. -1.
         23    2    1    2    0    0  0.72618177403E+02  0.84126403023E+01 -0.12839209864E+03  0.17406841169E+03  0.92038626405E+02 0.  0.
         23    2    1    2    0    0 -0.25540974343E+02 -0.91082016575E+02 -0.11964838830E+03  0.17794776387E+03  0.91659122470E+02 0.  0.
        -11    1    3    3    0    0  0.22171135135E+02  0.29339562427E+02 -0.25230059703E+01  0.36861018918E+02  0.00000000000E+00 0.  1.
         11    1    3    3    0    0  0.50447042268E+02 -0.20926922125E+02 -0.12586909267E+03  0.13720739277E+03  0.00000000000E+00 0. -1.
        -13    1    4    4    0    0  0.25057956158E+02 -0.49864291263E+02 -0.90834127346E+02  0.10660763294E+03  0.00000000000E+00 0. -1.
         13    1    4    4    0    0 -0.50598930501E+02 -0.41217725312E+02 -0.28814260950E+02  0.71340130936E+02  0.00000000000E+00 0.  1.
          2    1    1    2  501    0 -0.47077203060E+02  0.82669376273E+02 -0.45709929036E+02  0.10554566042E+03  0.00000000000E+00 0. -1.
<scales pt_clust_5="13000.00000" pt_clust_6="13000.00000" pt_clust_7="13000.00000" pt_clust_8="13000.00000" pt_clust_9="95.13406"></scales>
<clustering>
<clus scale="   91.659">  7  8 -1 -1</clus>
<clus scale="   92.039">  5  6 -1 -1</clus>
<clus scale="   95.134">  1  9  2 -1</clus>
<clus scale="  114.453">  1  7  2 -1</clus>
<clus scale="   95.134">  1  5  2 -1</clus>
</clustering>
</event>
<event>
 9    1  0.1504846E-005  0.1044101E+03  0.7546771E-02  0.1277345E+00
         -1   -1    0    0    0  501 -0.00000000000E+00  0.00000000000E+00  0.74545539150E+03  0.74545539150E+03  0.00000000000E+00 0.  1.
         21   -1    0    0  501  502  0.00000000000E+00 -0.00000000000E+00 -0.21500225025E+02  0.21500225025E+02  0.00000000000E+00 0. -1.
         23    2    1    2    0    0 -0.28938555201E+02  0.19853168332E+01  0.40624747487E+03  0.41727827335E+03  0.90789675152E+02 0.  0.
         23    2    1    2    0    0  0.46561635552E+01 -0.83485113664E+01  0.30425193738E+03  0.32119608424E+03  0.10250027135E+03 0.  0.
        -11    1    3    3    0    0  0.29166791774E+02 -0.12478895833E+02  0.90398465073E+02  0.95803481518E+02  0.00000000000E+00 0.  1.
         11    1    3    3    0    0 -0.58105346974E+02  0.14464212667E+02  0.31584900980E+03  0.32147479184E+03  0.00000000000E+00 0. -1.
        -13    1    4    4    0    0 -0.45444517782E+02 -0.22272109415E+02  0.16305623849E+03  0.17072957554E+03  0.00000000000E+00 0. -1.
         13    1    4    4    0    0  0.50100681337E+02  0.13923598049E+02  0.14119569889E+03  0.15046650869E+03  0.00000000000E+00 0.  1.
         -1    1    1    2    0  502  0.24282391646E+02  0.63631945332E+01  0.13455754219E+02  0.28481258931E+02  0.00000000000E+00 0.  1.
<scales pt_clust_5="13000.00000" pt_clust_6="13000.00000" pt_clust_7="13000.00000" pt_clust_8="13000.00000" pt_clust_9="25.10229"></scales>
<clustering>
<clus scale="   25.102">  2  9  1 -1</clus>
<clus scale="   90.790">  5  6 -1 -1</clus>
<clus scale="   92.940">  1  5  2 -1</clus>
<clus scale="  102.500">  7  8 -1 -1</clus>
<clus scale="   25.102">  2  5  1 -1</clus>
</clustering>
</event>
<event>
 9    1  0.1504846E-005  0.1126261E+03  0.7546771E-02  0.1257453E+00
         21   -1    0    0  501  502  0.00000000000E+00  0.00000000000E+00  0.12133327315E+03  0.12133327315E+03  0.00000000000E+00 0.  1.
          2   -1    0    0  502    0 -0.00000000000E+00 -0.00000000000E+00 -0.57216071653E+03  0.57216071653E+03  0.00000000000E+00 0. -1.
         23    2    1    2    0    0  0.64957419999E+02  0.28008675704E+02 -0.37480635382E+03  0.39155677427E+03  0.88503967622E+02 0.  0.
         23    2    1    2    0    0 -0.50579488229E+02 -0.98362101856E+01 -0.17255178678E+03  0.20266416302E+03  0.92971007265E+02 0.  0.
        -13    1    3    3    0    0  0.32098631415E+02 -0.28084506375E+02 -0.92457920290E+02  0.10182106197E+03  0.00000000000E+00 0.  1.
         13    1    3    3    0    0  0.32858788584E+02  0.56093182079E+02 -0.28234843353E+03  0.28973571229E+03  0.00000000000E+00 0. -1.
        -13    1    4    4    0    0 -0.16098828382E+02 -0.26518568173E+02 -0.57882224358E+01  0.31558045760E+02  0.00000000000E+00 0.  1.
         13    1    4    4    0    0 -0.34480659846E+02  0.16682357987E+02 -0.16676356435E+03  0.17110611726E+03  0.00000000000E+00 0. -1.
          2    1    1    2  501    0 -0.14377931770E+02 -0.18172465518E+02  0.96530697223E+02  0.99273052392E+02  0.00000000000E+00 0. -1.
<scales pt_clust_5="13000.00000" pt_clust_6="13000.00000" pt_clust_7="13000.00000" pt_clust_8="13000.00000" pt_clust_9="23.17247"></scales>
<clustering>
<clus scale="   23.172">  1  9  2 -1</clus>
<clus scale="   88.504">  5  6 -1 -1</clus>
<clus scale="   92.971">  7  8 -1 -1</clus>
<clus scale="  108.968">  2  5  1 -1</clus>
<clus scale="   23.172">  1  5  2 -1</clus>
</clustering>
</event>
<event>
 9    1  0.1504846E-005  0.1106488E+03  0.7546771E-02  0.1260887E+00
         -1   -1    0    0    0  501 -0.00000000000E+00  0.00000000000E+00  0.43838748544E+03  0.43838748544E+03  0.00000000000E+00 0.  1.
         21   -1    0    0  501  502  0.00000000000E+00 -0.00000000000E+00 -0.39990811662E+02  0.39990811662E+02  0.00000000000E+00 0. -1.
         23    2    1    2    0    0 -0.58176471828E+02 -0.16319370915E+02  0.25877642698E+03  0.27966468578E+03  0.87156603703E+02 0.  0.
         23    2    1    2    0    0  0.70876173468E+02 -0.12688683745E+01  0.96597352974E+02  0.15053064778E+03  0.91122913290E+02 0.  0.
        -11    1    3    3    0    0 -0.78080564925E+02 -0.18126565957E+00  0.16654417746E+03  0.18393904023E+03  0.00000000000E+00 0.  1.
         11    1    3    3    0    0  0.19904093097E+02 -0.16138105256E+02  0.92232249524E+02  0.95725645547E+02  0.00000000000E+00 0. -1.
        -11    1    4    4    0    0 -0.11892273956E+02 -0.22818173738E+02  0.41377965555E+02  0.48726084042E+02  0.00000000000E+00 0.  1.
         11    1    4    4    0    0  0.82768447424E+02  0.21549305363E+02  0.55219387419E+02  0.10180456374E+03  0.00000000000E+00 0. -1.
         -1    1    1    2    0  502 -0.12699701640E+02  0.17588239290E+02  0.43022893817E+02  0.48182963540E+02  0.00000000000E+00 0.  1.
<scales pt_clust_5="13000.00000" pt_clust_6="13000.00000" pt_clust_7="13000.00000" pt_clust_8="13000.00000" pt_clust_9="21.69399"></scales>
<clustering>
<clus scale="   21.694">  2  9  1 -1</clus>
<clus scale="   87.157">  5  6 -1 -1</clus>
<clus scale="   91.123">  7  8 -1 -1</clus>
<clus scale="  107.406">  1  5  2 -1</clus>
<clus scale="   21.694">  2  5  1 -1</clus>
</clustering>
</event>
<event>
 9    1  0.1504846E-005  0.9708669E+02  0.7546771E-02  0.1287840E+00
         21   -1    0    0  501  502  0.00000000000E+00  0.00000000000E+00  0.26557788166E+02  0.26557788166E+02  0.00000000000E+00 0. -1.
          2   -1    0    0  502    0 -0.00000000000E+00 -0.00000000000E+00 -0.52454410464E+03  0.52454410464E+03  0.00000000000E+00 0. -1.
         23    2    1    2    0    0 -0.18264272443E+02  0.30529523380E+02 -0.35360340170E+03  0.36655719406E+03  0.89795185739E+02 0.  0.
         23    2    1    2    0    0  0.14810279720E+01 -0.18086244529E+02 -0.11689833419E+03  0.15002058176E+03  0.92258597049E+02 0.  0.
        -13    1    3    3    0    0  0.16551811001E+02  0.52744448831E+02 -0.20433654509E+03  0.21168222171E+03  0.00000000000E+00 0.  1.
         13    1    3    3    0    0 -0.34816083444E+02 -0.22214925451E+02 -0.14926685660E+03  0.15487497235E+03  0.00000000000E+00 0. -1.
        -13    1    4    4    0    0  0.19467859383E+02  0.23119220974E+02 -0.95613171507E+02  0.10027649023E+03  0.00000000000E+00 0.  1.
         13    1    4    4    0    0 -0.17986831411E+02 -0.41205465502E+02 -0.21285162685E+02  0.49744091529E+02  0.00000000000E+00 0. -1.
          2    1    1    2  501    0  0.16783244471E+02 -0.12443278851E+02 -0.27484580584E+02  0.34524116983E+02  0.00000000000E+00 0. -1.
<scales pt_clust_5="13000.00000" pt_clust_6="13000.00000" pt_clust_7="13000.00000" pt_clust_8="13000.00000" pt_clust_9="20.89288"></scales>
<clustering>
<clus scale="   20.893">  1  9  2 -1</clus>
<clus scale="   89.795">  5  6 -1 -1</clus>
<clus scale="   92.259">  7  8 -1 -1</clus>
<clus scale="   94.749">  2  5  1 -1</clus>
<clus scale="   20.893">  1  5  2 -1</clus>
</clustering>
</event>
<event>
 9    1  0.1504846E-005  0.9832317E+02  0.7546771E-02  0.1285173E+00
         21   -1    0    0  501  502  0.00000000000E+00  0.00000000000E+00  0.14156574657E+03  0.14156574657E+03  0.00000000000E+00 0. -1.
         -3   -1    0    0    0  501 -0.00000000000E+00 -0.00000000000E+00 -0.23943503369E+03  0.23943503369E+03  0.00000000000E+00 0.  1.
         23    2    1    2    0    0  0.34335092162E+01  0.33557160911E+02 -0.18119396738E+03  0.20581247062E+03  0.91595017407E+02 0.  0.
         23    2    1    2    0    0 -0.39634790311E+02 -0.40589184271E+02  0.28878991009E+02  0.10942878421E+03  0.89007102018E+02 0.  0.
        -11    1    4    4    0    0  0.13010862160E+02  0.18217897061E+02  0.19967608693E+02  0.29997995007E+02  0.00000000000E+00 0.  1.
         11    1    4    4    0    0 -0.52645652471E+02 -0.58807081332E+02  0.89113823159E+01  0.79430789205E+02  0.00000000000E+00 0. -1.
        -13    1    3    3    0    0  0.26366093578E+02  0.43882948745E+01 -0.68893038594E+01  0.27602364575E+02  0.00000000000E+00 0. -1.
         13    1    3    3    0    0 -0.22932584362E+02  0.29168866036E+02 -0.17430466352E+03  0.17821010605E+03  0.00000000000E+00 0.  1.
         -3    1    1    2    0  502  0.36201281095E+02  0.70320233600E+01  0.54445689260E+02  0.65759525427E+02  0.00000000000E+00 0.  1.
<scales pt_clust_5="13000.00000" pt_clust_6="13000.00000" pt_clust_7="13000.00000" pt_clust_8="13000.00000" pt_clust_9="36.87794"></scales>
<clustering>
<clus scale="   36.878">  1  9  2 -1</clus>
<clus scale="   89.007">  5  6 -1 -1</clus>
<clus scale="   91.595">  7  8 -1 -1</clus>
<clus scale="   95.917">  1  5  2 -1</clus>
<clus scale="   36.878">  1  5  2 -1</clus>
</clustering>
</event>
<event>
 9    1  0.1504846E-005  0.1096799E+03  0.7546771E-02  0.1261280E+00
         -3   -1    0    0    0  501 -0.00000000000E+00  0.00000000000E+00  0.17215715282E+03  0.17215715282E+03  0.00000000000E+00 0.  1.
         21   -1    0    0  501  502  0.00000000000E+00 -0.00000000000E+00 -0.17954589935E+03  0.17954589935E+03  0.00000000000E+00 0. -1.
         23    2    1    2    0    0  0.39673083875E+02 -0.44891901094E+02  0.91645441462E+02  0.14318288650E+03  0.92267088808E+02 0.  0.
         23    2    1    2    0    0  0.93428642066E+01  0.75941874436E+02 -0.41032029611E+02  0.12647801561E+03  0.91970666922E+02 0.  0.
        -11    1    3    3    0    0 -0.11072513074E+02 -0.27090423033E+02  0.83891035632E+02  0.88849296144E+02  0.00000000000E+00 0.  1.
         11    1    3    3    0    0  0.50745596950E+02 -0.17801478061E+02  0.77544058297E+01  0.54333590354E+02  0.00000000000E+00 0. -1.
        -13    1    4    4    0    0 -0.35880056507E+02  0.13308781937E+02 -0.29607302873E+02  0.48384858324E+02  0.00000000000E+00 0.  1.
         13    1    4    4    0    0  0.45222920713E+02  0.62633092500E+02 -0.11424726738E+02  0.78093157286E+02  0.00000000000E+00 0. -1.
         -3    1    1    2    0  502 -0.49015948082E+02 -0.31049973343E+02 -0.58002158383E+02  0.82042150070E+02  0.00000000000E+00 0.  1.
<scales pt_clust_5="13000.00000" pt_clust_6="13000.00000" pt_clust_7="13000.00000" pt_clust_8="13000.00000" pt_clust_9="58.02296"></scales>
<clustering>
<clus scale="   58.023">  2  9  1 -1</clus>
<clus scale="   91.971">  7  8 -1 -1</clus>
<clus scale="   92.267">  5  6 -1 -1</clus>
<clus scale="  109.431">  2  7  1 -1</clus>
<clus scale="   58.023">  2  5  1 -1</clus>
</clustering>
</event>
<event>
 9    1  0.1504846E-005  0.1531797E+03  0.7546771E-02  0.1201734E+00
         21   -1    0    0  501  502  0.00000000000E+00  0.00000000000E+00  0.21167269217E+03  0.21167269217E+03  0.00000000000E+00 0.  1.
          2   -1    0    0  502    0 -0.00000000000E+00 -0.00000000000E+00 -0.22808533562E+03  0.22808533562E+03  0.00000000000E+00 0.  1.
         23    2    1    2    0    0 -0.26476136692E+02  0.10185175266E+03 -0.15134124582E+03  0.21372838370E+03  0.10817062438E+03 0.  0.
         23    2    1    2    0    0  0.41412660706E+02 -0.11927024374E+03  0.13520989091E+03  0.20308225417E+03  0.83787158028E+02 0.  0.
        -11    1    4    4    0    0 -0.21669956108E+02 -0.15625688070E+02  0.94623361966E+01  0.28342281695E+02  0.00000000000E+00 0. -1.
         11    1    4    4    0    0  0.63082616814E+02 -0.10364455567E+03  0.12574755471E+03  0.17473997247E+03  0.00000000000E+00 0.  1.
        -13    1    3    3    0    0  0.16484304906E+02  0.96231997692E+02 -0.13671857841E+03  0.16800089098E+03  0.00000000000E+00 0.  1.
         13    1    3    3    0    0 -0.42960441598E+02  0.56197549644E+01 -0.14622667407E+02  0.45727492717E+02  0.00000000000E+00 0. -1.
          2    1    1    2  501    0 -0.14936524014E+02  0.17418491081E+02 -0.28128854754E+00  0.22947389925E+02  0.00000000000E+00 0.  1.
<scales pt_clust_5="13000.00000" pt_clust_6="13000.00000" pt_clust_7="13000.00000" pt_clust_8="13000.00000" pt_clust_9="22.94567"></scales>
<clustering>
<clus scale="   22.946">  1  9  2 -1</clus>
<clus scale="   83.787">  5  6 -1 -1</clus>
<clus scale="  108.171">  7  8 -1 -1</clus>
<clus scale="  137.053">  1  5  2 -1</clus>
<clus scale="   22.946">  1  5  2 -1</clus>
</clustering>
</event>
<event>
 9    1  0.1504846E-005  0.1707059E+03  0.7546771E-02  0.1177219E+00
         21   -1    0    0  501  502  0.00000000000E+00  0.00000000000E+00  0.26290900475E+03  0.26290900475E+03  0.00000000000E+00 0.  1.
          1   -1    0    0  502    0 -0.00000000000E+00 -0.00000000000E+00 -0.27201765247E+03  0.27201765247E+03  0.00000000000E+00 0. -1.
         23    2    1    2    0    0 -0.10181295302E+03  0.39406842501E+02 -0.49434297321E+02  0.15212365067E+03  0.93696737961E+02 0.  0.
         23    2    1    2    0    0  0.21701030666E+03 -0.91767058832E+02  0.34055586411E+02  0.25610913837E+03  0.94432205889E+02 0.  0.
        -13    1    4    4    0    0  0.10670659631E+03 -0.17685284284E+02  0.55414494721E+02  0.12153120258E+03  0.00000000000E+00 0. -1.
         13    1    4    4    0    0  0.11030371035E+03 -0.74081774547E+02 -0.21358908310E+02  0.13457793579E+03  0.00000000000E+00 0.  1.
        -13    1    3    3    0    0 -0.58366028973E+02  0.54412325084E+02  0.61074022930E+01  0.80028712485E+02  0.00000000000E+00 0.  1.
         13    1    3    3    0    0 -0.43446924046E+02 -0.15005482583E+02 -0.55541699614E+02  0.72094938190E+02  0.00000000000E+00 0. -1.
          1    1    1    2  501    0 -0.11519735364E+03  0.52360216331E+02  0.62700631905E+01  0.12669386817E+03  0.00000000000E+00 0. -1.
<scales pt_clust_5="13000.00000" pt_clust_6="13000.00000" pt_clust_7="13000.00000" pt_clust_8="13000.00000" pt_clust_9="126.53862"></scales>
<clustering>
<clus scale="   93.697">  7  8 -1 -1</clus>
<clus scale="   94.432">  5  6 -1 -1</clus>
<clus scale="  126.539">  1  9  2 -1</clus>
<clus scale="  170.300">  2  7  1 -1</clus>
<clus scale="  126.539">  1  5  2 -1</clus>
</clustering>
</event>
<event>
 9    1  0.1504846E-005  0.9907684E+02  0.7546771E-02  0.1285130E+00
         21   -1    0    0  501  502  0.00000000000E+00  0.00000000000E+00  0.29076326299E+03  0.29076326299E+03  0.00000000000E+00 0.  1.
         -1   -1    0    0    0  501 -0.00000000000E+00 -0.00000000000E+00 -0.27864227755E+03  0.27864227755E+03  0.00000000000E+00 0.  1.
         23    2    1    2    0    0 -0.20918828336E+02 -0.22425837267E+02 -0.24069302717E+03  0.25815970215E+03  0.88163387704E+02 0.  0.
         23    2    1    2    0    0  0.21618818501E+02  0.45392035547E+02  0.70777211259E+02  0.12776468596E+03  0.93736818486E+02 0.  0.
        -11    1    4    4    0    0 -0.26317504692E+02 -0.10019900874E+02  0.36527374300E+01  0.28396337043E+02  0.00000000000E+00 0.  1.
         11    1    4    4    0    0  0.47936323193E+02  0.55411936420E+02  0.67124473829E+02  0.99368348915E+02  0.00000000000E+00 0. -1.
        -13    1    3    3    0    0 -0.43575370058E+02  0.47351781845E+01 -0.19763331070E+03  0.20243557071E+03  0.00000000000E+00 0.  1.
         13    1    3    3    0    0  0.22656541722E+02 -0.27161015452E+02 -0.43059716466E+02  0.55724131445E+02  0.00000000000E+00 0. -1.
         -1    1    1    2    0  502 -0.69999016551E+00 -0.22966198279E+02  0.18203680135E+03  0.18348115243E+03  0.00000000000E+00 0.  1.
<scales pt_clust_5="13000.00000" pt_clust_6="13000.00000" pt_clust_7="13000.00000" pt_clust_8="13000.00000" pt_clust_9="22.97686"></scales>
<clustering>
<clus scale="   22.977">  1  9  2 -1</clus>
<clus scale="   88.163">  7  8 -1 -1</clus>
<clus scale="   93.737">  5  6 -1 -1</clus>
<clus scale="   93.821">  2  7  1 -1</clus>
<clus scale="   22.977">  1  5  2 -1</clus>
</clustering>
</event>
<event>
 9    1  0.1504846E-005  0.1343972E+03  0.7546771E-02  0.1224500E+00
         21   -1    0    0  501  502  0.00000000000E+00  0.00000000000E+00  0.29173255329E+03  0.29173255329E+03  0.00000000000E+00 0. -1.
          1   -1    0    0  502    0 -0.00000000000E+00 -0.00000000000E+00 -0.16198043986E+03  0.16198043986E+03  0.00000000000E+00 0. -1.
         23    2    1    2    0    0 -0.25190794958E+02 -0.97286344403E+02 -0.78926969535E+02  0.15160164598E+03  0.81574405212E+02 0.  0.
         23    2    1    2    0    0  0.87424079503E+02  0.44080534151E+02  0.13211855869E+03  0.19001605812E+03  0.95208852668E+02 0.  0.
        -13    1    3    3    0    0 -0.24709104076E+02  0.49872210431E+01 -0.57802848785E+01  0.25861629710E+02  0.00000000000E+00 0.  1.
         13    1    3    3    0    0 -0.48169088153E+00 -0.10227356545E+03 -0.73146684657E+02  0.12574001627E+03  0.00000000000E+00 0. -1.
        -13    1    4    4    0    0 -0.16582069463E+02  0.13338500366E+02  0.31591736480E+01  0.21514204560E+02  0.00000000000E+00 0.  1.
         13    1    4    4    0    0  0.10400614897E+03  0.30742033784E+02  0.12895938504E+03  0.16850185356E+03  0.00000000000E+00 0. -1.
          1    1    1    2  501    0 -0.62233284545E+02  0.53205810252E+02  0.76560524279E+02  0.11209528905E+03  0.00000000000E+00 0. -1.
<scales pt_clust_5="13000.00000" pt_clust_6="13000.00000" pt_clust_7="13000.00000" pt_clust_8="13000.00000" pt_clust_9="81.87698"></scales>
<clustering>
<clus scale="   81.574">  5  6 -1 -1</clus>
<clus scale="   81.877">  1  9  2 -1</clus>
<clus scale="   95.209">  7  8 -1 -1</clus>
<clus scale="  125.109">  2  5  1 -1</clus>
<clus scale="   81.877">  1  5  2 -1</clus>
</clustering>
</event>
<event>
 9    1  0.1504846E-005  0.1904545E+03  0.7546771E-02  0.1158546E+00
         21   -1    0    0  501  502  0.00000000000E+00  0.00000000000E+00  0.69223558218E+02  0.69223558218E+02  0.00000000000E+00 0. -1.
          1   -1    0    0  502    0 -0.00000000000E+00 -0.00000000000E+00 -0.11408478259E+04  0.11408478259E+04  0.00000000000E+00 0. -1.
         23    2    1    2    0    0 -0.14688684931E+03 -0.20057333357E+02 -0.58716075238E+03  0.61271340838E+03  0.93176867066E+02 0.  0.
         23    2    1    2    0    0  0.20115199653E+03 -0.12232512525E+02 -0.48669759647E+03  0.53417307672E+03  0.88625986090E+02 0.  0.
        -11    1    4    4    0    0  0.23127435725E+02 -0.84368638444E+01 -0.12427273810E+02  0.27577093558E+02  0.00000000000E+00 0.  1.
         11    1    4    4    0    0  0.17802456081E+03 -0.37956486805E+01 -0.47427032266E+03  0.50659598316E+03  0.00000000000E+00 0. -1.
        -11    1    3    3    0    0 -0.40114063977E+02 -0.13059579413E+02 -0.52000201683E+02  0.66960523582E+02  0.00000000000E+00 0.  1.
         11    1    3    3    0    0 -0.10677278534E+03 -0.69977539437E+01 -0.53516055069E+03  0.54575288480E+03  0.00000000000E+00 0. -1.
          1    1    1    2  501    0 -0.54265147221E+02  0.32289845881E+02  0.22340811273E+01  0.63184899054E+02  0.00000000000E+00 0. -1.
<scales pt_clust_5="13000.00000" pt_clust_6="13000.00000" pt_clust_7="13000.00000" pt_clust_8="13000.00000" pt_clust_9="63.14539"></scales>
<clustering>
<clus scale="   63.145">  1  9  2 -1</clus>
<clus scale="   88.626">  5  6 -1 -1</clus>
<clus scale="   93.177">  7  8 -1 -1</clus>
<clus scale="  188.270">  1  5  2 -1</clus>
<clus scale="   63.145">  1  5  2 -1</clus>
</clustering>
</event>
<event>
 9    1  0.1504846E-005  0.2648513E+03  0.7546771E-02  0.1140001E+00
         -1   -1    0    0    0  501 -0.00000000000E+00  0.00000000000E+00  0.24607994137E+03  0.24607994137E+03  0.00000000000E+00 0.  1.
         21   -1    0    0  501  502  0.00000000000E+00 -0.00000000000E+00 -0.40461999367E+03  0.40461999367E+03  0.00000000000E+00 0. -1.
         23    2    1    2    0    0 -0.59042187944E+02  0.53722769907E+01  0.75954940061E+01  0.10896822199E+03  0.91112790302E+02 0.  0.
         23    2    1    2    0    0  0.83141639495E+02  0.23821302860E+03 -0.10304874476E+03  0.28895804118E+03  0.96019407153E+02 0.  0.
        -13    1    4    4    0    0  0.18649828224E+02  0.16251287365E+03 -0.95050349811E+02  0.18918990246E+03  0.00000000000E+00 0. -1.
         13    1    4    4    0    0  0.64491811270E+02  0.75700154958E+02 -0.79983949517E+01  0.99768138718E+02  0.00000000000E+00 0.  1.
        -13    1    3    3    0    0 -0.73431080401E+01 -0.37583896510E+02 -0.98177522970E+01  0.39533008648E+02  0.00000000000E+00 0.  1.
         13    1    3    3    0    0 -0.51699079904E+02  0.42956173501E+02  0.17413246303E+02  0.69435213340E+02  0.00000000000E+00 0. -1.
         -1    1    1    2    0  502 -0.24099451551E+02 -0.24358530559E+03 -0.63086801542E+02  0.25277367188E+03  0.00000000000E+00 0.  1.
<scales pt_clust_5="13000.00000" pt_clust_6="13000.00000" pt_clust_7="13000.00000" pt_clust_8="13000.00000" pt_clust_9="246.83303"></scales>
<clustering>
<clus scale="   91.113">  7  8 -1 -1</clus>
<clus scale="   96.019">  5  6 -1 -1</clus>
<clus scale="  108.703">  1  7  2 -1</clus>
<clus scale="  246.833">  2  9  1 -1</clus>
<clus scale="  246.833">  2  5  1 -1</clus>
</clustering>
</event>
<event>
 9    1  0.1504846E-005  0.1025127E+03  0.7546771E-02  0.1275787E+00
         -1   -1    0    0    0  501 -0.00000000000E+00  0.00000000000E+00  0.41172667650E+03  0.41172667650E+03  0.00000000000E+00 0.  1.
         21   -1    0    0  501  502  0.00000000000E+00 -0.00000000000E+00 -0.10043268216E+03  0.10043268216E+03  0.00000000000E+00 0.  1.
         23    2    1    2    0    0  0.26054306876E+02 -0.13348631785E+02  0.14634812130E+03  0.17556948874E+03  0.92465452420E+02 0.  0.
         23    2    1    2    0    0  0.92366916632E+01  0.73911929712E+02  0.21866841142E+03  0.24827521223E+03  0.90974815361E+02 0.  0.
        -13    1    4    4    0    0  0.49964285935E+02  0.33424828827E+02  0.11495117196E+03  0.12972054959E+03  0.00000000000E+00 0.  1.
         13    1    4    4    0    0 -0.40727594271E+02  0.40487100885E+02  0.10371723946E+03  0.11855466264E+03  0.00000000000E+00 0. -1.
        -13    1    3    3    0    0  0.15451623329E+02  0.35871104326E+02  0.31525381666E+02  0.50193012246E+02  0.00000000000E+00 0.  1.
         13    1    3    3    0    0  0.10602683547E+02 -0.49219736112E+02  0.11482273963E+03  0.12537647649E+03  0.00000000000E+00 0. -1.
         -1    1    1    2    0  502 -0.35290998540E+02 -0.60563297927E+02 -0.53722538372E+02  0.88314657689E+02  0.00000000000E+00 0.  1.
<scales pt_clust_5="13000.00000" pt_clust_6="13000.00000" pt_clust_7="13000.00000" pt_clust_8="13000.00000" pt_clust_9="70.09542"></scales>
<clustering>
<clus scale="   70.095">  2  9  1 -1</clus>
<clus scale="   90.975">  5  6 -1 -1</clus>
<clus scale="   92.465">  7  8 -1 -1</clus>
<clus scale="  101.170">  2  5  1 -1</clus>
<clus scale="   70.095">  2  5  1 -1</clus>
</clustering>
</event>
<event>
 9    1  0.1504846E-005  0.9281110E+02  0.7546771E-02  0.1296962E+00
         -1   -1    0    0    0  501 -0.00000000000E+00  0.00000000000E+00  0.18191952421E+03  0.18191952421E+03  0.00000000000E+00 0.  1.
         21   -1    0    0  501  502  0.00000000000E+00 -0.00000000000E+00 -0.20734563695E+03  0.20734563695E+03  0.00000000000E+00 0.  1.
         23    2    1    2    0    0  0.93909283228E+01 -0.88524182029E+01  0.13897456276E+03  0.16700303721E+03  0.91703492298E+02 0.  0.
         23    2    1    2    0    0 -0.27691910044E+02  0.25967405506E+00 -0.51623899131E+02  0.10768742137E+03  0.90358422112E+02 0.  0.
        -11    1    3    3    0    0 -0.36109085315E+02 -0.18572528637E+02  0.93534603796E+02  0.10196826452E+03  0.00000000000E+00 0.  1.
         11    1    3    3    0    0  0.45500013638E+02  0.97201104339E+01  0.45439958968E+02  0.65034772690E+02  0.00000000000E+00 0. -1.
        -11    1    4    4    0    0 -0.17874585003E+02 -0.41609260378E+02 -0.71943689426E+01  0.45854010541E+02  0.00000000000E+00 0.  1.
         11    1    4    4    0    0 -0.98173250419E+01  0.41868934433E+02 -0.44429530189E+02  0.61833410825E+02  0.00000000000E+00 0. -1.
         -1    1    1    2    0  502  0.18300981722E+02  0.85927441478E+01 -0.11277677637E+03  0.11457470259E+03  0.00000000000E+00 0.  1.
<scales pt_clust_5="13000.00000" pt_clust_6="13000.00000" pt_clust_7="13000.00000" pt_clust_8="13000.00000" pt_clust_9="20.21784"></scales>
<clustering>
<clus scale="   20.218">  2  9  1 -1</clus>
<clus scale="   90.358">  7  8 -1 -1</clus>
<clus scale="   91.482">  2  7  1 -1</clus>
<clus scale="   91.703">  5  6 -1 -1</clus>
<clus scale="   20.218">  2  5  1 -1</clus>
</clustering>
</event>
<event>
 9    1  0.1504846E-005  0.1362227E+03  0.7546771E-02  0.1219315E+00
          2   -1    0    0  502    0 -0.00000000000E+00  0.00000000000E+00  0.78710575312E+03  0.78710575312E+03  0.00000000000E+00 0. -1.
         21   -1    0    0  501  502  0.00000000000E+00 -0.00000000000E+00 -0.34913648689E+02  0.34913648689E+02  0.00000000000E+00 0. -1.
         23    2    1    2    0    0 -0.10258899896E+03  0.56033056238E+01  0.47040517887E+03  0.49069345604E+03  0.94568154020E+02 0.  0.
         23    2    1    2    0    0  0.85039970883E+02 -0.42741547862E+02  0.23139524253E+03  0.26631410730E+03  0.91218468067E+02 0.  0.
        -11    1    3    3    0    0 -0.28406898878E+02 -0.38323923833E+02  0.10617765535E+03  0.11640175917E+03  0.00000000000E+00 0.  1.
         11    1    3    3    0    0 -0.74182100077E+02  0.43927229457E+02  0.36422752352E+03  0.37429169687E+03  0.00000000000E+00 0. -1.
        -11    1    4    4    0    0 -0.18423124352E+02 -0.11631005106E+02  0.23658277310E+02  0.32162180834E+02  0.00000000000E+00 0.  1.
         11    1    4    4    0    0  0.10346309524E+03 -0.31110542756E+02  0.20773696522E+03  0.23415192646E+03  0.00000000000E+00 0. -1.
          2    1    1    2  501    0  0.17549028072E+02  0.37138242238E+02  0.50391683028E+02  0.65011838470E+02  0.00000000000E+00 0. -1.
<scales pt_clust_5="13000.00000" pt_clust_6="13000.00000" pt_clust_7="13000.00000" pt_clust_8="13000.00000" pt_clust_9="41.07575"></scales>
<clustering>
<clus scale="   41.076">  2  9  1 -1</clus>
<clus scale="   91.218">  7  8 -1 -1</clus>
<clus scale="   94.568">  5  6 -1 -1</clus>
<clus scale="  133.919">  2  7  1 -1</clus>
<clus scale="   41.076">  2  5  1 -1</clus>
</clustering>
</event>
<event>
 9    1  0.1504846E-005  0.1824226E+03  0.7546771E-02  0.1179113E+00
          1   -1    0    0  502    0 -0.00000000000E+00  0.00000000000E+00  0.66413927720E+02  0.66413927720E+02  0.00000000000E+00 0. -1.
         21   -1    0    0  501  502  0.00000000000E+00 -0.00000000000E+00 -0.16261246569E+04  0.16261246569E+04  0.00000000000E+00 0. -1.
         23    2    1    2    0    0  0.48455840911E+02  0.84717481698E+02 -0.28535854399E+03  0.31513365309E+03  0.91404050543E+02 0.  0.
         23    2    1    2    0    0  0.11430739680E+03 -0.52827286908E+02 -0.84604397631E+02  0.17615197979E+03  0.89524927693E+02 0.  0.
        -11    1    4    4    0    0  0.78068360896E+02  0.12999698686E+02 -0.48073564828E+02  0.92599831394E+02  0.00000000000E+00 0.  1.
         11    1    4    4    0    0  0.36239035909E+02 -0.65826985594E+02 -0.36530832803E+02  0.83552148394E+02  0.00000000000E+00 0. -1.
        -13    1    3    3    0    0 -0.19653618955E+02 -0.51813938544E+01 -0.33660201383E+02  0.39320741822E+02  0.00000000000E+00 0.  1.
         13    1    3    3    0    0  0.68109459866E+02  0.89898875552E+02 -0.25169834261E+03  0.27581291127E+03  0.00000000000E+00 0. -1.
          1    1    1    2  501    0 -0.16276323772E+03 -0.31890194790E+02 -0.11897477875E+04  0.12012529517E+04  0.00000000000E+00 0. -1.
<scales pt_clust_5="13000.00000" pt_clust_6="13000.00000" pt_clust_7="13000.00000" pt_clust_8="13000.00000" pt_clust_9="158.94436"></scales>
<clustering>
<clus scale="   89.525">  5  6 -1 -1</clus>
<clus scale="   91.404">  7  8 -1 -1</clus>
<clus scale="  133.715">  1  7  2 -1</clus>
<clus scale="  158.944">  2  9  1 -1</clus>
<clus scale="  158.944">  2  5  1 -1</clus>
</clustering>
</event>
<event>
 9    1  0.1504846E-005  0.1106609E+03  0.7546771E-02  0.1260462E+00
         21   -1    0    0  501  502  0.00000000000E+00  0.00000000000E+00  0.61057431360E+02  0.61057431360E+02  0.00000000000E+00 0.  1.
         -1   -1    0    0    0  501 -0.00000000000E+00 -0.00000000000E+00 -0.34877772894E+03  0.34877772894E+03  0.00000000000E+00 0.  1.
         23    2    1    2    0    0  0.42658157259E+01  0.46726216715E+02 -0.15611088470E+03  0.18615722867E+03  0.89901996378E+02 0.  0.
         23    2    1    2    0    0 -0.15064415720E+02 -0.92244019982E+02 -0.80283688586E+02  0.15423147635E+03  0.92768431061E+02 0.  0.
        -13    1    4    4    0    0 -0.30789741915E+02 -0.69026301100E+02 -0.71660421316E+01  0.75920949748E+02  0.00000000000E+00 0.  1.
         13    1    4    4    0    0  0.15725326195E+02 -0.23217718882E+02 -0.73117646455E+02  0.78310526605E+02  0.00000000000E+00 0. -1.
        -13    1    3    3    0    0 -0.40835308055E+02  0.75000680622E+01 -0.68442783614E+02  0.80051158853E+02  0.00000000000E+00 0.  1.
         13    1    3    3    0    0  0.45101123781E+02  0.39226148653E+02 -0.87668101085E+02  0.10610606982E+03  0.00000000000E+00 0. -1.
         -1    1    1    2    0  502  0.10798599994E+02  0.45517803267E+02 -0.51325724293E+02  0.69446455275E+02  0.00000000000E+00 0.  1.
<scales pt_clust_5="13000.00000" pt_clust_6="13000.00000" pt_clust_7="13000.00000" pt_clust_8="13000.00000" pt_clust_9="46.78122"></scales>
<clustering>
<clus scale="   46.781">  1  9  2 -1</clus>
<clus scale="   89.902">  7  8 -1 -1</clus>
<clus scale="   92.768">  5  6 -1 -1</clus>
<clus scale="  108.269">  2  7  1 -1</clus>
<clus scale="   46.781">  1  5  2 -1</clus>
</clustering>
</event>
<event>
 9    1  0.1504846E-005  0.2358113E+03  0.7546771E-02  0.1122820E+00
          2   -1    0    0  502    0 -0.00000000000E+00  0.00000000000E+00  0.87195030892E+03  0.87195030892E+03  0.00000000000E+00 0. -1.
         21   -1    0    0  501  502  0.00000000000E+00 -0.00000000000E+00 -0.24009359016E+03  0.24009359016E+03  0.00000000000E+00 0.  1.
         23    2    1    2    0    0  0.98112725631E+02  0.19168672529E+03  0.69764338680E+03  0.73532102072E+03  0.87297198053E+02 0.  0.
         23    2    1    2    0    0 -0.14349403384E+03 -0.20188871427E+03 -0.13272214242E+03  0.29521274743E+03  0.90475457780E+02 0.  0.
        -13    1    4    4    0    0 -0.10937769796E+03 -0.15462502347E+03 -0.14129151765E+03  0.23629572924E+03  0.00000000000E+00 0.  1.
         13    1    4    4    0    0 -0.34116335877E+02 -0.47263690795E+02  0.85693752269E+01  0.58917018195E+02  0.00000000000E+00 0. -1.
        -13    1    3    3    0    0  0.45604236881E+02  0.24815507776E+02  0.10103945946E+03  0.11359809952E+03  0.00000000000E+00 0.  1.
         13    1    3    3    0    0  0.52508488751E+02  0.16687121751E+03  0.59660392734E+03  0.62172292120E+03  0.00000000000E+00 0. -1.
          2    1    1    2  501    0  0.45381308207E+02  0.10201988982E+02  0.66935474382E+02  0.81510130932E+02  0.00000000000E+00 0. -1.
<scales pt_clust_5="13000.00000" pt_clust_6="13000.00000" pt_clust_7="13000.00000" pt_clust_8="13000.00000" pt_clust_9="46.51393"></scales>
<clustering>
<clus scale="   46.514">  2  9  1 -1</clus>
<clus scale="   87.297">  7  8 -1 -1</clus>
<clus scale="   90.475">  5  6 -1 -1</clus>
<clus scale="  234.610">  1  7  2 -1</clus>
<clus scale="   46.514">  2  5  1 -1</clus>
</clustering>
</event>
<event>
 9    1  0.1504846E-005  0.1021177E+03  0.7546771E-02  0.1279327E+00
         21   -1    0    0  501  502  0.00000000000E+00  0.00000000000E+00  0.47632841319E+02  0.47632841319E+02  0.00000000000E+00 0.  1.
          2   -1    0    0  502    0 -0.00000000000E+00 -0.00000000000E+00 -0.64556759912E+03  0.64556759912E+03  0.00000000000E+00 0. -1.
         23    2    1    2    0    0 -0.21662162146E+02  0.22435774948E+02 -0.36247400511E+03  0.37679822469E+03  0.98065715125E+02 0.  0.
         23    2    1    2    0    0  0.41301593104E+02  0.47923400827E+02 -0.21257413375E+03  0.23985211326E+03  0.91317029955E+02 0.  0.
        -13    1    3    3    0    0 -0.42319320541E+02  0.49142910946E+02 -0.18240532744E+03  0.19359146176E+03  0.00000000000E+00 0.  1.
         13    1    3    3    0    0  0.20657158396E+02 -0.26707135998E+02 -0.18006867767E+03  0.18320676293E+03  0.00000000000E+00 0. -1.
        -13    1    4    4    0    0  0.18051851773E+02  0.64230473208E+02 -0.19583303129E+03  0.20688644032E+03  0.00000000000E+00 0.  1.
         13    1    4    4    0    0  0.23249741331E+02 -0.16307072382E+02 -0.16741102453E+02  0.32965672949E+02  0.00000000000E+00 0. -1.
          2    1    1    2  501    0 -0.19639430958E+02 -0.70359175775E+02 -0.22886618951E+02  0.76550102489E+02  0.00000000000E+00 0. -1.
<scales pt_clust_5="13000.00000" pt_clust_6="13000.00000" pt_clust_7="13000.00000" pt_clust_8="13000.00000" pt_clust_9="73.04876"></scales>
<clustering>
<clus scale="   73.049">  1  9  2 -1</clus>
<clus scale="   91.317">  7  8 -1 -1</clus>
<clus scale="   95.655">  1  7  2 -1</clus>
<clus scale="   98.066">  5  6 -1 -1</clus>
<clus scale="   73.049">  1  5  2 -1</clus>
</clustering>
</event>
<event>
 9    1  0.1504846E-005  0.1253654E+03  0.7546771E-02  0.1235365E+00
         21   -1    0    0  501  502  0.00000000000E+00  0.00000000000E+00  0.17049797154E+03  0.17049797154E+03  0.00000000000E+00 0. -1.
          2   -1    0    0  502    0 -0.00000000000E+00 -0.00000000000E+00 -0.34025409853E+03  0.34025409853E+03  0.00000000000E+00 0. -1.
         23    2    1    2    0    0 -0.86183097378E+02  0.14034299260E+02 -0.29355724145E+03  0.31964857422E+03  0.91514311233E+02 0.  0.
         23    2    1    2    0    0  0.68088119257E+02 -0.29361591670E+02  0.77366286390E+02  0.13896380480E+03  0.88472039227E+02 0.  0.
        -13    1    3    3    0    0 -0.39237262399E+02 -0.16087618239E+02 -0.34540080028E+02  0.54693613425E+02  0.00000000000E+00 0.  1.
         13    1    3    3    0    0 -0.46945834978E+02  0.30121917499E+02 -0.25901716143E+03  0.26495496079E+03  0.00000000000E+00 0. -1.
        -13    1    4    4    0    0 -0.12457263012E+02 -0.20505999116E+02 -0.37777418920E+01  0.24288901484E+02  0.00000000000E+00 0. -1.
         13    1    4    4    0    0  0.80545382269E+02 -0.88555925540E+01  0.81144028282E+02  0.11467490331E+03  0.00000000000E+00 0.  1.
          2    1    1    2  501    0  0.18094978121E+02  0.15327292410E+02  0.46434828073E+02  0.52139691061E+02  0.00000000000E+00 0. -1.
<scales pt_clust_5="13000.00000" pt_clust_6="13000.00000" pt_clust_7="13000.00000" pt_clust_8="13000.00000" pt_clust_9="23.71401"></scales>
<clustering>
<clus scale="   23.714">  1  9  2 -1</clus>
<clus scale="   88.472">  7  8 -1 -1</clus>
<clus scale="   91.514">  5  6 -1 -1</clus>
<clus scale="  123.162">  1  7  2 -1</clus>
<clus scale="   23.714">  1  5  2 -1</clus>
</clustering>
</event>
<event>
 9    1  0.1504846E-005  0.1366972E+03  0.7546771E-02  0.1244711E+00
         -3   -1    0    0    0  501 -0.00000000000E+00  0.00000000000E+00  0.29457053937E+03  0.29457053937E+03  0.00000000000E+00 0.  1.
         21   -1    0    0  501  502  0.00000000000E+00 -0.00000000000E+00 -0.25609673857E+03  0.25609673857E+03  0.00000000000E+00 0.  1.
         23    2    1    2    0    0 -0.24979708455E+02  0.26737942809E+02  0.79071717731E+02  0.11147593340E+03  0.69538793222E+02 0.  0.
         23    2    1    2    0    0 -0.60181603551E+02 -0.81767594858E+02  0.16226065460E+03  0.21240441435E+03  0.92083387373E+02 0.  0.
        -13    1    3    3    0    0 -0.47079733059E+02  0.16730277602E+02  0.34462429667E+02  0.60696478581E+02  0.00000000000E+00 0.  1.
         13    1    3    3    0    0  0.22100024604E+02  0.10007665207E+02  0.44609288063E+02  0.50779454821E+02  0.00000000000E+00 0. -1.
        -13    1    4    4    0    0 -0.17387280961E+01 -0.65952830214E+02  0.43279000825E+02  0.78904188109E+02  0.00000000000E+00 0. -1.
         13    1    4    4    0    0 -0.58442875455E+02 -0.15814764644E+02  0.11898165377E+03  0.13350022624E+03  0.00000000000E+00 0.  1.
         -3    1    1    2    0  502  0.85161312006E+02  0.55029652049E+02 -0.20285857152E+03  0.22678693019E+03  0.00000000000E+00 0.  1.
<scales pt_clust_5="13000.00000" pt_clust_6="13000.00000" pt_clust_7="13000.00000" pt_clust_8="13000.00000" pt_clust_9="101.02863"></scales>
<clustering>
<clus scale="   69.539">  5  6 -1 -1</clus>
<clus scale="   78.578">  1  5  2 -1</clus>
<clus scale="   92.083">  7  8 -1 -1</clus>
<clus scale="  101.029">  2  9  1 -1</clus>
<clus scale="  101.029">  2  5  1 -1</clus>
</clustering>
</event>
<event>
 9    1  0.1504846E-005  0.1208096E+03  0.7546771E-02  0.1244865E+00
         21   -1    0    0  501  502  0.00000000000E+00  0.00000000000E+00  0.94378927484E+02  0.94378927484E+02  0.00000000000E+00 0.  1.
          1   -1    0    0  502    0 -0.00000000000E+00 -0.00000000000E+00 -0.21820088194E+03  0.21820088194E+03  0.00000000000E+00 0. -1.
         23    2    1    2    0    0 -0.69403746490E+02 -0.19336423652E+02 -0.29157121756E+02  0.11311519870E+03  0.82183533156E+02 0.  0.
         23    2    1    2    0    0  0.67958675437E+02  0.57381963030E+02 -0.42457875328E+02  0.13484946006E+03  0.92036049745E+02 0.  0.
        -13    1    4    4    0    0  0.18442091766E+02 -0.24541956615E+02 -0.19633457876E+02  0.36440239453E+02  0.00000000000E+00 0.  1.
         13    1    4    4    0    0  0.49516583671E+02  0.81923919645E+02 -0.22824417452E+02  0.98409220607E+02  0.00000000000E+00 0. -1.
        -13    1    3    3    0    0 -0.84146200286E+01 -0.21279980167E+02 -0.44638255963E+02  0.50161910665E+02  0.00000000000E+00 0. -1.
         13    1    3    3    0    0 -0.60989126461E+02  0.19435565148E+01  0.15481134207E+02  0.62953288038E+02  0.00000000000E+00 0.  1.
          1    1    1    2  501    0  0.14450710529E+01 -0.38045539379E+02 -0.52206957370E+02  0.64615150660E+02  0.00000000000E+00 0. -1.
<scales pt_clust_5="13000.00000" pt_clust_6="13000.00000" pt_clust_7="13000.00000" pt_clust_8="13000.00000" pt_clust_9="38.07299"></scales>
<clustering>
<clus scale="   38.073">  1  9  2 -1</clus>
<clus scale="   82.184">  7  8 -1 -1</clus>
<clus scale="   92.036">  5  6 -1 -1</clus>
<clus scale="  113.483">  2  7  1 -1</clus>
<clus scale="   38.073">  1  5  2 -1</clus>
</clustering>
</event>
<event>
 9    1  0.1504846E-005  0.1287373E+03  0.7546771E-02  0.1232454E+00
          1   -1    0    0  502    0 -0.00000000000E+00  0.00000000000E+00  0.53112069267E+03  0.53112069267E+03  0.00000000000E+00 0. -1.
         21   -1    0    0  501  502  0.00000000000E+00 -0.00000000000E+00 -0.68917965309E+02  0.68917965309E+02  0.00000000000E+00 0.  1.
         23    2    1    2    0    0 -0.64890447146E+02  0.50420617025E+02  0.33020644417E+03  0.35003945585E+03  0.82087247039E+02 0.  0.
         23    2    1    2    0    0  0.80885133293E+02 -0.68026988274E+02  0.15995904599E+03  0.21328775437E+03  0.93459584031E+02 0.  0.
        -11    1    4    4    0    0  0.37370916067E+02  0.15913474489E+01  0.11228392565E+03  0.11835031776E+03  0.00000000000E+00 0. -1.
         11    1    4    4    0    0  0.43514217226E+02 -0.69618335723E+02  0.47675120334E+02  0.94937436602E+02  0.00000000000E+00 0.  1.
        -13    1    3    3    0    0 -0.20590007521E+02  0.47427675132E+02  0.27178800116E+03  0.27666233996E+03  0.00000000000E+00 0. -1.
         13    1    3    3    0    0 -0.44300439626E+02  0.29929418926E+01  0.58418443015E+02  0.73377115891E+02  0.00000000000E+00 0.  1.
          1    1    1    2  501    0 -0.15994686147E+02  0.17606371250E+02 -0.27962762800E+02  0.36711447764E+02  0.00000000000E+00 0. -1.
<scales pt_clust_5="13000.00000" pt_clust_6="13000.00000" pt_clust_7="13000.00000" pt_clust_8="13000.00000" pt_clust_9="23.78685"></scales>
<clustering>
<clus scale="   23.787">  2  9  1 -1</clus>
<clus scale="   82.087">  7  8 -1 -1</clus>
<clus scale="   93.460">  5  6 -1 -1</clus>
<clus scale="  120.735">  1  7  2 -1</clus>
<clus scale="   23.787">  2  5  1 -1</clus>
</clustering>
</event>
<event>
 9    1  0.1569105E-005  0.1121642E+03  0.7546771E-02  0.1259938E+00
         21   -1    0    0  501  502  0.00000000000E+00  0.00000000000E+00  0.11442077641E+03  0.11442077641E+03  0.00000000000E+00 0. -1.
          1   -1    0    0  502    0 -0.00000000000E+00 -0.00000000000E+00 -0.79363985351E+03  0.79363985351E+03  0.00000000000E+00 0. -1.
         23    2    1    2    0    0  0.77106488751E+02 -0.21612665380E+02 -0.52962797979E+03  0.54432896428E+03  0.96828231740E+02 0.  0.
         23    2    1    2    0    0 -0.30652164637E+02 -0.17879732005E+02 -0.23797162486E+03  0.25635954947E+03  0.88490024037E+02 0.  0.
        -13    1    4    4    0    0 -0.52614453803E+02 -0.88230402945E+01 -0.22052145982E+03  0.22688287955E+03  0.00000000000E+00 0.  1.
         13    1    4    4    0    0  0.21962289166E+02 -0.90566917104E+01 -0.17450165037E+02  0.29476669927E+02  0.00000000000E+00 0. -1.
        -13    1    3    3    0    0  0.87196589906E+02 -0.28647612824E+01 -0.50160451783E+03  0.50913509451E+03  0.00000000000E+00 0. -1.
         13    1    3    3    0    0 -0.10090101155E+02 -0.18747904097E+02 -0.28023461962E+02  0.35193869774E+02  0.00000000000E+00 0.  1.
          1    1    1    2  501    0 -0.46454324114E+02  0.39492397385E+02  0.88380527554E+02  0.10737211617E+03  0.00000000000E+00 0. -1.
<scales pt_clust_5="13000.00000" pt_clust_6="13000.00000" pt_clust_7="13000.00000" pt_clust_8="13000.00000" pt_clust_9="60.97256"></scales>
<clustering>
<clus scale="   60.973">  1  9  2 -1</clus>
<clus scale="   88.490">  5  6 -1 -1</clus>
<clus scale="   96.828">  7  8 -1 -1</clus>
<clus scale="  105.050">  1  5  2 -1</clus>
<clus scale="   60.973">  1  5  2 -1</clus>
</clustering>
</event>
<event>
 9    1  0.1504846E-005  0.1568105E+03  0.7546771E-02  0.1193649E+00
         21   -1    0    0  501  502  0.00000000000E+00  0.00000000000E+00  0.42829768182E+03  0.42829768182E+03  0.00000000000E+00 0. -1.
         -1   -1    0    0    0  501 -0.00000000000E+00 -0.00000000000E+00 -0.13419354710E+03  0.13419354710E+03  0.00000000000E+00 0.  1.
         23    2    1    2    0    0 -0.48103313777E+02  0.11057821763E+03  0.18455358755E+02  0.15669583319E+03  0.98343850155E+02 0.  0.
         23    2    1    2    0    0  0.10279976397E+02 -0.12696813548E+03  0.33496350428E+02  0.16015942227E+03  0.91117779321E+02 0.  0.
        -11    1    4    4    0    0  0.30132435544E+02 -0.13226779014E+03  0.25083452136E+02  0.13795619432E+03  0.00000000000E+00 0.  1.
         11    1    4    4    0    0 -0.19852459147E+02  0.52996546614E+01  0.84128982916E+01  0.22203227949E+02  0.00000000000E+00 0. -1.
        -13    1    3    3    0    0 -0.70096749506E+02  0.10329000448E+03  0.33279927220E+02  0.12918952307E+03  0.00000000000E+00 0. -1.
         13    1    3    3    0    0  0.21993435730E+02  0.72882131472E+01 -0.14824568465E+02  0.27506310117E+02  0.00000000000E+00 0.  1.
         -1    1    1    2    0  502  0.37823337380E+02  0.16389917858E+02  0.24215242554E+03  0.24563597345E+03  0.00000000000E+00 0.  1.
<scales pt_clust_5="13000.00000" pt_clust_6="13000.00000" pt_clust_7="13000.00000" pt_clust_8="13000.00000" pt_clust_9="41.22177"></scales>
<clustering>
<clus scale="   41.222">  1  9  2 -1</clus>
<clus scale="   91.118">  5  6 -1 -1</clus>
<clus scale="   98.344">  7  8 -1 -1</clus>
<clus scale="  152.383">  1  5  2 -1</clus>
<clus scale="   41.222">  1  5  2 -1</clus>
</clustering>
</event>
<event>
 9    1  0.1504846E-005  0.1188705E+03  0.7546771E-02  0.1245260E+00
         21   -1    0    0  501  502  0.00000000000E+00  0.00000000000E+00  0.46772145185E+03  0.46772145185E+03  0.00000000000E+00 0. -1.
         -1   -1    0    0    0  501 -0.00000000000E+00 -0.00000000000E+00 -0.62549334390E+02  0.62549334390E+02  0.00000000000E+00 0.  1.
         23    2    1    2    0    0  0.72969063787E+02 -0.42947856857E+02  0.35204755811E+02  0.12944874569E+03  0.91370674997E+02 0.  0.
         23    2    1    2    0    0 -0.40877291229E+02  0.72722232557E+01  0.29447473731E+03  0.31136943283E+03  0.92258954139E+02 0.  0.
        -11    1    4    4    0    0 -0.17032203561E+02 -0.32391941016E+02  0.46811821373E+02  0.59419528954E+02  0.00000000000E+00 0.  1.
         11    1    4    4    0    0 -0.23845087669E+02  0.39664164272E+02  0.24766291593E+03  0.25194990387E+03  0.00000000000E+00 0. -1.
        -13    1    3    3    0    0 -0.21275938910E+02 -0.98887426815E+00  0.40189578486E+01  0.21674765766E+02  0.00000000000E+00 0. -1.
         13    1    3    3    0    0  0.94245002697E+02 -0.41958982588E+02  0.31185797962E+02  0.10777397992E+03  0.00000000000E+00 0.  1.
         -1    1    1    2    0  502 -0.32091772557E+02  0.35675633601E+02  0.75492624343E+02  0.89452607725E+02  0.00000000000E+00 0.  1.
<scales pt_clust_5="13000.00000" pt_clust_6="13000.00000" pt_clust_7="13000.00000" pt_clust_8="13000.00000" pt_clust_9="47.98576"></scales>
<clustering>
<clus scale="   47.986">  1  9  2 -1</clus>
<clus scale="   91.371">  7  8 -1 -1</clus>
<clus scale="   92.259">  5  6 -1 -1</clus>
<clus scale="  118.182">  2  7  1 -1</clus>
<clus scale="   47.986">  1  5  2 -1</clus>
</clustering>
</event>
<event>
 9    1  0.1504846E-005  0.1869875E+03  0.7546771E-02  0.1161266E+00
         21   -1    0    0  501  502  0.00000000000E+00  0.00000000000E+00  0.63334599488E+03  0.63334599488E+03  0.00000000000E+00 0.  1.
          1   -1    0    0  502    0 -0.00000000000E+00 -0.00000000000E+00 -0.70208428101E+02  0.70208428101E+02  0.00000000000E+00 0. -1.
         23    2    1    2    0    0 -0.13254310268E+03  0.10578681179E+03  0.15120014101E+03  0.24461205240E+03  0.90636912570E+02 0.  0.
         23    2    1    2    0    0  0.11044061724E+03 -0.10465410334E+03  0.33729407324E+03  0.38108716543E+03  0.91162078376E+02 0.  0.
        -11    1    3    3    0    0 -0.24601720738E+02  0.50361894729E+02  0.96315207411E+02  0.11143690718E+03  0.00000000000E+00 0.  1.
         11    1    3    3    0    0 -0.10794138195E+03  0.55424917065E+02  0.54884933602E+02  0.13317514522E+03  0.00000000000E+00 0. -1.
        -13    1    4    4    0    0  0.10490048133E+03 -0.75153713251E+02  0.32303567717E+03  0.34785663760E+03  0.00000000000E+00 0.  1.
         13    1    4    4    0    0  0.55401359076E+01 -0.29500390092E+02  0.14258396066E+02  0.33230527830E+02  0.00000000000E+00 0. -1.
          1    1    1    2  501    0  0.22102485447E+02 -0.11327084502E+01  0.74643352533E+02  0.77855205149E+02  0.00000000000E+00 0. -1.
<scales pt_clust_5="13000.00000" pt_clust_6="13000.00000" pt_clust_7="13000.00000" pt_clust_8="13000.00000" pt_clust_9="22.13149"></scales>
<clustering>
<clus scale="   22.131">  1  9  2 -1</clus>
<clus scale="   90.637">  5  6 -1 -1</clus>
<clus scale="   91.162">  7  8 -1 -1</clus>
<clus scale="  186.732">  2  5  1 -1</clus>
<clus scale="   22.131">  1  5  2 -1</clus>
</clustering>
</event>
<event>
 9    1  0.1504846E-005  0.9912369E+02  0.7546771E-02  0.1285701E+00
          4   -1    0    0  502    0 -0.00000000000E+00  0.00000000000E+00  0.41237983497E+03  0.41237983497E+03  0.00000000000E+00 0. -1.
         21   -1    0    0  501  502  0.00000000000E+00 -0.00000000000E+00 -0.10769560774E+03  0.10769560774E+03  0.00000000000E+00 0. -1.
         23    2    1    2    0    0  0.16001013763E+02  0.13860895938E+01  0.23199223290E+03  0.25246862341E+03  0.98295757765E+02 0.  0.
         23    2    1    2    0    0 -0.29941645360E+01  0.19048591981E+02  0.15534970515E+03  0.18147290323E+03  0.91799073203E+02 0.  0.
        -11    1    4    4    0    0 -0.15536415133E+02 -0.26848475920E+02  0.11492871811E+03  0.11904129998E+03  0.00000000000E+00 0.  1.
         11    1    4    4    0    0  0.12542250597E+02  0.45897067901E+02  0.40420987041E+02  0.62431603258E+02  0.00000000000E+00 0. -1.
        -11    1    3    3    0    0 -0.31570701241E+02 -0.27907858791E+02  0.77981183937E+02  0.88637592518E+02  0.00000000000E+00 0.  1.
         11    1    3    3    0    0  0.47571715004E+02  0.29293948385E+02  0.15401104896E+03  0.16383103089E+03  0.00000000000E+00 0. -1.
          4    1    1    2  501    0 -0.13006849227E+02 -0.20434681575E+02 -0.82657710826E+02  0.86133916066E+02  0.00000000000E+00 0. -1.
<scales pt_clust_5="13000.00000" pt_clust_6="13000.00000" pt_clust_7="13000.00000" pt_clust_8="13000.00000" pt_clust_9="24.22301"></scales>
<clustering>
<clus scale="   24.223">  2  9  1 -1</clus>
<clus scale="   91.799">  5  6 -1 -1</clus>
<clus scale="   92.685">  2  5  1 -1</clus>
<clus scale="   98.296">  7  8 -1 -1</clus>
<clus scale="   24.223">  2  5  1 -1</clus>
</clustering>
</event>
<event>
 9    1  0.1504846E-005  0.9721805E+02  0.7546771E-02  0.1298018E+00
         21   -1    0    0  501  502  0.00000000000E+00  0.00000000000E+00  0.57828226767E+03  0.57828226767E+03  0.00000000000E+00 0.  1.
          2   -1    0    0  502    0 -0.00000000000E+00 -0.00000000000E+00 -0.15115002862E+03  0.15115002862E+03  0.00000000000E+00 0. -1.
         23    2    1    2    0    0 -0.42339953780E+01 -0.29076549080E+02 -0.11702989452E+03  0.14002277777E+03  0.71042308948E+02 0.  0.
         23    2    1    2    0    0 -0.14565632146E+02  0.99409561911E+02  0.23254979265E+03  0.26940575339E+03  0.91682251598E+02 0.  0.
        -11    1    4    4    0    0  0.39400183736E+01  0.57347073979E+02  0.36612693013E+02  0.68152035394E+02  0.00000000000E+00 0. -1.
         11    1    4    4    0    0 -0.18505650520E+02  0.42062487933E+02  0.19593709964E+03  0.20125371800E+03  0.00000000000E+00 0.  1.
        -11    1    3    3    0    0  0.23782732320E+02 -0.23744150769E+02 -0.10279286339E+03  0.10814701020E+03  0.00000000000E+00 0.  1.
         11    1    3    3    0    0 -0.28016727698E+02 -0.53323983116E+01 -0.14237031128E+02  0.31875767567E+02  0.00000000000E+00 0. -1.
          2    1    1    2  501    0  0.18799627524E+02 -0.70333012831E+02  0.31161234091E+03  0.32000376513E+03  0.00000000000E+00 0. -1.
<scales pt_clust_5="13000.00000" pt_clust_6="13000.00000" pt_clust_7="13000.00000" pt_clust_8="13000.00000" pt_clust_9="72.80219"></scales>
<clustering>
<clus scale="   71.042">  7  8 -1 -1</clus>
<clus scale="   72.802">  1  9  2 -1</clus>
<clus scale="   78.056">  2  7  1 -1</clus>
<clus scale="   91.682">  5  6 -1 -1</clus>
<clus scale="   72.802">  1  5  2 -1</clus>
</clustering>
</event>
<event>
 9    1  0.1504846E-005  0.1035932E+03  0.7546771E-02  0.1274104E+00
         21   -1    0    0  501  502  0.00000000000E+00  0.00000000000E+00  0.64703926119E+02  0.64703926119E+02  0.00000000000E+00 0. -1.
         -4   -1    0    0    0  501 -0.00000000000E+00 -0.00000000000E+00 -0.21470811951E+03  0.21470811951E+03  0.00000000000E+00 0.  1.
         23    2    1    2    0    0  0.18805457801E+01  0.38897170117E+02 -0.98779617978E+02  0.14139793637E+03  0.93377926651E+02 0.  0.
         23    2    1    2    0    0 -0.17696488739E+02 -0.52566864082E+02 -0.48566154248E+02  0.11694109837E+03  0.90775041924E+02 0.  0.
        -11    1    4    4    0    0  0.12977179298E+02 -0.25246236978E+02 -0.66359735703E+02  0.72176133082E+02  0.00000000000E+00 0.  1.
         11    1    4    4    0    0 -0.30673668037E+02 -0.27320627104E+02  0.17793581454E+02  0.44764965288E+02  0.00000000000E+00 0. -1.
        -13    1    3    3    0    0  0.37838881781E+01  0.69278606328E+02 -0.57521580296E+02  0.90125331091E+02  0.00000000000E+00 0.  1.
         13    1    3    3    0    0 -0.19033423980E+01 -0.30381436211E+02 -0.41258037682E+02  0.51272605278E+02  0.00000000000E+00 0. -1.
         -4    1    1    2    0  502  0.15815942959E+02  0.13669693965E+02 -0.26584211595E+01  0.21073010887E+02  0.00000000000E+00 0.  1.
<scales pt_clust_5="13000.00000" pt_clust_6="13000.00000" pt_clust_7="13000.00000" pt_clust_8="13000.00000" pt_clust_9="20.90465"></scales>
<clustering>
<clus scale="   20.905">  1  9  2 -1</clus>
<clus scale="   90.775">  5  6 -1 -1</clus>
<clus scale="   93.378">  7  8 -1 -1</clus>
<clus scale="  101.253">  1  5  2 -1</clus>
<clus scale="   20.905">  1  5  2 -1</clus>
</clustering>
</event>
<event>
 9    1  0.1504846E-005  0.9547252E+02  0.7546771E-02  0.1294107E+00
          1   -1    0    0  502    0 -0.00000000000E+00  0.00000000000E+00  0.18698726801E+03  0.18698726801E+03  0.00000000000E+00 0. -1.
         21   -1    0    0  501  502  0.00000000000E+00 -0.00000000000E+00 -0.17701564326E+03  0.17701564326E+03  0.00000000000E+00 0. -1.
         23    2    1    2    0    0 -0.28281839041E+00 -0.21599973257E+02  0.83216241223E+02  0.12193844808E+03  0.86471980937E+02 0.  0.
         23    2    1    2    0    0  0.48854203576E+02 -0.14175942139E+02  0.40046281558E+02  0.11371368150E+03  0.93484791011E+02 0.  0.
        -11    1    4    4    0    0  0.64478788236E+02 -0.40264351710E+02  0.28336195872E+02  0.81127505493E+02  0.00000000000E+00 0. -1.
         11    1    4    4    0    0 -0.15624584661E+02  0.26088409571E+02  0.11710085686E+02  0.32586176004E+02  0.00000000000E+00 0.  1.
        -13    1    3    3    0    0 -0.40900289813E+02 -0.24795505571E+02  0.51679500198E+02  0.70416060271E+02  0.00000000000E+00 0.  1.
         13    1    3    3    0    0  0.40617471423E+02  0.31955323149E+01  0.31536741025E+02  0.51522387814E+02  0.00000000000E+00 0. -1.
          1    1    1    2  501    0 -0.48571385185E+02  0.35775915396E+02 -0.11329089803E+03  0.12835078168E+03  0.00000000000E+00 0. -1.
<scales pt_clust_5="13000.00000" pt_clust_6="13000.00000" pt_clust_7="13000.00000" pt_clust_8="13000.00000" pt_clust_9="60.32492"></scales>
<clustering>
<clus scale="   60.325">  2  9  1 -1</clus>
<clus scale="   86.472">  7  8 -1 -1</clus>
<clus scale="   88.617">  1  7  2 -1</clus>
<clus scale="   93.485">  5  6 -1 -1</clus>
<clus scale="   60.325">  2  5  1 -1</clus>
</clustering>
</event>
<event>
 9    1  0.1504846E-005  0.2560455E+03  0.7546771E-02  0.1109592E+00
          2   -1    0    0  502    0 -0.00000000000E+00  0.00000000000E+00  0.44177093517E+03  0.44177093517E+03  0.00000000000E+00 0. -1.
         21   -1    0    0  501  502  0.00000000000E+00 -0.00000000000E+00 -0.10164059570E+04  0.10164059570E+04  0.00000000000E+00 0. -1.
         23    2    1    2    0    0  0.12172068928E+03 -0.24314344859E+03  0.26634935041E+03  0.39118970052E+03  0.90292538655E+02 0.  0.
         23    2    1    2    0    0 -0.15707565739E+03  0.11868774835E+03 -0.87120867060E+00  0.21696994319E+03  0.91190205003E+02 0.  0.
        -11    1    3    3    0    0  0.24001497403E+02 -0.86566523141E+02  0.37903604772E+02  0.97501374662E+02  0.00000000000E+00 0.  1.
         11    1    3    3    0    0  0.97719191872E+02 -0.15657692545E+03  0.22844574564E+03  0.29368832586E+03  0.00000000000E+00 0. -1.
        -13    1    4    4    0    0 -0.71349898493E+02  0.83731302686E+01  0.22586874641E+02  0.75306601513E+02  0.00000000000E+00 0.  1.
         13    1    4    4    0    0 -0.85725758898E+02  0.11031461809E+03 -0.23458083311E+02  0.14166334168E+03  0.00000000000E+00 0. -1.
          2    1    1    2  501    0  0.35354968115E+02  0.12445570024E+03 -0.84011316358E+03  0.85001724848E+03  0.00000000000E+00 0. -1.
<scales pt_clust_5="13000.00000" pt_clust_6="13000.00000" pt_clust_7="13000.00000" pt_clust_8="13000.00000" pt_clust_9="129.38004"></scales>
<clustering>
<clus scale="   90.293">  5  6 -1 -1</clus>
<clus scale="   91.190">  7  8 -1 -1</clus>
<clus scale="  129.380">  2  9  1 -1</clus>
<clus scale="  255.727">  1  5  2 -1</clus>
<clus scale="  129.380">  2  5  1 -1</clus>
</clustering>
</event>
<event>
 9    1  0.1504846E-005  0.1068233E+03  0.7546771E-02  0.1275570E+00
         -1   -1    0    0    0  501 -0.00000000000E+00  0.00000000000E+00  0.38269056713E+03  0.38269056713E+03  0.00000000000E+00 0.  1.
         21   -1    0    0  501  502  0.00000000000E+00 -0.00000000000E+00 -0.46018113789E+02  0.46018113789E+02  0.00000000000E+00 0. -1.
         23    2    1    2    0    0 -0.61739759432E+01 -0.20591138176E+02  0.22166054600E+03  0.24660815461E+03  0.10592483805E+03 0.  0.
         23    2    1    2    0    0  0.11410165673E+02 -0.21821574063E+00  0.12864098318E+03  0.15668008962E+03  0.88712504358E+02 0.  0.
        -11    1    4    4    0    0 -0.12191445898E+02  0.15966835681E+02 -0.44257100038E+01  0.20570807076E+02  0.00000000000E+00 0. -1.
         11    1    4    4    0    0  0.23601611571E+02 -0.16185051421E+02  0.13306669319E+03  0.13610928254E+03  0.00000000000E+00 0.  1.
        -13    1    3    3    0    0  0.10565828046E+02  0.41989726797E+02  0.89897661911E+02  0.99781578941E+02  0.00000000000E+00 0. -1.
         13    1    3    3    0    0 -0.16739803989E+02 -0.62580864974E+02  0.13176288409E+03  0.14682657566E+03  0.00000000000E+00 0.  1.
         -1    1    1    2    0  502 -0.52361897299E+01  0.20809353917E+02 -0.13629075844E+02  0.25420436693E+02  0.00000000000E+00 0.  1.
<scales pt_clust_5="13000.00000" pt_clust_6="13000.00000" pt_clust_7="13000.00000" pt_clust_8="13000.00000" pt_clust_9="21.45803"></scales>
<clustering>
<clus scale="   21.458">  2  9  1 -1</clus>
<clus scale="   88.713">  5  6 -1 -1</clus>
<clus scale="   89.783">  2  5  1 -1</clus>
<clus scale="  105.925">  7  8 -1 -1</clus>
<clus scale="   21.458">  2  5  1 -1</clus>
</clustering>
</event>
<event>
 9    1  0.1504846E-005  0.1073742E+03  0.7546771E-02  0.1266900E+00
          2   -1    0    0  502    0 -0.00000000000E+00  0.00000000000E+00  0.28468763948E+03  0.28468763948E+03  0.00000000000E+00 0.  1.
         21   -1    0    0  501  502  0.00000000000E+00 -0.00000000000E+00 -0.10601881767E+03  0.10601881767E+03  0.00000000000E+00 0. -1.
         23    2    1    2    0    0  0.47489559108E+02 -0.19315215240E+02  0.20427147560E+03  0.22996407610E+03  0.92348821248E+02 0.  0.
         23    2    1    2    0    0 -0.54050453098E+02  0.48178982264E+02  0.91407899911E+01  0.11509953646E+03  0.89003839469E+02 0.  0.
        -11    1    4    4    0    0  0.14524769512E+02  0.19885527389E+02  0.29253767285E+02  0.38238541150E+02  0.00000000000E+00 0.  1.
         11    1    4    4    0    0 -0.68575222610E+02  0.28293454875E+02 -0.20112977294E+02  0.76860995313E+02  0.00000000000E+00 0. -1.
        -13    1    3    3    0    0  0.25455241337E+02  0.25534748548E+02  0.15731307299E+03  0.16139205566E+03  0.00000000000E+00 0. -1.
         13    1    3    3    0    0  0.22034317772E+02 -0.44849963788E+02  0.46958402612E+02  0.68572020440E+02  0.00000000000E+00 0.  1.
          2    1    1    2  501    0  0.65608939895E+01 -0.28863767025E+02 -0.34743443777E+02  0.45642844590E+02  0.00000000000E+00 0.  1.
<scales pt_clust_5="13000.00000" pt_clust_6="13000.00000" pt_clust_7="13000.00000" pt_clust_8="13000.00000" pt_clust_9="29.60004"></scales>
<clustering>
<clus scale="   29.600">  2  9  1 -1</clus>
<clus scale="   89.004">  5  6 -1 -1</clus>
<clus scale="   92.349">  7  8 -1 -1</clus>
<clus scale="  104.511">  2  5  1 -1</clus>
<clus scale="   29.600">  2  5  1 -1</clus>
</clustering>
</event>
<event>
 9    1  0.1504846E-005  0.9871643E+02  0.7546771E-02  0.1283397E+00
         21   -1    0    0  501  502  0.00000000000E+00  0.00000000000E+00  0.64706729148E+02  0.64706729148E+02  0.00000000000E+00 0.  1.
          1   -1    0    0  502    0 -0.00000000000E+00 -0.00000000000E+00 -0.30576352283E+03  0.30576352283E+03  0.00000000000E+00 0. -1.
         23    2    1    2    0    0 -0.17825105189E+02 -0.24791774525E+02 -0.16247695380E+03  0.18826176104E+03  0.90063109510E+02 0.  0.
         23    2    1    2    0    0  0.13799130352E+02  0.72547935387E+02 -0.48415112500E+02  0.12558013981E+03  0.89290142053E+02 0.  0.
        -11    1    3    3    0    0  0.36219889784E+02 -0.12287604831E+02 -0.51032238742E+02  0.63774250599E+02  0.00000000000E+00 0.  1.
         11    1    3    3    0    0 -0.54044994973E+02 -0.12504169694E+02 -0.11144471506E+03  0.12448751044E+03  0.00000000000E+00 0. -1.
        -13    1    4    4    0    0  0.41047535890E+02  0.77655265100E+02 -0.40673670981E+02  0.96796631716E+02  0.00000000000E+00 0.  1.
         13    1    4    4    0    0 -0.27248405538E+02 -0.51073297127E+01 -0.77414415188E+01  0.28783508090E+02  0.00000000000E+00 0. -1.
          1    1    1    2  501    0  0.40259748378E+01 -0.47756160862E+02 -0.30164727375E+02  0.56628351127E+02  0.00000000000E+00 0. -1.
<scales pt_clust_5="13000.00000" pt_clust_6="13000.00000" pt_clust_7="13000.00000" pt_clust_8="13000.00000" pt_clust_9="47.92556"></scales>
<clustering>
<clus scale="   47.926">  1  9  2 -1</clus>
<clus scale="   89.290">  7  8 -1 -1</clus>
<clus scale="   90.063">  5  6 -1 -1</clus>
<clus scale="   98.012">  1  7  2 -1</clus>
<clus scale="   47.926">  1  5  2 -1</clus>
</clustering>
</event>
<event>
 9    1  0.1504846E-005  0.1374566E+03  0.7546771E-02  0.1216870E+00
         21   -1    0    0  501  502  0.00000000000E+00  0.00000000000E+00  0.12360048902E+03  0.12360048902E+03  0.00000000000E+00 0. -1.
         -3   -1    0    0    0  501 -0.00000000000E+00 -0.00000000000E+00 -0.22166877428E+03  0.22166877428E+03  0.00000000000E+00 0.  1.
         23    2    1    2    0    0 -0.90240113181E+02  0.63339369438E+02 -0.10559361855E+03  0.17825226931E+03  0.92025569746E+02 0.  0.
         23    2    1    2    0    0  0.58537286126E+02 -0.68372755742E+02 -0.11876154607E+02  0.12950936872E+03  0.92359005754E+02 0.  0.
        -11    1    4    4    0    0 -0.20223889274E+02  0.43743650774E+01 -0.81166069290E+01  0.22226562380E+02  0.00000000000E+00 0.  1.
         11    1    4    4    0    0  0.78761175400E+02 -0.72747120820E+02 -0.37595476775E+01  0.10728280634E+03  0.00000000000E+00 0. -1.
        -11    1    3    3    0    0 -0.31559038699E+01 -0.21426349502E+02 -0.11264212087E+02  0.24411690973E+02  0.00000000000E+00 0. -1.
         11    1    3    3    0    0 -0.87084209311E+02  0.84765718940E+02 -0.94329406466E+02  0.15384057834E+03  0.00000000000E+00 0.  1.
         -3    1    1    2    0  502  0.31702827055E+02  0.50333863046E+01  0.19401487901E+02  0.37507625274E+02  0.00000000000E+00 0.  1.
<scales pt_clust_5="13000.00000" pt_clust_6="13000.00000" pt_clust_7="13000.00000" pt_clust_8="13000.00000" pt_clust_9="32.09991"></scales>
<clustering>
<clus scale="   32.100">  1  9  2 -1</clus>
<clus scale="   92.026">  7  8 -1 -1</clus>
<clus scale="   92.359">  5  6 -1 -1</clus>
<clus scale="  137.233">  2  7  1 -1</clus>
<clus scale="   32.100">  1  5  2 -1</clus>
</clustering>
</event>
<event>
 9    1  0.1504846E-005  0.1074239E+03  0.7546771E-02  0.1267385E+00
          2   -1    0    0  502    0 -0.00000000000E+00  0.00000000000E+00  0.73629013884E+03  0.73629013884E+03  0.00000000000E+00 0. -1.
         21   -1    0    0  501  502  0.00000000000E+00 -0.00000000000E+00 -0.62786797224E+02  0.62786797224E+02  0.00000000000E+00 0. -1.
         23    2    1    2    0    0 -0.30957984376E+02  0.11070000537E+02  0.25873496180E+03  0.27709691160E+03  0.93584059818E+02 0.  0.
         23    2    1    2    0    0 -0.10353927138E+02 -0.98216841766E+02  0.40357163340E+03  0.42488927774E+03  0.88921781554E+02 0.  0.
        -11    1    3    3    0    0  0.29081654009E+02  0.86131426385E+01  0.14832469617E+03  0.15139400358E+03  0.00000000000E+00 0.  1.
         11    1    3    3    0    0 -0.60039638386E+02  0.24568578990E+01  0.11041026563E+03  0.12570290802E+03  0.00000000000E+00 0. -1.
        -13    1    4    4    0    0  0.36305772217E+02 -0.67164267921E+02  0.21435237957E+03  0.22754360155E+03  0.00000000000E+00 0.  1.
         13    1    4    4    0    0 -0.46659699356E+02 -0.31052573845E+02  0.18921925384E+03  0.19734567618E+03  0.00000000000E+00 0. -1.
          2    1    1    2  501    0  0.41311911515E+02  0.87146841229E+02  0.11196746409E+02  0.97090746723E+02  0.00000000000E+00 0. -1.
<scales pt_clust_5="13000.00000" pt_clust_6="13000.00000" pt_clust_7="13000.00000" pt_clust_8="13000.00000" pt_clust_9="96.44297"></scales>
<clustering>
<clus scale="   88.922">  7  8 -1 -1</clus>
<clus scale="   93.584">  5  6 -1 -1</clus>
<clus scale="   96.443">  2  9  1 -1</clus>
<clus scale="  103.388">  2  7  1 -1</clus>
<clus scale="   96.443">  2  5  1 -1</clus>
</clustering>
</event>
<event>
 9    1  0.1504846E-005  0.1667561E+03  0.7546771E-02  0.1186027E+00
          1   -1    0    0  502    0 -0.00000000000E+00  0.00000000000E+00  0.52777585673E+03  0.52777585673E+03  0.00000000000E+00 0. -1.
         21   -1    0    0  501  502  0.00000000000E+00 -0.00000000000E+00 -0.65840925948E+02  0.65840925948E+02  0.00000000000E+00 0.  1.
         23    2    1    2    0    0 -0.12825252136E+03 -0.52849415961E+02  0.32399726100E+03  0.36611512365E+03  0.99117549522E+02 0.  0.
         23    2    1    2    0    0  0.12459207080E+03  0.30878191698E+02  0.14417583617E+03  0.20437054764E+03  0.67111863168E+02 0.  0.
        -11    1    3    3    0    0  0.14504518486E+00  0.21032049412E+02  0.57302865474E+02  0.61040859530E+02  0.00000000000E+00 0.  1.
         11    1    3    3    0    0 -0.12839756655E+03 -0.73881465373E+02  0.26669439553E+03  0.30507426412E+03  0.00000000000E+00 0. -1.
        -11    1    4    4    0    0  0.87594797200E+02  0.50344989541E+02  0.11663168173E+03  0.15430623984E+03  0.00000000000E+00 0.  1.
         11    1    4    4    0    0  0.36997273604E+02 -0.19466797843E+02  0.27544154441E+02  0.50064307807E+02  0.00000000000E+00 0. -1.
          1    1    1    2  501    0  0.36604505613E+01  0.21971224263E+02 -0.62381663952E+01  0.23131111385E+02  0.00000000000E+00 0. -1.
<scales pt_clust_5="13000.00000" pt_clust_6="13000.00000" pt_clust_7="13000.00000" pt_clust_8="13000.00000" pt_clust_9="22.27406"></scales>
<clustering>
<clus scale="   22.274">  2  9  1 -1</clus>
<clus scale="   67.112">  7  8 -1 -1</clus>
<clus scale="   99.118">  5  6 -1 -1</clus>
<clus scale="  149.958">  2  7  1 -1</clus>
<clus scale="   22.274">  2  5  1 -1</clus>
</clustering>
</event>
<event>
 9    1  0.1504846E-005  0.1127654E+03  0.7546771E-02  0.1255904E+00
         21   -1    0    0  501  502  0.00000000000E+00  0.00000000000E+00  0.59068477568E+02  0.59068477568E+02  0.00000000000E+00 0.  1.
          2   -1    0    0  502    0 -0.00000000000E+00 -0.00000000000E+00 -0.53335424392E+03  0.53335424392E+03  0.00000000000E+00 0. -1.
         23    2    1    2    0    0 -0.47707208307E+02  0.53016099648E+02 -0.39386042964E+03  0.40999962775E+03  0.88808626689E+02 0.  0.
         23    2    1    2    0    0  0.58858294843E+02 -0.31936355627E+02 -0.10197516247E+03  0.15028126228E+03  0.87757018798E+02 0.  0.
        -11    1    4    4    0    0  0.67899236698E+02  0.34124053864E+01 -0.41496052817E+02  0.79648435353E+02  0.00000000000E+00 0. -1.
         11    1    4    4    0    0 -0.90409418555E+01 -0.35348761014E+02 -0.60479109657E+02  0.70632826928E+02  0.00000000000E+00 0.  1.
        -13    1    3    3    0    0 -0.49923166050E+02 -0.10071827275E+00 -0.10470592695E+03  0.11599855082E+03  0.00000000000E+00 0.  1.
         13    1    3    3    0    0  0.22159577422E+01  0.53116817921E+02 -0.28915450269E+03  0.29400107694E+03  0.00000000000E+00 0. -1.
          2    1    1    2  501    0 -0.11151086535E+02 -0.21079744021E+02  0.21549825763E+02  0.32141831456E+02  0.00000000000E+00 0. -1.
<scales pt_clust_5="13000.00000" pt_clust_6="13000.00000" pt_clust_7="13000.00000" pt_clust_8="13000.00000" pt_clust_9="23.84748"></scales>
<clustering>
<clus scale="   23.847">  1  9  2 -1</clus>
<clus scale="   87.757">  5  6 -1 -1</clus>
<clus scale="   88.809">  7  8 -1 -1</clus>
<clus scale="  111.939">  1  5  2 -1</clus>
<clus scale="   23.847">  1  5  2 -1</clus>
</clustering>
</event>
<event>
 9    1  0.1504846E-005  0.1404791E+03  0.7546771E-02  0.1213099E+00
         -2   -1    0    0    0  501 -0.00000000000E+00  0.00000000000E+00  0.25023111224E+03  0.25023111224E+03  0.00000000000E+00 0.  1.
         21   -1    0    0  501  502  0.00000000000E+00 -0.00000000000E+00 -0.33898763773E+03  0.33898763773E+03  0.00000000000E+00 0.  1.
         23    2    1    2    0    0 -0.52340882859E+02 -0.78093125985E+02  0.10306321935E+03  0.16645763435E+03  0.90818569174E+02 0.  0.
         23    2    1    2    0    0  0.90385833556E+00  0.14477774340E+03  0.39670720776E+02  0.17642711196E+03  0.92689523699E+02 0.  0.
        -11    1    4    4    0    0 -0.31592705090E+02  0.13764479343E+02 -0.36714316794E+01  0.34656014154E+02  0.00000000000E+00 0. -1.
         11    1    4    4    0    0  0.32496563426E+02  0.13101326405E+03  0.43342152456E+02  0.14177109780E+03  0.00000000000E+00 0.  1.
        -13    1    3    3    0    0  0.11006118298E+02 -0.57748138685E+02  0.24986589347E+02  0.63877318422E+02  0.00000000000E+00 0. -1.
         13    1    3    3    0    0 -0.63347001157E+02 -0.20344987300E+02  0.78076630002E+02  0.10258031593E+03  0.00000000000E+00 0.  1.
         -2    1    1    2    0  502  0.51437024523E+02 -0.66684617411E+02 -0.23149046561E+03  0.24633400366E+03  0.00000000000E+00 0.  1.
<scales pt_clust_5="13000.00000" pt_clust_6="13000.00000" pt_clust_7="13000.00000" pt_clust_8="13000.00000" pt_clust_9="84.21761"></scales>
<clustering>
<clus scale="   84.218">  2  9  1 -1</clus>
<clus scale="   90.819">  7  8 -1 -1</clus>
<clus scale="   92.690">  5  6 -1 -1</clus>
<clus scale="  139.252">  1  7  2 -1</clus>
<clus scale="   84.218">  2  5  1 -1</clus>
</clustering>
</event>
<event>
 9    1  0.1504846E-005  0.1041082E+03  0.7546771E-02  0.1272522E+00
          3   -1    0    0  502    0 -0.00000000000E+00  0.00000000000E+00  0.14791635215E+03  0.14791635215E+03  0.00000000000E+00 0. -1.
         21   -1    0    0  501  502  0.00000000000E+00 -0.00000000000E+00 -0.29594674039E+03  0.29594674039E+03  0.00000000000E+00 0. -1.
         23    2    1    2    0    0  0.44239831434E+02 -0.30068149922E+02  0.98679312540E+02  0.14494551554E+03  0.91707902743E+02 0.  0.
         23    2    1    2    0    0  0.85580492731E+00  0.46876973853E+02 -0.92906474534E+02  0.13776055610E+03  0.90267240607E+02 0.  0.
        -11    1    3    3    0    0 -0.12639613458E+02 -0.45125317757E+02  0.50545100390E+02  0.68926492036E+02  0.00000000000E+00 0.  1.
         11    1    3    3    0    0  0.56879444892E+02  0.15057167835E+02  0.48134212151E+02  0.76019023499E+02  0.00000000000E+00 0. -1.
        -11    1    4    4    0    0  0.19807337348E+02  0.65281948596E+02 -0.87231152057E+02  0.11073995356E+03  0.00000000000E+00 0. -1.
         11    1    4    4    0    0 -0.18951532421E+02 -0.18404974742E+02 -0.56753224761E+01  0.27020602539E+02  0.00000000000E+00 0.  1.
          3    1    1    2  501    0 -0.45095636361E+02 -0.16808823931E+02 -0.15380322625E+03  0.16115702090E+03  0.00000000000E+00 0. -1.
<scales pt_clust_5="13000.00000" pt_clust_6="13000.00000" pt_clust_7="13000.00000" pt_clust_8="13000.00000" pt_clust_9="48.12643"></scales>
<clustering>
<clus scale="   48.126">  2  9  1 -1</clus>
<clus scale="   90.267">  7  8 -1 -1</clus>
<clus scale="   91.708">  5  6 -1 -1</clus>
<clus scale="  102.841">  2  7  1 -1</clus>
<clus scale="   48.126">  2  5  1 -1</clus>
</clustering>
</event>
<event>
 9    1  0.1504846E-005  0.1066720E+03  0.7546771E-02  0.1268176E+00
          2   -1    0    0  502    0 -0.00000000000E+00  0.00000000000E+00  0.37180917476E+03  0.37180917476E+03  0.00000000000E+00 0. -1.
         21   -1    0    0  501  502  0.00000000000E+00 -0.00000000000E+00 -0.51665606645E+02  0.51665606645E+02  0.00000000000E+00 0.  1.
         23    2    1    2    0    0 -0.48218319195E+02  0.36594705001E+02  0.19629243767E+03  0.22434111354E+03  0.90188887339E+02 0.  0.
         23    2    1    2    0    0  0.80701045542E+01 -0.47082965048E+02  0.11700600673E+03  0.15707729550E+03  0.93278823788E+02 0.  0.
        -11    1    4    4    0    0  0.39671612128E+02  0.72717282826E+01  0.59433699261E+02  0.71826732133E+02  0.00000000000E+00 0.  1.
         11    1    4    4    0    0 -0.31601507574E+02 -0.54354693330E+02  0.57572307465E+02  0.85250563369E+02  0.00000000000E+00 0. -1.
        -11    1    3    3    0    0 -0.27510607444E+02  0.56137684412E+02  0.18208862724E+03  0.19252153465E+03  0.00000000000E+00 0. -1.
         11    1    3    3    0    0 -0.20707711751E+02 -0.19542979411E+02  0.14203810425E+02  0.31819578891E+02  0.00000000000E+00 0.  1.
          2    1    1    2  501    0  0.40148214641E+02  0.10488260046E+02  0.68451237247E+01  0.42056372364E+02  0.00000000000E+00 0. -1.
<scales pt_clust_5="13000.00000" pt_clust_6="13000.00000" pt_clust_7="13000.00000" pt_clust_8="13000.00000" pt_clust_9="41.49557"></scales>
<clustering>
<clus scale="   41.496">  2  9  1 -1</clus>
<clus scale="   90.189">  7  8 -1 -1</clus>
<clus scale="   93.279">  5  6 -1 -1</clus>
<clus scale="  103.981">  1  7  2 -1</clus>
<clus scale="   41.496">  2  5  1 -1</clus>
</clustering>
</event>
<event>
 9    1  0.1504846E-005  0.1519678E+03  0.7546771E-02  0.1201934E+00
         21   -1    0    0  501  502  0.00000000000E+00  0.00000000000E+00  0.21146745130E+03  0.21146745130E+03  0.00000000000E+00 0. -1.
          3   -1    0    0  502    0 -0.00000000000E+00 -0.00000000000E+00 -0.36791818265E+03  0.36791818265E+03  0.00000000000E+00 0. -1.
         23    2    1    2    0    0  0.98809059917E+02  0.52413032441E+02 -0.16238475394E+03  0.20901047478E+03  0.69326863226E+02 0.  0.
         23    2    1    2    0    0 -0.12090294498E+03 -0.63403822663E+02 -0.14395226231E+03  0.21847112489E+03  0.91486675287E+02 0.  0.
        -11    1    3    3    0    0  0.93569584653E+02  0.27871899398E+02 -0.91469989315E+02  0.13378665439E+03  0.00000000000E+00 0.  1.
         11    1    3    3    0    0  0.52394752640E+01  0.24541133044E+02 -0.70914764625E+02  0.75223820389E+02  0.00000000000E+00 0. -1.
        -11    1    4    4    0    0 -0.50718040436E+02 -0.64708132899E+02 -0.36113492492E+02  0.89797808598E+02  0.00000000000E+00 0.  1.
         11    1    4    4    0    0 -0.70184904542E+02  0.13043102357E+01 -0.10783876981E+03  0.12867331629E+03  0.00000000000E+00 0. -1.
          3    1    1    2  501    0  0.22093885061E+02  0.10990790222E+02  0.14988628490E+03  0.15190403427E+03  0.00000000000E+00 0. -1.
<scales pt_clust_5="13000.00000" pt_clust_6="13000.00000" pt_clust_7="13000.00000" pt_clust_8="13000.00000" pt_clust_9="24.67665"></scales>
<clustering>
<clus scale="   24.677">  1  9  2 -1</clus>
<clus scale="   69.327">  5  6 -1 -1</clus>
<clus scale="   91.487">  7  8 -1 -1</clus>
<clus scale="  139.752">  2  5  1 -1</clus>
<clus scale="   24.677">  1  5  2 -1</clus>
</clustering>
</event>
<event>
 9    1  0.1504846E-005  0.1013532E+03  0.7546771E-02  0.1277486E+00
         21   -1    0    0  501  502  0.00000000000E+00  0.00000000000E+00  0.37004532347E+03  0.37004532347E+03  0.00000000000E+00 0. -1.
         -3   -1    0    0    0  501 -0.00000000000E+00 -0.00000000000E+00 -0.36786595676E+02  0.36786595676E+02  0.00000000000E+00 0.  1.
         23    2    1    2    0    0 -0.36030236487E+02  0.75159129886E+01  0.12421005841E+03  0.15791527604E+03  0.90301876552E+02 0.  0.
         23    2    1    2    0    0  0.51541452816E+02 -0.24170258358E+02  0.13890542333E+03  0.17517357551E+03  0.90279245548E+02 0.  0.
        -11    1    3    3    0    0  0.14596842829E+02  0.36402325246E+02  0.49071884463E+02  0.62819160681E+02  0.00000000000E+00 0.  1.
         11    1    3    3    0    0 -0.50627079316E+02 -0.28886412258E+02  0.75138173943E+02  0.95096115361E+02  0.00000000000E+00 0. -1.
        -13    1    4    4    0    0  0.73619599418E+02 -0.58072776109E+01  0.75721881311E+02  0.10577037960E+03  0.00000000000E+00 0.  1.
         13    1    4    4    0    0 -0.22078146602E+02 -0.18362980747E+02  0.63183542023E+02  0.69403195906E+02  0.00000000000E+00 0. -1.
         -3    1    1    2    0  502 -0.15511216328E+02  0.16654345369E+02  0.70143246052E+02  0.73743067596E+02  0.00000000000E+00 0.  1.
<scales pt_clust_5="13000.00000" pt_clust_6="13000.00000" pt_clust_7="13000.00000" pt_clust_8="13000.00000" pt_clust_9="22.75885"></scales>
<clustering>
<clus scale="   22.759">  1  9  2 -1</clus>
<clus scale="   90.279">  7  8 -1 -1</clus>
<clus scale="   90.302">  5  6 -1 -1</clus>
<clus scale="  101.333">  1  7  2 -1</clus>
<clus scale="   22.759">  1  5  2 -1</clus>
</clustering>
</event>
<event>
 9    1  0.1504846E-005  0.1954971E+03  0.7546771E-02  0.1153885E+00
          2   -1    0    0  502    0 -0.00000000000E+00  0.00000000000E+00  0.88065058680E+03  0.88065058680E+03  0.00000000000E+00 0.  1.
         21   -1    0    0  501  502  0.00000000000E+00 -0.00000000000E+00 -0.56350356504E+02  0.56350356504E+02  0.00000000000E+00 0.  1.
         23    2    1    2    0    0 -0.41791531149E+02  0.14564199682E+03  0.34067069639E+03  0.38400183379E+03  0.91884501735E+02 0.  0.
         23    2    1    2    0    0  0.41650145324E+02 -0.19404244458E+03  0.42076744488E+03  0.47366270192E+03  0.89016333436E+02 0.  0.
        -11    1    4    4    0    0 -0.96267717621E+01 -0.13132360490E+03  0.30653313698E+03  0.33361823692E+03  0.00000000000E+00 0. -1.
         11    1    4    4    0    0  0.51276917086E+02 -0.62718839679E+02  0.11423430789E+03  0.14004446500E+03  0.00000000000E+00 0.  1.
        -13    1    3    3    0    0 -0.50566084149E+02  0.73471572794E+02  0.26254720205E+03  0.27728331031E+03  0.00000000000E+00 0.  1.
         13    1    3    3    0    0  0.87745530001E+01  0.72170424022E+02  0.78123494345E+02  0.10671852347E+03  0.00000000000E+00 0. -1.
          2    1    1    2  501    0  0.14138582450E+00  0.48400447764E+02  0.62862089028E+02  0.79336407599E+02  0.00000000000E+00 0.  1.
<scales pt_clust_5="13000.00000" pt_clust_6="13000.00000" pt_clust_7="13000.00000" pt_clust_8="13000.00000" pt_clust_9="48.40065"></scales>
<clustering>
<clus scale="   48.401">  2  9  1 -1</clus>
<clus scale="   89.016">  5  6 -1 -1</clus>
<clus scale="   91.885">  7  8 -1 -1</clus>
<clus scale="  194.166">  2  5  1 -1</clus>
<clus scale="   48.401">  2  5  1 -1</clus>
</clustering>
</event>
<event>
 9    1  0.1504846E-005  0.1769097E+03  0.7546771E-02  0.1173666E+00
          1   -1    0    0  502    0 -0.00000000000E+00  0.00000000000E+00  0.47694658115E+03  0.47694658115E+03  0.00000000000E+00 0. -1.
         21   -1    0    0  501  502  0.00000000000E+00 -0.00000000000E+00 -0.10841213194E+03  0.10841213194E+03  0.00000000000E+00 0. -1.
         23    2    1    2    0    0  0.11511772983E+03 -0.65309026688E+02  0.23684706249E+03  0.28629519558E+03  0.91384064879E+02 0.  0.
         23    2    1    2    0    0 -0.15621230776E+03  0.20638136648E+02  0.13992020709E+03  0.23780968429E+03  0.11021598708E+03 0.  0.
        -11    1    4    4    0    0 -0.81921135260E+02  0.63718301694E+02  0.95894160353E+02  0.14130387243E+03  0.00000000000E+00 0.  1.
         11    1    4    4    0    0 -0.74291172501E+02 -0.43080165045E+02  0.44026046741E+02  0.96505811864E+02  0.00000000000E+00 0. -1.
        -11    1    3    3    0    0  0.53344482845E+02  0.88361133861E+01  0.40648021377E+02  0.67645934036E+02  0.00000000000E+00 0.  1.
         11    1    3    3    0    0  0.61773246984E+02 -0.74145140074E+02  0.19619904112E+03  0.21864926155E+03  0.00000000000E+00 0. -1.
          1    1    1    2  501    0  0.41094577933E+02  0.44670890040E+02 -0.82328203835E+01  0.61253833218E+02  0.00000000000E+00 0. -1.
<scales pt_clust_5="13000.00000" pt_clust_6="13000.00000" pt_clust_7="13000.00000" pt_clust_8="13000.00000" pt_clust_9="60.69805"></scales>
<clustering>
<clus scale="   60.698">  2  9  1 -1</clus>
<clus scale="   91.384">  7  8 -1 -1</clus>
<clus scale="  110.216">  5  6 -1 -1</clus>
<clus scale="  165.833">  1  7  2 -1</clus>
<clus scale="   60.698">  2  5  1 -1</clus>
</clustering>
</event>
<event>
 9    1  0.1504846E-005  0.1171554E+03  0.7546771E-02  0.1248103E+00
          1   -1    0    0  502    0 -0.00000000000E+00  0.00000000000E+00  0.43685149757E+03  0.43685149757E+03  0.00000000000E+00 0. -1.
         21   -1    0    0  501  502  0.00000000000E+00 -0.00000000000E+00 -0.50658092277E+02  0.50658092277E+02  0.00000000000E+00 0. -1.
         23    2    1    2    0    0  0.24433424037E+02  0.52682022790E+02  0.18460570127E+03  0.21355097801E+03  0.90290462016E+02 0.  0.
         23    2    1    2    0    0 -0.45828482413E+02 -0.84310034714E+02  0.19437084072E+03  0.23509779897E+03  0.91008349086E+02 0.  0.
        -11    1    4    4    0    0 -0.20703466093E+02 -0.39657908653E+02  0.12939025500E+02  0.46570394114E+02  0.00000000000E+00 0.  1.
         11    1    4    4    0    0 -0.25125016320E+02 -0.44652126060E+02  0.18143181522E+03  0.18852740485E+03  0.00000000000E+00 0. -1.
        -13    1    3    3    0    0 -0.19780755474E+01  0.22504877718E+02 -0.20044626169E+01  0.22680391848E+02  0.00000000000E+00 0. -1.
         13    1    3    3    0    0  0.26411499585E+02  0.30177145071E+02  0.18661016388E+03  0.19087058616E+03  0.00000000000E+00 0.  1.
          1    1    1    2  501    0  0.21395058375E+02  0.31628011924E+02  0.72168633025E+01  0.38860812872E+02  0.00000000000E+00 0. -1.
<scales pt_clust_5="13000.00000" pt_clust_6="13000.00000" pt_clust_7="13000.00000" pt_clust_8="13000.00000" pt_clust_9="38.18481"></scales>
<clustering>
<clus scale="   38.185">  2  9  1 -1</clus>
<clus scale="   90.290">  7  8 -1 -1</clus>
<clus scale="   91.008">  5  6 -1 -1</clus>
<clus scale="  116.599">  1  7  2 -1</clus>
<clus scale="   38.185">  2  5  1 -1</clus>
</clustering>
</event>
<event>
 9    1  0.1504846E-005  0.1127222E+03  0.7546771E-02  0.1256387E+00
          2   -1    0    0  502    0 -0.00000000000E+00  0.00000000000E+00  0.23890321320E+03  0.23890321320E+03  0.00000000000E+00 0. -1.
         21   -1    0    0  501  502  0.00000000000E+00 -0.00000000000E+00 -0.79581722483E+02  0.79581722483E+02  0.00000000000E+00 0. -1.
         23    2    1    2    0    0 -0.17361014408E+02 -0.49083404249E+02  0.90343428626E+02  0.13962034562E+03  0.92851065799E+02 0.  0.
         23    2    1    2    0    0  0.32579091831E+02  0.72050312280E+02  0.84661141343E+02  0.14716241790E+03  0.90755846454E+02 0.  0.
        -11    1    3    3    0    0 -0.54254151129E+02 -0.15196598785E+02  0.48995227904E+02  0.74665801320E+02  0.00000000000E+00 0. -1.
         11    1    3    3    0    0  0.36893136721E+02 -0.33886805464E+02  0.41348200722E+02  0.64954544296E+02  0.00000000000E+00 0.  1.
        -11    1    4    4    0    0  0.67195766245E+01  0.37192564404E+02 -0.13260132168E+02  0.40053347701E+02  0.00000000000E+00 0.  1.
         11    1    4    4    0    0  0.25859515207E+02  0.34857747877E+02  0.97921273511E+02  0.10710907020E+03  0.00000000000E+00 0. -1.
          2    1    1    2  501    0 -0.15218077423E+02 -0.22966908031E+02 -0.15683079253E+02  0.31702172163E+02  0.00000000000E+00 0. -1.
<scales pt_clust_5="13000.00000" pt_clust_6="13000.00000" pt_clust_7="13000.00000" pt_clust_8="13000.00000" pt_clust_9="27.55120"></scales>
<clustering>
<clus scale="   27.551">  2  9  1 -1</clus>
<clus scale="   90.756">  7  8 -1 -1</clus>
<clus scale="   92.851">  5  6 -1 -1</clus>
<clus scale="  111.003">  2  7  1 -1</clus>
<clus scale="   27.551">  2  5  1 -1</clus>
</clustering>
</event>
<event>
 9    1  0.1504846E-005  0.1365194E+03  0.7546771E-02  0.1218682E+00
         21   -1    0    0  501  502  0.00000000000E+00  0.00000000000E+00  0.54953169749E+02  0.54953169749E+02  0.00000000000E+00 0.  1.
          1   -1    0    0  502    0 -0.00000000000E+00 -0.00000000000E+00 -0.53312548665E+03  0.53312548665E+03  0.00000000000E+00 0. -1.
         23    2    1    2    0    0  0.85948799163E+02 -0.88558972653E+02 -0.30536792445E+03  0.34227926984E+03  0.93143124085E+02 0.  0.
         23    2    1    2    0    0 -0.47971402676E+02  0.43487019086E+02 -0.85342897455E+02  0.14033244032E+03  0.90649916470E+02 0.  0.
        -11    1    3    3    0    0  0.66602832715E+02 -0.16816165473E+02 -0.82520343612E+02  0.10737005102E+03  0.00000000000E+00 0. -1.
         11    1    3    3    0    0  0.19345966449E+02 -0.71742807180E+02 -0.22284758084E+03  0.23490921882E+03  0.00000000000E+00 0.  1.
        -13    1    4    4    0    0 -0.32458657262E+02 -0.10779385603E+02  0.42284762880E+01  0.34462147307E+02  0.00000000000E+00 0.  1.
         13    1    4    4    0    0 -0.15512745414E+02  0.54266404689E+02 -0.89571373743E+02  0.10587029301E+03  0.00000000000E+00 0. -1.
          1    1    1    2  501    0 -0.37977396487E+02  0.45071953567E+02 -0.87461494993E+02  0.10546694624E+03  0.00000000000E+00 0. -1.
<scales pt_clust_5="13000.00000" pt_clust_6="13000.00000" pt_clust_7="13000.00000" pt_clust_8="13000.00000" pt_clust_9="58.93867"></scales>
<clustering>
<clus scale="   58.939">  1  9  2 -1</clus>
<clus scale="   90.650">  7  8 -1 -1</clus>
<clus scale="   93.143">  5  6 -1 -1</clus>
<clus scale="  134.831">  1  7  2 -1</clus>
<clus scale="   58.939">  1  5  2 -1</clus>
</clustering>
</event>
<event>
 9    1  0.1504846E-005  0.1185879E+03  0.7546771E-02  0.1248302E+00
          1   -1    0    0  502    0 -0.00000000000E+00  0.00000000000E+00  0.28929374481E+03  0.28929374481E+03  0.00000000000E+00 0. -1.
         21   -1    0    0  501  502  0.00000000000E+00 -0.00000000000E+00 -0.20364684000E+03  0.20364684000E+03  0.00000000000E+00 0. -1.
         23    2    1    2    0    0 -0.57801871082E+02  0.37622283851E+02  0.23041066691E+03  0.25760507888E+03  0.92275721066E+02 0.  0.
         23    2    1    2    0    0 -0.83441463721E+01 -0.52175361947E+02 -0.64639659107E+02  0.13042144783E+03  0.10019768136E+03 0.  0.
        -11    1    3    3    0    0  0.12342284672E+02 -0.20511822391E+02  0.42631638486E+02  0.48892979544E+02  0.00000000000E+00 0.  1.
         11    1    3    3    0    0 -0.70144155754E+02  0.58134106242E+02  0.18777902842E+03  0.20871209934E+03  0.00000000000E+00 0. -1.
        -13    1    4    4    0    0  0.41305902354E+02 -0.97579959610E+01 -0.64020244896E+01  0.42922977203E+02  0.00000000000E+00 0.  1.
         13    1    4    4    0    0 -0.49650048726E+02 -0.42417365986E+02 -0.58237634618E+02  0.87498470624E+02  0.00000000000E+00 0. -1.
          1    1    1    2  501    0  0.66146017454E+02  0.14553078097E+02 -0.80124102987E+02  0.10491405810E+03  0.00000000000E+00 0. -1.
<scales pt_clust_5="13000.00000" pt_clust_6="13000.00000" pt_clust_7="13000.00000" pt_clust_8="13000.00000" pt_clust_9="67.72804"></scales>
<clustering>
<clus scale="   67.728">  2  9  1 -1</clus>
<clus scale="   92.276">  5  6 -1 -1</clus>
<clus scale="  100.198">  7  8 -1 -1</clus>
<clus scale="  111.975">  1  5  2 -1</clus>
<clus scale="   67.728">  2  5  1 -1</clus>
</clustering>
</event>
<event>
 9    1  0.1504846E-005  0.1285912E+03  0.7546771E-02  0.1254593E+00
          2   -1    0    0  502    0 -0.00000000000E+00  0.00000000000E+00  0.38296505146E+03  0.38296505146E+03  0.00000000000E+00 0. -1.
         21   -1    0    0  501  502  0.00000000000E+00 -0.00000000000E+00 -0.92926589194E+02  0.92926589194E+02  0.00000000000E+00 0. -1.
         23    2    1    2    0    0 -0.23071752375E+02 -0.11890373009E+02 -0.67642621917E+01  0.77768262883E+02  0.72996306351E+02 0.  0.
         23    2    1    2    0    0 -0.42707125377E+02 -0.53327328865E+02  0.28148165108E+03  0.30423544093E+03  0.93056870015E+02 0.  0.
        -11    1    4    4    0    0 -0.17617975057E+00 -0.68651719743E+02  0.19352279076E+03  0.20533913462E+03  0.00000000000E+00 0. -1.
         11    1    4    4    0    0 -0.42530945626E+02  0.15324390877E+02  0.87958860327E+02  0.98896306310E+02  0.00000000000E+00 0.  1.
        -13    1    3    3    0    0 -0.27807082292E+02 -0.38955457047E+02 -0.12994522863E+02  0.49594546915E+02  0.00000000000E+00 0. -1.
         13    1    3    3    0    0  0.47353299169E+01  0.27065084038E+02  0.62302606716E+01  0.28173715968E+02  0.00000000000E+00 0.  1.
          2    1    1    2  501    0  0.65778877752E+02  0.65217701874E+02  0.15321073376E+02  0.93887936847E+02  0.00000000000E+00 0. -1.
<scales pt_clust_5="13000.00000" pt_clust_6="13000.00000" pt_clust_7="13000.00000" pt_clust_8="13000.00000" pt_clust_9="88.74750"></scales>
<clustering>
<clus scale="   72.996">  7  8 -1 -1</clus>
<clus scale="   77.474">  1  7  2 -1</clus>
<clus scale="   88.747">  2  9  1 -1</clus>
<clus scale="   93.057">  5  6 -1 -1</clus>
<clus scale="   88.747">  2  5  1 -1</clus>
</clustering>
</event>
<event>
 9    1  0.1504846E-005  0.1301204E+03  0.7546771E-02  0.1230073E+00
         21   -1    0    0  501  502  0.00000000000E+00  0.00000000000E+00  0.44241804576E+03  0.44241804576E+03  0.00000000000E+00 0.  1.
          3   -1    0    0  502    0 -0.00000000000E+00 -0.00000000000E+00 -0.67187703790E+02  0.67187703790E+02  0.00000000000E+00 0. -1.
         23    2    1    2    0    0  0.56065951567E+02 -0.60470000683E+02  0.23653573989E+02  0.12451550493E+03  0.90247479175E+02 0.  0.
         23    2    1    2    0    0 -0.74734566513E+02  0.48564608386E+02  0.31563061264E+03  0.34287198277E+03  0.99973678110E+02 0.  0.
        -11    1    4    4    0    0  0.18880581559E+02 -0.94248183918E+01  0.29403363164E+02  0.36192006397E+02  0.00000000000E+00 0. -1.
         11    1    4    4    0    0 -0.93615148072E+02  0.57989426778E+02  0.28622724947E+03  0.30667997637E+03  0.00000000000E+00 0.  1.
        -13    1    3    3    0    0  0.42093472239E+02 -0.11895961137E+02 -0.28247211549E+02  0.52069945811E+02  0.00000000000E+00 0. -1.
         13    1    3    3    0    0  0.13972479328E+02 -0.48574039546E+02  0.51900785537E+02  0.72445559117E+02  0.00000000000E+00 0.  1.
          3    1    1    2  501    0  0.18668614945E+02  0.11905392297E+02  0.35946155345E+02  0.42218261853E+02  0.00000000000E+00 0. -1.
<scales pt_clust_5="13000.00000" pt_clust_6="13000.00000" pt_clust_7="13000.00000" pt_clust_8="13000.00000" pt_clust_9="22.14172"></scales>
<clustering>
<clus scale="   22.142">  1  9  2 -1</clus>
<clus scale="   90.247">  7  8 -1 -1</clus>
<clus scale="   99.974">  5  6 -1 -1</clus>
<clus scale="  122.806">  2  7  1 -1</clus>
<clus scale="   22.142">  1  5  2 -1</clus>
</clustering>
</event>
<event>
 9    1  0.1504846E-005  0.1727508E+03  0.7546771E-02  0.1184379E+00
          1   -1    0    0  502    0 -0.00000000000E+00  0.00000000000E+00  0.40638967723E+03  0.40638967723E+03  0.00000000000E+00 0. -1.
         21   -1    0    0  501  502  0.00000000000E+00 -0.00000000000E+00 -0.20595735514E+03  0.20595735514E+03  0.00000000000E+00 0. -1.
         23    2    1    2    0    0 -0.48650301360E+02 -0.81761381168E+02  0.10016585631E+03  0.17208244461E+03  0.10260308815E+03 0.  0.
         23    2    1    2    0    0  0.15627587026E+03 -0.23344561572E+02  0.19178582576E+03  0.26417848516E+03  0.89673590751E+02 0.  0.
        -11    1    4    4    0    0  0.12075859379E+03 -0.16775449011E+01  0.79901614415E+02  0.14480925425E+03  0.00000000000E+00 0. -1.
         11    1    4    4    0    0  0.35517276471E+02 -0.21667016670E+02  0.11188421135E+03  0.11936923091E+03  0.00000000000E+00 0.  1.
        -13    1    3    3    0    0 -0.53138283061E+02  0.35141110531E+01  0.27393659602E+02  0.59886882450E+02  0.00000000000E+00 0.  1.
         13    1    3    3    0    0  0.44879817015E+01 -0.85275492221E+02  0.72772196710E+02  0.11219556216E+03  0.00000000000E+00 0. -1.
          1    1    1    2  501    0 -0.10762556890E+03  0.10510594274E+03 -0.91519359987E+02  0.17608610261E+03  0.00000000000E+00 0. -1.
<scales pt_clust_5="13000.00000" pt_clust_6="13000.00000" pt_clust_7="13000.00000" pt_clust_8="13000.00000" pt_clust_9="147.65326"></scales>
<clustering>
<clus scale="   89.674">  5  6 -1 -1</clus>
<clus scale="  102.603">  7  8 -1 -1</clus>
<clus scale="  139.926">  1  7  2 -1</clus>
<clus scale="  147.653">  2  9  1 -1</clus>
<clus scale="  147.653">  2  5  1 -1</clus>
</clustering>
</event>
<event>
 9    1  0.1504846E-005  0.1487507E+03  0.7546771E-02  0.1204360E+00
         21   -1    0    0  501  502  0.00000000000E+00  0.00000000000E+00  0.59767808881E+03  0.59767808881E+03  0.00000000000E+00 0.  1.
          2   -1    0    0  502    0 -0.00000000000E+00 -0.00000000000E+00 -0.45088131303E+02  0.45088131303E+02  0.00000000000E+00 0. -1.
         23    2    1    2    0    0 -0.13138961223E+02  0.10225173132E+03  0.16445408018E+03  0.21322905145E+03  0.88280434049E+02 0.  0.
         23    2    1    2    0    0  0.18623529701E+02 -0.12156337993E+03  0.30049303920E+03  0.33962450360E+03  0.99620508124E+02 0.  0.
        -11    1    4    4    0    0  0.35422385230E+02 -0.80169980821E+02  0.27402310824E+03  0.28769886175E+03  0.00000000000E+00 0.  1.
         11    1    4    4    0    0 -0.16798855528E+02 -0.41393399107E+02  0.26469930958E+02  0.51925641851E+02  0.00000000000E+00 0. -1.
        -11    1    3    3    0    0  0.33184973282E+02  0.45104473038E+02  0.10356611670E+03  0.11773528132E+03  0.00000000000E+00 0.  1.
         11    1    3    3    0    0 -0.46323934505E+02  0.57147258281E+02  0.60887963482E+02  0.95493770132E+02  0.00000000000E+00 0. -1.
          2    1    1    2  501    0 -0.54845684780E+01  0.19311648610E+02  0.87642838122E+02  0.89912665057E+02  0.00000000000E+00 0. -1.
<scales pt_clust_5="13000.00000" pt_clust_6="13000.00000" pt_clust_7="13000.00000" pt_clust_8="13000.00000" pt_clust_9="20.07536"></scales>
<clustering>
<clus scale="   20.075">  1  9  2 -1</clus>
<clus scale="   88.280">  7  8 -1 -1</clus>
<clus scale="   99.621">  5  6 -1 -1</clus>
<clus scale="  141.407">  2  7  1 -1</clus>
<clus scale="   20.075">  1  5  2 -1</clus>
</clustering>
</event>
<event>
 9    1  0.1504846E-005  0.1078843E+03  0.7546771E-02  0.1265321E+00
         -1   -1    0    0    0  501 -0.00000000000E+00  0.00000000000E+00  0.38127307111E+03  0.38127307111E+03  0.00000000000E+00 0.  1.
         21   -1    0    0  501  502  0.00000000000E+00 -0.00000000000E+00 -0.38822101320E+02  0.38822101320E+02  0.00000000000E+00 0. -1.
         23    2    1    2    0    0 -0.24952677323E+02 -0.44227173687E+02  0.16751922558E+03  0.19665335747E+03  0.89616812411E+02 0.  0.
         23    2    1    2    0    0  0.12835172074E+02  0.65575672545E+02  0.15380575092E+03  0.19105509038E+03  0.91547408870E+02 0.  0.
        -11    1    4    4    0    0 -0.78816540979E+01  0.23895966936E+02  0.14037398767E+03  0.14261133938E+03  0.00000000000E+00 0.  1.
         11    1    4    4    0    0  0.20716826172E+02  0.41679705608E+02  0.13431763253E+02  0.48443750994E+02  0.00000000000E+00 0. -1.
        -13    1    3    3    0    0 -0.56760564813E+02 -0.38470103190E+02  0.94092884921E+02  0.11642672180E+03  0.00000000000E+00 0.  1.
         13    1    3    3    0    0  0.31807887491E+02 -0.57570704970E+01  0.73426340662E+02  0.80226635666E+02  0.00000000000E+00 0. -1.
         -1    1    1    2    0  502  0.12117505248E+02 -0.21348498857E+02  0.21125993293E+02  0.32386724587E+02  0.00000000000E+00 0.  1.
<scales pt_clust_5="13000.00000" pt_clust_6="13000.00000" pt_clust_7="13000.00000" pt_clust_8="13000.00000" pt_clust_9="24.54776"></scales>
<clustering>
<clus scale="   24.548">  2  9  1 -1</clus>
<clus scale="   89.617">  7  8 -1 -1</clus>
<clus scale="   91.547">  5  6 -1 -1</clus>
<clus scale="  106.251">  1  7  2 -1</clus>
<clus scale="   24.548">  2  5  1 -1</clus>
</clustering>
</event>
<event>
 9    1  0.1504846E-005  0.2211891E+03  0.7546771E-02  0.1133110E+00
         21   -1    0    0  501  502  0.00000000000E+00  0.00000000000E+00  0.74161421929E+02  0.74161421929E+02  0.00000000000E+00 0.  1.
          1   -1    0    0  502    0 -0.00000000000E+00 -0.00000000000E+00 -0.89505018990E+03  0.89505018990E+03  0.00000000000E+00 0. -1.
         23    2    1    2    0    0 -0.13770894133E+02  0.20386514894E+03 -0.55803234023E+03  0.60139242676E+03  0.92315338604E+02 0.  0.
         23    2    1    2    0    0 -0.67412142664E+01 -0.19572015081E+03 -0.26898755953E+03  0.34491332637E+03  0.90879448297E+02 0.  0.
        -11    1    3    3    0    0 -0.36550239231E+02  0.15590119082E+03 -0.32397230285E+03  0.36138504991E+03  0.00000000000E+00 0. -1.
         11    1    3    3    0    0  0.22779345098E+02  0.47963958123E+02 -0.23406003738E+03  0.24000737685E+03  0.00000000000E+00 0.  1.
        -13    1    4    4    0    0  0.26510716032E+02 -0.27045949903E+02 -0.21432066856E+02  0.43515916173E+02  0.00000000000E+00 0. -1.
         13    1    4    4    0    0 -0.33251930298E+02 -0.16867420091E+03 -0.24755549268E+03  0.30139741020E+03  0.00000000000E+00 0.  1.
          1    1    1    2  501    0  0.20512108399E+02 -0.81449981309E+01  0.61311317946E+01  0.22905858697E+02  0.00000000000E+00 0. -1.
<scales pt_clust_5="13000.00000" pt_clust_6="13000.00000" pt_clust_7="13000.00000" pt_clust_8="13000.00000" pt_clust_9="22.07006"></scales>
<clustering>
<clus scale="   22.070">  1  9  2 -1</clus>
<clus scale="   90.879">  7  8 -1 -1</clus>
<clus scale="   92.315">  5  6 -1 -1</clus>
<clus scale="  220.594">  1  7  2 -1</clus>
<clus scale="   22.070">  1  5  2 -1</clus>
</clustering>
</event>
<event>
 9    1  0.1504846E-005  0.1379306E+03  0.7546771E-02  0.1216285E+00
         21   -1    0    0  501  502  0.00000000000E+00  0.00000000000E+00  0.10635999077E+03  0.10635999077E+03  0.00000000000E+00 0.  1.
          4   -1    0    0  502    0 -0.00000000000E+00 -0.00000000000E+00 -0.32457668993E+03  0.32457668993E+03  0.00000000000E+00 0. -1.
         23    2    1    2    0    0 -0.62078309968E+02  0.84478955368E+02 -0.23600605539E+03  0.27410156213E+03  0.91882521261E+02 0.  0.
         23    2    1    2    0    0  0.40187363318E+02 -0.88345567946E+02  0.11398852178E+02  0.13370499146E+03  0.91253095100E+02 0.  0.
        -11    1    4    4    0    0 -0.15148953223E+02 -0.71951962609E+02  0.17754315456E+02  0.75642523916E+02  0.00000000000E+00 0.  1.
         11    1    4    4    0    0  0.55336316541E+02 -0.16393605337E+02 -0.63554632779E+01  0.58062467548E+02  0.00000000000E+00 0. -1.
        -13    1    3    3    0    0 -0.54007368414E+02 -0.50367990730E+00 -0.88844631648E+02  0.10397316052E+03  0.00000000000E+00 0.  1.
         13    1    3    3    0    0 -0.80709415540E+01  0.84982635275E+02 -0.14716142374E+03  0.17012840161E+03  0.00000000000E+00 0. -1.
          4    1    1    2  501    0  0.21890946650E+02  0.38666125788E+01  0.63905040448E+01  0.23130127108E+02  0.00000000000E+00 0. -1.
<scales pt_clust_5="13000.00000" pt_clust_6="13000.00000" pt_clust_7="13000.00000" pt_clust_8="13000.00000" pt_clust_9="22.22981"></scales>
<clustering>
<clus scale="   22.230">  1  9  2 -1</clus>
<clus scale="   91.253">  5  6 -1 -1</clus>
<clus scale="   91.883">  7  8 -1 -1</clus>
<clus scale="  137.512">  1  5  2 -1</clus>
<clus scale="   22.230">  1  5  2 -1</clus>
</clustering>
</event>
<event>
 9    1  0.1504846E-005  0.9834026E+02  0.7546771E-02  0.1295833E+00
          2   -1    0    0  502    0 -0.00000000000E+00  0.00000000000E+00  0.36664298430E+03  0.36664298430E+03  0.00000000000E+00 0. -1.
         21   -1    0    0  501  502  0.00000000000E+00 -0.00000000000E+00 -0.35681230220E+02  0.35681230220E+02  0.00000000000E+00 0.  1.
         23    2    1    2    0    0 -0.18721540790E+02  0.34652120108E+02  0.20930475613E+03  0.22453598419E+03  0.71110208401E+02 0.  0.
         23    2    1    2    0    0  0.26854664072E+02 -0.33979281583E+01  0.10001703949E+03  0.13891330254E+03  0.92524475336E+02 0.  0.
        -11    1    3    3    0    0 -0.41782376913E+02  0.31502520716E+01  0.11868345775E+03  0.12586283905E+03  0.00000000000E+00 0.  1.
         11    1    3    3    0    0  0.23060836123E+02  0.31501868037E+02  0.90621298378E+02  0.98673145142E+02  0.00000000000E+00 0. -1.
        -13    1    4    4    0    0 -0.33279713654E+02  0.10020397220E+02  0.37852004609E+02  0.51387955342E+02  0.00000000000E+00 0.  1.
         13    1    4    4    0    0  0.60134377726E+02 -0.13418325379E+02  0.62165034879E+02  0.87525347197E+02  0.00000000000E+00 0. -1.
          2    1    1    2  501    0 -0.81331232818E+01 -0.31254191950E+02  0.21639958462E+02  0.38874927794E+02  0.00000000000E+00 0. -1.
<scales pt_clust_5="13000.00000" pt_clust_6="13000.00000" pt_clust_7="13000.00000" pt_clust_8="13000.00000" pt_clust_9="32.29508"></scales>
<clustering>
<clus scale="   32.295">  2  9  1 -1</clus>
<clus scale="   71.110">  5  6 -1 -1</clus>
<clus scale="   78.528">  1  5  2 -1</clus>
<clus scale="   92.524">  7  8 -1 -1</clus>
<clus scale="   32.295">  2  5  1 -1</clus>
</clustering>
</event>
<event>
 9    1  0.1504846E-005  0.9790003E+02  0.7546771E-02  0.1285036E+00
          1   -1    0    0  502    0 -0.00000000000E+00  0.00000000000E+00  0.97650307534E+02  0.97650307534E+02  0.00000000000E+00 0. -1.
         21   -1    0    0  501  502  0.00000000000E+00 -0.00000000000E+00 -0.26863064629E+03  0.26863064629E+03  0.00000000000E+00 0. -1.
         23    2    1    2    0    0  0.20478224080E+02 -0.28538610777E+02  0.24549373245E+02  0.10173181090E+03  0.92265267868E+02 0.  0.
         23    2    1    2    0    0  0.13591514275E+02  0.37239212860E+02 -0.44377604518E+02  0.10936084716E+03  0.91754753955E+02 0.  0.
        -11    1    4    4    0    0  0.38646164397E+02  0.12959662028E+02 -0.58851394591E+02  0.71588864412E+02  0.00000000000E+00 0. -1.
         11    1    4    4    0    0 -0.25054650122E+02  0.24279550832E+02  0.14473790074E+02  0.37771982745E+02  0.00000000000E+00 0.  1.
        -11    1    3    3    0    0  0.39521944133E+02 -0.39327635864E+02  0.45097148858E+02  0.71710528138E+02  0.00000000000E+00 0.  1.
         11    1    3    3    0    0 -0.19043720053E+02  0.10789025087E+02 -0.20547775613E+02  0.30021282758E+02  0.00000000000E+00 0. -1.
          1    1    1    2  501    0 -0.34069738355E+02 -0.87006020832E+01 -0.15115210749E+03  0.15518829578E+03  0.00000000000E+00 0. -1.
<scales pt_clust_5="13000.00000" pt_clust_6="13000.00000" pt_clust_7="13000.00000" pt_clust_8="13000.00000" pt_clust_9="35.16316"></scales>
<clustering>
<clus scale="   35.163">  2  9  1 -1</clus>
<clus scale="   91.755">  5  6 -1 -1</clus>
<clus scale="   92.265">  7  8 -1 -1</clus>
<clus scale="   97.419">  2  5  1 -1</clus>
<clus scale="   35.163">  2  5  1 -1</clus>
</clustering>
</event>
<event>
 9    1  0.1504846E-005  0.1327162E+03  0.7546771E-02  0.1226194E+00
         21   -1    0    0  501  502  0.00000000000E+00  0.00000000000E+00  0.54998863711E+02  0.54998863711E+02  0.00000000000E+00 0. -1.
         -1   -1    0    0    0  501 -0.00000000000E+00 -0.00000000000E+00 -0.39855888384E+03  0.39855888384E+03  0.00000000000E+00 0.  1.
         23    2    1    2    0    0  0.70694715015E+01 -0.74070383153E+02 -0.12813836545E+03  0.17382981778E+03  0.90889855120E+02 0.  0.
         23    2    1    2    0    0 -0.35695291939E+02  0.94981887389E+02 -0.17443371922E+03  0.22553623798E+03  0.10071623227E+03 0.  0.
        -11    1    3    3    0    0  0.48957430863E+02 -0.37774136234E+02 -0.72624416054E+02  0.95383547911E+02  0.00000000000E+00 0.  1.
         11    1    3    3    0    0 -0.41887959361E+02 -0.36296246918E+02 -0.55513949393E+02  0.78446269873E+02  0.00000000000E+00 0. -1.
        -13    1    4    4    0    0  0.16084165111E+02  0.53797868958E+02 -0.23748732917E+02  0.60966493969E+02  0.00000000000E+00 0.  1.
         13    1    4    4    0    0 -0.51779457050E+02  0.41184018431E+02 -0.15068498630E+03  0.16456974401E+03  0.00000000000E+00 0. -1.
         -1    1    1    2    0  502  0.28625820437E+02 -0.20911504237E+02 -0.40987935460E+02  0.54191691784E+02  0.00000000000E+00 0.  1.
<scales pt_clust_5="13000.00000" pt_clust_6="13000.00000" pt_clust_7="13000.00000" pt_clust_8="13000.00000" pt_clust_9="35.45037"></scales>
<clustering>
<clus scale="   35.450">  1  9  2 -1</clus>
<clus scale="   90.890">  5  6 -1 -1</clus>
<clus scale="  100.716">  7  8 -1 -1</clus>
<clus scale="  125.422">  2  5  1 -1</clus>
<clus scale="   35.450">  1  5  2 -1</clus>
</clustering>
</event>
<event>
 9    1  0.1504846E-005  0.3527960E+03  0.7546771E-02  0.1061514E+00
         -1   -1    0    0    0  501 -0.00000000000E+00  0.00000000000E+00  0.29028498359E+03  0.29028498359E+03  0.00000000000E+00 0.  1.
         21   -1    0    0  501  502  0.00000000000E+00 -0.00000000000E+00 -0.81049549967E+03  0.81049549967E+03  0.00000000000E+00 0.  1.
         23    2    1    2    0    0  0.30560543739E+03 -0.12100999017E+03  0.33200950837E+02  0.34266440515E+03  0.90986209609E+02 0.  0.
         23    2    1    2    0    0 -0.34766546304E+03  0.11999240092E+03 -0.25557953226E+03  0.45732721104E+03  0.92508541128E+02 0.  0.
        -13    1    4    4    0    0 -0.58672084759E+02 -0.11961915138E+02 -0.57035969360E+02  0.82695844784E+02  0.00000000000E+00 0.  1.
         13    1    4    4    0    0 -0.28899337828E+03  0.13195431606E+03 -0.19854356290E+03  0.37463136626E+03  0.00000000000E+00 0. -1.
        -13    1    3    3    0    0  0.28711093713E+03 -0.10423407111E+03  0.53980518621E+02  0.31017950962E+03  0.00000000000E+00 0.  1.
         13    1    3    3    0    0  0.18494500258E+02 -0.16775919064E+02 -0.20779567784E+02  0.32484895529E+02  0.00000000000E+00 0. -1.
         -1    1    1    2    0  502  0.42060025651E+02  0.10175892515E+01 -0.29783193466E+03  0.30078886706E+03  0.00000000000E+00 0.  1.
<scales pt_clust_5="13000.00000" pt_clust_6="13000.00000" pt_clust_7="13000.00000" pt_clust_8="13000.00000" pt_clust_9="42.07233"></scales>
<clustering>
<clus scale="   42.072">  2  9  1 -1</clus>
<clus scale="   90.986">  7  8 -1 -1</clus>
<clus scale="   92.509">  5  6 -1 -1</clus>
<clus scale="  352.400">  1  7  2 -1</clus>
<clus scale="   42.072">  2  5  1 -1</clus>
</clustering>
</event>
<event>
 9    1  0.1504846E-005  0.9112997E+02  0.7546771E-02  0.1300440E+00
         21   -1    0    0  501  502  0.00000000000E+00  0.00000000000E+00  0.92923506643E+02  0.92923506643E+02  0.00000000000E+00 0.  1.
          3   -1    0    0  502    0 -0.00000000000E+00 -0.00000000000E+00 -0.40534351891E+03  0.40534351891E+03  0.00000000000E+00 0. -1.
         23    2    1    2    0    0 -0.12046541882E+02 -0.49048964674E+01 -0.35023575616E+03  0.36198637818E+03  0.90553166233E+02 0.  0.
         23    2    1    2    0    0 -0.20610773225E+02 -0.93803800919E+01  0.38782892147E+02  0.10062248236E+03  0.90044298708E+02 0.  0.
        -11    1    4    4    0    0 -0.44133369098E+02 -0.10902982952E+02 -0.99067169327E+01  0.46527114091E+02  0.00000000000E+00 0. -1.
         11    1    4    4    0    0  0.23522595873E+02  0.15226028602E+01  0.48689609080E+02  0.54095368271E+02  0.00000000000E+00 0.  1.
        -13    1    3    3    0    0  0.19410931906E+02 -0.37674218949E+02 -0.11875507601E+03  0.12609083681E+03  0.00000000000E+00 0.  1.
         13    1    3    3    0    0 -0.31457473788E+02  0.32769322481E+02 -0.23148068015E+03  0.23589554137E+03  0.00000000000E+00 0. -1.
          3    1    1    2  501    0  0.32657315107E+02  0.14285276559E+02 -0.96714825804E+00  0.35658165014E+02  0.00000000000E+00 0. -1.
<scales pt_clust_5="13000.00000" pt_clust_6="13000.00000" pt_clust_7="13000.00000" pt_clust_8="13000.00000" pt_clust_9="35.64505"></scales>
<clustering>
<clus scale="   35.645">  1  9  2 -1</clus>
<clus scale="   90.044">  5  6 -1 -1</clus>
<clus scale="   90.553">  7  8 -1 -1</clus>
<clus scale="   90.624">  1  5  2 -1</clus>
<clus scale="   35.645">  1  5  2 -1</clus>
</clustering>
</event>
<event>
 9    1  0.1504846E-005  0.9743434E+02  0.7546771E-02  0.1286344E+00
          2   -1    0    0  502    0 -0.00000000000E+00  0.00000000000E+00  0.18688077466E+03  0.18688077466E+03  0.00000000000E+00 0. -1.
         21   -1    0    0  501  502  0.00000000000E+00 -0.00000000000E+00 -0.20000071856E+03  0.20000071856E+03  0.00000000000E+00 0.  1.
         23    2    1    2    0    0  0.55872945063E+01  0.16906557396E+02  0.14070229419E+03  0.17123846282E+03  0.95960544054E+02 0.  0.
         23    2    1    2    0    0 -0.40651753274E+02  0.93706352562E+01 -0.85094866047E+02  0.13413561485E+03  0.94925513400E+02 0.  0.
        -13    1    4    4    0    0 -0.48349903379E+02 -0.30932407876E+02 -0.69745429416E+02  0.90326917019E+02  0.00000000000E+00 0.  1.
         13    1    4    4    0    0  0.76981501053E+01  0.40303043132E+02 -0.15349436631E+02  0.43808697831E+02  0.00000000000E+00 0. -1.
        -13    1    3    3    0    0  0.28750178808E+02  0.10839501630E+02  0.14384399080E+03  0.14708895698E+03  0.00000000000E+00 0. -1.
         13    1    3    3    0    0 -0.23162884301E+02  0.60670557658E+01 -0.31416966034E+01  0.24149505841E+02  0.00000000000E+00 0.  1.
          2    1    1    2  501    0  0.35064458767E+02 -0.26277192652E+02 -0.68727372037E+02  0.81507415549E+02  0.00000000000E+00 0. -1.
<scales pt_clust_5="13000.00000" pt_clust_6="13000.00000" pt_clust_7="13000.00000" pt_clust_8="13000.00000" pt_clust_9="43.81789"></scales>
<clustering>
<clus scale="   43.818">  2  9  1 -1</clus>
<clus scale="   94.926">  5  6 -1 -1</clus>
<clus scale="   95.961">  7  8 -1 -1</clus>
<clus scale="   96.415">  2  5  1 -1</clus>
<clus scale="   43.818">  2  5  1 -1</clus>
</clustering>
</event>
<event>
 9    1  0.1504846E-005  0.1157294E+03  0.7546771E-02  0.1258993E+00
          2   -1    0    0  502    0 -0.00000000000E+00  0.00000000000E+00  0.12569170789E+03  0.12569170789E+03  0.00000000000E+00 0. -1.
         21   -1    0    0  501  502  0.00000000000E+00 -0.00000000000E+00 -0.15703982593E+03  0.15703982593E+03  0.00000000000E+00 0. -1.
         23    2    1    2    0    0  0.29829401754E+02  0.34568723318E+01  0.37618685647E+02  0.12004344715E+03  0.10997054387E+03 0.  0.
         23    2    1    2    0    0 -0.48814268003E+02  0.28310552827E+02 -0.66283955814E+02  0.12558293716E+03  0.90516247963E+02 0.  0.
        -11    1    4    4    0    0 -0.38050591402E+02 -0.29130811052E+02 -0.25176430749E+02  0.54132285411E+02  0.00000000000E+00 0.  1.
         11    1    4    4    0    0 -0.10763676601E+02  0.57441363879E+02 -0.41107525065E+02  0.71450651748E+02  0.00000000000E+00 0. -1.
        -13    1    3    3    0    0 -0.25076091322E+02 -0.37345004527E+02  0.21022381593E+02  0.49652796970E+02  0.00000000000E+00 0. -1.
         13    1    3    3    0    0  0.54905493076E+02  0.40801876859E+02  0.16596304055E+02  0.70390650185E+02  0.00000000000E+00 0.  1.
          2    1    1    2  501    0  0.18984866249E+02 -0.31767425158E+02 -0.26828478736E+01  0.37105149513E+02  0.00000000000E+00 0. -1.
<scales pt_clust_5="13000.00000" pt_clust_6="13000.00000" pt_clust_7="13000.00000" pt_clust_8="13000.00000" pt_clust_9="37.00805"></scales>
<clustering>
<clus scale="   37.008">  2  9  1 -1</clus>
<clus scale="   90.516">  5  6 -1 -1</clus>
<clus scale="   97.432">  2  5  1 -1</clus>
<clus scale="  109.971">  7  8 -1 -1</clus>
<clus scale="   37.008">  2  5  1 -1</clus>
</clustering>
</event>
<event>
 9    1  0.1504846E-005  0.1508837E+03  0.7546771E-02  0.1199687E+00
         21   -1    0    0  501  502  0.00000000000E+00  0.00000000000E+00  0.91215307691E+03  0.91215307691E+03  0.00000000000E+00 0. -1.
          1   -1    0    0  502    0 -0.00000000000E+00 -0.00000000000E+00 -0.81816591823E+02  0.81816591823E+02  0.00000000000E+00 0. -1.
         23    2    1    2    0    0 -0.68548028327E+02 -0.95532528678E+02  0.35865558200E+02  0.15299810499E+03  0.91086693004E+02 0.  0.
         23    2    1    2    0    0  0.25294174776E+01  0.15500019645E+03  0.42874419597E+03  0.46460617985E+03  0.89475459888E+02 0.  0.
        -11    1    3    3    0    0 -0.50360646409E+02 -0.68720430884E+02  0.66753839246E+02  0.10823477898E+03  0.00000000000E+00 0. -1.
         11    1    3    3    0    0 -0.18187381917E+02 -0.26812097794E+02 -0.30888281046E+02  0.44763326006E+02  0.00000000000E+00 0.  1.
        -13    1    4    4    0    0 -0.43220880850E+02  0.75757405345E+02  0.22197563130E+03  0.23849614231E+03  0.00000000000E+00 0.  1.
         13    1    4    4    0    0  0.45750298328E+02  0.79242791104E+02  0.20676856467E+03  0.22611003754E+03  0.00000000000E+00 0. -1.
          1    1    1    2  501    0  0.66018610849E+02 -0.59467667771E+02  0.36572673091E+03  0.37636538389E+03  0.00000000000E+00 0. -1.
<scales pt_clust_5="13000.00000" pt_clust_6="13000.00000" pt_clust_7="13000.00000" pt_clust_8="13000.00000" pt_clust_9="88.85303"></scales>
<clustering>
<clus scale="   88.853">  1  9  2 -1</clus>
<clus scale="   89.475">  7  8 -1 -1</clus>
<clus scale="   91.087">  5  6 -1 -1</clus>
<clus scale="  149.917">  1  7  2 -1</clus>
<clus scale="   88.853">  1  5  2 -1</clus>
</clustering>
</event>
<event>
 9    1  0.1504846E-005  0.9552778E+02  0.7546771E-02  0.1291307E+00
         21   -1    0    0  501  502  0.00000000000E+00  0.00000000000E+00  0.76909499392E+02  0.76909499392E+02  0.00000000000E+00 0.  1.
          3   -1    0    0  502    0 -0.00000000000E+00 -0.00000000000E+00 -0.18885862394E+03  0.18885862394E+03  0.00000000000E+00 0. -1.
         23    2    1    2    0    0  0.13691230082E+02 -0.99294003497E+01 -0.67907271729E+02  0.11479983483E+03  0.91003086494E+02 0.  0.
         23    2    1    2    0    0 -0.39674531736E+02  0.17175060911E+02 -0.63915693141E+02  0.11746304874E+03  0.88562411919E+02 0.  0.
        -13    1    3    3    0    0  0.11133981767E+02 -0.40032148718E+02 -0.11985612813E+01  0.41568919039E+02  0.00000000000E+00 0.  1.
         13    1    3    3    0    0  0.25572483151E+01  0.30102748368E+02 -0.66708710448E+02  0.73230915793E+02  0.00000000000E+00 0. -1.
        -13    1    4    4    0    0 -0.53650472635E+02 -0.20286777749E+02 -0.46551956176E+02  0.73871585805E+02  0.00000000000E+00 0.  1.
         13    1    4    4    0    0  0.13975940900E+02  0.37461838660E+02 -0.17363736965E+02  0.43591462940E+02  0.00000000000E+00 0. -1.
          3    1    1    2  501    0  0.25983301654E+02 -0.72456605611E+01  0.19873840324E+02  0.33505239754E+02  0.00000000000E+00 0. -1.
<scales pt_clust_5="13000.00000" pt_clust_6="13000.00000" pt_clust_7="13000.00000" pt_clust_8="13000.00000" pt_clust_9="26.97465"></scales>
<clustering>
<clus scale="   26.975">  1  9  2 -1</clus>
<clus scale="   88.562">  7  8 -1 -1</clus>
<clus scale="   91.003">  5  6 -1 -1</clus>
<clus scale="   93.206">  1  7  2 -1</clus>
<clus scale="   26.975">  1  5  2 -1</clus>
</clustering>
</event>
<event>
 9    1  0.1504846E-005  0.1259270E+03  0.7546771E-02  0.1234911E+00
          1   -1    0    0  502    0 -0.00000000000E+00  0.00000000000E+00  0.23949915975E+03  0.23949915975E+03  0.00000000000E+00 0. -1.
         21   -1    0    0  501  502  0.00000000000E+00 -0.00000000000E+00 -0.24297247010E+03  0.24297247010E+03  0.00000000000E+00 0. -1.
         23    2    1    2    0    0 -0.86870744646E+02  0.11905282265E+02  0.19244492803E+03  0.22993918266E+03  0.90270235294E+02 0.  0.
         23    2    1    2    0    0  0.50530924224E+02  0.20933110627E+02 -0.12156944468E+03  0.16350051066E+03  0.94666349269E+02 0.  0.
        -11    1    3    3    0    0 -0.12362206899E+02 -0.28229844158E+02  0.17112885892E+02  0.35250519488E+02  0.00000000000E+00 0.  1.
         11    1    3    3    0    0 -0.74508537747E+02  0.40135126424E+02  0.17533204213E+03  0.19468866318E+03  0.00000000000E+00 0. -1.
        -11    1    4    4    0    0  0.38985239552E+02 -0.30668964204E+02 -0.87547617414E+02  0.10062315630E+03  0.00000000000E+00 0.  1.
         11    1    4    4    0    0  0.11545684673E+02  0.51602074831E+02 -0.34021827261E+02  0.62877354363E+02  0.00000000000E+00 0. -1.
          1    1    1    2  501    0  0.36339820422E+02 -0.32838392893E+02 -0.74348793705E+02  0.89031936525E+02  0.00000000000E+00 0. -1.
<scales pt_clust_5="13000.00000" pt_clust_6="13000.00000" pt_clust_7="13000.00000" pt_clust_8="13000.00000" pt_clust_9="48.97900"></scales>
<clustering>
<clus scale="   48.979">  2  9  1 -1</clus>
<clus scale="   90.270">  5  6 -1 -1</clus>
<clus scale="   94.666">  7  8 -1 -1</clus>
<clus scale="  122.656">  1  5  2 -1</clus>
<clus scale="   48.979">  2  5  1 -1</clus>
</clustering>
</event>
<event>
 9    1  0.1504846E-005  0.1062954E+03  0.7546771E-02  0.1270422E+00
         21   -1    0    0  501  502  0.00000000000E+00  0.00000000000E+00  0.37760080627E+02  0.37760080627E+02  0.00000000000E+00 0. -1.
          2   -1    0    0  502    0 -0.00000000000E+00 -0.00000000000E+00 -0.50985350623E+03  0.50985350623E+03  0.00000000000E+00 0. -1.
         23    2    1    2    0    0  0.54829833595E+01 -0.59935302722E+02 -0.33358410381E+03  0.35243036744E+03  0.96470233532E+02 0.  0.
         23    2    1    2    0    0  0.35663082055E+01  0.17091603449E+02 -0.10819426413E+03  0.14192465235E+03  0.90176308927E+02 0.  0.
        -11    1    4    4    0    0  0.37595851600E+02  0.32531518759E+02 -0.38635931385E+02  0.62964140305E+02  0.00000000000E+00 0. -1.
         11    1    4    4    0    0 -0.34029543395E+02 -0.15439915310E+02 -0.69558332743E+02  0.78960512045E+02  0.00000000000E+00 0.  1.
        -13    1    3    3    0    0  0.52858354887E+01 -0.80644149778E+02 -0.31286953647E+03  0.32313892647E+03  0.00000000000E+00 0. -1.
         13    1    3    3    0    0  0.19714787079E+00  0.20708847056E+02 -0.20714567337E+02  0.29291440962E+02  0.00000000000E+00 0.  1.
          2    1    1    2  501    0 -0.90492915649E+01  0.42843699273E+02 -0.30315057663E+02  0.53258567070E+02  0.00000000000E+00 0. -1.
<scales pt_clust_5="13000.00000" pt_clust_6="13000.00000" pt_clust_7="13000.00000" pt_clust_8="13000.00000" pt_clust_9="43.78895"></scales>
<clustering>
<clus scale="   43.789">  1  9  2 -1</clus>
<clus scale="   90.176">  5  6 -1 -1</clus>
<clus scale="   96.470">  7  8 -1 -1</clus>
<clus scale="  100.618">  1  5  2 -1</clus>
<clus scale="   43.789">  1  5  2 -1</clus>
</clustering>
</event>
<event>
 9    1  0.1504846E-005  0.1268211E+03  0.7546771E-02  0.1233279E+00
          1   -1    0    0  502    0 -0.00000000000E+00  0.00000000000E+00  0.78889315633E+03  0.78889315633E+03  0.00000000000E+00 0. -1.
         21   -1    0    0  501  502  0.00000000000E+00 -0.00000000000E+00 -0.10816576322E+03  0.10816576322E+03  0.00000000000E+00 0. -1.
         23    2    1    2    0    0  0.65600890611E+02  0.45478405988E+02  0.62330126213E+03  0.63538773397E+03  0.94028436407E+02 0.  0.
         23    2    1    2    0    0 -0.10443455215E+03 -0.52911440818E+02  0.11807594145E+03  0.18927158071E+03  0.90419063596E+02 0.  0.
        -11    1    3    3    0    0  0.84959686529E+02  0.21922676719E+02  0.53046956300E+03  0.53767714231E+03  0.00000000000E+00 0.  1.
         11    1    3    3    0    0 -0.19358795918E+02  0.23555729270E+02  0.92831699125E+02  0.97710591664E+02  0.00000000000E+00 0. -1.
        -13    1    4    4    0    0  0.80555648648E+01 -0.24720713209E+02  0.34749362267E+01  0.26231297502E+02  0.00000000000E+00 0.  1.
         13    1    4    4    0    0 -0.11249011702E+03 -0.28190727609E+02  0.11460100522E+03  0.16304028320E+03  0.00000000000E+00 0. -1.
          1    1    1    2  501    0  0.38833661540E+02  0.74330348298E+01 -0.60649810466E+02  0.72399604868E+02  0.00000000000E+00 0. -1.
<scales pt_clust_5="13000.00000" pt_clust_6="13000.00000" pt_clust_7="13000.00000" pt_clust_8="13000.00000" pt_clust_9="39.53863"></scales>
<clustering>
<clus scale="   39.539">  2  9  1 -1</clus>
<clus scale="   90.419">  7  8 -1 -1</clus>
<clus scale="   94.028">  5  6 -1 -1</clus>
<clus scale="  124.169">  2  7  1 -1</clus>
<clus scale="   39.539">  2  5  1 -1</clus>
</clustering>
</event>
<event>
 9    1  0.1504846E-005  0.9921610E+02  0.7546771E-02  0.1284063E+00
         21   -1    0    0  501  502  0.00000000000E+00  0.00000000000E+00  0.72722199293E+02  0.72722199293E+02  0.00000000000E+00 0.  1.
         -3   -1    0    0    0  501 -0.00000000000E+00 -0.00000000000E+00 -0.32043771036E+03  0.32043771036E+03  0.00000000000E+00 0.  1.
         23    2    1    2    0    0 -0.93327354119E+01  0.30454961990E+02 -0.23834342124E+03  0.25623825259E+03  0.88520342186E+02 0.  0.
         23    2    1    2    0    0  0.31447217069E+02 -0.47280441960E+02 -0.96681541510E+01  0.10913254537E+03  0.92693428030E+02 0.  0.
        -13    1    3    3    0    0 -0.51634503356E+00  0.61425262534E+02 -0.14413851897E+03  0.15668197772E+03  0.00000000000E+00 0.  1.
         13    1    3    3    0    0 -0.88163903784E+01 -0.30970300543E+02 -0.94204902269E+02  0.99556274873E+02  0.00000000000E+00 0. -1.
        -13    1    4    4    0    0  0.51042993064E+02  0.27346355432E+01  0.97042398174E+01  0.52029199907E+02  0.00000000000E+00 0.  1.
         13    1    4    4    0    0 -0.19595775995E+02 -0.50015077503E+02 -0.19372393968E+02  0.57103345459E+02  0.00000000000E+00 0. -1.
         -3    1    1    2    0  502 -0.22114481657E+02  0.16825479970E+02  0.29606432134E+00  0.27789111704E+02  0.00000000000E+00 0.  1.
<scales pt_clust_5="13000.00000" pt_clust_6="13000.00000" pt_clust_7="13000.00000" pt_clust_8="13000.00000" pt_clust_9="27.78753"></scales>
<clustering>
<clus scale="   27.788">  1  9  2 -1</clus>
<clus scale="   88.520">  5  6 -1 -1</clus>
<clus scale="   92.693">  7  8 -1 -1</clus>
<clus scale="   95.329">  2  5  1 -1</clus>
<clus scale="   27.788">  1  5  2 -1</clus>
</clustering>
</event>
<event>
 9    1  0.1504846E-005  0.9600445E+02  0.7546771E-02  0.1291570E+00
         -1   -1    0    0    0  501 -0.00000000000E+00  0.00000000000E+00  0.21469802173E+03  0.21469802173E+03  0.00000000000E+00 0.  1.
         21   -1    0    0  501  502  0.00000000000E+00 -0.00000000000E+00 -0.10165460579E+03  0.10165460579E+03  0.00000000000E+00 0. -1.
         23    2    1    2    0    0 -0.36422951269E+02 -0.26912920782E+02  0.11583299894E+03  0.15398948166E+03  0.90799450074E+02 0.  0.
         23    2    1    2    0    0  0.13872638152E+02  0.16450249132E+01  0.49464296945E+02  0.10009396286E+03  0.85889047808E+02 0.  0.
        -11    1    3    3    0    0 -0.10902500280E+01 -0.44755607938E+02  0.10311487853E+03  0.11241410615E+03  0.00000000000E+00 0. -1.
         11    1    3    3    0    0 -0.35332701241E+02  0.17842687156E+02  0.12718120409E+02  0.41575375508E+02  0.00000000000E+00 0.  1.
        -11    1    4    4    0    0 -0.21138645597E+02  0.27854029366E+02  0.43720931081E+02  0.55984007575E+02  0.00000000000E+00 0.  1.
         11    1    4    4    0    0  0.35011283749E+02 -0.26209004452E+02  0.57433658640E+01  0.44109955289E+02  0.00000000000E+00 0. -1.
         -1    1    1    2    0  502  0.22550313118E+02  0.25267895869E+02 -0.52253879941E+02  0.62269183006E+02  0.00000000000E+00 0.  1.
<scales pt_clust_5="13000.00000" pt_clust_6="13000.00000" pt_clust_7="13000.00000" pt_clust_8="13000.00000" pt_clust_9="33.86714"></scales>
<clustering>
<clus scale="   33.867">  2  9  1 -1</clus>
<clus scale="   85.889">  7  8 -1 -1</clus>
<clus scale="   90.799">  5  6 -1 -1</clus>
<clus scale="   91.374">  2  7  1 -1</clus>
<clus scale="   33.867">  2  5  1 -1</clus>
</clustering>
</event>
<event>
 9    1  0.1504846E-005  0.1009474E+03  0.7546771E-02  0.1279806E+00
         -1   -1    0    0    0  501 -0.00000000000E+00  0.00000000000E+00  0.34167923880E+02  0.34167923880E+02  0.00000000000E+00 0.  1.
         21   -1    0    0  501  502  0.00000000000E+00 -0.00000000000E+00 -0.37987633758E+03  0.37987633758E+03  0.00000000000E+00 0. -1.
         23    2    1    2    0    0 -0.28720737435E+02  0.29645326534E+02 -0.16636521151E+03  0.19534680172E+03  0.93697722490E+02 0.  0.
         23    2    1    2    0    0  0.75878485600E+01 -0.36143052260E+02 -0.16646905365E+03  0.19311302829E+03  0.90646567490E+02 0.  0.
        -11    1    3    3    0    0  0.10435577404E+02  0.48857277802E+02 -0.48328003227E+02  0.69509213532E+02  0.00000000000E+00 0.  1.
         11    1    3    3    0    0 -0.39156314839E+02 -0.19211951268E+02 -0.11803720828E+03  0.12583758819E+03  0.00000000000E+00 0. -1.
        -11    1    4    4    0    0  0.31307691423E+02  0.13771581671E+02 -0.28615131828E+02  0.44594324453E+02  0.00000000000E+00 0.  1.
         11    1    4    4    0    0 -0.23719842863E+02 -0.49914633931E+02 -0.13785392183E+03  0.14851870383E+03  0.00000000000E+00 0. -1.
         -1    1    1    2    0  502  0.21132888875E+02  0.64977257260E+01 -0.12874148534E+02  0.25584431444E+02  0.00000000000E+00 0.  1.
<scales pt_clust_5="13000.00000" pt_clust_6="13000.00000" pt_clust_7="13000.00000" pt_clust_8="13000.00000" pt_clust_9="22.10927"></scales>
<clustering>
<clus scale="   22.109">  2  9  1 -1</clus>
<clus scale="   90.647">  7  8 -1 -1</clus>
<clus scale="   93.698">  5  6 -1 -1</clus>
<clus scale="   98.122">  2  7  1 -1</clus>
<clus scale="   22.109">  2  5  1 -1</clus>
</clustering>
</event>
<event>
 9    1  0.1504846E-005  0.1764717E+03  0.7546771E-02  0.1171413E+00
         21   -1    0    0  501  502  0.00000000000E+00  0.00000000000E+00  0.65562483698E+03  0.65562483698E+03  0.00000000000E+00 0.  1.
          3   -1    0    0  502    0 -0.00000000000E+00 -0.00000000000E+00 -0.88661547568E+02  0.88661547568E+02  0.00000000000E+00 0. -1.
         23    2    1    2    0    0 -0.16730881105E+03  0.60976203532E+02  0.13458127422E+03  0.24187426824E+03  0.93170309717E+02 0.  0.
         23    2    1    2    0    0  0.87681197292E+02 -0.89284703423E+02  0.18820595074E+03  0.24402504526E+03  0.92016260487E+02 0.  0.
        -11    1    4    4    0    0  0.77397993105E+02 -0.41818194756E+02  0.17135330204E+03  0.19261662667E+03  0.00000000000E+00 0.  1.
         11    1    4    4    0    0  0.10283204187E+02 -0.47466508667E+02  0.16852648701E+02  0.51408418587E+02  0.00000000000E+00 0. -1.
        -13    1    3    3    0    0 -0.15555502467E+03  0.82723746871E+02  0.12010221249E+03  0.21322552718E+03  0.00000000000E+00 0. -1.
         13    1    3    3    0    0 -0.11753786377E+02 -0.21747543339E+02  0.14479061730E+02  0.28648741056E+02  0.00000000000E+00 0.  1.
          3    1    1    2  501    0  0.79627613755E+02  0.28308499892E+02  0.24417606445E+03  0.25838707105E+03  0.00000000000E+00 0. -1.
<scales pt_clust_5="13000.00000" pt_clust_6="13000.00000" pt_clust_7="13000.00000" pt_clust_8="13000.00000" pt_clust_9="84.50993"></scales>
<clustering>
<clus scale="   84.510">  1  9  2 -1</clus>
<clus scale="   92.016">  5  6 -1 -1</clus>
<clus scale="   93.170">  7  8 -1 -1</clus>
<clus scale="  175.865">  1  5  2 -1</clus>
<clus scale="   84.510">  1  5  2 -1</clus>
</clustering>
</event>
<event>
 9    1  0.1504846E-005  0.1496121E+03  0.7546771E-02  0.1201100E+00
          1   -1    0    0  502    0 -0.00000000000E+00  0.00000000000E+00  0.75142884587E+03  0.75142884587E+03  0.00000000000E+00 0. -1.
         21   -1    0    0  501  502  0.00000000000E+00 -0.00000000000E+00 -0.52955505674E+02  0.52955505674E+02  0.00000000000E+00 0.  1.
         23    2    1    2    0    0 -0.11488388232E+03  0.21116550632E+02  0.54450420676E+03  0.56417840594E+03  0.90378246446E+02 0.  0.
         23    2    1    2    0    0  0.11785898378E+03 -0.46500296835E+02  0.14519689944E+03  0.21318488179E+03  0.91173661509E+02 0.  0.
        -11    1    4    4    0    0  0.94865120088E+02 -0.20784451285E+02  0.44655673211E+02  0.10689019400E+03  0.00000000000E+00 0.  1.
         11    1    4    4    0    0  0.22993863696E+02 -0.25715845551E+02  0.10054122623E+03  0.10629468778E+03  0.00000000000E+00 0. -1.
        -13    1    3    3    0    0 -0.63040423875E+02  0.55676907043E+02  0.34868961404E+03  0.35868992174E+03  0.00000000000E+00 0. -1.
         13    1    3    3    0    0 -0.51843458445E+02 -0.34560356411E+02  0.19581459272E+03  0.20548848420E+03  0.00000000000E+00 0.  1.
          1    1    1    2  501    0 -0.29751014640E+01  0.25383746203E+02  0.87722340013E+01  0.27021063810E+02  0.00000000000E+00 0. -1.
<scales pt_clust_5="13000.00000" pt_clust_6="13000.00000" pt_clust_7="13000.00000" pt_clust_8="13000.00000" pt_clust_9="25.55750"></scales>
<clustering>
<clus scale="   25.557">  2  9  1 -1</clus>
<clus scale="   90.378">  7  8 -1 -1</clus>
<clus scale="   91.174">  5  6 -1 -1</clus>
<clus scale="  149.129">  1  7  2 -1</clus>
<clus scale="   25.557">  2  5  1 -1</clus>
</clustering>
</event>
<event>
 9    1  0.1504846E-005  0.1335087E+03  0.7546771E-02  0.1222646E+00
         -4   -1    0    0    0  501 -0.00000000000E+00  0.00000000000E+00  0.67377953021E+03  0.67377953021E+03  0.00000000000E+00 0.  1.
         21   -1    0    0  501  502  0.00000000000E+00 -0.00000000000E+00 -0.85134155142E+02  0.85134155142E+02  0.00000000000E+00 0.  1.
         23    2    1    2    0    0  0.38868921276E+02 -0.79918528158E+02  0.30180051609E+03  0.32799130934E+03  0.92719918596E+02 0.  0.
         23    2    1    2    0    0 -0.30054552046E+02  0.99631048231E+02  0.34344440127E+03  0.37034362777E+03  0.91491660780E+02 0.  0.
        -11    1    3    3    0    0 -0.23173022876E+01 -0.63736929019E+02  0.82540993153E+02  0.10431098485E+03  0.00000000000E+00 0. -1.
         11    1    3    3    0    0  0.41186223563E+02 -0.16181599139E+02  0.21925952293E+03  0.22368032448E+03  0.00000000000E+00 0.  1.
        -11    1    4    4    0    0  0.21293723155E+02 -0.27263732885E+01  0.32190343838E+02  0.38692040442E+02  0.00000000000E+00 0.  1.
         11    1    4    4    0    0 -0.51348275201E+02  0.10235742152E+03  0.31125405743E+03  0.33165158732E+03  0.00000000000E+00 0. -1.
         -4    1    1    2    0  502 -0.88143692301E+01 -0.19712520073E+02 -0.56599542289E+02  0.60578748253E+02  0.00000000000E+00 0.  1.
<scales pt_clust_5="13000.00000" pt_clust_6="13000.00000" pt_clust_7="13000.00000" pt_clust_8="13000.00000" pt_clust_9="21.59344"></scales>
<clustering>
<clus scale="   21.593">  2  9  1 -1</clus>
<clus scale="   91.492">  7  8 -1 -1</clus>
<clus scale="   92.720">  5  6 -1 -1</clus>
<clus scale="  132.659">  2  7  1 -1</clus>
<clus scale="   21.593">  2  5  1 -1</clus>
</clustering>
</event>
<event>
 9    1  0.1504846E-005  0.1094770E+03  0.7546771E-02  0.1264086E+00
         -3   -1    0    0    0  501 -0.00000000000E+00  0.00000000000E+00  0.18820070956E+03  0.18820070956E+03  0.00000000000E+00 0.  1.
         21   -1    0    0  501  502  0.00000000000E+00 -0.00000000000E+00 -0.21055196894E+03  0.21055196894E+03  0.00000000000E+00 0.  1.
         23    2    1    2    0    0 -0.38152636999E+02  0.30692971071E+02  0.99847401298E+02  0.14910480825E+03  0.99322998925E+02 0.  0.
         23    2    1    2    0    0  0.43309586110E+02 -0.89851058728E+01  0.20357398860E+02  0.10535630553E+03  0.93429519159E+02 0.  0.
        -13    1    4    4    0    0  0.21973669812E+02  0.42098994409E+02  0.14677003401E+02  0.49704948688E+02  0.00000000000E+00 0. -1.
         13    1    4    4    0    0  0.21335916298E+02 -0.51084100282E+02  0.56803954593E+01  0.55651356843E+02  0.00000000000E+00 0.  1.
        -13    1    3    3    0    0 -0.16966408991E+02 -0.20372821081E+02  0.88868468190E+02  0.92738964364E+02  0.00000000000E+00 0.  1.
         13    1    3    3    0    0 -0.21186228008E+02  0.51065792152E+02  0.10978933108E+02  0.56365843891E+02  0.00000000000E+00 0. -1.
         -3    1    1    2    0  502 -0.51569491111E+01 -0.21707865198E+02 -0.14255605954E+03  0.14429156471E+03  0.00000000000E+00 0.  1.
<scales pt_clust_5="13000.00000" pt_clust_6="13000.00000" pt_clust_7="13000.00000" pt_clust_8="13000.00000" pt_clust_9="22.31200"></scales>
<clustering>
<clus scale="   22.312">  2  9  1 -1</clus>
<clus scale="   93.430">  5  6 -1 -1</clus>
<clus scale="   99.323">  7  8 -1 -1</clus>
<clus scale="  104.160">  2  5  1 -1</clus>
<clus scale="   22.312">  2  5  1 -1</clus>
</clustering>
</event>
<event>
 9    1  0.1504846E-005  0.1197967E+03  0.7546771E-02  0.1246752E+00
          1   -1    0    0  502    0 -0.00000000000E+00  0.00000000000E+00  0.28390702186E+03  0.28390702186E+03  0.00000000000E+00 0. -1.
         21   -1    0    0  501  502  0.00000000000E+00 -0.00000000000E+00 -0.44495127254E+03  0.44495127254E+03  0.00000000000E+00 0. -1.
         23    2    1    2    0    0  0.26629358783E+02  0.72610867059E+02  0.25239583619E+03  0.27682490080E+03  0.83348106239E+02 0.  0.
         23    2    1    2    0    0 -0.52451178150E+02 -0.19408588900E+02 -0.17317366884E+03  0.20459612804E+03  0.93502067456E+02 0.  0.
        -11    1    4    4    0    0 -0.72936155275E+02 -0.57389895796E+01 -0.16159002544E+03  0.17738081934E+03  0.00000000000E+00 0. -1.
         11    1    4    4    0    0  0.20484977125E+02 -0.13669599321E+02 -0.11583643396E+02  0.27215308701E+02  0.00000000000E+00 0.  1.
        -13    1    3    3    0    0  0.46581728685E+02  0.70312024101E+02  0.14652388544E+03  0.16906474258E+03  0.00000000000E+00 0. -1.
         13    1    3    3    0    0 -0.19952369902E+02  0.22988429576E+01  0.10587195075E+03  0.10776015821E+03  0.00000000000E+00 0.  1.
          1    1    1    2  501    0  0.25821819367E+02 -0.53202278158E+02 -0.24026641803E+03  0.24743726556E+03  0.00000000000E+00 0. -1.
<scales pt_clust_5="13000.00000" pt_clust_6="13000.00000" pt_clust_7="13000.00000" pt_clust_8="13000.00000" pt_clust_9="59.13754"></scales>
<clustering>
<clus scale="   59.138">  2  9  1 -1</clus>
<clus scale="   83.348">  7  8 -1 -1</clus>
<clus scale="   93.502">  5  6 -1 -1</clus>
<clus scale="  112.051">  1  7  2 -1</clus>
<clus scale="   59.138">  2  5  1 -1</clus>
</clustering>
</event>
<event>
 9    1  0.1504846E-005  0.1254590E+03  0.7546771E-02  0.1246925E+00
         21   -1    0    0  501  502  0.00000000000E+00  0.00000000000E+00  0.17398122053E+03  0.17398122053E+03  0.00000000000E+00 0. -1.
          1   -1    0    0  502    0 -0.00000000000E+00 -0.00000000000E+00 -0.45045175495E+03  0.45045175495E+03  0.00000000000E+00 0. -1.
         23    2    1    2    0    0  0.16147442380E+01 -0.32469218622E+02 -0.31561555381E+03  0.33024850288E+03  0.91618984332E+02 0.  0.
         23    2    1    2    0    0 -0.48519507174E+02 -0.67047207544E+02  0.10943195609E+03  0.16363245487E+03  0.89167015518E+02 0.  0.
        -11    1    3    3    0    0 -0.17648178347E+02  0.26194845783E+02 -0.66873475112E+02  0.73957351346E+02  0.00000000000E+00 0.  1.
         11    1    3    3    0    0  0.19262922585E+02 -0.58664064405E+02 -0.24874207870E+03  0.25629115153E+03  0.00000000000E+00 0. -1.
        -13    1    4    4    0    0  0.73674708703E+01 -0.65169716384E+02  0.54971185309E+02  0.85575713698E+02  0.00000000000E+00 0. -1.
         13    1    4    4    0    0 -0.55886978044E+02 -0.18774911601E+01  0.54460770781E+02  0.78056741170E+02  0.00000000000E+00 0.  1.
          1    1    1    2  501    0  0.46904762936E+02  0.99516426167E+02 -0.70286936707E+02  0.13055201773E+03  0.00000000000E+00 0. -1.
<scales pt_clust_5="13000.00000" pt_clust_6="13000.00000" pt_clust_7="13000.00000" pt_clust_8="13000.00000" pt_clust_9="88.25645"></scales>
<clustering>
<clus scale="   89.167">  7  8 -1 -1</clus>
<clus scale="   91.619">  5  6 -1 -1</clus>
<clus scale="   97.216">  2  5  1 -1</clus>
<clus scale="   88.256">  1  9  2 -1</clus>
<clus scale="   88.256">  1  5  2 -1</clus>
</clustering>
</event>
<event>
 9    1  0.1504846E-005  0.1143111E+03  0.7546771E-02  0.1252835E+00
          2   -1    0    0  502    0 -0.00000000000E+00  0.00000000000E+00  0.70953538833E+02  0.70953538833E+02  0.00000000000E+00 0. -1.
         21   -1    0    0  501  502  0.00000000000E+00 -0.00000000000E+00 -0.28860938026E+03  0.28860938026E+03  0.00000000000E+00 0.  1.
         23    2    1    2    0    0 -0.37146952715E+02  0.47626383818E+02 -0.22996175338E+02  0.11459339246E+03  0.94629028233E+02 0.  0.
         23    2    1    2    0    0  0.26038252609E+02 -0.72107816454E+02 -0.16351308624E+03  0.20382522936E+03  0.94502206099E+02 0.  0.
        -11    1    4    4    0    0  0.56909393283E+02 -0.23010931097E+02 -0.10373512838E+03  0.12053696053E+03  0.00000000000E+00 0.  1.
         11    1    4    4    0    0 -0.30871140673E+02 -0.49096885357E+02 -0.59777957862E+02  0.83288268828E+02  0.00000000000E+00 0. -1.
        -13    1    3    3    0    0  0.31533897546E+02  0.66152774925E+01 -0.81297619753E+01  0.33230131214E+02  0.00000000000E+00 0.  1.
         13    1    3    3    0    0 -0.68680850262E+02  0.41011106325E+02 -0.14866413363E+02  0.81363261248E+02  0.00000000000E+00 0. -1.
          2    1    1    2  501    0  0.11108700106E+02  0.24481432636E+02 -0.31146579848E+02  0.41144297274E+02  0.00000000000E+00 0. -1.
<scales pt_clust_5="13000.00000" pt_clust_6="13000.00000" pt_clust_7="13000.00000" pt_clust_8="13000.00000" pt_clust_9="26.88389"></scales>
<clustering>
<clus scale="   26.884">  2  9  1 -1</clus>
<clus scale="   94.502">  5  6 -1 -1</clus>
<clus scale="   94.629">  7  8 -1 -1</clus>
<clus scale="  114.206">  2  5  1 -1</clus>
<clus scale="   26.884">  2  5  1 -1</clus>
</clustering>
</event>
<event>
 9    1  0.1504846E-005  0.1284499E+03  0.7546771E-02  0.1230627E+00
          3   -1    0    0  502    0 -0.00000000000E+00  0.00000000000E+00  0.57168839445E+03  0.57168839445E+03  0.00000000000E+00 0. -1.
         21   -1    0    0  501  502  0.00000000000E+00 -0.00000000000E+00 -0.70272871081E+02  0.70272871081E+02  0.00000000000E+00 0.  1.
         23    2    1    2    0    0  0.26513963690E+02 -0.65926853060E+02  0.18617528020E+03  0.21912983887E+03  0.91144451843E+02 0.  0.
         23    2    1    2    0    0 -0.10282571382E+03  0.10769213461E+03  0.12419312935E+03  0.21291043759E+03  0.87955658027E+02 0.  0.
        -11    1    3    3    0    0 -0.33302118290E+01 -0.80521109885E+02  0.14803281393E+03  0.16854807459E+03  0.00000000000E+00 0.  1.
         11    1    3    3    0    0  0.29844175519E+02  0.14594256826E+02  0.38142466268E+02  0.50581764280E+02  0.00000000000E+00 0. -1.
        -13    1    4    4    0    0 -0.65667971883E+02  0.53721890300E+02  0.15874917748E+02  0.86315334919E+02  0.00000000000E+00 0.  1.
         13    1    4    4    0    0 -0.37157741939E+02  0.53970244310E+02  0.10831821160E+03  0.12659510268E+03  0.00000000000E+00 0. -1.
          3    1    1    2  501    0  0.76311750132E+02 -0.41765281549E+02  0.19104711382E+03  0.20992098906E+03  0.00000000000E+00 0. -1.
<scales pt_clust_5="13000.00000" pt_clust_6="13000.00000" pt_clust_7="13000.00000" pt_clust_8="13000.00000" pt_clust_9="86.99327"></scales>
<clustering>
<clus scale="   86.993">  2  9  1 -1</clus>
<clus scale="   87.956">  7  8 -1 -1</clus>
<clus scale="   91.144">  5  6 -1 -1</clus>
<clus scale="  126.207">  2  7  1 -1</clus>
<clus scale="   86.993">  2  5  1 -1</clus>
</clustering>
</event>
<event>
 9    1  0.1504846E-005  0.9787776E+02  0.7546771E-02  0.1285457E+00
         -1   -1    0    0    0  501 -0.00000000000E+00  0.00000000000E+00  0.52151001328E+02  0.52151001328E+02  0.00000000000E+00 0.  1.
         21   -1    0    0  501  502  0.00000000000E+00 -0.00000000000E+00 -0.56255850435E+03  0.56255850435E+03  0.00000000000E+00 0. -1.
         23    2    1    2    0    0  0.20611488566E+02 -0.27670416883E+02 -0.81136926109E+01  0.96859305153E+02  0.90141042570E+02 0.  0.
         23    2    1    2    0    0 -0.38832826295E+02  0.18467124067E+02 -0.35292152391E+03  0.36708947048E+03  0.91389573983E+02 0.  0.
        -11    1    4    4    0    0  0.13481761718E+02 -0.25859323878E+02 -0.15249093453E+03  0.15525446095E+03  0.00000000000E+00 0.  1.
         11    1    4    4    0    0 -0.52314588012E+02  0.44326447945E+02 -0.20043058937E+03  0.21183500953E+03  0.00000000000E+00 0. -1.
        -13    1    3    3    0    0  0.47745306799E+02 -0.99861755099E+01 -0.30462376263E+02  0.57509080937E+02  0.00000000000E+00 0. -1.
         13    1    3    3    0    0 -0.27133818234E+02 -0.17684241373E+02  0.22348683652E+02  0.39350224216E+02  0.00000000000E+00 0.  1.
         -1    1    1    2    0  502  0.18221337729E+02  0.92032928155E+01 -0.14937228650E+03  0.15076073004E+03  0.00000000000E+00 0.  1.
<scales pt_clust_5="13000.00000" pt_clust_6="13000.00000" pt_clust_7="13000.00000" pt_clust_8="13000.00000" pt_clust_9="20.41367"></scales>
<clustering>
<clus scale="   20.414">  2  9  1 -1</clus>
<clus scale="   90.141">  7  8 -1 -1</clus>
<clus scale="   91.390">  5  6 -1 -1</clus>
<clus scale="   96.713">  1  7  2 -1</clus>
<clus scale="   20.414">  2  5  1 -1</clus>
</clustering>
</event>
<event>
 9    1  0.1504846E-005  0.1202111E+03  0.7546771E-02  0.1243727E+00
         21   -1    0    0  501  502  0.00000000000E+00  0.00000000000E+00  0.40566857907E+03  0.40566857907E+03  0.00000000000E+00 0.  1.
         -1   -1    0    0    0  501 -0.00000000000E+00 -0.00000000000E+00 -0.11076017145E+03  0.11076017145E+03  0.00000000000E+00 0.  1.
         23    2    1    2    0    0 -0.45813545331E+02  0.82609979238E+02 -0.40001348854E+02  0.13855665638E+03  0.93137261671E+02 0.  0.
         23    2    1    2    0    0  0.20732139704E+02 -0.12701045586E+02  0.13080111359E+03  0.16067017423E+03  0.90082381152E+02 0.  0.
        -11    1    3    3    0    0 -0.23233796707E+02  0.10085649364E+03 -0.33736657394E+02  0.10885772214E+03  0.00000000000E+00 0.  1.
         11    1    3    3    0    0 -0.22579748624E+02 -0.18246514400E+02 -0.62646914600E+01  0.29698934236E+02  0.00000000000E+00 0. -1.
        -11    1    4    4    0    0  0.45829612449E+02 -0.26861176137E+02  0.11746318795E+03  0.12891654930E+03  0.00000000000E+00 0. -1.
         11    1    4    4    0    0 -0.25097472745E+02  0.14160130551E+02  0.13337925639E+02  0.31753624924E+02  0.00000000000E+00 0.  1.
         -1    1    1    2    0  502  0.25081405627E+02 -0.69908933652E+02  0.20410864288E+03  0.21720191991E+03  0.00000000000E+00 0.  1.
<scales pt_clust_5="13000.00000" pt_clust_6="13000.00000" pt_clust_7="13000.00000" pt_clust_8="13000.00000" pt_clust_9="74.27204"></scales>
<clustering>
<clus scale="   74.272">  1  9  2 -1</clus>
<clus scale="   90.082">  7  8 -1 -1</clus>
<clus scale="   93.137">  5  6 -1 -1</clus>
<clus scale="  117.860">  1  7  2 -1</clus>
<clus scale="   74.272">  1  5  2 -1</clus>
</clustering>
</event>
<event>
 9    1  0.1504846E-005  0.1863184E+03  0.7546771E-02  0.1188342E+00
         21   -1    0    0  501  502  0.00000000000E+00  0.00000000000E+00  0.57726882414E+02  0.57726882414E+02  0.00000000000E+00 0. -1.
          3   -1    0    0  502    0 -0.00000000000E+00 -0.00000000000E+00 -0.11149277697E+04  0.11149277697E+04  0.00000000000E+00 0. -1.
         23    2    1    2    0    0  0.42605223846E+02 -0.17758689687E+02 -0.26266323027E+03  0.28181753318E+03  0.91096505496E+02 0.  0.
         23    2    1    2    0    0 -0.25759851952E+02  0.17563744807E+03 -0.63515457460E+03  0.66586504098E+03  0.91884906384E+02 0.  0.
        -13    1    4    4    0    0 -0.49814075677E+02  0.57715844380E+02 -0.18991565443E+03  0.20464729812E+03  0.00000000000E+00 0.  1.
         13    1    4    4    0    0  0.24054223725E+02  0.11792160369E+03 -0.44523892017E+03  0.46121774286E+03  0.00000000000E+00 0. -1.
        -13    1    3    3    0    0  0.58711913933E+02 -0.39272924525E+02 -0.22289467576E+03  0.23381934890E+03  0.00000000000E+00 0. -1.
         13    1    3    3    0    0 -0.16106690087E+02  0.21514234838E+02 -0.39768554509E+02  0.47998184278E+02  0.00000000000E+00 0.  1.
          3    1    1    2  501    0 -0.16845371894E+02 -0.15787875838E+03 -0.15938308244E+03  0.22497207798E+03  0.00000000000E+00 0. -1.
<scales pt_clust_5="13000.00000" pt_clust_6="13000.00000" pt_clust_7="13000.00000" pt_clust_8="13000.00000" pt_clust_9="162.08554"></scales>
<clustering>
<clus scale="   91.097">  7  8 -1 -1</clus>
<clus scale="   91.885">  5  6 -1 -1</clus>
<clus scale="  102.123">  2  7  1 -1</clus>
<clus scale="  162.086">  1  9  2 -1</clus>
<clus scale="  162.086">  1  5  2 -1</clus>
</clustering>
</event>
<event>
 9    1  0.1504846E-005  0.2292581E+03  0.7546771E-02  0.1127375E+00
         -3   -1    0    0    0  501 -0.00000000000E+00  0.00000000000E+00  0.68784533791E+03  0.68784533791E+03  0.00000000000E+00 0.  1.
         21   -1    0    0  501  502  0.00000000000E+00 -0.00000000000E+00 -0.12640685371E+03  0.12640685371E+03  0.00000000000E+00 0.  1.
         23    2    1    2    0    0 -0.18290545157E+02 -0.16563667206E+03  0.16355585572E+03  0.25111324112E+03  0.92397460761E+02 0.  0.
         23    2    1    2    0    0 -0.39874954514E+02  0.26362108556E+03  0.31486926992E+03  0.42215885141E+03  0.89383163587E+02 0.  0.
        -11    1    3    3    0    0  0.23474517943E+02 -0.10668720152E+02  0.43932258280E+02  0.50940336669E+02  0.00000000000E+00 0.  1.
         11    1    3    3    0    0 -0.41765063100E+02 -0.15496795190E+03  0.11962359744E+03  0.20017290445E+03  0.00000000000E+00 0. -1.
        -13    1    4    4    0    0  0.23542813285E+02  0.97918895114E+02  0.85025029610E+02  0.13180147851E+03  0.00000000000E+00 0. -1.
         13    1    4    4    0    0 -0.63417767800E+02  0.16570219044E+03  0.22984424031E+03  0.29035737290E+03  0.00000000000E+00 0.  1.
         -3    1    1    2    0  502  0.58165499671E+02 -0.97984413502E+02  0.83013358553E+02  0.14098009909E+03  0.00000000000E+00 0.  1.
<scales pt_clust_5="13000.00000" pt_clust_6="13000.00000" pt_clust_7="13000.00000" pt_clust_8="13000.00000" pt_clust_9="113.94811"></scales>
<clustering>
<clus scale="   89.383">  7  8 -1 -1</clus>
<clus scale="   92.397">  5  6 -1 -1</clus>
<clus scale="  113.948">  2  9  1 -1</clus>
<clus scale="  228.060">  2  7  1 -1</clus>
<clus scale="  113.948">  2  5  1 -1</clus>
</clustering>
</event>
<event>
 9    1  0.1504846E-005  0.9288883E+02  0.7546771E-02  0.1298263E+00
         21   -1    0    0  501  502  0.00000000000E+00  0.00000000000E+00  0.59374857808E+02  0.59374857808E+02  0.00000000000E+00 0. -1.
          1   -1    0    0  502    0 -0.00000000000E+00 -0.00000000000E+00 -0.36953301974E+03  0.36953301974E+03  0.00000000000E+00 0. -1.
         23    2    1    2    0    0 -0.24839224805E+01 -0.16320370378E+02 -0.23622794785E+03  0.25432295852E+03  0.92757746442E+02 0.  0.
         23    2    1    2    0    0  0.67290425739E+01 -0.25447693710E+02 -0.90366269941E+02  0.12949904370E+03  0.88944220985E+02 0.  0.
        -13    1    4    4    0    0 -0.34151174226E+02 -0.32433204401E+02 -0.66997631594E+02  0.81895653657E+02  0.00000000000E+00 0.  1.
         13    1    4    4    0    0  0.40880216800E+02  0.69855106912E+01 -0.23368638346E+02  0.47603390041E+02  0.00000000000E+00 0. -1.
        -13    1    3    3    0    0  0.76577369021E+01  0.35838893017E+02 -0.60470501297E+02  0.70708901238E+02  0.00000000000E+00 0.  1.
         13    1    3    3    0    0 -0.10141659383E+02 -0.52159263395E+02 -0.17575744655E+03  0.18361405728E+03  0.00000000000E+00 0. -1.
          1    1    1    2  501    0 -0.42451200934E+01  0.41768064088E+02  0.16436055857E+02  0.45085875332E+02  0.00000000000E+00 0. -1.
<scales pt_clust_5="13000.00000" pt_clust_6="13000.00000" pt_clust_7="13000.00000" pt_clust_8="13000.00000" pt_clust_9="41.98324"></scales>
<clustering>
<clus scale="   41.983">  1  9  2 -1</clus>
<clus scale="   88.944">  5  6 -1 -1</clus>
<clus scale="   89.081">  1  5  2 -1</clus>
<clus scale="   92.758">  7  8 -1 -1</clus>
<clus scale="   41.983">  1  5  2 -1</clus>
</clustering>
</event>
<event>
 9    1  0.1504846E-005  0.1121227E+03  0.7546771E-02  0.1258606E+00
         21   -1    0    0  501  502  0.00000000000E+00  0.00000000000E+00  0.25512918522E+03  0.25512918522E+03  0.00000000000E+00 0. -1.
         -1   -1    0    0    0  501 -0.00000000000E+00 -0.00000000000E+00 -0.97153824775E+02  0.97153824775E+02  0.00000000000E+00 0.  1.
         23    2    1    2    0    0 -0.17285049892E+02  0.52320087858E+02  0.66177483334E+01  0.10678695009E+03  0.91233182413E+02 0.  0.
         23    2    1    2    0    0 -0.33477873317E+01 -0.81815147361E+02  0.35218882208E+02  0.12390709210E+03  0.86067832505E+02 0.  0.
        -11    1    4    4    0    0 -0.23088553453E+02 -0.19953268831E+02  0.48810564151E+02  0.57564619432E+02  0.00000000000E+00 0. -1.
         11    1    4    4    0    0  0.19740766121E+02 -0.61861878530E+02 -0.13591681943E+02  0.66342472673E+02  0.00000000000E+00 0.  1.
        -13    1    3    3    0    0  0.20400671401E+02 -0.71598847078E+01 -0.21939753829E+02  0.30802664507E+02  0.00000000000E+00 0.  1.
         13    1    3    3    0    0 -0.37685721293E+02  0.59479972566E+02  0.28557502163E+02  0.75984285583E+02  0.00000000000E+00 0. -1.
         -1    1    1    2    0  502  0.20632837224E+02  0.29495059503E+02  0.11613872990E+03  0.12158896780E+03  0.00000000000E+00 0.  1.
<scales pt_clust_5="13000.00000" pt_clust_6="13000.00000" pt_clust_7="13000.00000" pt_clust_8="13000.00000" pt_clust_9="35.99545"></scales>
<clustering>
<clus scale="   35.995">  1  9  2 -1</clus>
<clus scale="   86.068">  5  6 -1 -1</clus>
<clus scale="   91.233">  7  8 -1 -1</clus>
<clus scale="  107.961">  1  5  2 -1</clus>
<clus scale="   35.995">  1  5  2 -1</clus>
</clustering>
</event>
<event>
 9    1  0.1504846E-005  0.1404516E+03  0.7546771E-02  0.1231761E+00
         -3   -1    0    0    0  501 -0.00000000000E+00  0.00000000000E+00  0.52476347952E+03  0.52476347952E+03  0.00000000000E+00 0.  1.
         21   -1    0    0  501  502  0.00000000000E+00 -0.00000000000E+00 -0.71786539636E+02  0.71786539636E+02  0.00000000000E+00 0.  1.
         23    2    1    2    0    0 -0.20174463847E+02  0.19539940952E+02  0.46020192500E+02  0.10494020270E+03  0.90032048410E+02 0.  0.
         23    2    1    2    0    0 -0.55797660788E+02  0.61364460085E+02  0.33940956085E+03  0.36168711545E+03  0.93486595692E+02 0.  0.
        -13    1    3    3    0    0  0.27552422594E+02 -0.42067267356E+01  0.43385728665E+02  0.51566985489E+02  0.00000000000E+00 0. -1.
         13    1    3    3    0    0 -0.47726886441E+02  0.23746667688E+02  0.26344638350E+01  0.53373217210E+02  0.00000000000E+00 0.  1.
        -13    1    4    4    0    0 -0.80924720565E+02  0.57416698685E+02  0.28001014683E+03  0.29707098481E+03  0.00000000000E+00 0.  1.
         13    1    4    4    0    0  0.25127059777E+02  0.39477614000E+01  0.59399414015E+02  0.64616130637E+02  0.00000000000E+00 0. -1.
         -3    1    1    2    0  502  0.75972124635E+02 -0.80904401038E+02  0.67547186535E+02  0.12992270101E+03  0.00000000000E+00 0.  1.
<scales pt_clust_5="13000.00000" pt_clust_6="13000.00000" pt_clust_7="13000.00000" pt_clust_8="13000.00000" pt_clust_9="104.81842"></scales>
<clustering>
<clus scale="   90.032">  5  6 -1 -1</clus>
<clus scale="   93.487">  7  8 -1 -1</clus>
<clus scale="   94.311">  1  5  2 -1</clus>
<clus scale="  104.818">  2  9  1 -1</clus>
<clus scale="  104.818">  2  5  1 -1</clus>
</clustering>
</event>
<event>
 9    1  0.1504846E-005  0.1312407E+03  0.7546771E-02  0.1231593E+00
         -4   -1    0    0    0  501 -0.00000000000E+00  0.00000000000E+00  0.60509536494E+02  0.60509536494E+02  0.00000000000E+00 0.  1.
         21   -1    0    0  501  502  0.00000000000E+00 -0.00000000000E+00 -0.64334934967E+03  0.64334934967E+03  0.00000000000E+00 0. -1.
         23    2    1    2    0    0 -0.68550374826E+02 -0.13337729661E+02 -0.33199469425E+02  0.11620657605E+03  0.86745112976E+02 0.  0.
         23    2    1    2    0    0  0.11741398512E+03  0.12598669955E+02 -0.40960159705E+03  0.43933154556E+03  0.10627308330E+03 0.  0.
        -11    1    4    4    0    0  0.49677739330E+02  0.52527434984E+02 -0.26556976242E+03  0.27523500490E+03  0.00000000000E+00 0.  1.
         11    1    4    4    0    0  0.67736245788E+02 -0.39928765029E+02 -0.14403183463E+03  0.16409654066E+03  0.00000000000E+00 0. -1.
        -11    1    3    3    0    0 -0.81397993138E+02 -0.31260108385E+02 -0.35271181407E+02  0.94057875274E+02  0.00000000000E+00 0.  1.
         11    1    3    3    0    0  0.12847618312E+02  0.17922378724E+02  0.20717119819E+01  0.22148700774E+02  0.00000000000E+00 0. -1.
         -4    1    1    2    0  502 -0.48863610291E+02  0.73905970655E+00 -0.14003874670E+03  0.14832076455E+03  0.00000000000E+00 0.  1.
<scales pt_clust_5="13000.00000" pt_clust_6="13000.00000" pt_clust_7="13000.00000" pt_clust_8="13000.00000" pt_clust_9="48.86920"></scales>
<clustering>
<clus scale="   48.869">  2  9  1 -1</clus>
<clus scale="   86.745">  7  8 -1 -1</clus>
<clus scale="  106.273">  5  6 -1 -1</clus>
<clus scale="  115.995">  1  7  2 -1</clus>
<clus scale="   48.869">  2  5  1 -1</clus>
</clustering>
</event>
<event>
 9    1  0.1504846E-005  0.1415185E+03  0.7546771E-02  0.1214083E+00
          1   -1    0    0  502    0 -0.00000000000E+00  0.00000000000E+00  0.30172786846E+03  0.30172786846E+03  0.00000000000E+00 0. -1.
         21   -1    0    0  501  502  0.00000000000E+00 -0.00000000000E+00 -0.31057823010E+03  0.31057823010E+03  0.00000000000E+00 0. -1.
         23    2    1    2    0    0 -0.10884395115E+03 -0.17947766346E+02  0.26384697066E+03  0.29664129103E+03  0.78814361603E+02 0.  0.
         23    2    1    2    0    0  0.73844501928E+02  0.18517271235E+02 -0.17441908513E+03  0.21133887763E+03  0.91903232499E+02 0.  0.
        -13    1    4    4    0    0  0.84836182815E+01  0.32288734157E+02 -0.11585902507E+02  0.35337901317E+02  0.00000000000E+00 0. -1.
         13    1    4    4    0    0  0.65360883646E+02 -0.13771462922E+02 -0.16283318262E+03  0.17600097631E+03  0.00000000000E+00 0.  1.
        -13    1    3    3    0    0 -0.54195637912E+02  0.27080115471E+01  0.46127339193E+02  0.71219603454E+02  0.00000000000E+00 0.  1.
         13    1    3    3    0    0 -0.54648313237E+02 -0.20655777893E+02  0.21771963147E+03  0.22542168757E+03  0.00000000000E+00 0. -1.
          1    1    1    2  501    0  0.34999449221E+02 -0.56950488928E+00 -0.98278247182E+02  0.10432592991E+03  0.00000000000E+00 0. -1.
<scales pt_clust_5="13000.00000" pt_clust_6="13000.00000" pt_clust_7="13000.00000" pt_clust_8="13000.00000" pt_clust_9="35.00408"></scales>
<clustering>
<clus scale="   35.004">  2  9  1 -1</clus>
<clus scale="   78.814">  7  8 -1 -1</clus>
<clus scale="   91.903">  5  6 -1 -1</clus>
<clus scale="  133.390">  1  7  2 -1</clus>
<clus scale="   35.004">  2  5  1 -1</clus>
</clustering>
</event>
<event>
 9    1  0.1504846E-005  0.2336403E+03  0.7546771E-02  0.1158528E+00
         21   -1    0    0  501  502  0.00000000000E+00  0.00000000000E+00  0.30067135661E+03  0.30067135661E+03  0.00000000000E+00 0.  1.
          1   -1    0    0  502    0 -0.00000000000E+00 -0.00000000000E+00 -0.28258952378E+03  0.28258952378E+03  0.00000000000E+00 0. -1.
         23    2    1    2    0    0  0.12923441914E+02  0.34972098126E+02  0.29202057398E+01  0.10206419734E+03  0.94965834797E+02 0.  0.
         23    2    1    2    0    0 -0.12835186595E+03 -0.20345393302E+03 -0.59288427836E+02  0.26381991233E+03  0.90653869818E+02 0.  0.
        -11    1    4    4    0    0  0.89907400911E+01 -0.42635192345E+02 -0.22912803778E+02  0.49229966592E+02  0.00000000000E+00 0. -1.
         11    1    4    4    0    0 -0.13734260604E+03 -0.16081874068E+03 -0.36375624059E+02  0.21458994574E+03  0.00000000000E+00 0.  1.
        -11    1    3    3    0    0  0.27591601888E+02  0.10893404618E+02 -0.40555486957E+02  0.50246495214E+02  0.00000000000E+00 0. -1.
         11    1    3    3    0    0 -0.14668159974E+02  0.24078693508E+02  0.43475692697E+02  0.51817702125E+02  0.00000000000E+00 0.  1.
          1    1    1    2  501    0  0.11542842404E+03  0.16848183490E+03  0.74450054927E+02  0.21737677071E+03  0.00000000000E+00 0. -1.
<scales pt_clust_5="13000.00000" pt_clust_6="13000.00000" pt_clust_7="13000.00000" pt_clust_8="13000.00000" pt_clust_9="215.33620"></scales>
<clustering>
<clus scale="   90.654">  5  6 -1 -1</clus>
<clus scale="   94.966">  7  8 -1 -1</clus>
<clus scale="  102.022">  2  7  1 -1</clus>
<clus scale="  215.336">  1  9  2 -1</clus>
<clus scale="  215.336">  1  5  2 -1</clus>
</clustering>
</event>
<event>
 9    1  0.1504846E-005  0.1029468E+03  0.7546771E-02  0.1274434E+00
         21   -1    0    0  501  502  0.00000000000E+00  0.00000000000E+00  0.71294397104E+02  0.71294397104E+02  0.00000000000E+00 0.  1.
         -3   -1    0    0    0  501 -0.00000000000E+00 -0.00000000000E+00 -0.31229245959E+03  0.31229245959E+03  0.00000000000E+00 0.  1.
         23    2    1    2    0    0 -0.47221698222E+02 -0.70408897391E+01 -0.14769320421E+03  0.18135196948E+03  0.93785880349E+02 0.  0.
         23    2    1    2    0    0  0.17724404147E+02  0.48076006379E+02 -0.10588916284E+03  0.15015479623E+03  0.93319296687E+02 0.  0.
        -11    1    4    4    0    0  0.43362444284E+02  0.21871563504E+02 -0.10239445351E+03  0.11332824438E+03  0.00000000000E+00 0.  1.
         11    1    4    4    0    0 -0.25638040137E+02  0.26204442875E+02 -0.34947093289E+01  0.36826551858E+02  0.00000000000E+00 0. -1.
        -13    1    3    3    0    0 -0.15856407003E+02 -0.49728804943E+02 -0.76641133386E+02  0.92726711420E+02  0.00000000000E+00 0. -1.
         13    1    3    3    0    0 -0.31365291219E+02  0.42687915203E+02 -0.71052070824E+02  0.88625258059E+02  0.00000000000E+00 0.  1.
         -3    1    1    2    0  502  0.29497294075E+02 -0.41035116640E+02  0.12584304561E+02  0.52080090982E+02  0.00000000000E+00 0.  1.
<scales pt_clust_5="13000.00000" pt_clust_6="13000.00000" pt_clust_7="13000.00000" pt_clust_8="13000.00000" pt_clust_9="50.53683"></scales>
<clustering>
<clus scale="   50.537">  1  9  2 -1</clus>
<clus scale="   93.319">  5  6 -1 -1</clus>
<clus scale="   93.786">  7  8 -1 -1</clus>
<clus scale="  102.522">  1  5  2 -1</clus>
<clus scale="   50.537">  1  5  2 -1</clus>
</clustering>
</event>
<event>
 9    1  0.1504846E-005  0.1281252E+03  0.7546771E-02  0.1238452E+00
          1   -1    0    0  502    0 -0.00000000000E+00  0.00000000000E+00  0.44562024599E+03  0.44562024599E+03  0.00000000000E+00 0. -1.
         21   -1    0    0  501  502  0.00000000000E+00 -0.00000000000E+00 -0.12550793592E+03  0.12550793592E+03  0.00000000000E+00 0. -1.
         23    2    1    2    0    0 -0.42241659327E+02 -0.36226265796E+02  0.38192544876E+03  0.40248714781E+03  0.11415846718E+03 0.  0.
         23    2    1    2    0    0  0.63210522633E+02  0.41574096440E+02 -0.18296874012E+02  0.12004105660E+03  0.91384375059E+02 0.  0.
        -11    1    4    4    0    0 -0.78335743396E+01 -0.21959731741E+02 -0.43380488661E+01  0.23715256124E+02  0.00000000000E+00 0.  1.
         11    1    4    4    0    0  0.71044096973E+02  0.63533828181E+02 -0.13958825146E+02  0.96325800477E+02  0.00000000000E+00 0. -1.
        -11    1    3    3    0    0 -0.75510076320E+02 -0.17774036947E-02  0.26717653953E+03  0.27764199053E+03  0.00000000000E+00 0.  1.
         11    1    3    3    0    0  0.33268416993E+02 -0.36224488392E+02  0.11474890923E+03  0.12484515729E+03  0.00000000000E+00 0. -1.
          1    1    1    2  501    0 -0.20968863306E+02 -0.53478306435E+01 -0.43516264682E+02  0.48599977498E+02  0.00000000000E+00 0. -1.
<scales pt_clust_5="13000.00000" pt_clust_6="13000.00000" pt_clust_7="13000.00000" pt_clust_8="13000.00000" pt_clust_9="21.64007"></scales>
<clustering>
<clus scale="   21.640">  2  9  1 -1</clus>
<clus scale="   91.384">  5  6 -1 -1</clus>
<clus scale="  108.328">  2  5  1 -1</clus>
<clus scale="  114.158">  7  8 -1 -1</clus>
<clus scale="   21.640">  2  5  1 -1</clus>
</clustering>
</event>
<event>
 9    1  0.1504846E-005  0.9139638E+02  0.7546771E-02  0.1299559E+00
          2   -1    0    0  502    0 -0.00000000000E+00  0.00000000000E+00  0.41897270578E+03  0.41897270578E+03  0.00000000000E+00 0. -1.
         21   -1    0    0  501  502  0.00000000000E+00 -0.00000000000E+00 -0.53286416003E+02  0.53286416003E+02  0.00000000000E+00 0.  1.
         23    2    1    2    0    0 -0.40052148203E+01 -0.13274489638E+02  0.34526791825E+03  0.35726478930E+03  0.90752082522E+02 0.  0.
         23    2    1    2    0    0 -0.42252262985E+01 -0.62592110387E+01  0.22439041834E+02  0.93701405692E+02  0.90660976005E+02 0.  0.
        -11    1    4    4    0    0 -0.46179525757E+02  0.64056269268E+01  0.16605520755E+02  0.49490645328E+02  0.00000000000E+00 0. -1.
         11    1    4    4    0    0  0.41954299459E+02 -0.12664837965E+02  0.58335210795E+01  0.44210760364E+02  0.00000000000E+00 0.  1.
        -13    1    3    3    0    0 -0.45541069225E+02 -0.10982985940E+01  0.22179912461E+03  0.22642890037E+03  0.00000000000E+00 0. -1.
         13    1    3    3    0    0  0.41535854405E+02 -0.12176191044E+02  0.12346879364E+03  0.13083588893E+03  0.00000000000E+00 0.  1.
          2    1    1    2  501    0  0.82304411188E+01  0.19533700676E+02 -0.20206702985E+01  0.21292926797E+02  0.00000000000E+00 0. -1.
<scales pt_clust_5="13000.00000" pt_clust_6="13000.00000" pt_clust_7="13000.00000" pt_clust_8="13000.00000" pt_clust_9="21.19683"></scales>
<clustering>
<clus scale="   21.197">  2  9  1 -1</clus>
<clus scale="   90.661">  5  6 -1 -1</clus>
<clus scale="   90.752">  7  8 -1 -1</clus>
<clus scale="   91.306">  2  5  1 -1</clus>
<clus scale="   21.197">  2  5  1 -1</clus>
</clustering>
</event>
<event>
 9    1  0.1504846E-005  0.1386113E+03  0.7546771E-02  0.1215224E+00
         21   -1    0    0  501  502  0.00000000000E+00  0.00000000000E+00  0.18483444692E+03  0.18483444692E+03  0.00000000000E+00 0.  1.
          3   -1    0    0  502    0 -0.00000000000E+00 -0.00000000000E+00 -0.19059913768E+03  0.19059913768E+03  0.00000000000E+00 0. -1.
         23    2    1    2    0    0 -0.10423237914E+03 -0.35393750820E+02 -0.11070655171E+03  0.18066470914E+03  0.90921340070E+02 0.  0.
         23    2    1    2    0    0  0.85286823345E+02  0.27605057308E+02  0.51827574660E+02  0.13784150737E+03  0.90985175899E+02 0.  0.
        -13    1    3    3    0    0 -0.69947084316E+02 -0.15052582408E+02 -0.98600969920E+01  0.72224624292E+02  0.00000000000E+00 0.  1.
         13    1    3    3    0    0 -0.34285294821E+02 -0.20341168412E+02 -0.10084645471E+03  0.10844008485E+03  0.00000000000E+00 0. -1.
        -13    1    4    4    0    0  0.49133620750E+02 -0.25222608507E+02 -0.39030587702E+00  0.55230833839E+02  0.00000000000E+00 0.  1.
         13    1    4    4    0    0  0.36153202595E+02  0.52827665814E+02  0.52217880537E+02  0.82610673530E+02  0.00000000000E+00 0. -1.
          3    1    1    2  501    0  0.18945555793E+02  0.77886935120E+01  0.53114286279E+02  0.56927368091E+02  0.00000000000E+00 0. -1.
<scales pt_clust_5="13000.00000" pt_clust_6="13000.00000" pt_clust_7="13000.00000" pt_clust_8="13000.00000" pt_clust_9="20.48409"></scales>
<clustering>
<clus scale="   20.484">  1  9  2 -1</clus>
<clus scale="   90.921">  5  6 -1 -1</clus>
<clus scale="   90.985">  7  8 -1 -1</clus>
<clus scale="  138.569">  2  5  1 -1</clus>
<clus scale="   20.484">  1  5  2 -1</clus>
</clustering>
</event>
<event>
 9    1  0.1504846E-005  0.1144717E+03  0.7546771E-02  0.1260870E+00
         21   -1    0    0  501  502  0.00000000000E+00  0.00000000000E+00  0.35248535207E+03  0.35248535207E+03  0.00000000000E+00 0. -1.
         -3   -1    0    0    0  501 -0.00000000000E+00 -0.00000000000E+00 -0.54427385938E+02  0.54427385938E+02  0.00000000000E+00 0.  1.
         23    2    1    2    0    0  0.21214915551E+02 -0.29043481284E+02  0.70684496139E+02  0.12084665339E+03  0.91181243648E+02 0.  0.
         23    2    1    2    0    0  0.66495830524E+01  0.35665736944E+02  0.91702926996E+02  0.14740541684E+03  0.10955669011E+03 0.  0.
        -11    1    3    3    0    0 -0.12908422218E+01 -0.38706733072E+02  0.84338335605E+02  0.92805346351E+02  0.00000000000E+00 0. -1.
         11    1    3    3    0    0  0.22505757773E+02  0.96632517875E+01 -0.13653839466E+02  0.28041307034E+02  0.00000000000E+00 0.  1.
        -11    1    4    4    0    0  0.44508861809E+02 -0.18497260432E+02  0.28672529247E+02  0.56082986336E+02  0.00000000000E+00 0. -1.
         11    1    4    4    0    0 -0.37859278756E+02  0.54162997376E+02  0.63030397749E+02  0.91322430504E+02  0.00000000000E+00 0.  1.
         -3    1    1    2    0  502 -0.27864498603E+02 -0.66222556592E+01  0.13567054300E+03  0.13866066779E+03  0.00000000000E+00 0.  1.
<scales pt_clust_5="13000.00000" pt_clust_6="13000.00000" pt_clust_7="13000.00000" pt_clust_8="13000.00000" pt_clust_9="28.64061"></scales>
<clustering>
<clus scale="   28.641">  1  9  2 -1</clus>
<clus scale="   91.181">  5  6 -1 -1</clus>
<clus scale="   97.032">  2  5  1 -1</clus>
<clus scale="  109.557">  7  8 -1 -1</clus>
<clus scale="   28.641">  1  5  2 -1</clus>
</clustering>
</event>
<event>
 9    1  0.1504846E-005  0.1023873E+03  0.7546771E-02  0.1275725E+00
          1   -1    0    0  502    0 -0.00000000000E+00  0.00000000000E+00  0.37543157533E+03  0.37543157533E+03  0.00000000000E+00 0. -1.
         21   -1    0    0  501  502  0.00000000000E+00 -0.00000000000E+00 -0.68292342229E+02  0.68292342229E+02  0.00000000000E+00 0.  1.
         23    2    1    2    0    0  0.34493680153E+02 -0.22307875271E+02  0.21623865890E+03  0.23818233627E+03  0.91017649054E+02 0.  0.
         23    2    1    2    0    0 -0.68224947190E+02  0.13694651949E+02  0.78396418769E+01  0.11547991091E+03  0.91825720409E+02 0.  0.
        -13    1    4    4    0    0 -0.23242453586E+02  0.51142871856E+02 -0.15678311348E+01  0.56198426000E+02  0.00000000000E+00 0. -1.
         13    1    4    4    0    0 -0.44982493604E+02 -0.37448219907E+02  0.94074730116E+01  0.59281484913E+02  0.00000000000E+00 0.  1.
        -13    1    3    3    0    0  0.17778423975E+02  0.25654658891E+02  0.15734833874E+03  0.16041425618E+03  0.00000000000E+00 0. -1.
         13    1    3    3    0    0  0.16715256178E+02 -0.47962534162E+02  0.58890320158E+02  0.77768080089E+02  0.00000000000E+00 0.  1.
          1    1    1    2  501    0  0.33731267037E+02  0.86132233222E+01  0.83060932320E+02  0.90061670370E+02  0.00000000000E+00 0. -1.
<scales pt_clust_5="13000.00000" pt_clust_6="13000.00000" pt_clust_7="13000.00000" pt_clust_8="13000.00000" pt_clust_9="34.81361"></scales>
<clustering>
<clus scale="   34.814">  2  9  1 -1</clus>
<clus scale="   91.018">  7  8 -1 -1</clus>
<clus scale="   91.826">  5  6 -1 -1</clus>
<clus scale="  101.663">  1  7  2 -1</clus>
<clus scale="   34.814">  2  5  1 -1</clus>
</clustering>
</event>
<event>
 9    1  0.1504846E-005  0.9385979E+02  0.7546771E-02  0.1294338E+00
         21   -1    0    0  501  502  0.00000000000E+00  0.00000000000E+00  0.49101609022E+03  0.49101609022E+03  0.00000000000E+00 0.  1.
          2   -1    0    0  502    0 -0.00000000000E+00 -0.00000000000E+00 -0.72164475750E+02  0.72164475750E+02  0.00000000000E+00 0. -1.
         23    2    1    2    0    0  0.97051205255E+00  0.12164648682E+02 -0.26758387551E+01  0.92137821159E+02  0.91286896123E+02 0.  0.
         23    2    1    2    0    0 -0.72016176166E+02 -0.30752822673E+02  0.16186685323E+03  0.20119717084E+03  0.90262714601E+02 0.  0.
        -11    1    4    4    0    0 -0.66295213248E+02  0.49055914404E+01  0.48696912369E+02  0.82404547212E+02  0.00000000000E+00 0. -1.
         11    1    4    4    0    0 -0.57209629179E+01 -0.35658414113E+02  0.11316994086E+03  0.11879262362E+03  0.00000000000E+00 0.  1.
        -11    1    3    3    0    0  0.20929222307E+02 -0.32987766308E+02 -0.13980485050E+02  0.41493120329E+02  0.00000000000E+00 0.  1.
         11    1    3    3    0    0 -0.19958710255E+02  0.45152414989E+02  0.11304646295E+02  0.50644700831E+02  0.00000000000E+00 0. -1.
          2    1    1    2  501    0  0.71045664113E+02  0.18588173991E+02  0.25966060000E+03  0.26984557397E+03  0.00000000000E+00 0. -1.
<scales pt_clust_5="13000.00000" pt_clust_6="13000.00000" pt_clust_7="13000.00000" pt_clust_8="13000.00000" pt_clust_9="73.43709"></scales>
<clustering>
<clus scale="   73.437">  1  9  2 -1</clus>
<clus scale="   90.263">  5  6 -1 -1</clus>
<clus scale="   91.287">  7  8 -1 -1</clus>
<clus scale="   92.864">  1  5  2 -1</clus>
<clus scale="   73.437">  1  5  2 -1</clus>
</clustering>
</event>
<event>
 9    1  0.1504846E-005  0.9417657E+02  0.7546771E-02  0.1293684E+00
         21   -1    0    0  501  502  0.00000000000E+00  0.00000000000E+00  0.59575669940E+02  0.59575669940E+02  0.00000000000E+00 0. -1.
          1   -1    0    0  502    0 -0.00000000000E+00 -0.00000000000E+00 -0.27425614856E+03  0.27425614856E+03  0.00000000000E+00 0. -1.
         23    2    1    2    0    0 -0.17189049833E+02  0.70449180842E+01 -0.14466147047E+03  0.17099059876E+03  0.89251047723E+02 0.  0.
         23    2    1    2    0    0  0.37300742493E+02 -0.11885827677E+02 -0.90460709005E+02  0.13375896191E+03  0.90419587082E+02 0.  0.
        -11    1    3    3    0    0 -0.36821490164E+02  0.32532353132E-02 -0.14552948401E+03  0.15011546511E+03  0.00000000000E+00 0. -1.
         11    1    3    3    0    0  0.19632440331E+02  0.70416648489E+01  0.86801354295E+00  0.20875133645E+02  0.00000000000E+00 0.  1.
        -13    1    4    4    0    0  0.65434104558E+02 -0.18886887193E+02 -0.52489369042E+02  0.85985291821E+02  0.00000000000E+00 0.  1.
         13    1    4    4    0    0 -0.28133362064E+02  0.70010595165E+01 -0.37971339962E+02  0.47773670091E+02  0.00000000000E+00 0. -1.
          1    1    1    2  501    0 -0.20111692660E+02  0.48409095924E+01  0.20441700848E+02  0.29082257837E+02  0.00000000000E+00 0. -1.
<scales pt_clust_5="13000.00000" pt_clust_6="13000.00000" pt_clust_7="13000.00000" pt_clust_8="13000.00000" pt_clust_9="20.68610"></scales>
<clustering>
<clus scale="   20.686">  1  9  2 -1</clus>
<clus scale="   89.251">  5  6 -1 -1</clus>
<clus scale="   90.420">  7  8 -1 -1</clus>
<clus scale="   93.055">  2  5  1 -1</clus>
<clus scale="   20.686">  1  5  2 -1</clus>
</clustering>
</event>
<event>
 9    1  0.1504846E-005  0.9330358E+02  0.7546771E-02  0.1295260E+00
          2   -1    0    0  502    0 -0.00000000000E+00  0.00000000000E+00  0.47433703062E+03  0.47433703062E+03  0.00000000000E+00 0.  1.
         21   -1    0    0  501  502  0.00000000000E+00 -0.00000000000E+00 -0.11012772341E+03  0.11012772341E+03  0.00000000000E+00 0.  1.
         23    2    1    2    0    0 -0.40671075355E+01 -0.37059870494E+01  0.22930211883E+03  0.24701504126E+03  0.91688021052E+02 0.  0.
         23    2    1    2    0    0 -0.44464444435E+02 -0.68849993813E+01  0.21802693966E+03  0.24061803623E+03  0.91306094562E+02 0.  0.
        -11    1    3    3    0    0 -0.45132589267E+02 -0.16803792517E+02  0.10696587633E+03  0.11730736019E+03  0.00000000000E+00 0.  1.
         11    1    3    3    0    0  0.41065481732E+02  0.13097805467E+02  0.12233624250E+03  0.12970768107E+03  0.00000000000E+00 0. -1.
        -13    1    4    4    0    0 -0.73344279538E+01 -0.46087403075E+02  0.83437905829E+02  0.95601917788E+02  0.00000000000E+00 0. -1.
         13    1    4    4    0    0 -0.37130016481E+02  0.39202403693E+02  0.13458903383E+03  0.14501611844E+03  0.00000000000E+00 0.  1.
          2    1    1    2  501    0  0.48531551970E+02  0.10590986431E+02 -0.83119751280E+02  0.96831676547E+02  0.00000000000E+00 0.  1.
<scales pt_clust_5="13000.00000" pt_clust_6="13000.00000" pt_clust_7="13000.00000" pt_clust_8="13000.00000" pt_clust_9="49.67374"></scales>
<clustering>
<clus scale="   49.674">  2  9  1 -1</clus>
<clus scale="   91.306">  7  8 -1 -1</clus>
<clus scale="   91.688">  5  6 -1 -1</clus>
<clus scale="   92.928">  2  7  1 -1</clus>
<clus scale="   49.674">  2  5  1 -1</clus>
</clustering>
</event>
<event>
 9    1  0.1504846E-005  0.9717487E+02  0.7546771E-02  0.1287140E+00
          2   -1    0    0  502    0 -0.00000000000E+00  0.00000000000E+00  0.98408501202E+02  0.98408501202E+02  0.00000000000E+00 0. -1.
         21   -1    0    0  501  502  0.00000000000E+00 -0.00000000000E+00 -0.18421835005E+03  0.18421835005E+03  0.00000000000E+00 0.  1.
         23    2    1    2    0    0  0.98859433011E+01  0.30235701969E+02 -0.15123637231E+02  0.99472458170E+02  0.93027501218E+02 0.  0.
         23    2    1    2    0    0  0.46175823639E+02 -0.74187701322E+00 -0.37695916626E+02  0.11173193872E+03  0.94500195399E+02 0.  0.
        -11    1    3    3    0    0 -0.27530782814E+02 -0.19267679452E+02  0.55655326391E+01  0.34061160100E+02  0.00000000000E+00 0. -1.
         11    1    3    3    0    0  0.37416726115E+02  0.49503381422E+02 -0.20689169870E+02  0.65411298070E+02  0.00000000000E+00 0.  1.
        -13    1    4    4    0    0  0.72838069598E+01 -0.25483741983E+02 -0.56141448482E+02  0.62083308441E+02  0.00000000000E+00 0. -1.
         13    1    4    4    0    0  0.38892016679E+02  0.24741864970E+02  0.18445531856E+02  0.49648630283E+02  0.00000000000E+00 0.  1.
          2    1    1    2  501    0 -0.56061766940E+02 -0.29493824956E+02 -0.32990294993E+02  0.71422454359E+02  0.00000000000E+00 0. -1.
<scales pt_clust_5="13000.00000" pt_clust_6="13000.00000" pt_clust_7="13000.00000" pt_clust_8="13000.00000" pt_clust_9="63.34672"></scales>
<clustering>
<clus scale="   63.347">  2  9  1 -1</clus>
<clus scale="   93.028">  5  6 -1 -1</clus>
<clus scale="   94.500">  7  8 -1 -1</clus>
<clus scale="   95.743">  1  5  2 -1</clus>
<clus scale="   63.347">  2  5  1 -1</clus>
</clustering>
</event>
<event>
 9    1  0.1504846E-005  0.1510291E+03  0.7546771E-02  0.1199483E+00
         -1   -1    0    0    0  501 -0.00000000000E+00  0.00000000000E+00  0.18372333126E+03  0.18372333126E+03  0.00000000000E+00 0.  1.
         21   -1    0    0  501  502  0.00000000000E+00 -0.00000000000E+00 -0.29262513389E+03  0.29262513389E+03  0.00000000000E+00 0. -1.
         23    2    1    2    0    0 -0.84432090433E+02  0.10226933438E+03  0.10351744117E+03  0.19105016386E+03  0.90534578115E+02 0.  0.
         23    2    1    2    0    0  0.40181946214E+02 -0.49958784562E+02 -0.17327302830E+03  0.20638762348E+03  0.91988259213E+02 0.  0.
        -11    1    3    3    0    0 -0.56652454346E+02  0.88032355609E+02  0.11704384748E+03  0.15703011957E+03  0.00000000000E+00 0.  1.
         11    1    3    3    0    0 -0.27779636087E+02  0.14236978769E+02 -0.13526406316E+02  0.34020044289E+02  0.00000000000E+00 0. -1.
        -13    1    4    4    0    0 -0.48833207416E+01  0.22841044043E+02 -0.19681353469E+02  0.30543670192E+02  0.00000000000E+00 0.  1.
         13    1    4    4    0    0  0.45065266955E+02 -0.72799828605E+02 -0.15359167483E+03  0.17584395329E+03  0.00000000000E+00 0. -1.
         -1    1    1    2    0  502  0.44250144219E+02 -0.52310549817E+02 -0.39146215500E+02  0.78910677817E+02  0.00000000000E+00 0.  1.
<scales pt_clust_5="13000.00000" pt_clust_6="13000.00000" pt_clust_7="13000.00000" pt_clust_8="13000.00000" pt_clust_9="68.51619"></scales>
<clustering>
<clus scale="   68.516">  2  9  1 -1</clus>
<clus scale="   90.535">  5  6 -1 -1</clus>
<clus scale="   91.988">  7  8 -1 -1</clus>
<clus scale="  150.148">  1  5  2 -1</clus>
<clus scale="   68.516">  2  5  1 -1</clus>
</clustering>
</event>
<event>
 9    1  0.1504846E-005  0.9271979E+02  0.7546771E-02  0.1296889E+00
         21   -1    0    0  501  502  0.00000000000E+00  0.00000000000E+00  0.24160569197E+03  0.24160569197E+03  0.00000000000E+00 0.  1.
          1   -1    0    0  502    0 -0.00000000000E+00 -0.00000000000E+00 -0.13338346295E+03  0.13338346295E+03  0.00000000000E+00 0. -1.
         23    2    1    2    0    0  0.15477864421E+02  0.85414905462E+01 -0.89372139679E+02  0.12875715920E+03  0.90986292085E+02 0.  0.
         23    2    1    2    0    0  0.18247259606E+02 -0.53097911396E+01  0.78152554598E+02  0.12207816038E+03  0.91837351259E+02 0.  0.
        -11    1    3    3    0    0 -0.38276421609E+02  0.34662623500E+01 -0.41968392772E+02  0.56907340632E+02  0.00000000000E+00 0. -1.
         11    1    3    3    0    0  0.53754286031E+02  0.50752281962E+01 -0.47403746907E+02  0.71849818571E+02  0.00000000000E+00 0.  1.
        -11    1    4    4    0    0  0.19454580093E+02  0.41996178725E+02  0.42405223275E+02  0.62772308187E+02  0.00000000000E+00 0.  1.
         11    1    4    4    0    0 -0.12073204867E+01 -0.47305969864E+02  0.35747331323E+02  0.59305852193E+02  0.00000000000E+00 0. -1.
          1    1    1    2  501    0 -0.33725124027E+02 -0.32316994066E+01  0.11944181410E+03  0.12415383533E+03  0.00000000000E+00 0. -1.
<scales pt_clust_5="13000.00000" pt_clust_6="13000.00000" pt_clust_7="13000.00000" pt_clust_8="13000.00000" pt_clust_9="33.87961"></scales>
<clustering>
<clus scale="   33.880">  1  9  2 -1</clus>
<clus scale="   90.986">  5  6 -1 -1</clus>
<clus scale="   91.837">  7  8 -1 -1</clus>
<clus scale="   91.877">  2  5  1 -1</clus>
<clus scale="   33.880">  1  5  2 -1</clus>
</clustering>
</event>
<event>
 9    1  0.1504846E-005  0.1041675E+03  0.7546771E-02  0.1272156E+00
         21   -1    0    0  501  502  0.00000000000E+00  0.00000000000E+00  0.54542948181E+02  0.54542948181E+02  0.00000000000E+00 0. -1.
         -3   -1    0    0    0  501 -0.00000000000E+00 -0.00000000000E+00 -0.35901785125E+03  0.35901785125E+03  0.00000000000E+00 0.  1.
         23    2    1    2    0    0  0.71476260792E+00 -0.73172911589E+02 -0.18129296501E+03  0.21531721022E+03  0.90219598653E+02 0.  0.
         23    2    1    2    0    0 -0.28320605366E+02  0.21112796293E+02 -0.82697173051E+02  0.12674985272E+03  0.89324665565E+02 0.  0.
        -11    1    4    4    0    0 -0.52621514701E+01  0.54532514157E+02 -0.40035923712E+02  0.67855438440E+02  0.00000000000E+00 0.  1.
         11    1    4    4    0    0 -0.23058453895E+02 -0.33419717864E+02 -0.42661249340E+02  0.58894414280E+02  0.00000000000E+00 0. -1.
        -11    1    3    3    0    0 -0.28263767985E+02  0.35904054754E+01 -0.80238804639E+02  0.85146916339E+02  0.00000000000E+00 0.  1.
         11    1    3    3    0    0  0.28978530593E+02 -0.76763317065E+02 -0.10105416037E+03  0.13017029388E+03  0.00000000000E+00 0. -1.
         -3    1    1    2    0  502  0.27605842758E+02  0.52060115296E+02 -0.40484765008E+02  0.71493736486E+02  0.00000000000E+00 0.  1.
<scales pt_clust_5="13000.00000" pt_clust_6="13000.00000" pt_clust_7="13000.00000" pt_clust_8="13000.00000" pt_clust_9="58.92655"></scales>
<clustering>
<clus scale="   58.927">  1  9  2 -1</clus>
<clus scale="   89.325">  5  6 -1 -1</clus>
<clus scale="   90.220">  7  8 -1 -1</clus>
<clus scale="  103.393">  1  5  2 -1</clus>
<clus scale="   58.927">  1  5  2 -1</clus>
</clustering>
</event>
<event>
 9    1  0.1504846E-005  0.1470783E+03  0.7546771E-02  0.1218374E+00
         21   -1    0    0  501  502  0.00000000000E+00  0.00000000000E+00  0.18980608659E+03  0.18980608659E+03  0.00000000000E+00 0.  1.
         -1   -1    0    0    0  501 -0.00000000000E+00 -0.00000000000E+00 -0.65445221670E+03  0.65445221670E+03  0.00000000000E+00 0.  1.
         23    2    1    2    0    0  0.10216731302E+01  0.62116524273E+02 -0.59630764324E+02  0.12383091609E+03  0.88987422262E+02 0.  0.
         23    2    1    2    0    0 -0.25280520732E+02 -0.17190090406E+03 -0.52224282537E+03  0.55799777473E+03  0.91841833663E+02 0.  0.
        -11    1    4    4    0    0 -0.20533728328E+01 -0.16452707805E+03 -0.38621077024E+03  0.41980011291E+03  0.00000000000E+00 0.  1.
         11    1    4    4    0    0 -0.23227147899E+02 -0.73738260081E+01 -0.13603205513E+03  0.13819766182E+03  0.00000000000E+00 0. -1.
        -13    1    3    3    0    0 -0.35420900697E+02  0.36477740459E+02 -0.60798968185E+02  0.79257682830E+02  0.00000000000E+00 0.  1.
         13    1    3    3    0    0  0.36442573827E+02  0.25638783813E+02  0.11682038607E+01  0.44573233255E+02  0.00000000000E+00 0. -1.
         -1    1    1    2    0  502  0.24258847602E+02  0.10978437979E+03  0.11722745958E+03  0.16242961248E+03  0.00000000000E+00 0.  1.
<scales pt_clust_5="13000.00000" pt_clust_6="13000.00000" pt_clust_7="13000.00000" pt_clust_8="13000.00000" pt_clust_9="114.87866"></scales>
<clustering>
<clus scale="   88.987">  7  8 -1 -1</clus>
<clus scale="   91.842">  5  6 -1 -1</clus>
<clus scale="  108.528">  2  7  1 -1</clus>
<clus scale="  114.879">  1  9  2 -1</clus>
<clus scale="  114.879">  1  5  2 -1</clus>
</clustering>
</event>
<event>
 9    1  0.1504846E-005  0.1043230E+03  0.7546771E-02  0.1271505E+00
         21   -1    0    0  501  502  0.00000000000E+00  0.00000000000E+00  0.14116985141E+03  0.14116985141E+03  0.00000000000E+00 0.  1.
          1   -1    0    0  502    0 -0.00000000000E+00 -0.00000000000E+00 -0.28566060900E+03  0.28566060900E+03  0.00000000000E+00 0. -1.
         23    2    1    2    0    0 -0.26645073356E+02 -0.39786637371E+02 -0.22238681722E+03  0.24525314109E+03  0.91652988459E+02 0.  0.
         23    2    1    2    0    0  0.16705833153E+02  0.60712938458E+02  0.12038683549E+02  0.11176405012E+03  0.91548496661E+02 0.  0.
        -11    1    3    3    0    0  0.24734314040E+02 -0.45267564144E+02 -0.11776368726E+03  0.12856603242E+03  0.00000000000E+00 0. -1.
         11    1    3    3    0    0 -0.51379387396E+02  0.54809267733E+01 -0.10462312996E+03  0.11668710867E+03  0.00000000000E+00 0.  1.
        -13    1    4    4    0    0  0.14662175669E+02  0.83672573053E+02  0.20191634374E+02  0.87314265589E+02  0.00000000000E+00 0.  1.
         13    1    4    4    0    0  0.20436574848E+01 -0.22959634595E+02 -0.81529508252E+01  0.24449784535E+02  0.00000000000E+00 0. -1.
          1    1    1    2  501    0  0.99392402025E+01 -0.20926301088E+02  0.65857376078E+02  0.69813269203E+02  0.00000000000E+00 0. -1.
<scales pt_clust_5="13000.00000" pt_clust_6="13000.00000" pt_clust_7="13000.00000" pt_clust_8="13000.00000" pt_clust_9="23.16676"></scales>
<clustering>
<clus scale="   23.167">  1  9  2 -1</clus>
<clus scale="   91.548">  7  8 -1 -1</clus>
<clus scale="   91.653">  5  6 -1 -1</clus>
<clus scale="  104.231">  1  7  2 -1</clus>
<clus scale="   23.167">  1  5  2 -1</clus>
</clustering>
</event>
<event>
 9    1  0.1504846E-005  0.1233219E+03  0.7546771E-02  0.1238707E+00
         21   -1    0    0  501  502  0.00000000000E+00  0.00000000000E+00  0.47525781095E+03  0.47525781095E+03  0.00000000000E+00 0.  1.
          3   -1    0    0  502    0 -0.00000000000E+00 -0.00000000000E+00 -0.42754028071E+02  0.42754028071E+02  0.00000000000E+00 0. -1.
         23    2    1    2    0    0  0.66709135803E+02  0.17536453989E+02  0.15717475196E+03  0.19772749869E+03  0.98156125965E+02 0.  0.
         23    2    1    2    0    0 -0.73393351250E+02 -0.43382339875E+02  0.25960298038E+03  0.28930051844E+03  0.95039313599E+02 0.  0.
        -11    1    4    4    0    0 -0.93801431648E+02 -0.21197347133E+02  0.17815057458E+03  0.20244916233E+03  0.00000000000E+00 0. -1.
         11    1    4    4    0    0  0.20408080398E+02 -0.22184992742E+02  0.81452405799E+02  0.86851356115E+02  0.00000000000E+00 0.  1.
        -13    1    3    3    0    0  0.70506265503E+02 -0.23113736409E+02  0.12652333897E+03  0.14667492488E+03  0.00000000000E+00 0.  1.
         13    1    3    3    0    0 -0.37971297005E+01  0.40650190398E+02  0.30651412995E+02  0.51052573803E+02  0.00000000000E+00 0. -1.
          3    1    1    2  501    0  0.66842154475E+01  0.25845885886E+02  0.15726050533E+02  0.30983821887E+02  0.00000000000E+00 0. -1.
<scales pt_clust_5="13000.00000" pt_clust_6="13000.00000" pt_clust_7="13000.00000" pt_clust_8="13000.00000" pt_clust_9="26.69624"></scales>
<clustering>
<clus scale="   26.696">  1  9  2 -1</clus>
<clus scale="   95.039">  5  6 -1 -1</clus>
<clus scale="   98.156">  7  8 -1 -1</clus>
<clus scale="  120.856">  1  5  2 -1</clus>
<clus scale="   26.696">  1  5  2 -1</clus>
</clustering>
</event>
<event>
 9    1  0.1504846E-005  0.2777885E+03  0.7546771E-02  0.1134923E+00
          1   -1    0    0  502    0 -0.00000000000E+00  0.00000000000E+00  0.33396264322E+03  0.33396264322E+03  0.00000000000E+00 0. -1.
         21   -1    0    0  501  502  0.00000000000E+00 -0.00000000000E+00 -0.44520856090E+03  0.44520856090E+03  0.00000000000E+00 0. -1.
         23    2    1    2    0    0 -0.16313947678E+02 -0.74135987383E+02  0.83721298909E+02  0.13550532014E+03  0.74767281488E+02 0.  0.
         23    2    1    2    0    0  0.73312870409E+02  0.27446092232E+03 -0.28900152815E+03  0.41514584438E+03  0.90114449333E+02 0.  0.
        -11    1    4    4    0    0  0.26861733647E+02  0.81801207016E+02 -0.34910236992E+02  0.92907022612E+02  0.00000000000E+00 0.  1.
         11    1    4    4    0    0  0.46451136762E+02  0.19265971531E+03 -0.25409129116E+03  0.32223882176E+03  0.00000000000E+00 0. -1.
        -13    1    3    3    0    0  0.29294474077E+02 -0.38247289940E+02  0.32652033132E+02  0.58199455898E+02  0.00000000000E+00 0.  1.
         13    1    3    3    0    0 -0.45608421755E+02 -0.35888697443E+02  0.51069265777E+02  0.77305864242E+02  0.00000000000E+00 0. -1.
          1    1    1    2  501    0 -0.56998922731E+02 -0.20032493494E+03  0.94034311555E+02  0.22852003960E+03  0.00000000000E+00 0. -1.
<scales pt_clust_5="13000.00000" pt_clust_6="13000.00000" pt_clust_7="13000.00000" pt_clust_8="13000.00000" pt_clust_9="262.76585"></scales>
<clustering>
<clus scale="   74.767">  7  8 -1 -1</clus>
<clus scale="   90.114">  5  6 -1 -1</clus>
<clus scale="  106.548">  1  7  2 -1</clus>
<clus scale="  262.766">  2  9  1 -1</clus>
<clus scale="  262.766">  2  5  1 -1</clus>
</clustering>
</event>
<event>
 9    1  0.1504846E-005  0.1066240E+03  0.7546771E-02  0.1270722E+00
         21   -1    0    0  501  502  0.00000000000E+00  0.00000000000E+00  0.21128821371E+03  0.21128821371E+03  0.00000000000E+00 0. -1.
         -2   -1    0    0    0  501 -0.00000000000E+00 -0.00000000000E+00 -0.91994572602E+02  0.91994572602E+02  0.00000000000E+00 0.  1.
         23    2    1    2    0    0 -0.10846625292E+02 -0.43655498024E+02 -0.15871011758E+02  0.97707184357E+02  0.85272229200E+02 0.  0.
         23    2    1    2    0    0  0.38000758148E+02  0.55661513847E+02  0.73048034381E+02  0.13672819359E+03  0.93895270651E+02 0.  0.
        -13    1    3    3    0    0 -0.36090764828E+02 -0.13235244749E+02  0.20868340745E+02  0.43740172095E+02  0.00000000000E+00 0.  1.
         13    1    3    3    0    0  0.25244139536E+02 -0.30420253275E+02 -0.36739352502E+02  0.53967012262E+02  0.00000000000E+00 0. -1.
        -13    1    4    4    0    0  0.33647892503E+02  0.82032164241E+02  0.52783102453E+02  0.10318678474E+03  0.00000000000E+00 0.  1.
         13    1    4    4    0    0  0.43528656453E+01 -0.26370650393E+02  0.20264931927E+02  0.33541408848E+02  0.00000000000E+00 0. -1.
         -2    1    1    2    0  502 -0.27154132856E+02 -0.12006015823E+02  0.62116618486E+02  0.68847408370E+02  0.00000000000E+00 0.  1.
<scales pt_clust_5="13000.00000" pt_clust_6="13000.00000" pt_clust_7="13000.00000" pt_clust_8="13000.00000" pt_clust_9="29.68992"></scales>
<clustering>
<clus scale="   29.690">  1  9  2 -1</clus>
<clus scale="   85.272">  5  6 -1 -1</clus>
<clus scale="   93.895">  7  8 -1 -1</clus>
<clus scale="   99.115">  2  5  1 -1</clus>
<clus scale="   29.690">  1  5  2 -1</clus>
</clustering>
</event>
<event>
 9    1  0.1504846E-005  0.1128129E+03  0.7546771E-02  0.1258082E+00
         21   -1    0    0  501  502  0.00000000000E+00  0.00000000000E+00  0.50029552565E+03  0.50029552565E+03  0.00000000000E+00 0.  1.
         -1   -1    0    0    0  501 -0.00000000000E+00 -0.00000000000E+00 -0.50145221065E+02  0.50145221065E+02  0.00000000000E+00 0.  1.
         23    2    1    2    0    0  0.16445985943E+02  0.48385035422E+02  0.63837279273E+02  0.12598238001E+03  0.95837256547E+02 0.  0.
         23    2    1    2    0    0 -0.61549056298E+02 -0.61749200461E+02  0.23489390329E+03  0.26590036981E+03  0.89031515632E+02 0.  0.
        -11    1    3    3    0    0 -0.38138823343E+02  0.36340146539E+02  0.29417275496E+02  0.60336988606E+02  0.00000000000E+00 0. -1.
         11    1    3    3    0    0  0.54584809286E+02  0.12044888883E+02  0.34420003777E+02  0.65645391407E+02  0.00000000000E+00 0.  1.
        -13    1    4    4    0    0  0.18768795513E+02 -0.16713432097E+02  0.20033699258E+02  0.32139626685E+02  0.00000000000E+00 0. -1.
         13    1    4    4    0    0 -0.80317851812E+02 -0.45035768364E+02  0.21486020403E+03  0.23376074313E+03  0.00000000000E+00 0.  1.
         -1    1    1    2    0  502  0.45103070356E+02  0.13364165039E+02  0.15141912202E+03  0.15855799688E+03  0.00000000000E+00 0.  1.
<scales pt_clust_5="13000.00000" pt_clust_6="13000.00000" pt_clust_7="13000.00000" pt_clust_8="13000.00000" pt_clust_9="47.04134"></scales>
<clustering>
<clus scale="   47.041">  1  9  2 -1</clus>
<clus scale="   89.032">  7  8 -1 -1</clus>
<clus scale="   95.837">  5  6 -1 -1</clus>
<clus scale="  107.091">  1  7  2 -1</clus>
<clus scale="   47.041">  1  5  2 -1</clus>
</clustering>
</event>
<event>
 9    1  0.1504846E-005  0.1066634E+03  0.7546771E-02  0.1268401E+00
         21   -1    0    0  501  502  0.00000000000E+00  0.00000000000E+00  0.93364987392E+02  0.93364987392E+02  0.00000000000E+00 0. -1.
          1   -1    0    0  502    0 -0.00000000000E+00 -0.00000000000E+00 -0.41828485608E+03  0.41828485608E+03  0.00000000000E+00 0. -1.
         23    2    1    2    0    0  0.42610411950E+02  0.91791627182E+01 -0.32632269263E+03  0.34204594773E+03  0.92784839293E+02 0.  0.
         23    2    1    2    0    0 -0.59361104508E+02  0.27266211097E+01 -0.42736262937E+02  0.12091516625E+03  0.96244033932E+02 0.  0.
        -11    1    3    3    0    0 -0.14274338674E+02 -0.19562147548E+02 -0.28127361932E+02  0.37115803245E+02  0.00000000000E+00 0.  1.
         11    1    3    3    0    0  0.56884750624E+02  0.28741310266E+02 -0.29819533070E+03  0.30493014449E+03  0.00000000000E+00 0. -1.
        -13    1    4    4    0    0  0.31522852262E+01 -0.33701008187E+02  0.50264625161E+01  0.34219295440E+02  0.00000000000E+00 0.  1.
         13    1    4    4    0    0 -0.62513389734E+02  0.36427629297E+02 -0.47762725453E+02  0.86695870807E+02  0.00000000000E+00 0. -1.
          1    1    1    2  501    0  0.16750692558E+02 -0.11905783828E+02  0.44139086874E+02  0.48688729495E+02  0.00000000000E+00 0. -1.
<scales pt_clust_5="13000.00000" pt_clust_6="13000.00000" pt_clust_7="13000.00000" pt_clust_8="13000.00000" pt_clust_9="20.55075"></scales>
<clustering>
<clus scale="   20.551">  1  9  2 -1</clus>
<clus scale="   92.785">  5  6 -1 -1</clus>
<clus scale="   96.244">  7  8 -1 -1</clus>
<clus scale="  103.553">  2  5  1 -1</clus>
<clus scale="   20.551">  1  5  2 -1</clus>
</clustering>
</event>
<event>
 9    1  0.1504846E-005  0.1014323E+03  0.7546771E-02  0.1278444E+00
          1   -1    0    0  502    0 -0.00000000000E+00  0.00000000000E+00  0.22084380893E+03  0.22084380893E+03  0.00000000000E+00 0. -1.
         21   -1    0    0  501  502  0.00000000000E+00 -0.00000000000E+00 -0.78644929700E+02  0.78644929700E+02  0.00000000000E+00 0.  1.
         23    2    1    2    0    0 -0.93315725511E+01  0.50314693304E+02  0.11993340747E+03  0.15952766986E+03  0.91904344925E+02 0.  0.
         23    2    1    2    0    0 -0.22825529196E+02 -0.25910309130E+02  0.50327873925E+01  0.96067805389E+02  0.89506119237E+02 0.  0.
        -13    1    4    4    0    0 -0.31711442108E+01 -0.34741908051E+02 -0.35744692990E+02  0.49947366373E+02  0.00000000000E+00 0.  1.
         13    1    4    4    0    0 -0.19654384985E+02  0.88315989206E+01  0.40777480383E+02  0.46120439016E+02  0.00000000000E+00 0. -1.
        -13    1    3    3    0    0  0.29006939898E+02  0.51373101195E+02  0.41227414611E+02  0.71974285715E+02  0.00000000000E+00 0.  1.
         13    1    3    3    0    0 -0.38338512449E+02 -0.10584078911E+01  0.78705992854E+02  0.87553384145E+02  0.00000000000E+00 0. -1.
          1    1    1    2  501    0  0.32157101747E+02 -0.24404384174E+02  0.17232684375E+02  0.43893263384E+02  0.00000000000E+00 0. -1.
<scales pt_clust_5="13000.00000" pt_clust_6="13000.00000" pt_clust_7="13000.00000" pt_clust_8="13000.00000" pt_clust_9="40.36896"></scales>
<clustering>
<clus scale="   40.369">  2  9  1 -1</clus>
<clus scale="   89.506">  5  6 -1 -1</clus>
<clus scale="   91.904">  7  8 -1 -1</clus>
<clus scale="   99.264">  2  5  1 -1</clus>
<clus scale="   40.369">  2  5  1 -1</clus>
</clustering>
</event>
<event>
 9    1  0.1504846E-005  0.1445136E+03  0.7546771E-02  0.1212748E+00
         21   -1    0    0  501  502  0.00000000000E+00  0.00000000000E+00  0.19292999845E+03  0.19292999845E+03  0.00000000000E+00 0. -1.
          2   -1    0    0  502    0 -0.00000000000E+00 -0.00000000000E+00 -0.21811225131E+03  0.21811225131E+03  0.00000000000E+00 0. -1.
         23    2    1    2    0    0 -0.64364148205E+02  0.62163839894E+02 -0.12226316741E+02  0.12944721703E+03  0.92736252950E+02 0.  0.
         23    2    1    2    0    0  0.59338946571E+02  0.81717424167E+02  0.99697281066E+01  0.13581212262E+03  0.90259011627E+02 0.  0.
        -11    1    3    3    0    0 -0.76291344454E+02  0.22384692697E+02 -0.29038536789E+02  0.84644434694E+02  0.00000000000E+00 0. -1.
         11    1    3    3    0    0  0.11927196249E+02  0.39779147197E+02  0.16812220048E+02  0.44802782336E+02  0.00000000000E+00 0.  1.
        -11    1    4    4    0    0  0.28654466146E+02 -0.11939166128E+02  0.19719368377E+02  0.36776019457E+02  0.00000000000E+00 0.  1.
         11    1    4    4    0    0  0.30684480425E+02  0.93656590295E+02 -0.97496402704E+01  0.99036103165E+02  0.00000000000E+00 0. -1.
          2    1    1    2  501    0  0.50252016337E+01 -0.14388126406E+03 -0.22925664221E+02  0.14578291011E+03  0.00000000000E+00 0. -1.
<scales pt_clust_5="13000.00000" pt_clust_6="13000.00000" pt_clust_7="13000.00000" pt_clust_8="13000.00000" pt_clust_9="112.86056"></scales>
<clustering>
<clus scale="   90.259">  7  8 -1 -1</clus>
<clus scale="   92.736">  5  6 -1 -1</clus>
<clus scale="  128.869">  2  5  1 -1</clus>
<clus scale="  112.861">  1  9  2 -1</clus>
<clus scale="  112.861">  1  5  2 -1</clus>
</clustering>
</event>
<event>
 9    1  0.1504846E-005  0.1438616E+03  0.7546771E-02  0.1208523E+00
          1   -1    0    0  502    0 -0.00000000000E+00  0.00000000000E+00  0.42511850483E+03  0.42511850483E+03  0.00000000000E+00 0. -1.
         21   -1    0    0  501  502  0.00000000000E+00 -0.00000000000E+00 -0.96991417105E+02  0.96991417105E+02  0.00000000000E+00 0.  1.
         23    2    1    2    0    0  0.97002963331E+02 -0.51188549158E+02  0.27842831909E+03  0.31293194370E+03  0.91510819345E+02 0.  0.
         23    2    1    2    0    0 -0.91120511239E+02  0.70990158248E+02  0.84211648418E+02  0.16895552386E+03  0.90065627051E+02 0.  0.
        -11    1    3    3    0    0  0.34024385002E+01 -0.43003207189E+02  0.50615554181E+02  0.66504035527E+02  0.00000000000E+00 0.  1.
         11    1    3    3    0    0  0.93600524830E+02 -0.81853419697E+01  0.22781276490E+03  0.24642790817E+03  0.00000000000E+00 0. -1.
        -13    1    4    4    0    0 -0.72668953771E+02 -0.46421873889E+00  0.41129436682E+02  0.83502232922E+02  0.00000000000E+00 0.  1.
         13    1    4    4    0    0 -0.18451557469E+02  0.71454376987E+02  0.43082211736E+02  0.85453290936E+02  0.00000000000E+00 0. -1.
          1    1    1    2  501    0 -0.58824520913E+01 -0.19801609090E+02 -0.34512879783E+02  0.40222454377E+02  0.00000000000E+00 0. -1.
<scales pt_clust_5="13000.00000" pt_clust_6="13000.00000" pt_clust_7="13000.00000" pt_clust_8="13000.00000" pt_clust_9="20.65689"></scales>
<clustering>
<clus scale="   20.657">  2  9  1 -1</clus>
<clus scale="   90.066">  7  8 -1 -1</clus>
<clus scale="   91.511">  5  6 -1 -1</clus>
<clus scale="  142.947">  2  7  1 -1</clus>
<clus scale="   20.657">  2  5  1 -1</clus>
</clustering>
</event>
<event>
 9    1  0.1504846E-005  0.9970362E+02  0.7546771E-02  0.1281237E+00
          1   -1    0    0  502    0 -0.00000000000E+00  0.00000000000E+00  0.98295343662E+02  0.98295343662E+02  0.00000000000E+00 0. -1.
         21   -1    0    0  501  502  0.00000000000E+00 -0.00000000000E+00 -0.18488867777E+03  0.18488867777E+03  0.00000000000E+00 0.  1.
         23    2    1    2    0    0  0.31456519906E+02  0.22843537357E+02  0.22578842153E+02  0.10253794026E+03  0.92156851276E+02 0.  0.
         23    2    1    2    0    0 -0.42556410648E+02  0.20615816438E+01 -0.44222294709E+02  0.11020490258E+03  0.91510715208E+02 0.  0.
        -11    1    4    4    0    0 -0.40745083236E+02 -0.25853585499E+02 -0.60850734373E+02  0.77661969875E+02  0.00000000000E+00 0. -1.
         11    1    4    4    0    0 -0.18113274115E+01  0.27915167142E+02  0.16628439664E+02  0.32542932708E+02  0.00000000000E+00 0.  1.
        -11    1    3    3    0    0  0.61382147027E+02  0.30127796986E+02  0.21655984330E+02  0.71724708310E+02  0.00000000000E+00 0.  1.
         11    1    3    3    0    0 -0.29925627121E+02 -0.72842596285E+01  0.92285782262E+00  0.30813231954E+02  0.00000000000E+00 0. -1.
          1    1    1    2  501    0  0.11099890741E+02 -0.24905119001E+02 -0.64949881555E+02  0.70441178588E+02  0.00000000000E+00 0. -1.
<scales pt_clust_5="13000.00000" pt_clust_6="13000.00000" pt_clust_7="13000.00000" pt_clust_8="13000.00000" pt_clust_9="27.26669"></scales>
<clustering>
<clus scale="   27.267">  2  9  1 -1</clus>
<clus scale="   91.511">  5  6 -1 -1</clus>
<clus scale="   92.157">  7  8 -1 -1</clus>
<clus scale="   99.107">  2  5  1 -1</clus>
<clus scale="   27.267">  2  5  1 -1</clus>
</clustering>
</event>
<event>
 9    1  0.1504846E-005  0.9618251E+02  0.7546771E-02  0.1290284E+00
         21   -1    0    0  501  502  0.00000000000E+00  0.00000000000E+00  0.10133636490E+03  0.10133636490E+03  0.00000000000E+00 0. -1.
         -1   -1    0    0    0  501 -0.00000000000E+00 -0.00000000000E+00 -0.17673110962E+03  0.17673110962E+03  0.00000000000E+00 0.  1.
         23    2    1    2    0    0  0.27145144509E+02 -0.20834579769E+02 -0.71219639729E+02  0.12256802581E+03  0.93700295003E+02 0.  0.
         23    2    1    2    0    0 -0.93056951879E+01  0.14297663828E+01 -0.49108357698E+02  0.10340539978E+03  0.90511909228E+02 0.  0.
        -13    1    4    4    0    0  0.35719466996E+02 -0.19480392330E+02 -0.15921445507E+02  0.43690484488E+02  0.00000000000E+00 0. -1.
         13    1    4    4    0    0 -0.45025162184E+02  0.20910158712E+02 -0.33186912190E+02  0.59714915287E+02  0.00000000000E+00 0.  1.
        -13    1    3    3    0    0  0.32844077185E+02 -0.55220321049E+02 -0.39367218902E+02  0.75351145890E+02  0.00000000000E+00 0. -1.
         13    1    3    3    0    0 -0.56989326759E+01  0.34385741279E+02 -0.31852420827E+02  0.47216879922E+02  0.00000000000E+00 0.  1.
         -1    1    1    2    0  502 -0.17839449321E+02  0.19404813386E+02  0.44933252708E+02  0.52094048927E+02  0.00000000000E+00 0.  1.
<scales pt_clust_5="13000.00000" pt_clust_6="13000.00000" pt_clust_7="13000.00000" pt_clust_8="13000.00000" pt_clust_9="26.35892"></scales>
<clustering>
<clus scale="   26.359">  1  9  2 -1</clus>
<clus scale="   90.512">  5  6 -1 -1</clus>
<clus scale="   93.079">  1  5  2 -1</clus>
<clus scale="   93.700">  7  8 -1 -1</clus>
<clus scale="   26.359">  1  5  2 -1</clus>
</clustering>
</event>
<event>
 9    1  0.1504846E-005  0.2390079E+03  0.7546771E-02  0.1156442E+00
          1   -1    0    0  502    0 -0.00000000000E+00  0.00000000000E+00  0.51880252161E+03  0.51880252161E+03  0.00000000000E+00 0. -1.
         21   -1    0    0  501  502  0.00000000000E+00 -0.00000000000E+00 -0.15524010807E+03  0.15524010807E+03  0.00000000000E+00 0.  1.
         23    2    1    2    0    0 -0.27504914626E+02 -0.39205987858E+00  0.10052888242E+03  0.14184208073E+03  0.96210423681E+02 0.  0.
         23    2    1    2    0    0  0.23396830649E+03 -0.31696051623E+02  0.15485810043E+03  0.29691624670E+03  0.91828199139E+02 0.  0.
        -11    1    4    4    0    0  0.19291195740E+03 -0.45122542826E+02  0.86781487852E+02  0.21629168688E+03  0.00000000000E+00 0.  1.
         11    1    4    4    0    0  0.41056349089E+02  0.13426491202E+02  0.68076612581E+02  0.80624559825E+02  0.00000000000E+00 0. -1.
        -13    1    3    3    0    0  0.21145842716E+02 -0.28489656887E+02  0.68573483995E+02  0.77208353959E+02  0.00000000000E+00 0.  1.
         13    1    3    3    0    0 -0.48650757342E+02  0.28097597009E+02  0.31955398428E+02  0.64633726771E+02  0.00000000000E+00 0. -1.
          1    1    1    2  501    0 -0.20646339186E+03  0.32088111502E+02  0.10817543068E+03  0.23528430224E+03  0.00000000000E+00 0. -1.
<scales pt_clust_5="13000.00000" pt_clust_6="13000.00000" pt_clust_7="13000.00000" pt_clust_8="13000.00000" pt_clust_9="220.66342"></scales>
<clustering>
<clus scale="   91.828">  5  6 -1 -1</clus>
<clus scale="   96.210">  7  8 -1 -1</clus>
<clus scale="  100.066">  1  7  2 -1</clus>
<clus scale="  220.663">  2  9  1 -1</clus>
<clus scale="  220.663">  2  5  1 -1</clus>
</clustering>
</event>
<event>
 9    1  0.1504846E-005  0.1297328E+03  0.7546771E-02  0.1229021E+00
          2   -1    0    0  502    0 -0.00000000000E+00  0.00000000000E+00  0.73647597540E+03  0.73647597540E+03  0.00000000000E+00 0. -1.
         21   -1    0    0  501  502  0.00000000000E+00 -0.00000000000E+00 -0.32666677446E+02  0.32666677446E+02  0.00000000000E+00 0. -1.
         23    2    1    2    0    0  0.60578579324E+02  0.54237886311E+02  0.41500472967E+03  0.43314259392E+03  0.93659321108E+02 0.  0.
         23    2    1    2    0    0 -0.83983002571E+02 -0.63500493889E+02  0.27394323010E+03  0.30676955604E+03  0.89315226865E+02 0.  0.
        -13    1    4    4    0    0 -0.74787647249E+02 -0.44659007390E+02  0.27212357133E+03  0.28572514275E+03  0.00000000000E+00 0. -1.
         13    1    4    4    0    0 -0.91953553214E+01 -0.18841486498E+02  0.18196587706E+01  0.21044413296E+02  0.00000000000E+00 0.  1.
        -13    1    3    3    0    0  0.12273379515E+01 -0.24609595495E+02  0.65867819357E+02  0.70325729116E+02  0.00000000000E+00 0.  1.
         13    1    3    3    0    0  0.59351241373E+02  0.78847481805E+02  0.34913691032E+03  0.36281686480E+03  0.00000000000E+00 0. -1.
          2    1    1    2  501    0  0.23404423247E+02  0.92626075779E+01  0.14861338179E+02  0.29230502889E+02  0.00000000000E+00 0. -1.
<scales pt_clust_5="13000.00000" pt_clust_6="13000.00000" pt_clust_7="13000.00000" pt_clust_8="13000.00000" pt_clust_9="25.17068"></scales>
<clustering>
<clus scale="   25.171">  2  9  1 -1</clus>
<clus scale="   89.315">  5  6 -1 -1</clus>
<clus scale="   93.659">  7  8 -1 -1</clus>
<clus scale="  126.632">  2  5  1 -1</clus>
<clus scale="   25.171">  2  5  1 -1</clus>
</clustering>
</event>
<event>
 9    1  0.1504846E-005  0.9549209E+02  0.7546771E-02  0.1290519E+00
         -4   -1    0    0    0  501 -0.00000000000E+00  0.00000000000E+00  0.32331036205E+02  0.32331036205E+02  0.00000000000E+00 0.  1.
         21   -1    0    0  501  502  0.00000000000E+00 -0.00000000000E+00 -0.47658664004E+03  0.47658664004E+03  0.00000000000E+00 0. -1.
         23    2    1    2    0    0  0.13282463329E+02  0.40860357501E+02 -0.10877789376E+03  0.14781734799E+03  0.90395495176E+02 0.  0.
         23    2    1    2    0    0 -0.29355778403E+01  0.17517794403E+00 -0.22977402253E+03  0.24723969955E+03  0.91228938944E+02 0.  0.
        -11    1    4    4    0    0 -0.42219591600E+01  0.34368601747E+02 -0.34108260905E+02  0.48604518176E+02  0.00000000000E+00 0. -1.
         11    1    4    4    0    0  0.12863813197E+01 -0.34193423803E+02 -0.19566576163E+03  0.19863518138E+03  0.00000000000E+00 0.  1.
        -13    1    3    3    0    0  0.46612683232E+02  0.17282445088E+01 -0.66683136293E+02  0.81377943775E+02  0.00000000000E+00 0.  1.
         13    1    3    3    0    0 -0.33330219903E+02  0.39132112993E+02 -0.42094757470E+02  0.66439404216E+02  0.00000000000E+00 0. -1.
         -4    1    1    2    0  502 -0.10346885488E+02 -0.41035535445E+02 -0.10570368754E+03  0.11386062870E+03  0.00000000000E+00 0.  1.
<scales pt_clust_5="13000.00000" pt_clust_6="13000.00000" pt_clust_7="13000.00000" pt_clust_8="13000.00000" pt_clust_9="42.31989"></scales>
<clustering>
<clus scale="   42.320">  2  9  1 -1</clus>
<clus scale="   90.395">  7  8 -1 -1</clus>
<clus scale="   91.229">  5  6 -1 -1</clus>
<clus scale="   94.696">  1  7  2 -1</clus>
<clus scale="   42.320">  2  5  1 -1</clus>
</clustering>
</event>
<event>
 9    1  0.1504846E-005  0.1447489E+03  0.7546771E-02  0.1221827E+00
         21   -1    0    0  501  502  0.00000000000E+00  0.00000000000E+00  0.35692671737E+03  0.35692671737E+03  0.00000000000E+00 0. -1.
          1   -1    0    0  502    0 -0.00000000000E+00 -0.00000000000E+00 -0.10901361798E+03  0.10901361798E+03  0.00000000000E+00 0. -1.
         23    2    1    2    0    0 -0.33621478876E+02  0.43833555106E+02  0.26636004253E+01  0.10592480031E+03  0.90339272519E+02 0.  0.
         23    2    1    2    0    0  0.12785553505E+03  0.53346579181E+01  0.14511850945E+03  0.21398887455E+03  0.91413129404E+02 0.  0.
        -13    1    4    4    0    0  0.93154828726E+02  0.13348744028E+02  0.38671792739E+02  0.10174241316E+03  0.00000000000E+00 0. -1.
         13    1    4    4    0    0  0.34700706322E+02 -0.80140861095E+01  0.10644671671E+03  0.11224646138E+03  0.00000000000E+00 0.  1.
        -13    1    3    3    0    0 -0.24531101916E+02  0.64725029241E+02 -0.21727605666E+02  0.72547868469E+02  0.00000000000E+00 0. -1.
         13    1    3    3    0    0 -0.90903769603E+01 -0.20891474135E+02  0.24391206091E+02  0.33376931845E+02  0.00000000000E+00 0.  1.
          1    1    1    2  501    0 -0.94234056172E+02 -0.49168213024E+02  0.10013098951E+03  0.14602666050E+03  0.00000000000E+00 0. -1.
<scales pt_clust_5="13000.00000" pt_clust_6="13000.00000" pt_clust_7="13000.00000" pt_clust_8="13000.00000" pt_clust_9="112.23143"></scales>
<clustering>
<clus scale="   90.339">  7  8 -1 -1</clus>
<clus scale="   91.413">  5  6 -1 -1</clus>
<clus scale="  105.891">  2  7  1 -1</clus>
<clus scale="  112.231">  1  9  2 -1</clus>
<clus scale="  112.231">  1  5  2 -1</clus>
</clustering>
</event>
<event>
 9    1  0.1504846E-005  0.2275061E+03  0.7546771E-02  0.1128626E+00
          1   -1    0    0  502    0 -0.00000000000E+00  0.00000000000E+00  0.31852312012E+03  0.31852312012E+03  0.00000000000E+00 0. -1.
         21   -1    0    0  501  502  0.00000000000E+00 -0.00000000000E+00 -0.24050904792E+03  0.24050904792E+03  0.00000000000E+00 0.  1.
         23    2    1    2    0    0  0.21005301248E+03  0.60163288901E+02  0.13049508753E+03  0.27082163432E+03  0.92593198252E+02 0.  0.
         23    2    1    2    0    0 -0.19086116520E+03 -0.31209464616E+02  0.13598809581E+02  0.21355670461E+03  0.89551791717E+02 0.  0.
        -11    1    3    3    0    0  0.15784642464E+02  0.28015147122E+02  0.46984232471E+02  0.56934361390E+02  0.00000000000E+00 0.  1.
         11    1    3    3    0    0  0.19426837001E+03  0.32148141779E+02  0.83510855055E+02  0.21388727293E+03  0.00000000000E+00 0. -1.
        -11    1    4    4    0    0 -0.95069766231E+02 -0.56618384294E+02 -0.11715775514E+02  0.11127066679E+03  0.00000000000E+00 0.  1.
         11    1    4    4    0    0 -0.95791398967E+02  0.25408919677E+02  0.25314585095E+02  0.10228603782E+03  0.00000000000E+00 0. -1.
          1    1    1    2  501    0 -0.19191847279E+02 -0.28953824285E+02 -0.66079824906E+02  0.74653829120E+02  0.00000000000E+00 0. -1.
<scales pt_clust_5="13000.00000" pt_clust_6="13000.00000" pt_clust_7="13000.00000" pt_clust_8="13000.00000" pt_clust_9="34.73688"></scales>
<clustering>
<clus scale="   34.737">  2  9  1 -1</clus>
<clus scale="   89.552">  7  8 -1 -1</clus>
<clus scale="   92.593">  5  6 -1 -1</clus>
<clus scale="  226.285">  2  7  1 -1</clus>
<clus scale="   34.737">  2  5  1 -1</clus>
</clustering>
</event>
<event>
 9    1  0.1504846E-005  0.1272829E+03  0.7546771E-02  0.1231800E+00
         21   -1    0    0  501  502  0.00000000000E+00  0.00000000000E+00  0.48391416002E+02  0.48391416002E+02  0.00000000000E+00 0. -1.
          2   -1    0    0  502    0 -0.00000000000E+00 -0.00000000000E+00 -0.68587253561E+03  0.68587253561E+03  0.00000000000E+00 0. -1.
         23    2    1    2    0    0 -0.86621902585E+02  0.53625710726E+02 -0.37768430810E+03  0.40223068045E+03  0.93621647329E+02 0.  0.
         23    2    1    2    0    0  0.14099065183E+02 -0.80623858554E+02 -0.19593961148E+03  0.23170279760E+03  0.92708494003E+02 0.  0.
        -11    1    3    3    0    0  0.11511695280E+02  0.25238317521E+02 -0.35093108736E+02  0.44732740586E+02  0.00000000000E+00 0.  1.
         11    1    3    3    0    0 -0.98133597865E+02  0.28387393205E+02 -0.34259119936E+03  0.35749793986E+03  0.00000000000E+00 0. -1.
        -11    1    4    4    0    0  0.34212641669E+02 -0.11520168585E+01 -0.25874387181E+02  0.42910557033E+02  0.00000000000E+00 0.  1.
         11    1    4    4    0    0 -0.20113576487E+02 -0.79471841696E+02 -0.17006522430E+03  0.18879224057E+03  0.00000000000E+00 0. -1.
          2    1    1    2  501    0  0.72522837402E+02  0.26998147828E+02 -0.63857200026E+02  0.10033047357E+03  0.00000000000E+00 0. -1.
<scales pt_clust_5="13000.00000" pt_clust_6="13000.00000" pt_clust_7="13000.00000" pt_clust_8="13000.00000" pt_clust_9="77.38515"></scales>
<clustering>
<clus scale="   77.385">  1  9  2 -1</clus>
<clus scale="   92.708">  7  8 -1 -1</clus>
<clus scale="   93.622">  5  6 -1 -1</clus>
<clus scale="  126.613">  1  7  2 -1</clus>
<clus scale="   77.385">  1  5  2 -1</clus>
</clustering>
</event>
<event>
 9    1  0.1504846E-005  0.2318203E+03  0.7546771E-02  0.1125744E+00
         21   -1    0    0  501  502  0.00000000000E+00  0.00000000000E+00  0.86549121319E+03  0.86549121319E+03  0.00000000000E+00 0.  1.
          2   -1    0    0  502    0 -0.00000000000E+00 -0.00000000000E+00 -0.77389850490E+02  0.77389850490E+02  0.00000000000E+00 0. -1.
         23    2    1    2    0    0  0.13994866076E+03  0.15725026278E+03  0.32465280081E+03  0.39732209781E+03  0.90289177287E+02 0.  0.
         23    2    1    2    0    0 -0.17375881858E+03 -0.12559404737E+03  0.33548263308E+03  0.40946884250E+03  0.95656385600E+02 0.  0.
        -11    1    3    3    0    0 -0.13003756843E+02  0.17800584974E+02  0.33146698373E+02  0.39807814942E+02  0.00000000000E+00 0.  1.
         11    1    3    3    0    0  0.15295241760E+03  0.13944967781E+03  0.29150610244E+03  0.35751428286E+03  0.00000000000E+00 0. -1.
        -13    1    4    4    0    0 -0.52241951371E+02 -0.89188515146E+02  0.11136048197E+03  0.15193738731E+03  0.00000000000E+00 0. -1.
         13    1    4    4    0    0 -0.12151686721E+03 -0.36405532225E+02  0.22412215111E+03  0.25753145519E+03  0.00000000000E+00 0.  1.
          2    1    1    2  501    0  0.33810157822E+02 -0.31656215412E+02  0.12796592880E+03  0.13609012337E+03  0.00000000000E+00 0. -1.
<scales pt_clust_5="13000.00000" pt_clust_6="13000.00000" pt_clust_7="13000.00000" pt_clust_8="13000.00000" pt_clust_9="46.31677"></scales>
<clustering>
<clus scale="   46.317">  1  9  2 -1</clus>
<clus scale="   90.289">  5  6 -1 -1</clus>
<clus scale="   95.656">  7  8 -1 -1</clus>
<clus scale="  229.658">  2  5  1 -1</clus>
<clus scale="   46.317">  1  5  2 -1</clus>
</clustering>
</event>
<event>
 9    1  0.1504846E-005  0.9587762E+02  0.7546771E-02  0.1290750E+00
         -1   -1    0    0    0  501 -0.00000000000E+00  0.00000000000E+00  0.15114295850E+03  0.15114295850E+03  0.00000000000E+00 0.  1.
         21   -1    0    0  501  502  0.00000000000E+00 -0.00000000000E+00 -0.27439305135E+03  0.27439305135E+03  0.00000000000E+00 0.  1.
         23    2    1    2    0    0 -0.15817619072E+01  0.28560136407E+02  0.62161363715E+02  0.11396121230E+03  0.91131440285E+02 0.  0.
         23    2    1    2    0    0 -0.38562830383E+02  0.10719706118E+02  0.15233813790E+02  0.10321688712E+03  0.93913006111E+02 0.  0.
        -11    1    3    3    0    0  0.23288357626E+02  0.42663744578E+02  0.69154637995E+02  0.84527549702E+02  0.00000000000E+00 0. -1.
         11    1    3    3    0    0 -0.24870119533E+02 -0.14103608171E+02 -0.69932742801E+01  0.29433662602E+02  0.00000000000E+00 0.  1.
        -11    1    4    4    0    0 -0.41582531921E+02  0.37134099177E+02 -0.19866891492E+02  0.59183964553E+02  0.00000000000E+00 0. -1.
         11    1    4    4    0    0  0.30197015383E+01 -0.26414393060E+02  0.35100705282E+02  0.44032922562E+02  0.00000000000E+00 0.  1.
         -1    1    1    2    0  502  0.40144592290E+02 -0.39279842525E+02 -0.20064527036E+03  0.20835791042E+03  0.00000000000E+00 0.  1.
<scales pt_clust_5="13000.00000" pt_clust_6="13000.00000" pt_clust_7="13000.00000" pt_clust_8="13000.00000" pt_clust_9="56.16489"></scales>
<clustering>
<clus scale="   56.165">  2  9  1 -1</clus>
<clus scale="   91.131">  5  6 -1 -1</clus>
<clus scale="   93.155">  1  5  2 -1</clus>
<clus scale="   93.913">  7  8 -1 -1</clus>
<clus scale="   56.165">  2  5  1 -1</clus>
</clustering>
</event>
<event>
 9    1  0.1504846E-005  0.1011517E+03  0.7546771E-02  0.1278284E+00
         21   -1    0    0  501  502  0.00000000000E+00  0.00000000000E+00  0.18450900378E+02  0.18450900378E+02  0.00000000000E+00 0. -1.
         -1   -1    0    0    0  501 -0.00000000000E+00 -0.00000000000E+00 -0.71047223036E+03  0.71047223036E+03  0.00000000000E+00 0.  1.
         23    2    1    2    0    0  0.29676736781E+02 -0.26323173667E+02 -0.36838161747E+03  0.38205125936E+03  0.93190828453E+02 0.  0.
         23    2    1    2    0    0 -0.10523006824E+02  0.36314952974E+02 -0.28672109811E+03  0.30409705269E+03  0.94002765219E+02 0.  0.
        -11    1    3    3    0    0  0.22156218191E+02 -0.59109050870E+02 -0.18143794321E+03  0.19210545316E+03  0.00000000000E+00 0.  1.
         11    1    3    3    0    0  0.75205185902E+01  0.32785877203E+02 -0.18694367426E+03  0.18994580620E+03  0.00000000000E+00 0. -1.
        -13    1    4    4    0    0 -0.45628036117E+02  0.34607637508E+02 -0.23274279406E+03  0.23968482314E+03  0.00000000000E+00 0.  1.
         13    1    4    4    0    0  0.35105029293E+02  0.17073154662E+01 -0.53978304048E+02  0.64412229551E+02  0.00000000000E+00 0. -1.
         -1    1    1    2    0  502 -0.19153729957E+02 -0.99917793069E+01 -0.36918614395E+02  0.42774818689E+02  0.00000000000E+00 0.  1.
<scales pt_clust_5="13000.00000" pt_clust_6="13000.00000" pt_clust_7="13000.00000" pt_clust_8="13000.00000" pt_clust_9="21.60326"></scales>
<clustering>
<clus scale="   21.603">  1  9  2 -1</clus>
<clus scale="   93.191">  5  6 -1 -1</clus>
<clus scale="   94.003">  7  8 -1 -1</clus>
<clus scale="  100.398">  2  5  1 -1</clus>
<clus scale="   21.603">  1  5  2 -1</clus>
</clustering>
</event>
<event>
 9    1  0.1504846E-005  0.1449543E+03  0.7546771E-02  0.1226947E+00
         21   -1    0    0  501  502  0.00000000000E+00  0.00000000000E+00  0.14818685351E+03  0.14818685351E+03  0.00000000000E+00 0. -1.
          2   -1    0    0  502    0 -0.00000000000E+00 -0.00000000000E+00 -0.31740070920E+03  0.31740070920E+03  0.00000000000E+00 0. -1.
         23    2    1    2    0    0 -0.24415055042E+02 -0.40765383610E+01 -0.93524737747E+02  0.13314642022E+03  0.91478847653E+02 0.  0.
         23    2    1    2    0    0  0.99382331416E+02  0.86588599896E+02 -0.13295434396E+03  0.20711102267E+03  0.88564579286E+02 0.  0.
        -13    1    4    4    0    0  0.25981129773E+02  0.31115811768E+02  0.54654023048E+01  0.40903343001E+02  0.00000000000E+00 0.  1.
         13    1    4    4    0    0  0.73401201643E+02  0.55472788128E+02 -0.13841974626E+03  0.16620767967E+03  0.00000000000E+00 0. -1.
        -13    1    3    3    0    0  0.27928357209E+02 -0.24069583982E+02 -0.50373336589E+02  0.62424442718E+02  0.00000000000E+00 0.  1.
         13    1    3    3    0    0 -0.52343412252E+02  0.19993045621E+02 -0.43151401158E+02  0.70721977498E+02  0.00000000000E+00 0. -1.
          2    1    1    2  501    0 -0.74967276374E+02 -0.82512061535E+02  0.57265226007E+02  0.12533011983E+03  0.00000000000E+00 0. -1.
<scales pt_clust_5="13000.00000" pt_clust_6="13000.00000" pt_clust_7="13000.00000" pt_clust_8="13000.00000" pt_clust_9="114.75219"></scales>
<clustering>
<clus scale="   88.565">  5  6 -1 -1</clus>
<clus scale="   91.479">  7  8 -1 -1</clus>
<clus scale="   94.769">  2  7  1 -1</clus>
<clus scale="  114.752">  1  9  2 -1</clus>
<clus scale="  114.752">  1  5  2 -1</clus>
</clustering>
</event>
<event>
 9    1  0.1504846E-005  0.1015851E+03  0.7546771E-02  0.1277904E+00
         21   -1    0    0  501  502  0.00000000000E+00  0.00000000000E+00  0.44469350477E+02  0.44469350477E+02  0.00000000000E+00 0. -1.
          2   -1    0    0  502    0 -0.00000000000E+00 -0.00000000000E+00 -0.56997190106E+03  0.56997190106E+03  0.00000000000E+00 0. -1.
         23    2    1    2    0    0 -0.23936369302E+02 -0.30903501720E+02 -0.21025370047E+03  0.23059109538E+03  0.86241860564E+02 0.  0.
         23    2    1    2    0    0  0.45149137967E+02  0.72924052047E+02 -0.86787244784E+02  0.15058975807E+03  0.88254673268E+02 0.  0.
        -13    1    3    3    0    0  0.20515905377E+02 -0.38508748767E+02 -0.63361300135E+02  0.76931660972E+02  0.00000000000E+00 0.  1.
         13    1    3    3    0    0 -0.44452274679E+02  0.76052470465E+01 -0.14689240034E+03  0.15365943441E+03  0.00000000000E+00 0. -1.
        -13    1    4    4    0    0 -0.14612441775E+02  0.48154633981E+02 -0.12054205747E+02  0.51746459828E+02  0.00000000000E+00 0.  1.
         13    1    4    4    0    0  0.59761579743E+02  0.24769418065E+02 -0.74733039037E+02  0.98843298247E+02  0.00000000000E+00 0. -1.
          2    1    1    2  501    0 -0.21212768665E+02 -0.42020550326E+02 -0.22846160533E+03  0.23326039808E+03  0.00000000000E+00 0. -1.
<scales pt_clust_5="13000.00000" pt_clust_6="13000.00000" pt_clust_7="13000.00000" pt_clust_8="13000.00000" pt_clust_9="47.07133"></scales>
<clustering>
<clus scale="   47.071">  1  9  2 -1</clus>
<clus scale="   86.242">  5  6 -1 -1</clus>
<clus scale="   88.255">  7  8 -1 -1</clus>
<clus scale="   99.841">  2  5  1 -1</clus>
<clus scale="   47.071">  1  5  2 -1</clus>
</clustering>
</event>
<event>
 9    1  0.1504846E-005  0.9186537E+02  0.7546771E-02  0.1299514E+00
          1   -1    0    0  502    0 -0.00000000000E+00  0.00000000000E+00  0.41427666430E+03  0.41427666430E+03  0.00000000000E+00 0. -1.
         21   -1    0    0  501  502  0.00000000000E+00 -0.00000000000E+00 -0.12014421153E+03  0.12014421153E+03  0.00000000000E+00 0. -1.
         23    2    1    2    0    0  0.19908235992E+02  0.98812872641E+01  0.29769970140E+03  0.31140507177E+03  0.88622958693E+02 0.  0.
         23    2    1    2    0    0  0.10111477784E+01  0.42465567837E+01  0.89026206725E+02  0.12704307580E+03  0.90527465222E+02 0.  0.
        -11    1    3    3    0    0  0.33382448987E+02 -0.31085384236E+02  0.11573229963E+03  0.12439716311E+03  0.00000000000E+00 0.  1.
         11    1    3    3    0    0 -0.13474212996E+02  0.40966671500E+02  0.18196740178E+03  0.18700790865E+03  0.00000000000E+00 0. -1.
        -13    1    4    4    0    0 -0.18451305970E+02 -0.31131712022E+02  0.88227189449E+01  0.37248819511E+02  0.00000000000E+00 0. -1.
         13    1    4    4    0    0  0.19462453748E+02  0.35378268805E+02  0.80203487780E+02  0.89794256284E+02  0.00000000000E+00 0.  1.
          1    1    1    2  501    0 -0.20919383770E+02 -0.14127844048E+02 -0.92593455361E+02  0.95972728264E+02  0.00000000000E+00 0. -1.
<scales pt_clust_5="13000.00000" pt_clust_6="13000.00000" pt_clust_7="13000.00000" pt_clust_8="13000.00000" pt_clust_9="25.24315"></scales>
<clustering>
<clus scale="   25.243">  2  9  1 -1</clus>
<clus scale="   88.623">  5  6 -1 -1</clus>
<clus scale="   89.989">  1  5  2 -1</clus>
<clus scale="   90.527">  7  8 -1 -1</clus>
<clus scale="   25.243">  2  5  1 -1</clus>
</clustering>
</event>
<event>
 9    1  0.1504846E-005  0.1099532E+03  0.7546771E-02  0.1265111E+00
          1   -1    0    0  502    0 -0.00000000000E+00  0.00000000000E+00  0.35000402749E+03  0.35000402749E+03  0.00000000000E+00 0. -1.
         21   -1    0    0  501  502  0.00000000000E+00 -0.00000000000E+00 -0.22826292694E+03  0.22826292694E+03  0.00000000000E+00 0. -1.
         23    2    1    2    0    0  0.39072757635E+02 -0.93650461119E+01  0.27277848333E+03  0.29165041249E+03  0.95065649219E+02 0.  0.
         23    2    1    2    0    0  0.96879841776E+01 -0.67004710100E+02 -0.18521738408E+02  0.12608509452E+03  0.10474210259E+03 0.  0.
        -11    1    4    4    0    0 -0.31912293965E+02  0.13066973180E+02 -0.51143890349E+01  0.34861114001E+02  0.00000000000E+00 0.  1.
         11    1    4    4    0    0  0.41600278143E+02 -0.80071683280E+02 -0.13407349373E+02  0.91223980521E+02  0.00000000000E+00 0. -1.
        -13    1    3    3    0    0 -0.19700221964E+01  0.26418921712E+02  0.20323634668E+02  0.33389976609E+02  0.00000000000E+00 0.  1.
         13    1    3    3    0    0  0.41042779831E+02 -0.35783967824E+02  0.25245484866E+03  0.25826043588E+03  0.00000000000E+00 0. -1.
          1    1    1    2  501    0 -0.48760741812E+02  0.76369756212E+02 -0.13251564438E+03  0.16053144742E+03  0.00000000000E+00 0. -1.
<scales pt_clust_5="13000.00000" pt_clust_6="13000.00000" pt_clust_7="13000.00000" pt_clust_8="13000.00000" pt_clust_9="90.60877"></scales>
<clustering>
<clus scale="   90.609">  2  9  1 -1</clus>
<clus scale="   95.066">  7  8 -1 -1</clus>
<clus scale="  100.778">  1  7  2 -1</clus>
<clus scale="  104.742">  5  6 -1 -1</clus>
<clus scale="   90.609">  2  5  1 -1</clus>
</clustering>
</event>
<event>
 9    1  0.1504846E-005  0.1231654E+03  0.7546771E-02  0.1239287E+00
          2   -1    0    0  502    0 -0.00000000000E+00  0.00000000000E+00  0.28158860629E+03  0.28158860629E+03  0.00000000000E+00 0. -1.
         21   -1    0    0  501  502  0.00000000000E+00 -0.00000000000E+00 -0.23267864668E+03  0.23267864668E+03  0.00000000000E+00 0. -1.
         23    2    1    2    0    0  0.32340791015E+02  0.69672690626E+02  0.22036006583E+03  0.25167340562E+03  0.94237645873E+02 0.  0.
         23    2    1    2    0    0 -0.18495945239E+02 -0.96048091539E+02 -0.57426807199E+02  0.14474371265E+03  0.89919788081E+02 0.  0.
        -13    1    3    3    0    0  0.50723053891E+02  0.77967463278E+02  0.13485292425E+03  0.16382022069E+03  0.00000000000E+00 0. -1.
         13    1    3    3    0    0 -0.18382262876E+02 -0.82947726524E+01  0.85507141578E+02  0.87853184931E+02  0.00000000000E+00 0.  1.
        -13    1    4    4    0    0 -0.45501088492E+02 -0.93108062309E+02 -0.34579511352E+02  0.10924835434E+03  0.00000000000E+00 0. -1.
         13    1    4    4    0    0  0.27005143254E+02 -0.29400292297E+01 -0.22847295848E+02  0.35495358310E+02  0.00000000000E+00 0.  1.
          2    1    1    2  501    0 -0.13844845776E+02  0.26375400913E+02 -0.11402329903E+03  0.11785013470E+03  0.00000000000E+00 0. -1.
<scales pt_clust_5="13000.00000" pt_clust_6="13000.00000" pt_clust_7="13000.00000" pt_clust_8="13000.00000" pt_clust_9="29.78828"></scales>
<clustering>
<clus scale="   29.788">  2  9  1 -1</clus>
<clus scale="   89.920">  7  8 -1 -1</clus>
<clus scale="   94.238">  5  6 -1 -1</clus>
<clus scale="  119.894">  2  7  1 -1</clus>
<clus scale="   29.788">  2  5  1 -1</clus>
</clustering>
</event>
<event>
 9    1  0.1504846E-005  0.1010345E+03  0.7546771E-02  0.1278762E+00
         21   -1    0    0  501  502  0.00000000000E+00  0.00000000000E+00  0.16430423611E+03  0.16430423611E+03  0.00000000000E+00 0.  1.
          2   -1    0    0  502    0 -0.00000000000E+00 -0.00000000000E+00 -0.93580026442E+02  0.93580026442E+02  0.00000000000E+00 0. -1.
         23    2    1    2    0    0  0.17859806846E+02  0.44439175873E+02  0.12348709866E+02  0.10496032693E+03  0.92576274177E+02 0.  0.
         23    2    1    2    0    0  0.15286706271E+02 -0.36309850375E+02  0.19689544688E+02  0.10133536724E+03  0.91263847503E+02 0.  0.
        -13    1    3    3    0    0  0.18905646350E+02  0.20619495957E+02  0.51795784174E+02  0.58867566075E+02  0.00000000000E+00 0.  1.
         13    1    3    3    0    0 -0.10458395045E+01  0.23819679915E+02 -0.39447074308E+02  0.46092760852E+02  0.00000000000E+00 0. -1.
        -13    1    4    4    0    0  0.52626102314E+02 -0.27237914503E+02  0.21051951728E+02  0.62885573089E+02  0.00000000000E+00 0.  1.
         13    1    4    4    0    0 -0.37339396044E+02 -0.90719358723E+01 -0.13624070394E+01  0.38449794152E+02  0.00000000000E+00 0. -1.
          2    1    1    2  501    0 -0.33146513116E+02 -0.81293254973E+01  0.38685955113E+02  0.51588568383E+02  0.00000000000E+00 0. -1.
<scales pt_clust_5="13000.00000" pt_clust_6="13000.00000" pt_clust_7="13000.00000" pt_clust_8="13000.00000" pt_clust_9="34.12883"></scales>
<clustering>
<clus scale="   34.129">  1  9  2 -1</clus>
<clus scale="   91.264">  7  8 -1 -1</clus>
<clus scale="   92.576">  5  6 -1 -1</clus>
<clus scale="   99.833">  1  7  2 -1</clus>
<clus scale="   34.129">  1  5  2 -1</clus>
</clustering>
</event>
<event>
 9    1  0.1504846E-005  0.1035784E+03  0.7546771E-02  0.1277170E+00
          4   -1    0    0  502    0 -0.00000000000E+00  0.00000000000E+00  0.28648623653E+02  0.28648623653E+02  0.00000000000E+00 0. -1.
         21   -1    0    0  501  502  0.00000000000E+00 -0.00000000000E+00 -0.65632715640E+03  0.65632715640E+03  0.00000000000E+00 0.  1.
         23    2    1    2    0    0 -0.20584123279E+02 -0.90572231900E+01 -0.14678371100E+03  0.17329914468E+03  0.89338660769E+02 0.  0.
         23    2    1    2    0    0  0.25025267731E+02  0.47924008369E+02 -0.20958496444E+03  0.23756098565E+03  0.97910111728E+02 0.  0.
        -11    1    4    4    0    0  0.43905175349E+01  0.76382566636E+02 -0.14981094343E+03  0.16821680030E+03  0.00000000000E+00 0. -1.
         11    1    4    4    0    0  0.20634750196E+02 -0.28458558267E+02 -0.59774021011E+02  0.69344185352E+02  0.00000000000E+00 0.  1.
        -13    1    3    3    0    0  0.33830107174E+01  0.21088873037E+02 -0.12921558385E+03  0.13096889874E+03  0.00000000000E+00 0.  1.
         13    1    3    3    0    0 -0.23967133996E+02 -0.30146096227E+02 -0.17568127152E+02  0.42330245940E+02  0.00000000000E+00 0. -1.
          4    1    1    2  501    0 -0.44411444520E+01 -0.38866785179E+02 -0.27130985730E+03  0.27411564973E+03  0.00000000000E+00 0. -1.
<scales pt_clust_5="13000.00000" pt_clust_6="13000.00000" pt_clust_7="13000.00000" pt_clust_8="13000.00000" pt_clust_9="39.11970"></scales>
<clustering>
<clus scale="   39.120">  2  9  1 -1</clus>
<clus scale="   89.339">  7  8 -1 -1</clus>
<clus scale="   95.517">  1  7  2 -1</clus>
<clus scale="   97.910">  5  6 -1 -1</clus>
<clus scale="   39.120">  2  5  1 -1</clus>
</clustering>
</event>
<event>
 9    1  0.1504846E-005  0.1156494E+03  0.7546771E-02  0.1250503E+00
         21   -1    0    0  501  502  0.00000000000E+00  0.00000000000E+00  0.48967893809E+02  0.48967893809E+02  0.00000000000E+00 0.  1.
          1   -1    0    0  502    0 -0.00000000000E+00 -0.00000000000E+00 -0.68294567411E+03  0.68294567411E+03  0.00000000000E+00 0. -1.
         23    2    1    2    0    0  0.82043792539E+01 -0.75100636655E+02 -0.49299121972E+03  0.50720718427E+03  0.92257073339E+02 0.  0.
         23    2    1    2    0    0 -0.42654664321E+02  0.46030816901E+02 -0.14067660878E+03  0.17962897654E+03  0.92403487280E+02 0.  0.
        -11    1    4    4    0    0 -0.29542667360E+02  0.72157671438E+02 -0.77098844585E+02  0.10965277278E+03  0.00000000000E+00 0.  1.
         11    1    4    4    0    0 -0.13111996960E+02 -0.26126854537E+02 -0.63577764195E+02  0.69976203757E+02  0.00000000000E+00 0. -1.
        -13    1    3    3    0    0 -0.33213389454E+02 -0.68643137033E+02 -0.28440815034E+03  0.29445374082E+03  0.00000000000E+00 0.  1.
         13    1    3    3    0    0  0.41417768708E+02 -0.64574996220E+01 -0.20858306938E+03  0.21275344345E+03  0.00000000000E+00 0. -1.
          1    1    1    2  501    0  0.34450285067E+02  0.29069819754E+02 -0.30995179320E+00  0.45077407111E+02  0.00000000000E+00 0. -1.
<scales pt_clust_5="13000.00000" pt_clust_6="13000.00000" pt_clust_7="13000.00000" pt_clust_8="13000.00000" pt_clust_9="45.07634"></scales>
<clustering>
<clus scale="   45.076">  1  9  2 -1</clus>
<clus scale="   92.257">  7  8 -1 -1</clus>
<clus scale="   92.403">  5  6 -1 -1</clus>
<clus scale="  115.532">  2  7  1 -1</clus>
<clus scale="   45.076">  1  5  2 -1</clus>
</clustering>
</event>
<event>
 9    1  0.1504846E-005  0.1111098E+03  0.7546771E-02  0.1264422E+00
          2   -1    0    0  502    0 -0.00000000000E+00  0.00000000000E+00  0.38392325488E+03  0.38392325488E+03  0.00000000000E+00 0. -1.
         21   -1    0    0  501  502  0.00000000000E+00 -0.00000000000E+00 -0.53709654036E+02  0.53709654036E+02  0.00000000000E+00 0.  1.
         23    2    1    2    0    0  0.35249422547E+02  0.21552528452E+02  0.22396959792E+03  0.24554891788E+03  0.91787019820E+02 0.  0.
         23    2    1    2    0    0 -0.14428639711E+02 -0.28970273828E+02  0.12268717151E+03  0.16453574722E+03  0.10474926086E+03 0.  0.
        -11    1    3    3    0    0  0.11316161384E+02  0.54077551244E+02  0.16559255051E+03  0.17456611883E+03  0.00000000000E+00 0.  1.
         11    1    3    3    0    0  0.23933261163E+02 -0.32525022792E+02  0.58377047406E+02  0.70982799053E+02  0.00000000000E+00 0. -1.
        -13    1    4    4    0    0 -0.32449778283E+02  0.25645754690E+02  0.88351775517E+02  0.97553724077E+02  0.00000000000E+00 0.  1.
         13    1    4    4    0    0  0.18021138572E+02 -0.54616028518E+02  0.34335395989E+02  0.66982023142E+02  0.00000000000E+00 0. -1.
          2    1    1    2  501    0 -0.20820782836E+02  0.74177453762E+01 -0.16443168582E+02  0.27548243817E+02  0.00000000000E+00 0. -1.
<scales pt_clust_5="13000.00000" pt_clust_6="13000.00000" pt_clust_7="13000.00000" pt_clust_8="13000.00000" pt_clust_9="22.10267"></scales>
<clustering>
<clus scale="   22.103">  2  9  1 -1</clus>
<clus scale="   91.787">  5  6 -1 -1</clus>
<clus scale="   98.984">  1  5  2 -1</clus>
<clus scale="  104.749">  7  8 -1 -1</clus>
<clus scale="   22.103">  2  5  1 -1</clus>
</clustering>
</event>
<event>
 9    1  0.1504846E-005  0.9170638E+02  0.7546771E-02  0.1299112E+00
          2   -1    0    0  502    0 -0.00000000000E+00  0.00000000000E+00  0.25738292136E+03  0.25738292136E+03  0.00000000000E+00 0. -1.
         21   -1    0    0  501  502  0.00000000000E+00 -0.00000000000E+00 -0.14713208394E+03  0.14713208394E+03  0.00000000000E+00 0.  1.
         23    2    1    2    0    0  0.52656098736E+01 -0.11827203152E+02  0.19339914202E+03  0.21352863630E+03  0.89574778834E+02 0.  0.
         23    2    1    2    0    0 -0.30854461618E+02  0.21488726431E+02  0.58678119730E+01  0.97862777068E+02  0.90160572052E+02 0.  0.
        -11    1    4    4    0    0  0.40380986639E+01  0.45468720313E+02 -0.18222657774E+02  0.49150544495E+02  0.00000000000E+00 0.  1.
         11    1    4    4    0    0 -0.34892560282E+02 -0.23979993883E+02  0.24090469747E+02  0.48712232574E+02  0.00000000000E+00 0. -1.
        -13    1    3    3    0    0 -0.34841195447E+02 -0.39003996143E+01  0.33518392706E+02  0.48503656222E+02  0.00000000000E+00 0.  1.
         13    1    3    3    0    0  0.40106805321E+02 -0.79268035374E+01  0.15988074932E+03  0.16502498008E+03  0.00000000000E+00 0. -1.
          2    1    1    2  501    0  0.25588851745E+02 -0.96615232789E+01 -0.89016116566E+02  0.93123591932E+02  0.00000000000E+00 0. -1.
<scales pt_clust_5="13000.00000" pt_clust_6="13000.00000" pt_clust_7="13000.00000" pt_clust_8="13000.00000" pt_clust_9="27.35204"></scales>
<clustering>
<clus scale="   27.352">  2  9  1 -1</clus>
<clus scale="   89.575">  7  8 -1 -1</clus>
<clus scale="   90.161">  5  6 -1 -1</clus>
<clus scale="   91.131">  1  7  2 -1</clus>
<clus scale="   27.352">  2  5  1 -1</clus>
</clustering>
</event>
<event>
 9    1  0.1504846E-005  0.9962538E+02  0.7546771E-02  0.1282399E+00
         -2   -1    0    0    0  501 -0.00000000000E+00  0.00000000000E+00  0.66630686977E+03  0.66630686977E+03  0.00000000000E+00 0.  1.
         21   -1    0    0  501  502  0.00000000000E+00 -0.00000000000E+00 -0.84433897356E+02  0.84433897356E+02  0.00000000000E+00 0.  1.
         23    2    1    2    0    0  0.39360039603E+02 -0.41519216402E+01  0.56909190363E+03  0.57792207525E+03  0.92530422626E+02 0.  0.
         23    2    1    2    0    0  0.11847379576E+01 -0.31964966200E+02 -0.33862280425E+02  0.10123719566E+03  0.89884109173E+02 0.  0.
        -11    1    3    3    0    0 -0.10444823532E+02 -0.38661296465E+02  0.22640336902E+03  0.22991797600E+03  0.00000000000E+00 0. -1.
         11    1    3    3    0    0  0.49804863135E+02  0.34509374825E+02  0.34268853461E+03  0.34800409925E+03  0.00000000000E+00 0.  1.
        -13    1    4    4    0    0  0.40247499190E+02  0.42620982980E+01 -0.24008850675E+02  0.47057959833E+02  0.00000000000E+00 0.  1.
         13    1    4    4    0    0 -0.39062761232E+02 -0.36227064498E+02 -0.98534297503E+01  0.54179235829E+02  0.00000000000E+00 0. -1.
         -2    1    1    2    0  502 -0.40544777561E+02  0.36116887840E+02  0.46643349208E+02  0.71581496212E+02  0.00000000000E+00 0.  1.
<scales pt_clust_5="13000.00000" pt_clust_6="13000.00000" pt_clust_7="13000.00000" pt_clust_8="13000.00000" pt_clust_9="54.29833"></scales>
<clustering>
<clus scale="   54.298">  2  9  1 -1</clus>
<clus scale="   89.884">  7  8 -1 -1</clus>
<clus scale="   92.530">  5  6 -1 -1</clus>
<clus scale="   97.172">  2  7  1 -1</clus>
<clus scale="   54.298">  2  5  1 -1</clus>
</clustering>
</event>
<event>
 9    1  0.1504846E-005  0.2274876E+03  0.7546771E-02  0.1129336E+00
         21   -1    0    0  501  502  0.00000000000E+00  0.00000000000E+00  0.11172320140E+04  0.11172320140E+04  0.00000000000E+00 0.  1.
          4   -1    0    0  502    0 -0.00000000000E+00 -0.00000000000E+00 -0.53971188936E+02  0.53971188936E+02  0.00000000000E+00 0. -1.
         23    2    1    2    0    0  0.18874935219E+03  0.54125735342E+02  0.51379680866E+03  0.55784187936E+03  0.92975742011E+02 0.  0.
         23    2    1    2    0    0 -0.20549629530E+03 -0.35945104808E+02  0.53737252324E+03  0.58584406288E+03  0.10451439772E+03 0.  0.
        -11    1    3    3    0    0  0.78996959249E+02  0.48583528698E+02  0.33826906748E+03  0.35075182230E+03  0.00000000000E+00 0.  1.
         11    1    3    3    0    0  0.10975239294E+03  0.55422066437E+01  0.17552774118E+03  0.20709005706E+03  0.00000000000E+00 0. -1.
        -11    1    4    4    0    0 -0.16644644813E+03  0.46514879978E+01  0.46641466298E+03  0.49524609466E+03  0.00000000000E+00 0.  1.
         11    1    4    4    0    0 -0.39049847174E+02 -0.40596592806E+02  0.70957860262E+02  0.90597968215E+02  0.00000000000E+00 0. -1.
          4    1    1    2  501    0  0.16746943106E+02 -0.18180630534E+02  0.12091493181E+02  0.27517260717E+02  0.00000000000E+00 0. -1.
<scales pt_clust_5="13000.00000" pt_clust_6="13000.00000" pt_clust_7="13000.00000" pt_clust_8="13000.00000" pt_clust_9="24.71833"></scales>
<clustering>
<clus scale="   24.718">  1  9  2 -1</clus>
<clus scale="   92.976">  5  6 -1 -1</clus>
<clus scale="  104.514">  7  8 -1 -1</clus>
<clus scale="  222.423">  2  5  1 -1</clus>
<clus scale="   24.718">  1  5  2 -1</clus>
</clustering>
</event>
<event>
 9    1  0.1504846E-005  0.9930554E+02  0.7546771E-02  0.1282219E+00
         21   -1    0    0  501  502  0.00000000000E+00  0.00000000000E+00  0.55784621852E+02  0.55784621852E+02  0.00000000000E+00 0.  1.
          2   -1    0    0  502    0 -0.00000000000E+00 -0.00000000000E+00 -0.40112192953E+03  0.40112192953E+03  0.00000000000E+00 0. -1.
         23    2    1    2    0    0  0.33132390607E+02  0.26921720252E+02 -0.27297750286E+03  0.29068508080E+03  0.90324774032E+02 0.  0.
         23    2    1    2    0    0 -0.24008037299E+02 -0.38489951597E+01 -0.51511713273E+01  0.94579270153E+02  0.91255154145E+02 0.  0.
        -11    1    4    4    0    0 -0.48287480224E+02 -0.17201022622E+02  0.22003847082E+02  0.55782839764E+02  0.00000000000E+00 0.  1.
         11    1    4    4    0    0  0.24279442926E+02  0.13352027462E+02 -0.27155018409E+02  0.38796430389E+02  0.00000000000E+00 0. -1.
        -11    1    3    3    0    0 -0.24513342007E+02 -0.14501663459E+02 -0.66366511769E+02  0.72219914593E+02  0.00000000000E+00 0.  1.
         11    1    3    3    0    0  0.57645732614E+02  0.41423383710E+02 -0.20661099109E+03  0.21846516620E+03  0.00000000000E+00 0. -1.
          2    1    1    2  501    0 -0.91243533082E+01 -0.23072725092E+02 -0.67208633492E+02  0.71642200429E+02  0.00000000000E+00 0. -1.
<scales pt_clust_5="13000.00000" pt_clust_6="13000.00000" pt_clust_7="13000.00000" pt_clust_8="13000.00000" pt_clust_9="24.81139"></scales>
<clustering>
<clus scale="   24.811">  1  9  2 -1</clus>
<clus scale="   90.325">  7  8 -1 -1</clus>
<clus scale="   91.255">  5  6 -1 -1</clus>
<clus scale="   98.451">  2  7  1 -1</clus>
<clus scale="   24.811">  1  5  2 -1</clus>
</clustering>
</event>
<event>
 9    1  0.1504846E-005  0.1238039E+03  0.7546771E-02  0.1236981E+00
         21   -1    0    0  501  502  0.00000000000E+00  0.00000000000E+00  0.63345361453E+02  0.63345361453E+02  0.00000000000E+00 0. -1.
          2   -1    0    0  502    0 -0.00000000000E+00 -0.00000000000E+00 -0.38796148824E+03  0.38796148824E+03  0.00000000000E+00 0. -1.
         23    2    1    2    0    0 -0.79743487216E+02 -0.21465782910E+02 -0.26150856110E+03  0.28909769732E+03  0.91492882129E+02 0.  0.
         23    2    1    2    0    0  0.87121878254E+02  0.19171023864E+01 -0.63134748037E+02  0.14131436107E+03  0.91596153212E+02 0.  0.
        -13    1    3    3    0    0 -0.44169383996E+02  0.34239590010E+02 -0.14065325915E+03  0.15134934198E+03  0.00000000000E+00 0. -1.
         13    1    3    3    0    0 -0.35574103220E+02 -0.55705372920E+02 -0.12085530194E+03  0.13774835534E+03  0.00000000000E+00 0.  1.
        -13    1    4    4    0    0  0.53491300035E+02  0.43196299983E+02 -0.16909753819E+02  0.70803808414E+02  0.00000000000E+00 0.  1.
         13    1    4    4    0    0  0.33630578219E+02 -0.41279197597E+02 -0.46224994218E+02  0.70510552657E+02  0.00000000000E+00 0. -1.
          2    1    1    2  501    0 -0.73783910384E+01  0.19548680523E+02  0.27182350111E-01  0.20894791298E+02  0.00000000000E+00 0. -1.
<scales pt_clust_5="13000.00000" pt_clust_6="13000.00000" pt_clust_7="13000.00000" pt_clust_8="13000.00000" pt_clust_9="20.89477"></scales>
<clustering>
<clus scale="   20.895">  1  9  2 -1</clus>
<clus scale="   91.493">  5  6 -1 -1</clus>
<clus scale="   91.596">  7  8 -1 -1</clus>
<clus scale="  123.727">  2  5  1 -1</clus>
<clus scale="   20.895">  1  5  2 -1</clus>
</clustering>
</event>
<event>
 9    1  0.1504846E-005  0.9633202E+02  0.7546771E-02  0.1289811E+00
         21   -1    0    0  501  502  0.00000000000E+00  0.00000000000E+00  0.27353866428E+02  0.27353866428E+02  0.00000000000E+00 0. -1.
         -3   -1    0    0    0  501 -0.00000000000E+00 -0.00000000000E+00 -0.49836009408E+03  0.49836009408E+03  0.00000000000E+00 0.  1.
         23    2    1    2    0    0  0.24825799351E+02 -0.13351445441E+02 -0.24627780240E+03  0.26434243022E+03  0.91812760816E+02 0.  0.
         23    2    1    2    0    0 -0.86929252958E+01  0.37698162782E+02 -0.12921292716E+03  0.16149038769E+03  0.88805666180E+02 0.  0.
        -11    1    3    3    0    0  0.22108945424E+02  0.34262733060E+02 -0.16628479505E+03  0.17121148737E+03  0.00000000000E+00 0.  1.
         11    1    3    3    0    0  0.27168539266E+01 -0.47614178501E+02 -0.79993007358E+02  0.93130942848E+02  0.00000000000E+00 0. -1.
        -13    1    4    4    0    0  0.36386436140E+02  0.36791165532E+02 -0.66939577495E+02  0.84607739784E+02  0.00000000000E+00 0. -1.
         13    1    4    4    0    0 -0.45079361436E+02  0.90699725024E+00 -0.62273349663E+02  0.76882647910E+02  0.00000000000E+00 0.  1.
         -3    1    1    2    0  502 -0.16132874055E+02 -0.24346717341E+02 -0.95515498087E+02  0.99881142591E+02  0.00000000000E+00 0.  1.
<scales pt_clust_5="13000.00000" pt_clust_6="13000.00000" pt_clust_7="13000.00000" pt_clust_8="13000.00000" pt_clust_9="29.20673"></scales>
<clustering>
<clus scale="   29.207">  1  9  2 -1</clus>
<clus scale="   88.806">  7  8 -1 -1</clus>
<clus scale="   91.813">  5  6 -1 -1</clus>
<clus scale="   93.470">  1  7  2 -1</clus>
<clus scale="   29.207">  1  5  2 -1</clus>
</clustering>
</event>
<event>
 9    1  0.1504846E-005  0.1182522E+03  0.7546771E-02  0.1246616E+00
         21   -1    0    0  501  502  0.00000000000E+00  0.00000000000E+00  0.85304062100E+02  0.85304062100E+02  0.00000000000E+00 0.  1.
         -3   -1    0    0    0  501 -0.00000000000E+00 -0.00000000000E+00 -0.25826101488E+03  0.25826101488E+03  0.00000000000E+00 0.  1.
         23    2    1    2    0    0  0.47368254095E+02 -0.77049852132E+02 -0.78563914347E+02  0.15268171202E+03  0.94651916714E+02 0.  0.
         23    2    1    2    0    0 -0.19867693208E+02  0.44550558815E+02 -0.22409148867E+02  0.10725223875E+03  0.92851468695E+02 0.  0.
        -11    1    4    4    0    0 -0.26922676154E+00  0.64164404265E+02 -0.38857125192E+02  0.75013461698E+02  0.00000000000E+00 0.  1.
         11    1    4    4    0    0 -0.19598466446E+02 -0.19613845449E+02  0.16447976325E+02  0.32238777048E+02  0.00000000000E+00 0. -1.
        -13    1    3    3    0    0 -0.20106453400E+02 -0.35952870077E+02  0.99084705747E-01  0.41193302282E+02  0.00000000000E+00 0. -1.
         13    1    3    3    0    0  0.67474707495E+02 -0.41096982055E+02 -0.78662999053E+02  0.11148840974E+03  0.00000000000E+00 0.  1.
         -3    1    1    2    0  502 -0.27500560887E+02  0.32499293316E+02 -0.71983889567E+02  0.83631126217E+02  0.00000000000E+00 0.  1.
<scales pt_clust_5="13000.00000" pt_clust_6="13000.00000" pt_clust_7="13000.00000" pt_clust_8="13000.00000" pt_clust_9="42.57331"></scales>
<clustering>
<clus scale="   42.573">  1  9  2 -1</clus>
<clus scale="   92.851">  5  6 -1 -1</clus>
<clus scale="   94.652">  7  8 -1 -1</clus>
<clus scale="  116.816">  1  5  2 -1</clus>
<clus scale="   42.573">  1  5  2 -1</clus>
</clustering>
</event>
<event>
 9    1  0.1504846E-005  0.1273462E+03  0.7546771E-02  0.1232190E+00
         21   -1    0    0  501  502  0.00000000000E+00  0.00000000000E+00  0.89058840853E+02  0.89058840853E+02  0.00000000000E+00 0. -1.
          1   -1    0    0  502    0 -0.00000000000E+00 -0.00000000000E+00 -0.37418868104E+03  0.37418868104E+03  0.00000000000E+00 0. -1.
         23    2    1    2    0    0  0.44762865399E+02 -0.11214591225E+03 -0.22987526360E+03  0.27402682328E+03  0.87565080433E+02 0.  0.
         23    2    1    2    0    0 -0.26255494500E+02  0.33882834360E+02 -0.38164761577E+02  0.10700334086E+03  0.90309293395E+02 0.  0.
        -11    1    3    3    0    0  0.69870813309E+02 -0.79597012445E+02 -0.14334556924E+03  0.17822897397E+03  0.00000000000E+00 0. -1.
         11    1    3    3    0    0 -0.25107947910E+02 -0.32548899804E+02 -0.86529694357E+02  0.95797849309E+02  0.00000000000E+00 0.  1.
        -13    1    4    4    0    0 -0.38592666805E+02 -0.16549865517E+02  0.94390951126E+00  0.42002177859E+02  0.00000000000E+00 0. -1.
         13    1    4    4    0    0  0.12337172305E+02  0.50432699877E+02 -0.39108671088E+02  0.65001163002E+02  0.00000000000E+00 0.  1.
          1    1    1    2  501    0 -0.18507370899E+02  0.78263077889E+02 -0.17089815015E+02  0.82217357751E+02  0.00000000000E+00 0. -1.
<scales pt_clust_5="13000.00000" pt_clust_6="13000.00000" pt_clust_7="13000.00000" pt_clust_8="13000.00000" pt_clust_9="80.42159"></scales>
<clustering>
<clus scale="   80.422">  1  9  2 -1</clus>
<clus scale="   87.565">  5  6 -1 -1</clus>
<clus scale="   90.309">  7  8 -1 -1</clus>
<clus scale="  125.415">  2  5  1 -1</clus>
<clus scale="   80.422">  1  5  2 -1</clus>
</clustering>
</event>
<event>
 9    1  0.1504846E-005  0.2923284E+03  0.7546771E-02  0.1089174E+00
          2   -1    0    0  502    0 -0.00000000000E+00  0.00000000000E+00  0.10391150310E+04  0.10391150310E+04  0.00000000000E+00 0. -1.
         21   -1    0    0  501  502  0.00000000000E+00 -0.00000000000E+00 -0.15343098098E+03  0.15343098098E+03  0.00000000000E+00 0. -1.
         23    2    1    2    0    0 -0.15764366646E+03  0.23143015118E+03  0.74695687284E+03  0.80296223266E+03  0.91609697907E+02 0.  0.
         23    2    1    2    0    0  0.20885464265E+03 -0.18112722660E+03  0.12407812418E+03  0.31632026139E+03  0.90751269386E+02 0.  0.
        -11    1    3    3    0    0 -0.10117744277E+03  0.19423681415E+03  0.63990174000E+03  0.67634240718E+03  0.00000000000E+00 0. -1.
         11    1    3    3    0    0 -0.56466223696E+02  0.37193337038E+02  0.10705513284E+03  0.12661982548E+03  0.00000000000E+00 0.  1.
        -11    1    4    4    0    0  0.20524909774E+03 -0.14314817960E+03  0.92463824510E+02  0.26677359743E+03  0.00000000000E+00 0. -1.
         11    1    4    4    0    0  0.36055449055E+01 -0.37979047009E+02  0.31614299671E+02  0.49546663959E+02  0.00000000000E+00 0.  1.
          2    1    1    2  501    0 -0.51210976184E+02 -0.50302924579E+02  0.14649052992E+02  0.73263517909E+02  0.00000000000E+00 0. -1.
<scales pt_clust_5="13000.00000" pt_clust_6="13000.00000" pt_clust_7="13000.00000" pt_clust_8="13000.00000" pt_clust_9="71.78404"></scales>
<clustering>
<clus scale="   71.784">  2  9  1 -1</clus>
<clus scale="   90.751">  7  8 -1 -1</clus>
<clus scale="   91.610">  5  6 -1 -1</clus>
<clus scale="  292.061">  2  7  1 -1</clus>
<clus scale="   71.784">  2  5  1 -1</clus>
</clustering>
</event>
<event>
 9    1  0.1504846E-005  0.1293851E+03  0.7546771E-02  0.1228608E+00
         21   -1    0    0  501  502  0.00000000000E+00  0.00000000000E+00  0.45742175635E+02  0.45742175635E+02  0.00000000000E+00 0.  1.
          2   -1    0    0  502    0 -0.00000000000E+00 -0.00000000000E+00 -0.54549050350E+03  0.54549050350E+03  0.00000000000E+00 0. -1.
         23    2    1    2    0    0 -0.93479764848E+02  0.85772249773E+01 -0.33377988873E+03  0.35840389177E+03  0.90732024593E+02 0.  0.
         23    2    1    2    0    0  0.80735033819E+02 -0.38096689749E+02 -0.11209659842E+03  0.17009122134E+03  0.91628995104E+02 0.  0.
        -13    1    3    3    0    0  0.10497065305E+02  0.17602979271E+02 -0.10445152939E+03  0.10644329594E+03  0.00000000000E+00 0.  1.
         13    1    3    3    0    0 -0.10397683015E+03 -0.90257542936E+01 -0.22932835935E+03  0.25196059583E+03  0.00000000000E+00 0. -1.
        -13    1    4    4    0    0  0.44828682740E+02  0.26099619360E+02 -0.63218678754E+02  0.81776538631E+02  0.00000000000E+00 0. -1.
         13    1    4    4    0    0  0.35906351079E+02 -0.64196309110E+02 -0.48877919664E+02  0.88314682708E+02  0.00000000000E+00 0.  1.
          2    1    1    2  501    0  0.12744731028E+02  0.29519464772E+02 -0.53871840714E+02  0.62737566029E+02  0.00000000000E+00 0. -1.
<scales pt_clust_5="13000.00000" pt_clust_6="13000.00000" pt_clust_7="13000.00000" pt_clust_8="13000.00000" pt_clust_9="32.15320"></scales>
<clustering>
<clus scale="   32.153">  1  9  2 -1</clus>
<clus scale="   90.732">  5  6 -1 -1</clus>
<clus scale="   91.629">  7  8 -1 -1</clus>
<clus scale="  128.751">  2  5  1 -1</clus>
<clus scale="   32.153">  1  5  2 -1</clus>
</clustering>
</event>
<event>
 9    1  0.1504846E-005  0.9911688E+02  0.7546771E-02  0.1282997E+00
         21   -1    0    0  501  502  0.00000000000E+00  0.00000000000E+00  0.13787860508E+03  0.13787860508E+03  0.00000000000E+00 0.  1.
         -3   -1    0    0    0  501 -0.00000000000E+00 -0.00000000000E+00 -0.17953811094E+03  0.17953811094E+03  0.00000000000E+00 0.  1.
         23    2    1    2    0    0  0.26925668900E+02  0.70312916244E+01 -0.62042726490E+02  0.11479560035E+03  0.92489454757E+02 0.  0.
         23    2    1    2    0    0 -0.45068770561E+02  0.49263878214E+01 -0.60971147287E+02  0.11841487235E+03  0.90824764332E+02 0.  0.
        -11    1    3    3    0    0 -0.17660851817E+02 -0.30966139098E+02 -0.36074564125E+02  0.50716680041E+02  0.00000000000E+00 0. -1.
         11    1    3    3    0    0  0.44586520717E+02  0.37997430722E+02 -0.25968162365E+02  0.64078920307E+02  0.00000000000E+00 0.  1.
        -13    1    4    4    0    0 -0.57134178835E+02 -0.29863756374E+02 -0.35018029430E+02  0.73364982935E+02  0.00000000000E+00 0. -1.
         13    1    4    4    0    0  0.12065408275E+02  0.34790144196E+02 -0.25953117857E+02  0.45049889417E+02  0.00000000000E+00 0.  1.
         -3    1    1    2    0  502  0.18143101661E+02 -0.11957679446E+02  0.81354367914E+02  0.84206243321E+02  0.00000000000E+00 0.  1.
<scales pt_clust_5="13000.00000" pt_clust_6="13000.00000" pt_clust_7="13000.00000" pt_clust_8="13000.00000" pt_clust_9="21.72920"></scales>
<clustering>
<clus scale="   21.729">  1  9  2 -1</clus>
<clus scale="   90.825">  7  8 -1 -1</clus>
<clus scale="   92.489">  5  6 -1 -1</clus>
<clus scale="   97.565">  1  7  2 -1</clus>
<clus scale="   21.729">  1  5  2 -1</clus>
</clustering>
</event>
<event>
 9    1  0.1504846E-005  0.1309750E+03  0.7546771E-02  0.1226597E+00
          3   -1    0    0  502    0 -0.00000000000E+00  0.00000000000E+00  0.19980472059E+03  0.19980472059E+03  0.00000000000E+00 0. -1.
         21   -1    0    0  501  502  0.00000000000E+00 -0.00000000000E+00 -0.31511588722E+03  0.31511588722E+03  0.00000000000E+00 0. -1.
         23    2    1    2    0    0  0.39247537627E+02  0.83930648453E+02  0.14162547957E+03  0.19423148522E+03  0.95306717652E+02 0.  0.
         23    2    1    2    0    0 -0.18610410969E+02 -0.76163156780E+02 -0.87748360081E+02  0.15006995286E+03  0.93134538207E+02 0.  0.
        -11    1    3    3    0    0  0.34395195291E+02 -0.88015102556E+01  0.64052955083E+02  0.73234398316E+02  0.00000000000E+00 0.  1.
         11    1    3    3    0    0  0.48523423357E+01  0.92732158708E+02  0.77572524484E+02  0.12099708691E+03  0.00000000000E+00 0. -1.
        -13    1    4    4    0    0 -0.30255794503E+02  0.10129998292E+02 -0.38606063024E+02  0.50084509268E+02  0.00000000000E+00 0. -1.
         13    1    4    4    0    0  0.11645383534E+02 -0.86293155072E+02 -0.49142297057E+02  0.99985443591E+02  0.00000000000E+00 0.  1.
          3    1    1    2  501    0 -0.20637126658E+02 -0.77674916727E+01 -0.16918828611E+03  0.17061916974E+03  0.00000000000E+00 0. -1.
<scales pt_clust_5="13000.00000" pt_clust_6="13000.00000" pt_clust_7="13000.00000" pt_clust_8="13000.00000" pt_clust_9="22.05051"></scales>
<clustering>
<clus scale="   22.051">  2  9  1 -1</clus>
<clus scale="   93.135">  7  8 -1 -1</clus>
<clus scale="   95.307">  5  6 -1 -1</clus>
<clus scale="  129.403">  2  7  1 -1</clus>
<clus scale="   22.051">  2  5  1 -1</clus>
</clustering>
</event>
<event>
 9    1  0.1504846E-005  0.1063860E+03  0.7546771E-02  0.1268124E+00
         21   -1    0    0  501  502  0.00000000000E+00  0.00000000000E+00  0.88969653249E+02  0.88969653249E+02  0.00000000000E+00 0. -1.
          3   -1    0    0  502    0 -0.00000000000E+00 -0.00000000000E+00 -0.16802128728E+03  0.16802128728E+03  0.00000000000E+00 0. -1.
         23    2    1    2    0    0 -0.42299371908E+01  0.46277616757E+02 -0.45781015708E+02  0.11251684153E+03  0.91676758493E+02 0.  0.
         23    2    1    2    0    0 -0.21055030832E+02 -0.55492074203E+02 -0.38376704285E+02  0.11708234936E+03  0.93342490204E+02 0.  0.
        -11    1    4    4    0    0 -0.42249394451E+01  0.23067638668E+02  0.74287054783E+01  0.24599831953E+02  0.00000000000E+00 0.  1.
         11    1    4    4    0    0 -0.16830091387E+02 -0.78559712871E+02 -0.45805409763E+02  0.92482517408E+02  0.00000000000E+00 0. -1.
        -13    1    3    3    0    0  0.33359334224E+02  0.15355323422E+02  0.10415119423E+02  0.38172055876E+02  0.00000000000E+00 0.  1.
         13    1    3    3    0    0 -0.37589271415E+02  0.30922293335E+02 -0.56196135131E+02  0.74344785656E+02  0.00000000000E+00 0. -1.
          3    1    1    2  501    0  0.25284968023E+02  0.92144574457E+01  0.51060859662E+01  0.27391749631E+02  0.00000000000E+00 0. -1.
<scales pt_clust_5="13000.00000" pt_clust_6="13000.00000" pt_clust_7="13000.00000" pt_clust_8="13000.00000" pt_clust_9="26.91163"></scales>
<clustering>
<clus scale="   26.912">  1  9  2 -1</clus>
<clus scale="   91.677">  7  8 -1 -1</clus>
<clus scale="   93.342">  5  6 -1 -1</clus>
<clus scale="  104.928">  2  7  1 -1</clus>
<clus scale="   26.912">  1  5  2 -1</clus>
</clustering>
</event>
<event>
 9    1  0.1504846E-005  0.9743139E+02  0.7546771E-02  0.1287516E+00
         -1   -1    0    0    0  501 -0.00000000000E+00  0.00000000000E+00  0.29054059554E+03  0.29054059554E+03  0.00000000000E+00 0.  1.
         21   -1    0    0  501  502  0.00000000000E+00 -0.00000000000E+00 -0.11423148575E+03  0.11423148575E+03  0.00000000000E+00 0.  1.
         23    2    1    2    0    0 -0.11435618055E+02  0.14256595514E+02  0.17829019437E+03  0.20244039058E+03  0.94131261831E+02 0.  0.
         23    2    1    2    0    0  0.41822896366E+02 -0.12779212280E+02  0.70935931493E+02  0.12332244710E+03  0.90906857024E+02 0.  0.
        -11    1    3    3    0    0  0.24243903829E+02 -0.30281513533E+02  0.74682068331E+02  0.84155500503E+02  0.00000000000E+00 0.  1.
         11    1    3    3    0    0 -0.35679521883E+02  0.44538109047E+02  0.10360812604E+03  0.11828489008E+03  0.00000000000E+00 0. -1.
        -13    1    4    4    0    0  0.21760682475E+02 -0.46534075157E+02  0.12416903008E+02  0.52850041937E+02  0.00000000000E+00 0. -1.
         13    1    4    4    0    0  0.20062213891E+02  0.33754862877E+02  0.58519028485E+02  0.70472405159E+02  0.00000000000E+00 0.  1.
         -1    1    1    2    0  502 -0.30387278311E+02 -0.14773832340E+01 -0.72917016066E+02  0.79009243613E+02  0.00000000000E+00 0.  1.
<scales pt_clust_5="13000.00000" pt_clust_6="13000.00000" pt_clust_7="13000.00000" pt_clust_8="13000.00000" pt_clust_9="30.42317"></scales>
<clustering>
<clus scale="   30.423">  2  9  1 -1</clus>
<clus scale="   90.907">  7  8 -1 -1</clus>
<clus scale="   94.131">  5  6 -1 -1</clus>
<clus scale="   94.320">  2  7  1 -1</clus>
<clus scale="   30.423">  2  5  1 -1</clus>
</clustering>
</event>
<event>
 9    1  0.1504846E-005  0.9747750E+02  0.7546771E-02  0.1286402E+00
         21   -1    0    0  501  502  0.00000000000E+00  0.00000000000E+00  0.21232767806E+03  0.21232767806E+03  0.00000000000E+00 0. -1.
          1   -1    0    0  502    0 -0.00000000000E+00 -0.00000000000E+00 -0.18582850154E+03  0.18582850154E+03  0.00000000000E+00 0. -1.
         23    2    1    2    0    0  0.27738629654E+02  0.18008653393E+02 -0.10545386673E+03  0.14520539814E+03  0.94182516792E+02 0.  0.
         23    2    1    2    0    0 -0.82547241726E+01 -0.65850372936E+01 -0.23108379704E+02  0.96253090125E+02  0.92839414899E+02 0.  0.
        -11    1    4    4    0    0 -0.14198191563E+02  0.24705060027E+02  0.25434267083E+02  0.38194640680E+02  0.00000000000E+00 0.  1.
         11    1    4    4    0    0  0.59434673899E+01 -0.31290097321E+02 -0.48542646787E+02  0.58058449446E+02  0.00000000000E+00 0. -1.
        -13    1    3    3    0    0  0.74251569026E+01  0.33667570597E+02  0.21918971527E+01  0.34546239709E+02  0.00000000000E+00 0.  1.
         13    1    3    3    0    0  0.20313472752E+02 -0.15658917204E+02 -0.10764576388E+03  0.11065915843E+03  0.00000000000E+00 0. -1.
          1    1    1    2  501    0 -0.19483905482E+02 -0.11423616099E+02  0.15506142296E+03  0.15669769133E+03  0.00000000000E+00 0. -1.
<scales pt_clust_5="13000.00000" pt_clust_6="13000.00000" pt_clust_7="13000.00000" pt_clust_8="13000.00000" pt_clust_9="22.58587"></scales>
<clustering>
<clus scale="   22.586">  1  9  2 -1</clus>
<clus scale="   92.839">  5  6 -1 -1</clus>
<clus scale="   94.183">  7  8 -1 -1</clus>
<clus scale="   96.180">  1  5  2 -1</clus>
<clus scale="   22.586">  1  5  2 -1</clus>
</clustering>
</event>
<event>
 9    1  0.1504846E-005  0.9668444E+02  0.7546771E-02  0.1290303E+00
         21   -1    0    0  501  502  0.00000000000E+00  0.00000000000E+00  0.49394622813E+02  0.49394622813E+02  0.00000000000E+00 0.  1.
         -1   -1    0    0    0  501 -0.00000000000E+00 -0.00000000000E+00 -0.55632858800E+03  0.55632858800E+03  0.00000000000E+00 0.  1.
         23    2    1    2    0    0  0.37380496717E+02 -0.29186431437E+01 -0.27228882838E+03  0.28998291976E+03  0.92428716732E+02 0.  0.
         23    2    1    2    0    0  0.53955784999E+02  0.41956692818E+02 -0.13061177220E+03  0.17190279028E+03  0.88428182498E+02 0.  0.
        -11    1    3    3    0    0 -0.21802175828E+02 -0.14601258795E+02 -0.28073007952E+02  0.38426883880E+02  0.00000000000E+00 0. -1.
         11    1    3    3    0    0  0.59182672545E+02  0.11682615652E+02 -0.24421582043E+03  0.25155603588E+03  0.00000000000E+00 0.  1.
        -13    1    4    4    0    0  0.39512045230E+02 -0.10527242083E+02 -0.14016001895E+02  0.43225835484E+02  0.00000000000E+00 0.  1.
         13    1    4    4    0    0  0.14443739769E+02  0.52483934901E+02 -0.11659577031E+03  0.12867695479E+03  0.00000000000E+00 0. -1.
         -1    1    1    2    0  502 -0.91336281716E+02 -0.39038049674E+02 -0.10403336461E+03  0.14383750078E+03  0.00000000000E+00 0.  1.
<scales pt_clust_5="13000.00000" pt_clust_6="13000.00000" pt_clust_7="13000.00000" pt_clust_8="13000.00000" pt_clust_9="99.32918"></scales>
<clustering>
<clus scale="   88.428">  7  8 -1 -1</clus>
<clus scale="   92.429">  5  6 -1 -1</clus>
<clus scale="   99.329">  1  9  2 -1</clus>
<clus scale="   99.329">  1  7  2 -1</clus>
<clus scale="   96.684">  1  5  2 -1</clus>
</clustering>
</event>
<event>
 9    1  0.1504846E-005  0.1137618E+03  0.7546771E-02  0.1254274E+00
         21   -1    0    0  501  502  0.00000000000E+00  0.00000000000E+00  0.38526196176E+02  0.38526196176E+02  0.00000000000E+00 0. -1.
          1   -1    0    0  502    0 -0.00000000000E+00 -0.00000000000E+00 -0.70632209713E+03  0.70632209713E+03  0.00000000000E+00 0. -1.
         23    2    1    2    0    0  0.39452911691E+02  0.47128865089E+02 -0.42482769246E+03  0.43896399948E+03  0.91832251378E+02 0.  0.
         23    2    1    2    0    0 -0.73702387454E+02 -0.38033129123E+02 -0.24096054982E+03  0.27039077757E+03  0.90391510658E+02 0.  0.
        -11    1    3    3    0    0  0.97022951533E+01 -0.26354134735E+02 -0.16285943227E+03  0.16526303165E+03  0.00000000000E+00 0.  1.
         11    1    3    3    0    0  0.29750616537E+02  0.73482999823E+02 -0.26196826019E+03  0.27370096783E+03  0.00000000000E+00 0. -1.
        -13    1    4    4    0    0 -0.62297933290E+02 -0.83801067299E+01 -0.22725831537E+03  0.23579143450E+03  0.00000000000E+00 0. -1.
         13    1    4    4    0    0 -0.11404454164E+02 -0.29653022394E+02 -0.13702234453E+02  0.34599343070E+02  0.00000000000E+00 0.  1.
          1    1    1    2  501    0  0.34249475764E+02 -0.90957359654E+01 -0.20076586756E+01  0.35493516256E+02  0.00000000000E+00 0. -1.
<scales pt_clust_5="13000.00000" pt_clust_6="13000.00000" pt_clust_7="13000.00000" pt_clust_8="13000.00000" pt_clust_9="35.43669"></scales>
<clustering>
<clus scale="   35.437">  1  9  2 -1</clus>
<clus scale="   90.392">  7  8 -1 -1</clus>
<clus scale="   91.832">  5  6 -1 -1</clus>
<clus scale="  112.602">  1  7  2 -1</clus>
<clus scale="   35.437">  1  5  2 -1</clus>
</clustering>
</event>
<event>
 9    1  0.1504846E-005  0.1179999E+03  0.7546771E-02  0.1254142E+00
         -1   -1    0    0    0  501 -0.00000000000E+00  0.00000000000E+00  0.76678451233E+02  0.76678451233E+02  0.00000000000E+00 0.  1.
         21   -1    0    0  501  502  0.00000000000E+00 -0.00000000000E+00 -0.24162600960E+03  0.24162600960E+03  0.00000000000E+00 0. -1.
         23    2    1    2    0    0 -0.21313278127E+02  0.44977327316E+02 -0.41226054729E+02  0.12738672046E+03  0.10977510266E+03 0.  0.
         23    2    1    2    0    0 -0.18889446685E+01 -0.39774380094E+02 -0.46354262189E+02  0.10997885076E+03  0.91438835120E+02 0.  0.
        -13    1    3    3    0    0 -0.60556521917E+02  0.10171005531E+02 -0.12196577133E+01  0.61416848382E+02  0.00000000000E+00 0. -1.
         13    1    3    3    0    0  0.39243243790E+02  0.34806321784E+02 -0.40006397015E+02  0.65969872074E+02  0.00000000000E+00 0.  1.
        -13    1    4    4    0    0 -0.27460836553E+02 -0.53583851426E+02 -0.63675193332E+01  0.60546444820E+02  0.00000000000E+00 0. -1.
         13    1    4    4    0    0  0.25571891885E+02  0.13809471332E+02 -0.39986742856E+02  0.49432405942E+02  0.00000000000E+00 0.  1.
         -1    1    1    2    0  502  0.23202222796E+02 -0.52029472213E+01 -0.77367241450E+02  0.80938889614E+02  0.00000000000E+00 0.  1.
<scales pt_clust_5="13000.00000" pt_clust_6="13000.00000" pt_clust_7="13000.00000" pt_clust_8="13000.00000" pt_clust_9="23.77843"></scales>
<clustering>
<clus scale="   23.778">  2  9  1 -1</clus>
<clus scale="   91.439">  7  8 -1 -1</clus>
<clus scale="  101.165">  2  7  1 -1</clus>
<clus scale="  109.775">  5  6 -1 -1</clus>
<clus scale="   23.778">  2  5  1 -1</clus>
</clustering>
</event>
<event>
 9    1  0.1504846E-005  0.1474433E+03  0.7546771E-02  0.1215740E+00
         21   -1    0    0  501  502  0.00000000000E+00  0.00000000000E+00  0.55382789967E+03  0.55382789967E+03  0.00000000000E+00 0.  1.
         -1   -1    0    0    0  501 -0.00000000000E+00 -0.00000000000E+00 -0.21858687001E+03  0.21858687001E+03  0.00000000000E+00 0.  1.
         23    2    1    2    0    0  0.60594179750E+01  0.60049288964E+02 -0.13980187213E+03  0.18031390344E+03  0.96570734031E+02 0.  0.
         23    2    1    2    0    0 -0.12624180313E+03 -0.44625161812E+02  0.76482617383E+02  0.17552913208E+03  0.83859927995E+02 0.  0.
        -11    1    3    3    0    0 -0.18086709838E+02  0.73900360990E+02 -0.13032664851E+03  0.15090867351E+03  0.00000000000E+00 0.  1.
         11    1    3    3    0    0  0.24146127814E+02 -0.13851072026E+02 -0.94752236144E+01  0.29405229930E+02  0.00000000000E+00 0. -1.
        -11    1    4    4    0    0 -0.11078373118E+03 -0.23771906733E+02  0.22341863654E+02  0.11548721797E+03  0.00000000000E+00 0. -1.
         11    1    4    4    0    0 -0.15458071955E+02 -0.20853255079E+02  0.54140753729E+02  0.60041914112E+02  0.00000000000E+00 0.  1.
         -1    1    1    2    0  502  0.12018238516E+03 -0.15424127152E+02  0.39856028440E+03  0.41657173416E+03  0.00000000000E+00 0.  1.
<scales pt_clust_5="13000.00000" pt_clust_6="13000.00000" pt_clust_7="13000.00000" pt_clust_8="13000.00000" pt_clust_9="121.27253"></scales>
<clustering>
<clus scale="   83.860">  7  8 -1 -1</clus>
<clus scale="   96.571">  5  6 -1 -1</clus>
<clus scale="  113.879">  2  5  1 -1</clus>
<clus scale="  121.273">  1  9  2 -1</clus>
<clus scale="  121.273">  1  5  2 -1</clus>
</clustering>
</event>
<event>
 9    1  0.1504846E-005  0.9938342E+02  0.7546771E-02  0.1283345E+00
          2   -1    0    0  502    0 -0.00000000000E+00  0.00000000000E+00  0.31250150237E+03  0.31250150237E+03  0.00000000000E+00 0. -1.
         21   -1    0    0  501  502  0.00000000000E+00 -0.00000000000E+00 -0.38727529847E+02  0.38727529847E+02  0.00000000000E+00 0.  1.
         23    2    1    2    0    0 -0.24722711188E+02  0.28684931990E+02  0.11995354240E+03  0.15607135500E+03  0.92387108099E+02 0.  0.
         23    2    1    2    0    0  0.37406838793E+02 -0.10104289672E+02  0.11647210605E+03  0.15155693556E+03  0.88895359677E+02 0.  0.
        -13    1    3    3    0    0  0.19628798360E+02  0.17546009792E+02  0.10455594009E+03  0.10781974213E+03  0.00000000000E+00 0. -1.
         13    1    3    3    0    0 -0.44351509547E+02  0.11138922199E+02  0.15397602310E+02  0.48251612862E+02  0.00000000000E+00 0.  1.
        -13    1    4    4    0    0 -0.14845305375E+02 -0.26617978105E+02  0.80316152809E+02  0.85904506588E+02  0.00000000000E+00 0.  1.
         13    1    4    4    0    0  0.52252144168E+02  0.16513688434E+02  0.36155953237E+02  0.65652428975E+02  0.00000000000E+00 0. -1.
          2    1    1    2  501    0 -0.12684127605E+02 -0.18580642319E+02  0.37348324069E+02  0.43600741654E+02  0.00000000000E+00 0. -1.
<scales pt_clust_5="13000.00000" pt_clust_6="13000.00000" pt_clust_7="13000.00000" pt_clust_8="13000.00000" pt_clust_9="22.49729"></scales>
<clustering>
<clus scale="   22.497">  2  9  1 -1</clus>
<clus scale="   88.895">  7  8 -1 -1</clus>
<clus scale="   92.387">  5  6 -1 -1</clus>
<clus scale="   96.146">  2  7  1 -1</clus>
<clus scale="   22.497">  2  5  1 -1</clus>
</clustering>
</event>
<event>
 9    1  0.1504846E-005  0.1295632E+03  0.7546771E-02  0.1229662E+00
          1   -1    0    0  502    0 -0.00000000000E+00  0.00000000000E+00  0.17711551309E+03  0.17711551309E+03  0.00000000000E+00 0. -1.
         21   -1    0    0  501  502  0.00000000000E+00 -0.00000000000E+00 -0.19506933793E+03  0.19506933793E+03  0.00000000000E+00 0.  1.
         23    2    1    2    0    0  0.72802959231E+02  0.37775795937E+02  0.65906868086E+02  0.13889000953E+03  0.90661115444E+02 0.  0.
         23    2    1    2    0    0 -0.10185972732E+03 -0.34155338626E+02 -0.11939251355E+03  0.18725232028E+03  0.96264572672E+02 0.  0.
        -13    1    4    4    0    0 -0.47458885767E+02 -0.42024908861E+02 -0.11598739143E+03  0.13217985389E+03  0.00000000000E+00 0.  1.
         13    1    4    4    0    0 -0.54400841555E+02  0.78695702350E+01 -0.34051221174E+01  0.55072466389E+02  0.00000000000E+00 0. -1.
        -13    1    3    3    0    0 -0.16088481320E+02  0.27555522863E+02  0.10245516356E+02  0.33512932979E+02  0.00000000000E+00 0.  1.
         13    1    3    3    0    0  0.88891440552E+02  0.10220273074E+02  0.55661351730E+02  0.10537707655E+03  0.00000000000E+00 0. -1.
          1    1    1    2  501    0  0.29056768090E+02 -0.36204573114E+01  0.35531820627E+02  0.46042521217E+02  0.00000000000E+00 0. -1.
<scales pt_clust_5="13000.00000" pt_clust_6="13000.00000" pt_clust_7="13000.00000" pt_clust_8="13000.00000" pt_clust_9="29.28147"></scales>
<clustering>
<clus scale="   29.281">  2  9  1 -1</clus>
<clus scale="   90.661">  7  8 -1 -1</clus>
<clus scale="   96.265">  5  6 -1 -1</clus>
<clus scale="  125.456">  1  7  2 -1</clus>
<clus scale="   29.281">  2  5  1 -1</clus>
</clustering>
</event>
<event>
 9    1  0.1504846E-005  0.1236571E+03  0.7546771E-02  0.1238804E+00
         21   -1    0    0  501  502  0.00000000000E+00  0.00000000000E+00  0.16569748437E+03  0.16569748437E+03  0.00000000000E+00 0.  1.
         -4   -1    0    0    0  501 -0.00000000000E+00 -0.00000000000E+00 -0.12950162265E+03  0.12950162265E+03  0.00000000000E+00 0.  1.
         23    2    1    2    0    0 -0.69730722370E+02  0.33468060724E+02 -0.22073153671E+02  0.12216738305E+03  0.91951947440E+02 0.  0.
         23    2    1    2    0    0  0.74319914297E+02 -0.60054563061E+02  0.66240992184E+02  0.14489891034E+03  0.86474417986E+02 0.  0.
        -13    1    4    4    0    0  0.46503312374E+01 -0.58746502297E+02  0.25785985827E+02  0.64324911020E+02  0.00000000000E+00 0.  1.
         13    1    4    4    0    0  0.69669583060E+02 -0.13080607646E+01  0.40455006357E+02  0.80573999318E+02  0.00000000000E+00 0. -1.
        -13    1    3    3    0    0 -0.11451415761E+02 -0.24351742942E+02  0.16390255401E+02  0.31508455680E+02  0.00000000000E+00 0.  1.
         13    1    3    3    0    0 -0.58279306609E+02  0.57819803666E+02 -0.38463409072E+02  0.90658927372E+02  0.00000000000E+00 0. -1.
         -4    1    1    2    0  502 -0.45891919273E+01  0.26586502337E+02 -0.79719767945E+01  0.28132813636E+02  0.00000000000E+00 0.  1.
<scales pt_clust_5="13000.00000" pt_clust_6="13000.00000" pt_clust_7="13000.00000" pt_clust_8="13000.00000" pt_clust_9="26.97969"></scales>
<clustering>
<clus scale="   26.980">  1  9  2 -1</clus>
<clus scale="   86.474">  5  6 -1 -1</clus>
<clus scale="   91.952">  7  8 -1 -1</clus>
<clus scale="  119.640">  1  5  2 -1</clus>
<clus scale="   26.980">  1  5  2 -1</clus>
</clustering>
</event>
<event>
 9    1  0.1504846E-005  0.2026568E+03  0.7546771E-02  0.1147756E+00
          4   -1    0    0  502    0 -0.00000000000E+00  0.00000000000E+00  0.60901183462E+03  0.60901183462E+03  0.00000000000E+00 0. -1.
         21   -1    0    0  501  502  0.00000000000E+00 -0.00000000000E+00 -0.39850547369E+03  0.39850547369E+03  0.00000000000E+00 0. -1.
         23    2    1    2    0    0 -0.11533089326E+03 -0.10545324677E+03  0.23081587894E+03  0.29285855754E+03  0.89825177779E+02 0.  0.
         23    2    1    2    0    0  0.30870002152E+02  0.26049750145E+03  0.26173937023E+03  0.38190668332E+03  0.92375925141E+02 0.  0.
        -13    1    3    3    0    0  0.15107482228E+02 -0.15325348219E+02  0.32052450560E+02  0.38606500802E+02  0.00000000000E+00 0. -1.
         13    1    3    3    0    0 -0.13043837549E+03 -0.90127898550E+02  0.19876342838E+03  0.25425205674E+03  0.00000000000E+00 0.  1.
        -13    1    4    4    0    0  0.25838800727E+02  0.23095738362E+03  0.17730166996E+03  0.29230949154E+03  0.00000000000E+00 0. -1.
         13    1    4    4    0    0  0.50312014249E+01  0.29540117822E+02  0.84437700266E+02  0.89597191780E+02  0.00000000000E+00 0.  1.
          4    1    1    2  501    0  0.84460891109E+02 -0.15504425468E+03 -0.28204888823E+03  0.33275206744E+03  0.00000000000E+00 0. -1.
<scales pt_clust_5="13000.00000" pt_clust_6="13000.00000" pt_clust_7="13000.00000" pt_clust_8="13000.00000" pt_clust_9="176.55697"></scales>
<clustering>
<clus scale="   89.825">  5  6 -1 -1</clus>
<clus scale="   92.376">  7  8 -1 -1</clus>
<clus scale="  176.557">  2  9  1 -1</clus>
<clus scale="  201.507">  1  5  2 -1</clus>
<clus scale="  176.557">  2  5  1 -1</clus>
</clustering>
</event>
<event>
 9    1  0.1504846E-005  0.1159275E+03  0.7546771E-02  0.1256686E+00
          3   -1    0    0  502    0 -0.00000000000E+00  0.00000000000E+00  0.31669850425E+02  0.31669850425E+02  0.00000000000E+00 0. -1.
         21   -1    0    0  501  502  0.00000000000E+00 -0.00000000000E+00 -0.58548110715E+03  0.58548110715E+03  0.00000000000E+00 0.  1.
         23    2    1    2    0    0 -0.27227996919E+01  0.27965987055E+02 -0.20370874218E+03  0.23123767371E+03  0.10575490549E+03 0.  0.
         23    2    1    2    0    0 -0.19224591034E+01 -0.64659596221E+02 -0.17534065685E+03  0.20728040254E+03  0.89645190060E+02 0.  0.
        -11    1    3    3    0    0 -0.32689035129E+02 -0.17438699828E+02 -0.25672050618E+02  0.45074776231E+02  0.00000000000E+00 0. -1.
         11    1    3    3    0    0  0.29966235437E+02  0.45404686883E+02 -0.17803669156E+03  0.18616289748E+03  0.00000000000E+00 0.  1.
        -13    1    4    4    0    0  0.43809661705E+02 -0.30377608833E+02 -0.88605978832E+02  0.10340747102E+03  0.00000000000E+00 0.  1.
         13    1    4    4    0    0 -0.45732120808E+02 -0.34281987388E+02 -0.86734678016E+02  0.10387293152E+03  0.00000000000E+00 0. -1.
          3    1    1    2  501    0  0.46452587953E+01  0.36693609166E+02 -0.17476185770E+03  0.17863288133E+03  0.00000000000E+00 0. -1.
<scales pt_clust_5="13000.00000" pt_clust_6="13000.00000" pt_clust_7="13000.00000" pt_clust_8="13000.00000" pt_clust_9="36.98648"></scales>
<clustering>
<clus scale="   36.986">  2  9  1 -1</clus>
<clus scale="   89.645">  7  8 -1 -1</clus>
<clus scale="  101.446">  2  7  1 -1</clus>
<clus scale="  105.755">  5  6 -1 -1</clus>
<clus scale="   36.986">  2  5  1 -1</clus>
</clustering>
</event>
<event>
 9    1  0.1504846E-005  0.1042252E+03  0.7546771E-02  0.1272213E+00
         21   -1    0    0  501  502  0.00000000000E+00  0.00000000000E+00  0.32740510765E+03  0.32740510765E+03  0.00000000000E+00 0. -1.
         -1   -1    0    0    0  501 -0.00000000000E+00 -0.00000000000E+00 -0.41564602792E+02  0.41564602792E+02  0.00000000000E+00 0.  1.
         23    2    1    2    0    0  0.26070223016E+02 -0.27178269331E+02  0.11362090579E+03  0.15050431735E+03  0.91233351660E+02 0.  0.
         23    2    1    2    0    0 -0.37115583840E+02  0.46993480495E+02  0.12899996063E+03  0.16965371687E+03  0.92495621699E+02 0.  0.
        -11    1    4    4    0    0 -0.34429853907E+02 -0.22072506295E+02  0.43423433271E+02  0.59650690953E+02  0.00000000000E+00 0.  1.
         11    1    4    4    0    0 -0.26857299331E+01  0.69065986790E+02  0.85576527361E+02  0.11000302592E+03  0.00000000000E+00 0. -1.
        -13    1    3    3    0    0  0.35350863883E+02 -0.53721009068E+02  0.10087886696E+03  0.11963350782E+03  0.00000000000E+00 0.  1.
         13    1    3    3    0    0 -0.92806408664E+01  0.26542739736E+02  0.12742038829E+02  0.30870809531E+02  0.00000000000E+00 0. -1.
         -1    1    1    2    0  502  0.11045360824E+02 -0.19815211164E+02  0.43219638437E+02  0.48811676224E+02  0.00000000000E+00 0.  1.
<scales pt_clust_5="13000.00000" pt_clust_6="13000.00000" pt_clust_7="13000.00000" pt_clust_8="13000.00000" pt_clust_9="22.68574"></scales>
<clustering>
<clus scale="   22.686">  1  9  2 -1</clus>
<clus scale="   91.233">  7  8 -1 -1</clus>
<clus scale="   92.496">  5  6 -1 -1</clus>
<clus scale="  103.107">  2  7  1 -1</clus>
<clus scale="   22.686">  1  5  2 -1</clus>
</clustering>
</event>
<event>
 9    1  0.1504846E-005  0.1435328E+03  0.7546771E-02  0.1210170E+00
         21   -1    0    0  501  502  0.00000000000E+00  0.00000000000E+00  0.19353721969E+03  0.19353721969E+03  0.00000000000E+00 0.  1.
         -1   -1    0    0    0  501 -0.00000000000E+00 -0.00000000000E+00 -0.22087145152E+03  0.22087145152E+03  0.00000000000E+00 0.  1.
         23    2    1    2    0    0 -0.10326276940E+03 -0.12848399238E+02 -0.98959361524E+02  0.17335205527E+03  0.97106636868E+02 0.  0.
         23    2    1    2    0    0  0.10997098510E+03 -0.31294326925E+02 -0.12137635777E+02  0.14613674811E+03  0.90197973843E+02 0.  0.
        -13    1    4    4    0    0  0.42175518205E+02  0.80271081232E+01  0.34376596956E+02  0.54999629262E+02  0.00000000000E+00 0. -1.
         13    1    4    4    0    0  0.67795466892E+02 -0.39321435048E+02 -0.46514232733E+02  0.91137118850E+02  0.00000000000E+00 0.  1.
        -13    1    3    3    0    0 -0.42198016659E+01  0.31124085309E+02 -0.94504056833E+01  0.32799780182E+02  0.00000000000E+00 0. -1.
         13    1    3    3    0    0 -0.99042967738E+02 -0.43972484547E+02 -0.89508955840E+02  0.14055227508E+03  0.00000000000E+00 0.  1.
         -1    1    1    2    0  502 -0.67082156927E+01  0.44142726163E+02  0.83762765469E+02  0.94919867835E+02  0.00000000000E+00 0.  1.
<scales pt_clust_5="13000.00000" pt_clust_6="13000.00000" pt_clust_7="13000.00000" pt_clust_8="13000.00000" pt_clust_9="44.64953"></scales>
<clustering>
<clus scale="   44.650">  1  9  2 -1</clus>
<clus scale="   90.198">  5  6 -1 -1</clus>
<clus scale="   97.107">  7  8 -1 -1</clus>
<clus scale="  138.952">  1  5  2 -1</clus>
<clus scale="   44.650">  1  5  2 -1</clus>
</clustering>
</event>
<event>
 9    1  0.1504846E-005  0.9600710E+02  0.7546771E-02  0.1291002E+00
          2   -1    0    0  502    0 -0.00000000000E+00  0.00000000000E+00  0.17373675699E+03  0.17373675699E+03  0.00000000000E+00 0. -1.
         21   -1    0    0  501  502  0.00000000000E+00 -0.00000000000E+00 -0.15149188441E+03  0.15149188441E+03  0.00000000000E+00 0.  1.
         23    2    1    2    0    0  0.93445107454E+01 -0.61183338139E+01  0.11877606105E+03  0.15004212256E+03  0.90995230504E+02 0.  0.
         23    2    1    2    0    0 -0.23015991085E+02  0.29674842219E+02 -0.34719461713E+02  0.10764017899E+03  0.94713436249E+02 0.  0.
        -13    1    3    3    0    0  0.23802631149E+02 -0.38129414143E+02  0.10126867738E+03  0.11079604005E+03  0.00000000000E+00 0. -1.
         13    1    3    3    0    0 -0.14458120403E+02  0.32011080329E+02  0.17507383667E+02  0.39246082509E+02  0.00000000000E+00 0.  1.
        -13    1    4    4    0    0  0.14362339371E+02  0.30794550217E+02  0.21434007898E+02  0.40174591596E+02  0.00000000000E+00 0. -1.
         13    1    4    4    0    0 -0.37378330456E+02 -0.11197079980E+01 -0.56153469611E+02  0.67465587399E+02  0.00000000000E+00 0.  1.
          2    1    1    2  501    0  0.13671480340E+02 -0.23556508405E+02 -0.61811726751E+02  0.67546339848E+02  0.00000000000E+00 0. -1.
<scales pt_clust_5="13000.00000" pt_clust_6="13000.00000" pt_clust_7="13000.00000" pt_clust_8="13000.00000" pt_clust_9="27.23634"></scales>
<clustering>
<clus scale="   27.236">  2  9  1 -1</clus>
<clus scale="   90.995">  5  6 -1 -1</clus>
<clus scale="   92.341">  1  5  2 -1</clus>
<clus scale="   94.713">  7  8 -1 -1</clus>
<clus scale="   27.236">  2  5  1 -1</clus>
</clustering>
</event>
<event>
 9    1  0.1504846E-005  0.1105914E+03  0.7546771E-02  0.1259599E+00
          1   -1    0    0  502    0 -0.00000000000E+00  0.00000000000E+00  0.17683916742E+03  0.17683916742E+03  0.00000000000E+00 0. -1.
         21   -1    0    0  501  502  0.00000000000E+00 -0.00000000000E+00 -0.12527128968E+03  0.12527128968E+03  0.00000000000E+00 0.  1.
         23    2    1    2    0    0 -0.13835559738E+02 -0.56358215832E+02  0.92484185297E+02  0.14271002935E+03  0.91897533931E+02 0.  0.
         23    2    1    2    0    0 -0.43280117634E+01  0.72066026208E+02 -0.56756842261E+01  0.11675594195E+03  0.91583255949E+02 0.  0.
        -11    1    4    4    0    0 -0.30123901388E+02  0.69811171188E+02  0.21704636859E+02  0.79070476909E+02  0.00000000000E+00 0.  1.
         11    1    4    4    0    0  0.25795889624E+02  0.22548550197E+01 -0.27380321086E+02  0.37685465042E+02  0.00000000000E+00 0. -1.
        -13    1    3    3    0    0 -0.43669679790E+02 -0.15317997282E+02  0.76688013149E+02  0.89569712149E+02  0.00000000000E+00 0.  1.
         13    1    3    3    0    0  0.29834120052E+02 -0.41040218549E+02  0.15796172147E+02  0.53140317202E+02  0.00000000000E+00 0. -1.
          1    1    1    2  501    0  0.18163571501E+02 -0.15707810376E+02 -0.35240623331E+02  0.42644485801E+02  0.00000000000E+00 0. -1.
<scales pt_clust_5="13000.00000" pt_clust_6="13000.00000" pt_clust_7="13000.00000" pt_clust_8="13000.00000" pt_clust_9="24.01355"></scales>
<clustering>
<clus scale="   24.014">  2  9  1 -1</clus>
<clus scale="   91.583">  5  6 -1 -1</clus>
<clus scale="   91.898">  7  8 -1 -1</clus>
<clus scale="  110.330">  2  5  1 -1</clus>
<clus scale="   24.014">  2  5  1 -1</clus>
</clustering>
</event>
<event>
 9    1  0.1504846E-005  0.2386140E+03  0.7546771E-02  0.1120828E+00
          3   -1    0    0  502    0 -0.00000000000E+00  0.00000000000E+00  0.64362575473E+02  0.64362575473E+02  0.00000000000E+00 0. -1.
         21   -1    0    0  501  502  0.00000000000E+00 -0.00000000000E+00 -0.14109954299E+04  0.14109954299E+04  0.00000000000E+00 0. -1.
         23    2    1    2    0    0 -0.30857913038E+02  0.19604971451E+03 -0.37968008728E+03  0.43734964334E+03  0.87920648827E+02 0.  0.
         23    2    1    2    0    0  0.13231017281E+02 -0.25243806100E+03 -0.49567348200E+03  0.56304044977E+03  0.86152845933E+02 0.  0.
        -13    1    3    3    0    0 -0.47583978701E+02  0.18310483755E+03 -0.36644491507E+03  0.41239967548E+03  0.00000000000E+00 0. -1.
         13    1    3    3    0    0  0.16726065663E+02  0.12944876967E+02 -0.13235172218E+02  0.24949967854E+02  0.00000000000E+00 0.  1.
        -13    1    4    4    0    0 -0.35115792131E+02 -0.13453974966E+03 -0.23992326811E+03  0.27730351183E+03  0.00000000000E+00 0. -1.
         13    1    4    4    0    0  0.48346809412E+02 -0.11789831134E+03 -0.25575021389E+03  0.28573693794E+03  0.00000000000E+00 0.  1.
          3    1    1    2  501    0  0.17626895756E+02  0.56388346489E+02 -0.47127928511E+03  0.47496791223E+03  0.00000000000E+00 0. -1.
<scales pt_clust_5="13000.00000" pt_clust_6="13000.00000" pt_clust_7="13000.00000" pt_clust_8="13000.00000" pt_clust_9="59.07921"></scales>
<clustering>
<clus scale="   59.079">  2  9  1 -1</clus>
<clus scale="   86.153">  7  8 -1 -1</clus>
<clus scale="   87.921">  5  6 -1 -1</clus>
<clus scale="  237.968">  2  7  1 -1</clus>
<clus scale="   59.079">  2  5  1 -1</clus>
</clustering>
</event>
<event>
 9    1  0.1504846E-005  0.1781552E+03  0.7546771E-02  0.1173922E+00
          3   -1    0    0  502    0 -0.00000000000E+00  0.00000000000E+00  0.23914175293E+03  0.23914175293E+03  0.00000000000E+00 0. -1.
         21   -1    0    0  501  502  0.00000000000E+00 -0.00000000000E+00 -0.57659393300E+03  0.57659393300E+03  0.00000000000E+00 0. -1.
         23    2    1    2    0    0 -0.14402517798E+03  0.15698342832E+02  0.13380263026E+03  0.23107527226E+03  0.12042818492E+03 0.  0.
         23    2    1    2    0    0  0.10658334810E+03  0.22788828381E+02 -0.38999632188E+02  0.14908299001E+03  0.93943737460E+02 0.  0.
        -11    1    4    4    0    0  0.10187563473E+03  0.47589691969E+02 -0.48031696046E+02  0.12227210458E+03  0.00000000000E+00 0. -1.
         11    1    4    4    0    0  0.47077133675E+01 -0.24800863588E+02  0.90320638576E+01  0.26810885427E+02  0.00000000000E+00 0.  1.
        -13    1    3    3    0    0 -0.13260329359E+03  0.40548846608E+02  0.14579982021E+03  0.20120991528E+03  0.00000000000E+00 0. -1.
         13    1    3    3    0    0 -0.11421884394E+02 -0.24850503776E+02 -0.11997189950E+02  0.29865356983E+02  0.00000000000E+00 0.  1.
          3    1    1    2  501    0  0.37441829885E+02 -0.38487171214E+02 -0.43225517814E+03  0.43557742366E+03  0.00000000000E+00 0. -1.
<scales pt_clust_5="13000.00000" pt_clust_6="13000.00000" pt_clust_7="13000.00000" pt_clust_8="13000.00000" pt_clust_9="53.69500"></scales>
<clustering>
<clus scale="   53.695">  2  9  1 -1</clus>
<clus scale="   93.944">  5  6 -1 -1</clus>
<clus scale="  120.428">  7  8 -1 -1</clus>
<clus scale="  161.437">  2  5  1 -1</clus>
<clus scale="   53.695">  2  5  1 -1</clus>
</clustering>
</event>
<event>
 9    1  0.1504846E-005  0.9779650E+02  0.7546771E-02  0.1285444E+00
         -1   -1    0    0    0  501 -0.00000000000E+00  0.00000000000E+00  0.30203091679E+03  0.30203091679E+03  0.00000000000E+00 0.  1.
         21   -1    0    0  501  502  0.00000000000E+00 -0.00000000000E+00 -0.44967271431E+02  0.44967271431E+02  0.00000000000E+00 0. -1.
         23    2    1    2    0    0 -0.50159708313E+01  0.41755752060E+02  0.16589486522E+03  0.19450160938E+03  0.92417893040E+02 0.  0.
         23    2    1    2    0    0  0.11133961868E+02 -0.13442257550E+02  0.67236986579E+02  0.11492245837E+03  0.91551623026E+02 0.  0.
        -11    1    4    4    0    0 -0.38525867596E+02 -0.81869122001E+01  0.46267054224E+02  0.60761075632E+02  0.00000000000E+00 0. -1.
         11    1    4    4    0    0  0.49659829464E+02 -0.52553453498E+01  0.20969932355E+02  0.54161382738E+02  0.00000000000E+00 0.  1.
        -13    1    3    3    0    0  0.26034075476E+02  0.90075413730E+01  0.13955691759E+03  0.14224992841E+03  0.00000000000E+00 0.  1.
         13    1    3    3    0    0 -0.31050046307E+02  0.32748210687E+02  0.26337947632E+02  0.52251680971E+02  0.00000000000E+00 0. -1.
         -1    1    1    2    0  502 -0.61179910365E+01 -0.28313494510E+02  0.23931793560E+02  0.37574120465E+02  0.00000000000E+00 0.  1.
<scales pt_clust_5="13000.00000" pt_clust_6="13000.00000" pt_clust_7="13000.00000" pt_clust_8="13000.00000" pt_clust_9="28.96694"></scales>
<clustering>
<clus scale="   28.967">  2  9  1 -1</clus>
<clus scale="   91.552">  5  6 -1 -1</clus>
<clus scale="   92.418">  7  8 -1 -1</clus>
<clus scale="   96.978">  2  5  1 -1</clus>
<clus scale="   28.967">  2  5  1 -1</clus>
</clustering>
</event>
<event>
 9    1  0.1504846E-005  0.1038180E+03  0.7546771E-02  0.1280532E+00
          2   -1    0    0  502    0 -0.00000000000E+00  0.00000000000E+00  0.57189709732E+03  0.57189709732E+03  0.00000000000E+00 0. -1.
         21   -1    0    0  501  502  0.00000000000E+00 -0.00000000000E+00 -0.75247023607E+02  0.75247023607E+02  0.00000000000E+00 0.  1.
         23    2    1    2    0    0 -0.27931226970E+02 -0.39433535639E+02  0.50065864371E+03  0.51108690864E+03  0.90639911121E+02 0.  0.
         23    2    1    2    0    0  0.50874785467E+02  0.57311298524E+02 -0.97905120366E+01  0.10640165402E+03  0.73161664266E+02 0.  0.
        -11    1    4    4    0    0  0.10343828748E+02  0.43119693404E+02  0.25203807559E+02  0.51005241573E+02  0.00000000000E+00 0.  1.
         11    1    4    4    0    0  0.40530956719E+02  0.14191605120E+02 -0.34994319596E+02  0.55396412451E+02  0.00000000000E+00 0. -1.
        -11    1    3    3    0    0  0.15778651889E+02  0.20179262057E+02  0.80565669995E+02  0.84539905692E+02  0.00000000000E+00 0.  1.
         11    1    3    3    0    0 -0.43709878859E+02 -0.59612797696E+02  0.42009297372E+03  0.42654700295E+03  0.00000000000E+00 0. -1.
          2    1    1    2  501    0 -0.22943558496E+02 -0.17877762885E+02  0.57819420392E+01  0.29655558265E+02  0.00000000000E+00 0. -1.
<scales pt_clust_5="13000.00000" pt_clust_6="13000.00000" pt_clust_7="13000.00000" pt_clust_8="13000.00000" pt_clust_9="29.08644"></scales>
<clustering>
<clus scale="   29.086">  2  9  1 -1</clus>
<clus scale="   73.162">  5  6 -1 -1</clus>
<clus scale="   88.967">  2  5  1 -1</clus>
<clus scale="   90.640">  7  8 -1 -1</clus>
<clus scale="   29.086">  2  5  1 -1</clus>
</clustering>
</event>
<event>
 9    1  0.1504846E-005  0.1043553E+03  0.7546771E-02  0.1273399E+00
         -3   -1    0    0    0  501 -0.00000000000E+00  0.00000000000E+00  0.93071250184E+02  0.93071250184E+02  0.00000000000E+00 0.  1.
         21   -1    0    0  501  502  0.00000000000E+00 -0.00000000000E+00 -0.26507363258E+03  0.26507363258E+03  0.00000000000E+00 0.  1.
         23    2    1    2    0    0 -0.13527033126E+02  0.44642744326E+02  0.97974354102E+01  0.10630921779E+03  0.95024758886E+02 0.  0.
         23    2    1    2    0    0 -0.81327597419E+01 -0.40173830877E+02 -0.38262583504E+02  0.10660462337E+03  0.90666652955E+02 0.  0.
        -11    1    3    3    0    0  0.19311153044E+02  0.49031872734E+02 -0.24944105756E+02  0.58303118164E+02  0.00000000000E+00 0. -1.
         11    1    3    3    0    0 -0.32838186170E+02 -0.43891284077E+01  0.34741541166E+02  0.48006099630E+02  0.00000000000E+00 0.  1.
        -13    1    4    4    0    0 -0.13179903215E+01 -0.66040196469E+02 -0.43843156611E+02  0.79279676020E+02  0.00000000000E+00 0. -1.
         13    1    4    4    0    0 -0.68147694204E+01  0.25866365593E+02  0.55805731063E+01  0.27324947345E+02  0.00000000000E+00 0.  1.
         -3    1    1    2    0  502  0.21659792868E+02 -0.44689134497E+01 -0.14353723430E+03  0.14523104161E+03  0.00000000000E+00 0.  1.
<scales pt_clust_5="13000.00000" pt_clust_6="13000.00000" pt_clust_7="13000.00000" pt_clust_8="13000.00000" pt_clust_9="22.11601"></scales>
<clustering>
<clus scale="   22.116">  2  9  1 -1</clus>
<clus scale="   90.667">  7  8 -1 -1</clus>
<clus scale="   95.025">  5  6 -1 -1</clus>
<clus scale="  100.403">  2  7  1 -1</clus>
<clus scale="   22.116">  2  5  1 -1</clus>
</clustering>
</event>
<event>
 9    1  0.1504846E-005  0.1737202E+03  0.7546771E-02  0.1174478E+00
         21   -1    0    0  501  502  0.00000000000E+00  0.00000000000E+00  0.31778678279E+02  0.31778678279E+02  0.00000000000E+00 0. -1.
          1   -1    0    0  502    0 -0.00000000000E+00 -0.00000000000E+00 -0.12946552437E+04  0.12946552437E+04  0.00000000000E+00 0. -1.
         23    2    1    2    0    0  0.64561041387E+02 -0.10964514003E+03 -0.54617539163E+03  0.56866918809E+03  0.94270367903E+02 0.  0.
         23    2    1    2    0    0 -0.60616650940E+02  0.15886652372E+03 -0.54864833922E+03  0.58260749585E+03  0.97486118819E+02 0.  0.
        -13    1    4    4    0    0 -0.62183218129E+02  0.78917366735E+02 -0.41388601195E+03  0.42590648537E+03  0.00000000000E+00 0.  1.
         13    1    4    4    0    0  0.15665671892E+01  0.79949156988E+02 -0.13476232727E+03  0.15670101049E+03  0.00000000000E+00 0. -1.
        -13    1    3    3    0    0  0.83105947414E+02 -0.85330755556E+02 -0.49432302514E+03  0.50847142449E+03  0.00000000000E+00 0. -1.
         13    1    3    3    0    0 -0.18544906027E+02 -0.24314384475E+02 -0.51852366490E+02  0.60197763601E+02  0.00000000000E+00 0.  1.
          1    1    1    2  501    0 -0.39443904471E+01 -0.49221383691E+02 -0.16805283453E+03  0.17515723799E+03  0.00000000000E+00 0. -1.
<scales pt_clust_5="13000.00000" pt_clust_6="13000.00000" pt_clust_7="13000.00000" pt_clust_8="13000.00000" pt_clust_9="49.37920"></scales>
<clustering>
<clus scale="   49.379">  1  9  2 -1</clus>
<clus scale="   94.270">  7  8 -1 -1</clus>
<clus scale="   97.486">  5  6 -1 -1</clus>
<clus scale="  171.936">  2  7  1 -1</clus>
<clus scale="   49.379">  1  5  2 -1</clus>
</clustering>
</event>
<event>
 9    1  0.1504846E-005  0.1671972E+03  0.7546771E-02  0.1192985E+00
         21   -1    0    0  501  502  0.00000000000E+00  0.00000000000E+00  0.21458954861E+03  0.21458954861E+03  0.00000000000E+00 0. -1.
          2   -1    0    0  502    0 -0.00000000000E+00 -0.00000000000E+00 -0.44446827432E+03  0.44446827432E+03  0.00000000000E+00 0. -1.
         23    2    1    2    0    0 -0.90368398456E+02 -0.39776384243E+02 -0.10833717832E+03  0.16735582539E+03  0.80761500130E+02 0.  0.
         23    2    1    2    0    0 -0.40164796803E+02  0.10597370145E+03 -0.25499321839E+03  0.29363547244E+03  0.91414511691E+02 0.  0.
        -13    1    4    4    0    0 -0.64022919099E+02  0.95201674222E+02 -0.17316359140E+03  0.20772077973E+03  0.00000000000E+00 0. -1.
         13    1    4    4    0    0  0.23858122296E+02  0.10772027232E+02 -0.81829626996E+02  0.85914692716E+02  0.00000000000E+00 0.  1.
        -13    1    3    3    0    0 -0.83086432231E+02  0.32791987491E+01 -0.79395628814E+02  0.11496857936E+03  0.00000000000E+00 0.  1.
         13    1    3    3    0    0 -0.72819662245E+01 -0.43055582992E+02 -0.28941549502E+02  0.52387246028E+02  0.00000000000E+00 0. -1.
          2    1    1    2  501    0  0.13053319526E+03 -0.66197317211E+02  0.13345167100E+03  0.19806652509E+03  0.00000000000E+00 0. -1.
<scales pt_clust_5="13000.00000" pt_clust_6="13000.00000" pt_clust_7="13000.00000" pt_clust_8="13000.00000" pt_clust_9="139.99392"></scales>
<clustering>
<clus scale="   80.762">  7  8 -1 -1</clus>
<clus scale="   91.415">  5  6 -1 -1</clus>
<clus scale="  127.558">  2  7  1 -1</clus>
<clus scale="  139.994">  1  9  2 -1</clus>
<clus scale="  139.994">  1  5  2 -1</clus>
</clustering>
</event>
<event>
 9    1  0.1720505E-005  0.1111399E+03  0.7546771E-02  0.1260554E+00
          1   -1    0    0  502    0 -0.00000000000E+00  0.00000000000E+00  0.79074833328E+03  0.79074833328E+03  0.00000000000E+00 0. -1.
         21   -1    0    0  501  502  0.00000000000E+00 -0.00000000000E+00 -0.63942721939E+02  0.63942721939E+02  0.00000000000E+00 0. -1.
         23    2    1    2    0    0 -0.72285697379E+01  0.70450201976E+02  0.65333279645E+03  0.66389330758E+03  0.94313825874E+02 0.  0.
         23    2    1    2    0    0  0.10228298450E+02 -0.16261677517E+02  0.95741829417E+02  0.13213512272E+03  0.89017596635E+02 0.  0.
        -11    1    3    3    0    0  0.32842721599E+02 -0.39457792345E+01  0.16126293563E+03  0.16462061822E+03  0.00000000000E+00 0.  1.
         11    1    3    3    0    0 -0.40071291337E+02  0.74395981210E+02  0.49206986082E+03  0.49927268936E+03  0.00000000000E+00 0. -1.
        -13    1    4    4    0    0 -0.39512623179E+02 -0.10187816506E+02  0.46779233548E+02  0.62075242142E+02  0.00000000000E+00 0.  1.
         13    1    4    4    0    0  0.49740921629E+02 -0.60738610115E+01  0.48962595869E+02  0.70059880576E+02  0.00000000000E+00 0. -1.
          1    1    1    2  501    0 -0.29997287124E+01 -0.54188524458E+02 -0.22269014523E+02  0.58662624926E+02  0.00000000000E+00 0. -1.
<scales pt_clust_5="13000.00000" pt_clust_6="13000.00000" pt_clust_7="13000.00000" pt_clust_8="13000.00000" pt_clust_9="54.27149"></scales>
<clustering>
<clus scale="   54.271">  2  9  1 -1</clus>
<clus scale="   89.018">  7  8 -1 -1</clus>
<clus scale="   94.314">  5  6 -1 -1</clus>
<clus scale="  106.682">  2  7  1 -1</clus>
<clus scale="   54.271">  2  5  1 -1</clus>
</clustering>
</event>
<event>
 9    1  0.1504846E-005  0.1314057E+03  0.7546771E-02  0.1225919E+00
          2   -1    0    0  502    0 -0.00000000000E+00  0.00000000000E+00  0.11913165968E+03  0.11913165968E+03  0.00000000000E+00 0. -1.
         21   -1    0    0  501  502  0.00000000000E+00 -0.00000000000E+00 -0.21364227219E+03  0.21364227219E+03  0.00000000000E+00 0.  1.
         23    2    1    2    0    0  0.92565801241E+02  0.52938074149E+02  0.35551320413E+01  0.14160908725E+03  0.93110833812E+02 0.  0.
         23    2    1    2    0    0 -0.63692793479E+02 -0.41797321062E+02 -0.39840067100E+02  0.12522550529E+03  0.91051678946E+02 0.  0.
        -13    1    4    4    0    0  0.20239422941E+02 -0.15038631177E+02  0.59987315103E+01  0.25918708463E+02  0.00000000000E+00 0. -1.
         13    1    4    4    0    0 -0.83932216420E+02 -0.26758689884E+02 -0.45838798610E+02  0.99306796824E+02  0.00000000000E+00 0.  1.
        -13    1    3    3    0    0  0.14826612483E+02  0.61581653578E+02  0.21736183891E+01  0.63378648708E+02  0.00000000000E+00 0.  1.
         13    1    3    3    0    0  0.77739188757E+02 -0.86435794295E+01  0.13815136523E+01  0.78230438539E+02  0.00000000000E+00 0. -1.
          2    1    1    2  501    0 -0.28873007762E+02 -0.11140753087E+02 -0.58225677450E+02  0.65939339329E+02  0.00000000000E+00 0. -1.
<scales pt_clust_5="13000.00000" pt_clust_6="13000.00000" pt_clust_7="13000.00000" pt_clust_8="13000.00000" pt_clust_9="30.94781"></scales>
<clustering>
<clus scale="   30.948">  2  9  1 -1</clus>
<clus scale="   91.052">  5  6 -1 -1</clus>
<clus scale="   93.111">  7  8 -1 -1</clus>
<clus scale="  129.955">  2  5  1 -1</clus>
<clus scale="   30.948">  2  5  1 -1</clus>
</clustering>
</event>
<event>
 9    1  0.1504846E-005  0.9795823E+02  0.7546771E-02  0.1285627E+00
         -1   -1    0    0    0  501 -0.00000000000E+00  0.00000000000E+00  0.14583838840E+03  0.14583838840E+03  0.00000000000E+00 0.  1.
         21   -1    0    0  501  502  0.00000000000E+00 -0.00000000000E+00 -0.23825901951E+03  0.23825901951E+03  0.00000000000E+00 0.  1.
         23    2    1    2    0    0  0.31889553685E+02 -0.22724442075E+02  0.98974734641E+02  0.14079070971E+03  0.92155748288E+02 0.  0.
         23    2    1    2    0    0 -0.12077878480E+02 -0.28293675134E+02 -0.11644651347E+03  0.15050216588E+03  0.90248015132E+02 0.  0.
        -11    1    3    3    0    0  0.55206973833E+02  0.12718012564E+02  0.66520678589E+02  0.87375960558E+02  0.00000000000E+00 0.  1.
         11    1    3    3    0    0 -0.23317420148E+02 -0.35442454639E+02  0.32454056052E+02  0.53414749156E+02  0.00000000000E+00 0. -1.
        -13    1    4    4    0    0  0.20889522347E+02 -0.49903573638E+02 -0.52521314064E+02  0.75400445865E+02  0.00000000000E+00 0.  1.
         13    1    4    4    0    0 -0.32967400827E+02  0.21609898504E+02 -0.63925199405E+02  0.75101720018E+02  0.00000000000E+00 0. -1.
         -1    1    1    2    0  502 -0.19811675205E+02  0.51018117209E+02 -0.74948852289E+02  0.92804532311E+02  0.00000000000E+00 0.  1.
<scales pt_clust_5="13000.00000" pt_clust_6="13000.00000" pt_clust_7="13000.00000" pt_clust_8="13000.00000" pt_clust_9="54.72980"></scales>
<clustering>
<clus scale="   54.730">  2  9  1 -1</clus>
<clus scale="   90.248">  7  8 -1 -1</clus>
<clus scale="   92.156">  5  6 -1 -1</clus>
<clus scale="   96.166">  2  7  1 -1</clus>
<clus scale="   54.730">  2  5  1 -1</clus>
</clustering>
</event>
<event>
 9    1  0.1504846E-005  0.4940149E+03  0.7546771E-02  0.1015497E+00
          2   -1    0    0  502    0 -0.00000000000E+00  0.00000000000E+00  0.15145576932E+04  0.15145576932E+04  0.00000000000E+00 0. -1.
         21   -1    0    0  501  502  0.00000000000E+00 -0.00000000000E+00 -0.27227906345E+03  0.27227906345E+03  0.00000000000E+00 0. -1.
         23    2    1    2    0    0  0.13659587821E+02 -0.57074770618E+03  0.94461259122E+03  0.11078168730E+04  0.95003937193E+02 0.  0.
         23    2    1    2    0    0  0.33174811218E+02  0.37980480209E+03  0.28274522984E+03  0.48185172176E+03  0.82969638858E+02 0.  0.
        -13    1    3    3    0    0  0.44563856591E+02 -0.49428296253E+03  0.81034581580E+03  0.95024308761E+03  0.00000000000E+00 0. -1.
         13    1    3    3    0    0 -0.30904268770E+02 -0.76464743650E+02  0.13426677542E+03  0.15757378536E+03  0.00000000000E+00 0.  1.
        -13    1    4    4    0    0 -0.96068311398E+01  0.28056506635E+03  0.22184546153E+03  0.35780505371E+03  0.00000000000E+00 0. -1.
         13    1    4    4    0    0  0.42781642357E+02  0.99239735748E+02  0.60899768309E+02  0.12404666805E+03  0.00000000000E+00 0.  1.
          2    1    1    2  501    0 -0.46834399039E+02  0.19094290408E+03  0.14920808706E+02  0.19716816195E+03  0.00000000000E+00 0. -1.
<scales pt_clust_5="13000.00000" pt_clust_6="13000.00000" pt_clust_7="13000.00000" pt_clust_8="13000.00000" pt_clust_9="196.60278"></scales>
<clustering>
<clus scale="   82.970">  7  8 -1 -1</clus>
<clus scale="   95.004">  5  6 -1 -1</clus>
<clus scale="  196.603">  2  9  1 -1</clus>
<clus scale="  491.842">  2  7  1 -1</clus>
<clus scale="  196.603">  2  5  1 -1</clus>
</clustering>
</event>
<event>
 9    1  0.1504846E-005  0.9505276E+02  0.7546771E-02  0.1291662E+00
          1   -1    0    0  502    0 -0.00000000000E+00  0.00000000000E+00  0.32225401367E+03  0.32225401367E+03  0.00000000000E+00 0. -1.
         21   -1    0    0  501  502  0.00000000000E+00 -0.00000000000E+00 -0.46922689356E+02  0.46922689356E+02  0.00000000000E+00 0.  1.
         23    2    1    2    0    0 -0.17503566528E+02 -0.25043524089E+02  0.19085940152E+03  0.21415385787E+03  0.92200925989E+02 0.  0.
         23    2    1    2    0    0  0.15213264047E+02  0.11375010220E+01  0.91484417451E+02  0.13000448178E+03  0.91099008418E+02 0.  0.
        -11    1    3    3    0    0  0.37382997648E+02 -0.19535114631E+01  0.67908073031E+02  0.77542318143E+02  0.00000000000E+00 0. -1.
         11    1    3    3    0    0 -0.54886564176E+02 -0.23090012626E+02  0.12295132849E+03  0.13661153973E+03  0.00000000000E+00 0.  1.
        -11    1    4    4    0    0  0.25375120082E+02  0.31155564233E+02  0.89669865859E+02  0.98261135476E+02  0.00000000000E+00 0. -1.
         11    1    4    4    0    0 -0.10161856035E+02 -0.30018063211E+02  0.18145515913E+01  0.31743346302E+02  0.00000000000E+00 0.  1.
          1    1    1    2  501    0  0.22903024816E+01  0.23906023067E+02 -0.70124946627E+01  0.25018363370E+02  0.00000000000E+00 0. -1.
<scales pt_clust_5="13000.00000" pt_clust_6="13000.00000" pt_clust_7="13000.00000" pt_clust_8="13000.00000" pt_clust_9="24.01548"></scales>
<clustering>
<clus scale="   24.015">  2  9  1 -1</clus>
<clus scale="   91.099">  7  8 -1 -1</clus>
<clus scale="   92.201">  5  6 -1 -1</clus>
<clus scale="   93.984">  2  7  1 -1</clus>
<clus scale="   24.015">  2  5  1 -1</clus>
</clustering>
</event>
<event>
 9    1  0.1504846E-005  0.9628125E+02  0.7546771E-02  0.1290952E+00
         -1   -1    0    0    0  501 -0.00000000000E+00  0.00000000000E+00  0.74453852293E+02  0.74453852293E+02  0.00000000000E+00 0.  1.
         21   -1    0    0  501  502  0.00000000000E+00 -0.00000000000E+00 -0.37955308943E+03  0.37955308943E+03  0.00000000000E+00 0.  1.
         23    2    1    2    0    0 -0.36801840449E+02  0.22208179372E+02  0.14211073631E+02  0.97351288312E+02  0.86184337503E+02 0.  0.
         23    2    1    2    0    0 -0.21401331183E+02 -0.33437560276E+01 -0.15224370729E+03  0.17873790372E+03  0.91103754792E+02 0.  0.
        -11    1    3    3    0    0  0.21582087072E+01 -0.30228407883E+02  0.99074263410E+01  0.31883720057E+02  0.00000000000E+00 0. -1.
         11    1    3    3    0    0 -0.38960049156E+02  0.52436587255E+02  0.43036472901E+01  0.65467568255E+02  0.00000000000E+00 0.  1.
        -11    1    4    4    0    0  0.23808333395E+02  0.19320555819E+02 -0.18639447456E+02  0.35882441635E+02  0.00000000000E+00 0.  1.
         11    1    4    4    0    0 -0.45209664578E+02 -0.22664311846E+02 -0.13360425983E+03  0.14285546209E+03  0.00000000000E+00 0. -1.
         -1    1    1    2    0  502  0.58203171632E+02 -0.18864423344E+02 -0.16706660348E+03  0.17791774969E+03  0.00000000000E+00 0.  1.
<scales pt_clust_5="13000.00000" pt_clust_6="13000.00000" pt_clust_7="13000.00000" pt_clust_8="13000.00000" pt_clust_9="61.18395"></scales>
<clustering>
<clus scale="   61.184">  2  9  1 -1</clus>
<clus scale="   86.184">  5  6 -1 -1</clus>
<clus scale="   91.104">  7  8 -1 -1</clus>
<clus scale="   91.640">  1  5  2 -1</clus>
<clus scale="   61.184">  2  5  1 -1</clus>
</clustering>
</event>
<event>
 9    1  0.1622136E-005  0.1366198E+03  0.7546771E-02  0.1219270E+00
          2   -1    0    0  502    0 -0.00000000000E+00  0.00000000000E+00  0.50963395239E+03  0.50963395239E+03  0.00000000000E+00 0. -1.
         21   -1    0    0  501  502  0.00000000000E+00 -0.00000000000E+00 -0.44907330908E+03  0.44907330908E+03  0.00000000000E+00 0. -1.
         23    2    1    2    0    0  0.23790304906E+02  0.79367956254E+02  0.20075070088E+03  0.23539604056E+03  0.90803088722E+02 0.  0.
         23    2    1    2    0    0  0.17896647393E+02 -0.11730624553E+03  0.26948965195E+03  0.30977212944E+03  0.96192798282E+02 0.  0.
        -13    1    3    3    0    0  0.14442374329E+02 -0.17257428612E+02  0.19460868252E+02  0.29751074126E+02  0.00000000000E+00 0. -1.
         13    1    3    3    0    0  0.93479305777E+01  0.96625384866E+02  0.18128983263E+03  0.20564496644E+03  0.00000000000E+00 0.  1.
        -13    1    4    4    0    0 -0.17852276261E+02 -0.11478099540E+03  0.19215573236E+03  0.22453776108E+03  0.00000000000E+00 0. -1.
         13    1    4    4    0    0  0.35748923654E+02 -0.25252501339E+01  0.77333919589E+02  0.85234368359E+02  0.00000000000E+00 0.  1.
          2    1    1    2  501    0 -0.41686952300E+02  0.37938289277E+02 -0.40967970952E+03  0.41353909148E+03  0.00000000000E+00 0. -1.
<scales pt_clust_5="13000.00000" pt_clust_6="13000.00000" pt_clust_7="13000.00000" pt_clust_8="13000.00000" pt_clust_9="56.36591"></scales>
<clustering>
<clus scale="   56.366">  2  9  1 -1</clus>
<clus scale="   90.803">  5  6 -1 -1</clus>
<clus scale="   96.193">  7  8 -1 -1</clus>
<clus scale="  132.880">  1  5  2 -1</clus>
<clus scale="   56.366">  2  5  1 -1</clus>
</clustering>
</event>
<event>
 9    1  0.1504846E-005  0.9474103E+02  0.7546771E-02  0.1292528E+00
          1   -1    0    0  502    0 -0.00000000000E+00  0.00000000000E+00  0.52360731483E+03  0.52360731483E+03  0.00000000000E+00 0. -1.
         21   -1    0    0  501  502  0.00000000000E+00 -0.00000000000E+00 -0.53463890574E+02  0.53463890574E+02  0.00000000000E+00 0. -1.
         23    2    1    2    0    0  0.16858376791E+02  0.12494903966E+01  0.41641649900E+03  0.42692121445E+03  0.92591881996E+02 0.  0.
         23    2    1    2    0    0 -0.32498717678E+02 -0.27412814179E+02  0.62458858448E+02  0.11844216176E+03  0.91212979625E+02 0.  0.
        -11    1    3    3    0    0 -0.13617178975E+02  0.41119812609E+02  0.16866625749E+03  0.17413952156E+03  0.00000000000E+00 0.  1.
         11    1    3    3    0    0  0.30475555766E+02 -0.39870322212E+02  0.24775024152E+03  0.25278169290E+03  0.00000000000E+00 0. -1.
        -13    1    4    4    0    0 -0.55823396444E+00  0.29428600482E+02  0.19634909984E+01  0.29499312676E+02  0.00000000000E+00 0.  1.
         13    1    4    4    0    0 -0.31940483714E+02 -0.56841414660E+02  0.60495367450E+02  0.88942849085E+02  0.00000000000E+00 0. -1.
          1    1    1    2  501    0  0.15640340888E+02  0.26163323782E+02 -0.87319331996E+01  0.31707829188E+02  0.00000000000E+00 0. -1.
<scales pt_clust_5="13000.00000" pt_clust_6="13000.00000" pt_clust_7="13000.00000" pt_clust_8="13000.00000" pt_clust_9="30.48179"></scales>
<clustering>
<clus scale="   30.482">  2  9  1 -1</clus>
<clus scale="   91.213">  7  8 -1 -1</clus>
<clus scale="   92.592">  5  6 -1 -1</clus>
<clus scale="   93.394">  2  7  1 -1</clus>
<clus scale="   30.482">  2  5  1 -1</clus>
</clustering>
</event>
<event>
 9    1  0.1504846E-005  0.1272192E+03  0.7546771E-02  0.1231756E+00
         21   -1    0    0  501  502  0.00000000000E+00  0.00000000000E+00  0.40547249296E+03  0.40547249296E+03  0.00000000000E+00 0.  1.
          1   -1    0    0  502    0 -0.00000000000E+00 -0.00000000000E+00 -0.64242134388E+02  0.64242134388E+02  0.00000000000E+00 0. -1.
         23    2    1    2    0    0 -0.76023380761E+02  0.45036410646E+02  0.74230272323E+02  0.14711155894E+03  0.91235106936E+02 0.  0.
         23    2    1    2    0    0  0.88788160031E+02 -0.21644650101E+02  0.12997378809E+03  0.18300965725E+03  0.90815862148E+02 0.  0.
        -11    1    4    4    0    0  0.51499634787E+02 -0.54537775583E+02  0.99803560665E+02  0.12484923736E+03  0.00000000000E+00 0. -1.
         11    1    4    4    0    0  0.37288525243E+02  0.32893125482E+02  0.30170227423E+02  0.58160419888E+02  0.00000000000E+00 0.  1.
        -13    1    3    3    0    0 -0.39305338768E+02  0.41948136682E+02  0.90193031415E+02  0.10695484441E+03  0.00000000000E+00 0.  1.
         13    1    3    3    0    0 -0.36718041993E+02  0.30882739642E+01 -0.15962759092E+02  0.40156714528E+02  0.00000000000E+00 0. -1.
          1    1    1    2  501    0 -0.12764779270E+02 -0.23391760545E+02  0.13702629816E+03  0.13959341116E+03  0.00000000000E+00 0. -1.
<scales pt_clust_5="13000.00000" pt_clust_6="13000.00000" pt_clust_7="13000.00000" pt_clust_8="13000.00000" pt_clust_9="26.64797"></scales>
<clustering>
<clus scale="   26.648">  1  9  2 -1</clus>
<clus scale="   90.816">  5  6 -1 -1</clus>
<clus scale="   91.235">  7  8 -1 -1</clus>
<clus scale="  126.919">  1  5  2 -1</clus>
<clus scale="   26.648">  1  5  2 -1</clus>
</clustering>
</event>
<event>
 9    1  0.1504846E-005  0.1830320E+03  0.7546771E-02  0.1189199E+00
         21   -1    0    0  501  502  0.00000000000E+00  0.00000000000E+00  0.70919932218E+02  0.70919932218E+02  0.00000000000E+00 0. -1.
          1   -1    0    0  502    0 -0.00000000000E+00 -0.00000000000E+00 -0.12848920770E+04  0.12848920770E+04  0.00000000000E+00 0. -1.
         23    2    1    2    0    0  0.44512582944E+02 -0.27277154968E+02 -0.29264774459E+03  0.31115096361E+03  0.91906509641E+02 0.  0.
         23    2    1    2    0    0 -0.18299802377E+03  0.67312003051E+02 -0.85985831443E+03  0.88794765729E+03  0.10524038544E+03 0.  0.
        -11    1    3    3    0    0  0.54589671509E+02 -0.54125189161E+02 -0.20562440291E+03  0.21952440276E+03  0.00000000000E+00 0.  1.
         11    1    3    3    0    0 -0.10077088565E+02  0.26848034194E+02 -0.87023341683E+02  0.91626560841E+02  0.00000000000E+00 0. -1.
        -11    1    4    4    0    0 -0.11252432094E+03  0.29787337398E+02 -0.69607162799E+03  0.70573700453E+03  0.00000000000E+00 0. -1.
         11    1    4    4    0    0 -0.70473702828E+02  0.37524665653E+02 -0.16378668645E+03  0.18221065276E+03  0.00000000000E+00 0.  1.
          1    1    1    2  501    0  0.13848544082E+03 -0.40034848083E+02 -0.61466085756E+02  0.15671338832E+03  0.00000000000E+00 0. -1.
<scales pt_clust_5="13000.00000" pt_clust_6="13000.00000" pt_clust_7="13000.00000" pt_clust_8="13000.00000" pt_clust_9="149.75032"></scales>
<clustering>
<clus scale="   91.907">  5  6 -1 -1</clus>
<clus scale="  105.240">  7  8 -1 -1</clus>
<clus scale="  105.699">  2  5  1 -1</clus>
<clus scale="  149.750">  1  9  2 -1</clus>
<clus scale="  149.750">  1  5  2 -1</clus>
</clustering>
</event>
<event>
 9    1  0.1504846E-005  0.1342073E+03  0.7546771E-02  0.1226135E+00
         21   -1    0    0  501  502  0.00000000000E+00  0.00000000000E+00  0.48018065578E+02  0.48018065578E+02  0.00000000000E+00 0.  1.
          1   -1    0    0  502    0 -0.00000000000E+00 -0.00000000000E+00 -0.86802733468E+03  0.86802733468E+03  0.00000000000E+00 0. -1.
         23    2    1    2    0    0  0.20554488646E+02 -0.68618232956E+02 -0.63739482236E+03  0.65045092631E+03  0.10808931060E+03 0.  0.
         23    2    1    2    0    0 -0.28258033573E+02  0.11155353062E+03 -0.15612243775E+03  0.21455908496E+03  0.91753358049E+02 0.  0.
        -11    1    3    3    0    0 -0.97658096179E+00 -0.95129201368E+02 -0.49016714710E+03  0.49931388000E+03  0.00000000000E+00 0. -1.
         11    1    3    3    0    0  0.21531069608E+02  0.26510968412E+02 -0.14722767526E+03  0.15113704631E+03  0.00000000000E+00 0.  1.
        -13    1    4    4    0    0  0.33131582543E+02  0.43002581352E+02 -0.46899390850E+02  0.71738947768E+02  0.00000000000E+00 0.  1.
         13    1    4    4    0    0 -0.61389616116E+02  0.68550949264E+02 -0.10922304690E+03  0.14282013719E+03  0.00000000000E+00 0. -1.
          1    1    1    2  501    0  0.77035449269E+01 -0.42935297660E+02 -0.26492008994E+02  0.51035388998E+02  0.00000000000E+00 0. -1.
<scales pt_clust_5="13000.00000" pt_clust_6="13000.00000" pt_clust_7="13000.00000" pt_clust_8="13000.00000" pt_clust_9="43.62092"></scales>
<clustering>
<clus scale="   43.621">  1  9  2 -1</clus>
<clus scale="   91.753">  7  8 -1 -1</clus>
<clus scale="  108.089">  5  6 -1 -1</clus>
<clus scale="  121.437">  1  7  2 -1</clus>
<clus scale="   43.621">  1  5  2 -1</clus>
</clustering>
</event>
<event>
 9    1  0.1504846E-005  0.1368024E+03  0.7546771E-02  0.1218448E+00
          1   -1    0    0  502    0 -0.00000000000E+00  0.00000000000E+00  0.13888139313E+03  0.13888139313E+03  0.00000000000E+00 0. -1.
         21   -1    0    0  501  502  0.00000000000E+00 -0.00000000000E+00 -0.23855516323E+03  0.23855516323E+03  0.00000000000E+00 0. -1.
         23    2    1    2    0    0  0.95819231940E+01  0.10339387845E+03  0.30035489835E+02  0.14038097417E+03  0.89568855667E+02 0.  0.
         23    2    1    2    0    0  0.37676249881E+02 -0.94596913776E+02 -0.55213148908E+02  0.14839673003E+03  0.92763256566E+02 0.  0.
        -11    1    4    4    0    0  0.48364772852E+02 -0.66914079707E+02 -0.75959127968E+02  0.11218927951E+03  0.00000000000E+00 0. -1.
         11    1    4    4    0    0 -0.10688522971E+02 -0.27682834070E+02  0.20745979060E+02  0.36207450512E+02  0.00000000000E+00 0.  1.
        -13    1    3    3    0    0 -0.72725120505E+01  0.64427543482E+02 -0.26190493247E+02  0.69926673932E+02  0.00000000000E+00 0. -1.
         13    1    3    3    0    0  0.16854435244E+02  0.38966334972E+02  0.56225983082E+02  0.70454300238E+02  0.00000000000E+00 0.  1.
          1    1    1    2  501    0 -0.47258173075E+02 -0.87969646770E+01 -0.74496111029E+02  0.88658852171E+02  0.00000000000E+00 0. -1.
<scales pt_clust_5="13000.00000" pt_clust_6="13000.00000" pt_clust_7="13000.00000" pt_clust_8="13000.00000" pt_clust_9="48.06996"></scales>
<clustering>
<clus scale="   48.070">  2  9  1 -1</clus>
<clus scale="   89.569">  7  8 -1 -1</clus>
<clus scale="   92.763">  5  6 -1 -1</clus>
<clus scale="  134.657">  1  7  2 -1</clus>
<clus scale="   48.070">  2  5  1 -1</clus>
</clustering>
</event>
<event>
 9    1  0.1504846E-005  0.9191305E+02  0.7546771E-02  0.1298770E+00
          3   -1    0    0  502    0 -0.00000000000E+00  0.00000000000E+00  0.27723743288E+03  0.27723743288E+03  0.00000000000E+00 0. -1.
         21   -1    0    0  501  502  0.00000000000E+00 -0.00000000000E+00 -0.14255276543E+03  0.14255276543E+03  0.00000000000E+00 0. -1.
         23    2    1    2    0    0 -0.73345039257E+01  0.30550476488E+01  0.18449250669E+03  0.20616122456E+03  0.91661536239E+02 0.  0.
         23    2    1    2    0    0 -0.31935719653E+01  0.26563838508E+02  0.51334361326E+02  0.10771455767E+03  0.90837067670E+02 0.  0.
        -11    1    4    4    0    0  0.32048221146E+02 -0.55468759599E+01 -0.60773042654E+01  0.33087610047E+02  0.00000000000E+00 0.  1.
         11    1    4    4    0    0 -0.35241793111E+02  0.32110714468E+02  0.57411665591E+02  0.74626947621E+02  0.00000000000E+00 0. -1.
        -13    1    3    3    0    0 -0.24490182045E+02  0.36198509112E+02  0.14660069417E+03  0.15297667995E+03  0.00000000000E+00 0. -1.
         13    1    3    3    0    0  0.17155678119E+02 -0.33143461463E+02  0.37891812517E+02  0.53184544609E+02  0.00000000000E+00 0.  1.
          3    1    1    2  501    0  0.10528075891E+02 -0.29618886156E+02 -0.10114220056E+03  0.10591441608E+03  0.00000000000E+00 0. -1.
<scales pt_clust_5="13000.00000" pt_clust_6="13000.00000" pt_clust_7="13000.00000" pt_clust_8="13000.00000" pt_clust_9="31.43436"></scales>
<clustering>
<clus scale="   31.434">  2  9  1 -1</clus>
<clus scale="   90.837">  5  6 -1 -1</clus>
<clus scale="   91.091">  2  5  1 -1</clus>
<clus scale="   91.662">  7  8 -1 -1</clus>
<clus scale="   31.434">  2  5  1 -1</clus>
</clustering>
</event>
<event>
 9    1  0.1504846E-005  0.1159629E+03  0.7546771E-02  0.1253637E+00
         21   -1    0    0  501  502  0.00000000000E+00  0.00000000000E+00  0.79092155969E+02  0.79092155969E+02  0.00000000000E+00 0. -1.
          1   -1    0    0  502    0 -0.00000000000E+00 -0.00000000000E+00 -0.31741584222E+03  0.31741584222E+03  0.00000000000E+00 0. -1.
         23    2    1    2    0    0 -0.50897905956E+02  0.18256161068E+02 -0.20840445777E+03  0.23322138369E+03  0.89643245955E+02 0.  0.
         23    2    1    2    0    0  0.79056399695E+02 -0.29002181389E+02 -0.22477377089E+02  0.13224214841E+03  0.99457088622E+02 0.  0.
        -11    1    3    3    0    0 -0.35476938464E+02 -0.19287939912E+02 -0.17796142788E+03  0.18248536270E+03  0.00000000000E+00 0. -1.
         11    1    3    3    0    0 -0.15420967492E+02  0.37544100979E+02 -0.30443029892E+02  0.50736020989E+02  0.00000000000E+00 0.  1.
        -11    1    4    4    0    0  0.54206733805E+02  0.32863278510E+02 -0.15111146360E+02  0.65166799895E+02  0.00000000000E+00 0. -1.
         11    1    4    4    0    0  0.24849665890E+02 -0.61865459898E+02 -0.73662307297E+01  0.67075348515E+02  0.00000000000E+00 0.  1.
          1    1    1    2  501    0 -0.28158493739E+02  0.10746020321E+02 -0.74418513885E+01  0.31044466085E+02  0.00000000000E+00 0. -1.
<scales pt_clust_5="13000.00000" pt_clust_6="13000.00000" pt_clust_7="13000.00000" pt_clust_8="13000.00000" pt_clust_9="30.13931"></scales>
<clustering>
<clus scale="   30.139">  1  9  2 -1</clus>
<clus scale="   89.643">  5  6 -1 -1</clus>
<clus scale="   99.457">  7  8 -1 -1</clus>
<clus scale="  107.664">  2  5  1 -1</clus>
<clus scale="   30.139">  1  5  2 -1</clus>
</clustering>
</event>
<event>
 9    1  0.1504846E-005  0.1011807E+03  0.7546771E-02  0.1279529E+00
         21   -1    0    0  501  502  0.00000000000E+00  0.00000000000E+00  0.29939030011E+03  0.29939030011E+03  0.00000000000E+00 0. -1.
         -3   -1    0    0    0  501 -0.00000000000E+00 -0.00000000000E+00 -0.19137460999E+03  0.19137460999E+03  0.00000000000E+00 0.  1.
         23    2    1    2    0    0  0.35276005753E+02 -0.24063181947E+01 -0.16129041941E+03  0.18844937695E+03  0.90820599688E+02 0.  0.
         23    2    1    2    0    0 -0.60423542342E+02 -0.51901685080E+00  0.22304225519E+03  0.24957749755E+03  0.94285766853E+02 0.  0.
        -11    1    3    3    0    0  0.15835888431E+02 -0.45958722788E+02 -0.66925771871E+02  0.82716615642E+02  0.00000000000E+00 0. -1.
         11    1    3    3    0    0  0.19440117321E+02  0.43552404593E+02 -0.94364647542E+02  0.10573276130E+03  0.00000000000E+00 0.  1.
        -13    1    4    4    0    0 -0.73630338034E+02 -0.27807122893E+02  0.13271072276E+03  0.15429451934E+03  0.00000000000E+00 0.  1.
         13    1    4    4    0    0  0.13206795693E+02  0.27288106042E+02  0.90331532435E+02  0.95282978207E+02  0.00000000000E+00 0. -1.
         -3    1    1    2    0  502  0.25147536589E+02  0.29253350455E+01  0.46263854336E+02  0.52738035606E+02  0.00000000000E+00 0.  1.
<scales pt_clust_5="13000.00000" pt_clust_6="13000.00000" pt_clust_7="13000.00000" pt_clust_8="13000.00000" pt_clust_9="25.31711"></scales>
<clustering>
<clus scale="   25.317">  1  9  2 -1</clus>
<clus scale="   90.821">  5  6 -1 -1</clus>
<clus scale="   94.286">  7  8 -1 -1</clus>
<clus scale="   97.960">  2  5  1 -1</clus>
<clus scale="   25.317">  1  5  2 -1</clus>
</clustering>
</event>
<event>
 9    1  0.1504846E-005  0.9616793E+02  0.7546771E-02  0.1289726E+00
         -1   -1    0    0    0  501 -0.00000000000E+00  0.00000000000E+00  0.17301850485E+03  0.17301850485E+03  0.00000000000E+00 0.  1.
         21   -1    0    0  501  502  0.00000000000E+00 -0.00000000000E+00 -0.76915690302E+02  0.76915690302E+02  0.00000000000E+00 0. -1.
         23    2    1    2    0    0  0.12262226681E+02 -0.22168318110E+02  0.69711895778E+02  0.11940068919E+03  0.93568048150E+02 0.  0.
         23    2    1    2    0    0 -0.25081467199E+02  0.16662473275E+01  0.39844038734E+02  0.10286304752E+03  0.91440706175E+02 0.  0.
        -11    1    4    4    0    0  0.31056934559E+02 -0.57617225338E+01 -0.31779492450E+01  0.31746338248E+02  0.00000000000E+00 0.  1.
         11    1    4    4    0    0 -0.56138401758E+02  0.74279698613E+01  0.43021987979E+02  0.71116709274E+02  0.00000000000E+00 0. -1.
        -11    1    3    3    0    0  0.40693179605E+02 -0.38418947444E+02  0.65861810854E+02  0.86427591185E+02  0.00000000000E+00 0.  1.
         11    1    3    3    0    0 -0.28430952925E+02  0.16250629334E+02  0.38500849234E+01  0.32973098002E+02  0.00000000000E+00 0. -1.
         -1    1    1    2    0  502  0.12819240519E+02  0.20502070783E+02 -0.13453119962E+02  0.27670458445E+02  0.00000000000E+00 0.  1.
<scales pt_clust_5="13000.00000" pt_clust_6="13000.00000" pt_clust_7="13000.00000" pt_clust_8="13000.00000" pt_clust_9="24.17991"></scales>
<clustering>
<clus scale="   24.180">  2  9  1 -1</clus>
<clus scale="   91.441">  5  6 -1 -1</clus>
<clus scale="   93.568">  7  8 -1 -1</clus>
<clus scale="   94.099">  2  5  1 -1</clus>
<clus scale="   24.180">  2  5  1 -1</clus>
</clustering>
</event>
<event>
 9    1  0.1504846E-005  0.9387721E+02  0.7546771E-02  0.1295492E+00
         21   -1    0    0  501  502  0.00000000000E+00  0.00000000000E+00  0.48248909542E+02  0.48248909542E+02  0.00000000000E+00 0. -1.
         -2   -1    0    0    0  501 -0.00000000000E+00 -0.00000000000E+00 -0.31935058739E+03  0.31935058739E+03  0.00000000000E+00 0.  1.
         23    2    1    2    0    0 -0.15100256486E+01  0.94849910940E+01 -0.18775322187E+03  0.20931539324E+03  0.92029431666E+02 0.  0.
         23    2    1    2    0    0  0.29576979104E+02 -0.30074348412E+02 -0.70941344499E+02  0.12132991683E+03  0.88932616254E+02 0.  0.
        -13    1    3    3    0    0  0.42096414544E+02  0.16143478505E+02 -0.12265879020E+03  0.13068243504E+03  0.00000000000E+00 0.  1.
         13    1    3    3    0    0 -0.43606440192E+02 -0.66584874108E+01 -0.65094431671E+02  0.78632958201E+02  0.00000000000E+00 0. -1.
        -13    1    4    4    0    0  0.27439460439E+02 -0.52755631416E+02 -0.77441976096E+02  0.97638825766E+02  0.00000000000E+00 0.  1.
         13    1    4    4    0    0  0.21375186657E+01  0.22681283004E+02  0.65006315974E+01  0.23691091066E+02  0.00000000000E+00 0. -1.
         -2    1    1    2    0  502 -0.28066953456E+02  0.20589357318E+02 -0.12407111482E+02  0.36954186859E+02  0.00000000000E+00 0.  1.
<scales pt_clust_5="13000.00000" pt_clust_6="13000.00000" pt_clust_7="13000.00000" pt_clust_8="13000.00000" pt_clust_9="34.80913"></scales>
<clustering>
<clus scale="   34.809">  1  9  2 -1</clus>
<clus scale="   88.933">  7  8 -1 -1</clus>
<clus scale="   90.843">  1  7  2 -1</clus>
<clus scale="   92.029">  5  6 -1 -1</clus>
<clus scale="   34.809">  1  5  2 -1</clus>
</clustering>
</event>
<event>
 9    1  0.1504846E-005  0.1541071E+03  0.7546771E-02  0.1196188E+00
          2   -1    0    0  502    0 -0.00000000000E+00  0.00000000000E+00  0.51160328472E+03  0.51160328472E+03  0.00000000000E+00 0.  1.
         21   -1    0    0  501  502  0.00000000000E+00 -0.00000000000E+00 -0.89143364919E+02  0.89143364919E+02  0.00000000000E+00 0. -1.
         23    2    1    2    0    0  0.20269040392E+02 -0.14179998115E+03  0.16270888960E+03  0.23698170990E+03  0.95750088359E+02 0.  0.
         23    2    1    2    0    0 -0.55301215200E+02  0.82208289280E+02  0.52165525448E+02  0.14497242434E+03  0.92083302204E+02 0.  0.
        -11    1    4    4    0    0 -0.49133517283E+02  0.33428804366E+02  0.70761432776E+02  0.92405453575E+02  0.00000000000E+00 0.  1.
         11    1    4    4    0    0 -0.61676979167E+01  0.48779484914E+02 -0.18595907328E+02  0.52566970765E+02  0.00000000000E+00 0. -1.
        -13    1    3    3    0    0 -0.12768440274E+02 -0.13277059195E+03  0.10449864452E+03  0.16944329394E+03  0.00000000000E+00 0. -1.
         13    1    3    3    0    0  0.33037480666E+02 -0.90293891928E+01  0.58210245087E+02  0.67538415965E+02  0.00000000000E+00 0.  1.
          2    1    1    2  501    0  0.35032174808E+02  0.59591691866E+02  0.20758550475E+03  0.21879251539E+03  0.00000000000E+00 0.  1.
<scales pt_clust_5="13000.00000" pt_clust_6="13000.00000" pt_clust_7="13000.00000" pt_clust_8="13000.00000" pt_clust_9="69.12617"></scales>
<clustering>
<clus scale="   69.126">  2  9  1 -1</clus>
<clus scale="   92.083">  5  6 -1 -1</clus>
<clus scale="   95.750">  7  8 -1 -1</clus>
<clus scale="  151.856">  2  5  1 -1</clus>
<clus scale="   69.126">  2  5  1 -1</clus>
</clustering>
</event>
<event>
 9    1  0.1504846E-005  0.1023806E+03  0.7546771E-02  0.1275424E+00
         21   -1    0    0  501  502  0.00000000000E+00  0.00000000000E+00  0.54668743831E+03  0.54668743831E+03  0.00000000000E+00 0. -1.
          2   -1    0    0  502    0 -0.00000000000E+00 -0.00000000000E+00 -0.39778899886E+02  0.39778899886E+02  0.00000000000E+00 0. -1.
         23    2    1    2    0    0 -0.44857788422E+02 -0.30979658914E+02  0.10928847027E+03  0.15320277536E+03  0.92494108979E+02 0.  0.
         23    2    1    2    0    0  0.40422316401E+02 -0.32869360787E+02  0.21459024177E+03  0.23936594017E+03  0.92372738989E+02 0.  0.
        -11    1    3    3    0    0 -0.39076806212E+02  0.27780287789E+02  0.42647771035E+02  0.64168321995E+02  0.00000000000E+00 0.  1.
         11    1    3    3    0    0 -0.57809822107E+01 -0.58759946703E+02  0.66640699233E+02  0.89034453366E+02  0.00000000000E+00 0. -1.
        -13    1    4    4    0    0  0.34563312425E+02 -0.58051570804E+02  0.19655458204E+03  0.20784203415E+03  0.00000000000E+00 0. -1.
         13    1    4    4    0    0  0.58590039762E+01  0.25182210017E+02  0.18035659735E+02  0.31523906024E+02  0.00000000000E+00 0.  1.
          2    1    1    2  501    0  0.44354720217E+01  0.63849019701E+02  0.18302982639E+03  0.19389762267E+03  0.00000000000E+00 0. -1.
<scales pt_clust_5="13000.00000" pt_clust_6="13000.00000" pt_clust_7="13000.00000" pt_clust_8="13000.00000" pt_clust_9="64.00290"></scales>
<clustering>
<clus scale="   64.003">  1  9  2 -1</clus>
<clus scale="   92.373">  7  8 -1 -1</clus>
<clus scale="   92.494">  5  6 -1 -1</clus>
<clus scale="  102.271">  1  7  2 -1</clus>
<clus scale="   64.003">  1  5  2 -1</clus>
</clustering>
</event>
<event>
 9    1  0.1504846E-005  0.1006334E+03  0.7546771E-02  0.1281659E+00
         21   -1    0    0  501  502  0.00000000000E+00  0.00000000000E+00  0.45983905538E+03  0.45983905538E+03  0.00000000000E+00 0.  1.
          1   -1    0    0  502    0 -0.00000000000E+00 -0.00000000000E+00 -0.36275592426E+02  0.36275592426E+02  0.00000000000E+00 0. -1.
         23    2    1    2    0    0 -0.35347820792E+02 -0.37933583512E+01  0.12616602558E+03  0.15924557672E+03  0.90429141828E+02 0.  0.
         23    2    1    2    0    0  0.61329888507E+02  0.11050132825E+02  0.29056989189E+03  0.30904203395E+03  0.84809527850E+02 0.  0.
        -13    1    4    4    0    0  0.44569571810E+02 -0.19557827842E+02  0.25350315002E+03  0.25813330361E+03  0.00000000000E+00 0.  1.
         13    1    4    4    0    0  0.16760316697E+02  0.30607960667E+02  0.37066741868E+02  0.50908730339E+02  0.00000000000E+00 0. -1.
        -13    1    3    3    0    0 -0.52240730916E+02 -0.32725085790E+02  0.65516904668E+02  0.89958268124E+02  0.00000000000E+00 0. -1.
         13    1    3    3    0    0  0.16892910123E+02  0.28931727438E+02  0.60649120917E+02  0.69287308599E+02  0.00000000000E+00 0.  1.
          1    1    1    2  501    0 -0.25982067715E+02 -0.72567744742E+01  0.68275454823E+01  0.27827037137E+02  0.00000000000E+00 0. -1.
<scales pt_clust_5="13000.00000" pt_clust_6="13000.00000" pt_clust_7="13000.00000" pt_clust_8="13000.00000" pt_clust_9="26.97646"></scales>
<clustering>
<clus scale="   26.976">  1  9  2 -1</clus>
<clus scale="   84.810">  5  6 -1 -1</clus>
<clus scale="   90.429">  7  8 -1 -1</clus>
<clus scale="   95.615">  1  5  2 -1</clus>
<clus scale="   26.976">  1  5  2 -1</clus>
</clustering>
</event>
<event>
 9    1  0.1504846E-005  0.1380203E+03  0.7546771E-02  0.1231130E+00
         21   -1    0    0  501  502  0.00000000000E+00  0.00000000000E+00  0.83402797765E+03  0.83402797765E+03  0.00000000000E+00 0.  1.
         -3   -1    0    0    0  501 -0.00000000000E+00 -0.00000000000E+00 -0.63969712403E+02  0.63969712403E+02  0.00000000000E+00 0.  1.
         23    2    1    2    0    0  0.36982430530E+02 -0.24571344632E+02  0.88933718515E+02  0.13433567845E+03  0.90362697340E+02 0.  0.
         23    2    1    2    0    0  0.72683925845E+01 -0.74138900149E+02  0.57542061852E+02  0.13076631465E+03  0.90770777894E+02 0.  0.
        -11    1    4    4    0    0  0.43942172859E+02 -0.13272156724E+02  0.28286131885E+02  0.53918178351E+02  0.00000000000E+00 0. -1.
         11    1    4    4    0    0 -0.36673780274E+02 -0.60866743425E+02  0.29255929967E+02  0.76848136302E+02  0.00000000000E+00 0.  1.
        -13    1    3    3    0    0 -0.26336299355E+02 -0.21451054304E+00  0.56836855974E+01  0.26943477141E+02  0.00000000000E+00 0. -1.
         13    1    3    3    0    0  0.63318729885E+02 -0.24356834089E+02  0.83250032917E+02  0.10739220131E+03  0.00000000000E+00 0.  1.
         -3    1    1    2    0  502 -0.44250823115E+02  0.98710244781E+02  0.62358248488E+03  0.63289569695E+03  0.00000000000E+00 0.  1.
<scales pt_clust_5="13000.00000" pt_clust_6="13000.00000" pt_clust_7="13000.00000" pt_clust_8="13000.00000" pt_clust_9="103.97249"></scales>
<clustering>
<clus scale="   90.363">  7  8 -1 -1</clus>
<clus scale="   90.771">  5  6 -1 -1</clus>
<clus scale="  100.682">  2  7  1 -1</clus>
<clus scale="  103.972">  1  9  2 -1</clus>
<clus scale="  103.972">  1  5  2 -1</clus>
</clustering>
</event>
<event>
 9    1  0.1504846E-005  0.1270144E+03  0.7546771E-02  0.1232203E+00
          1   -1    0    0  502    0 -0.00000000000E+00  0.00000000000E+00  0.70565819597E+03  0.70565819597E+03  0.00000000000E+00 0. -1.
         21   -1    0    0  501  502  0.00000000000E+00 -0.00000000000E+00 -0.10149814031E+03  0.10149814031E+03  0.00000000000E+00 0. -1.
         23    2    1    2    0    0  0.97148057243E+02  0.73960039971E+01  0.46184599399E+03  0.48090154297E+03  0.92044152293E+02 0.  0.
         23    2    1    2    0    0 -0.72335629082E+02 -0.28989528172E+01  0.21764502094E+03  0.24681529756E+03  0.91145975284E+02 0.  0.
        -11    1    4    4    0    0 -0.34978158928E+02 -0.39829815284E+02  0.16127476601E+03  0.16976288151E+03  0.00000000000E+00 0.  1.
         11    1    4    4    0    0 -0.37357470154E+02  0.36930862467E+02  0.56370254928E+02  0.77052416052E+02  0.00000000000E+00 0. -1.
        -13    1    3    3    0    0  0.87838910641E+02 -0.31825226933E+02  0.30760606785E+03  0.32148096719E+03  0.00000000000E+00 0. -1.
         13    1    3    3    0    0  0.93091466025E+01  0.39221230930E+02  0.15423992614E+03  0.15942057578E+03  0.00000000000E+00 0.  1.
          1    1    1    2  501    0 -0.24812428161E+02 -0.44970511798E+01 -0.75330959263E+02  0.79439495744E+02  0.00000000000E+00 0. -1.
<scales pt_clust_5="13000.00000" pt_clust_6="13000.00000" pt_clust_7="13000.00000" pt_clust_8="13000.00000" pt_clust_9="25.21666"></scales>
<clustering>
<clus scale="   25.217">  2  9  1 -1</clus>
<clus scale="   91.146">  5  6 -1 -1</clus>
<clus scale="   92.044">  7  8 -1 -1</clus>
<clus scale="  126.365">  2  5  1 -1</clus>
<clus scale="   25.217">  2  5  1 -1</clus>
</clustering>
</event>
<event>
 9    1  0.1504846E-005  0.1984030E+03  0.7546771E-02  0.1151219E+00
         21   -1    0    0  501  502  0.00000000000E+00  0.00000000000E+00  0.24722616918E+03  0.24722616918E+03  0.00000000000E+00 0. -1.
          1   -1    0    0  502    0 -0.00000000000E+00 -0.00000000000E+00 -0.39630374129E+03  0.39630374129E+03  0.00000000000E+00 0. -1.
         23    2    1    2    0    0  0.10557166477E+03  0.14799708461E+03 -0.26814625145E+03  0.33689389595E+03  0.92447669014E+02 0.  0.
         23    2    1    2    0    0 -0.18885816179E+02 -0.16125198985E+03  0.11498333863E+03  0.21884752514E+03  0.91182195720E+02 0.  0.
        -11    1    3    3    0    0  0.12096220065E+03  0.11911962367E+03 -0.23840887860E+03  0.29267752241E+03  0.00000000000E+00 0. -1.
         11    1    3    3    0    0 -0.15390535878E+02  0.28877460944E+02 -0.29737372855E+02  0.44216373545E+02  0.00000000000E+00 0.  1.
        -13    1    4    4    0    0 -0.43607198466E+02 -0.98250186653E+02  0.32803299171E+02  0.11238658004E+03  0.00000000000E+00 0.  1.
         13    1    4    4    0    0  0.24721382287E+02 -0.63001803192E+02  0.82180039456E+02  0.10646094511E+03  0.00000000000E+00 0. -1.
          1    1    1    2  501    0 -0.86685848591E+02  0.13254905232E+02  0.40853407088E+01  0.87788489379E+02  0.00000000000E+00 0. -1.
<scales pt_clust_5="13000.00000" pt_clust_6="13000.00000" pt_clust_7="13000.00000" pt_clust_8="13000.00000" pt_clust_9="87.69338"></scales>
<clustering>
<clus scale="   87.693">  1  9  2 -1</clus>
<clus scale="   91.182">  7  8 -1 -1</clus>
<clus scale="   92.448">  5  6 -1 -1</clus>
<clus scale="  197.816">  1  7  2 -1</clus>
<clus scale="   87.693">  1  5  2 -1</clus>
</clustering>
</event>
<event>
 9    1  0.1504846E-005  0.9784016E+02  0.7546771E-02  0.1285526E+00
          2   -1    0    0  502    0 -0.00000000000E+00  0.00000000000E+00  0.14296867961E+03  0.14296867961E+03  0.00000000000E+00 0. -1.
         21   -1    0    0  501  502  0.00000000000E+00 -0.00000000000E+00 -0.19937774288E+03  0.19937774288E+03  0.00000000000E+00 0.  1.
         23    2    1    2    0    0 -0.29656537670E+02 -0.20922091977E+01  0.98966916351E+02  0.13879023925E+03  0.92651996272E+02 0.  0.
         23    2    1    2    0    0  0.39334751232E+02  0.25761186292E+02 -0.10445327705E+03  0.14657364267E+03  0.91446619751E+02 0.  0.
        -11    1    4    4    0    0  0.44347253784E+02  0.48460829033E+02 -0.37367198751E+02  0.75574059116E+02  0.00000000000E+00 0. -1.
         11    1    4    4    0    0 -0.50125025520E+01 -0.22699642741E+02 -0.67086078303E+02  0.70999583552E+02  0.00000000000E+00 0.  1.
        -11    1    3    3    0    0 -0.18103106851E+02 -0.21836446951E+02 -0.79465657698E+01  0.29456761544E+02  0.00000000000E+00 0.  1.
         11    1    3    3    0    0 -0.11553430819E+02  0.19744237754E+02  0.10691348212E+03  0.10933347771E+03  0.00000000000E+00 0. -1.
          2    1    1    2  501    0 -0.96782135622E+01 -0.23668977095E+02 -0.50922702564E+02  0.56982540579E+02  0.00000000000E+00 0. -1.
<scales pt_clust_5="13000.00000" pt_clust_6="13000.00000" pt_clust_7="13000.00000" pt_clust_8="13000.00000" pt_clust_9="25.57124"></scales>
<clustering>
<clus scale="   25.571">  2  9  1 -1</clus>
<clus scale="   91.447">  5  6 -1 -1</clus>
<clus scale="   92.652">  7  8 -1 -1</clus>
<clus scale="   96.699">  2  5  1 -1</clus>
<clus scale="   25.571">  2  5  1 -1</clus>
</clustering>
</event>
<event>
 9    1  0.1504846E-005  0.1779898E+03  0.7546771E-02  0.1174399E+00
         21   -1    0    0  501  502  0.00000000000E+00  0.00000000000E+00  0.79841709885E+02  0.79841709885E+02  0.00000000000E+00 0. -1.
         -3   -1    0    0    0  501 -0.00000000000E+00 -0.00000000000E+00 -0.90148592318E+03  0.90148592318E+03  0.00000000000E+00 0.  1.
         23    2    1    2    0    0 -0.24586082560E+02  0.13006640420E+03 -0.14202878919E+03  0.21404971988E+03  0.90129688023E+02 0.  0.
         23    2    1    2    0    0  0.14827393086E+03  0.21235830462E+01 -0.35693411430E+03  0.39728317776E+03  0.91881952529E+02 0.  0.
        -11    1    4    4    0    0  0.10722355509E+03  0.41298445523E+02 -0.20357671315E+03  0.23376469046E+03  0.00000000000E+00 0. -1.
         11    1    4    4    0    0  0.41050375775E+02 -0.39174862477E+02 -0.15335740116E+03  0.16351848731E+03  0.00000000000E+00 0.  1.
        -13    1    3    3    0    0 -0.31738433908E+02  0.21264023682E+01 -0.24167589145E+02  0.39948994218E+02  0.00000000000E+00 0.  1.
         13    1    3    3    0    0  0.71523513476E+01  0.12794000183E+03 -0.11786120005E+03  0.17410072566E+03  0.00000000000E+00 0. -1.
         -3    1    1    2    0  502 -0.12368784830E+03 -0.13218998725E+03 -0.32268130980E+03  0.36999473542E+03  0.00000000000E+00 0.  1.
<scales pt_clust_5="13000.00000" pt_clust_6="13000.00000" pt_clust_7="13000.00000" pt_clust_8="13000.00000" pt_clust_9="152.44050"></scales>
<clustering>
<clus scale="   90.130">  7  8 -1 -1</clus>
<clus scale="   91.882">  5  6 -1 -1</clus>
<clus scale="  160.141">  2  7  1 -1</clus>
<clus scale="  152.441">  1  9  2 -1</clus>
<clus scale="  152.441">  1  5  2 -1</clus>
</clustering>
</event>
<event>
 9    1  0.1504846E-005  0.1154087E+03  0.7546771E-02  0.1252487E+00
         21   -1    0    0  501  502  0.00000000000E+00  0.00000000000E+00  0.19237978421E+02  0.19237978421E+02  0.00000000000E+00 0. -1.
          1   -1    0    0  502    0 -0.00000000000E+00 -0.00000000000E+00 -0.10437298609E+04  0.10437298609E+04  0.00000000000E+00 0. -1.
         23    2    1    2    0    0 -0.17277284120E+02 -0.50212196082E+02 -0.51041243158E+03  0.52119226825E+03  0.91108512192E+02 0.  0.
         23    2    1    2    0    0  0.24527981483E+02  0.78363153086E+02 -0.48323843267E+03  0.49939376602E+03  0.95563304122E+02 0.  0.
        -11    1    4    4    0    0 -0.17833378091E+02  0.78995169499E+02 -0.36257247125E+03  0.37150647785E+03  0.00000000000E+00 0. -1.
         11    1    4    4    0    0  0.42361359574E+02 -0.63201641336E+00 -0.12066596142E+03  0.12788728817E+03  0.00000000000E+00 0.  1.
        -13    1    3    3    0    0 -0.54629347054E+02 -0.34558380977E+02 -0.33295557727E+03  0.33917261636E+03  0.00000000000E+00 0.  1.
         13    1    3    3    0    0  0.37352062934E+02 -0.15653815105E+02 -0.17745685431E+03  0.18201965189E+03  0.00000000000E+00 0. -1.
          1    1    1    2  501    0 -0.72506973634E+01 -0.28150957004E+02 -0.30841018181E+02  0.42381804999E+02  0.00000000000E+00 0. -1.
<scales pt_clust_5="13000.00000" pt_clust_6="13000.00000" pt_clust_7="13000.00000" pt_clust_8="13000.00000" pt_clust_9="29.06973"></scales>
<clustering>
<clus scale="   29.070">  1  9  2 -1</clus>
<clus scale="   91.109">  7  8 -1 -1</clus>
<clus scale="   95.563">  5  6 -1 -1</clus>
<clus scale="  111.748">  2  7  1 -1</clus>
<clus scale="   29.070">  1  5  2 -1</clus>
</clustering>
</event>
<event>
 9    1  0.1504846E-005  0.1350453E+03  0.7546771E-02  0.1220937E+00
         21   -1    0    0  501  502  0.00000000000E+00  0.00000000000E+00  0.13482357451E+03  0.13482357451E+03  0.00000000000E+00 0. -1.
          3   -1    0    0  502    0 -0.00000000000E+00 -0.00000000000E+00 -0.56101201647E+03  0.56101201647E+03  0.00000000000E+00 0. -1.
         23    2    1    2    0    0 -0.78739992523E+02  0.60662005493E+02 -0.49309938192E+03  0.51161128805E+03  0.93376893726E+02 0.  0.
         23    2    1    2    0    0  0.83911807846E+02 -0.25470086198E+02  0.23257797117E+02  0.12791430615E+03  0.90173320908E+02 0.  0.
        -13    1    4    4    0    0  0.88212278808E+02 -0.46764614961E+02  0.57391771550E+01  0.10000636729E+03  0.00000000000E+00 0. -1.
         13    1    4    4    0    0 -0.43004709615E+01  0.21294528763E+02  0.17518619962E+02  0.27907938854E+02  0.00000000000E+00 0.  1.
        -13    1    3    3    0    0  0.11917838231E+02  0.39108458323E+02 -0.11030447728E+03  0.11763751140E+03  0.00000000000E+00 0.  1.
         13    1    3    3    0    0 -0.90657830753E+02  0.21553547169E+02 -0.38279490464E+03  0.39397377665E+03  0.00000000000E+00 0. -1.
          3    1    1    2  501    0 -0.51718153237E+01 -0.35191919294E+02  0.43653142840E+02  0.56309996779E+02  0.00000000000E+00 0. -1.
<scales pt_clust_5="13000.00000" pt_clust_6="13000.00000" pt_clust_7="13000.00000" pt_clust_8="13000.00000" pt_clust_9="35.56992"></scales>
<clustering>
<clus scale="   35.570">  1  9  2 -1</clus>
<clus scale="   90.173">  5  6 -1 -1</clus>
<clus scale="   93.377">  7  8 -1 -1</clus>
<clus scale="  132.850">  1  5  2 -1</clus>
<clus scale="   35.570">  1  5  2 -1</clus>
</clustering>
</event>
<event>
 9    1  0.1504846E-005  0.1131259E+03  0.7546771E-02  0.1255100E+00
         21   -1    0    0  501  502  0.00000000000E+00  0.00000000000E+00  0.14253593265E+03  0.14253593265E+03  0.00000000000E+00 0. -1.
          3   -1    0    0  502    0 -0.00000000000E+00 -0.00000000000E+00 -0.27176548118E+03  0.27176548118E+03  0.00000000000E+00 0. -1.
         23    2    1    2    0    0 -0.50074730213E+02 -0.44930756730E+02 -0.15494046185E+03  0.19188448326E+03  0.91032173941E+02 0.  0.
         23    2    1    2    0    0  0.35159896416E+02  0.59355743467E+02 -0.63875459028E+02  0.13045905642E+03  0.90444284157E+02 0.  0.
        -11    1    4    4    0    0 -0.23124720159E+02 -0.77278499969E+01 -0.18961887633E+02  0.30887303712E+02  0.00000000000E+00 0.  1.
         11    1    4    4    0    0  0.58284616575E+02  0.67083593464E+02 -0.44913571395E+02  0.99571752705E+02  0.00000000000E+00 0. -1.
        -11    1    3    3    0    0  0.24259586361E+02 -0.17314925245E+02 -0.21832007386E+02  0.36945510054E+02  0.00000000000E+00 0. -1.
         11    1    3    3    0    0 -0.74334316574E+02 -0.27615831485E+02 -0.13310845446E+03  0.15493897321E+03  0.00000000000E+00 0.  1.
          3    1    1    2  501    0  0.14914833796E+02 -0.14424986737E+02  0.89586372347E+02  0.91957874159E+02  0.00000000000E+00 0. -1.
<scales pt_clust_5="13000.00000" pt_clust_6="13000.00000" pt_clust_7="13000.00000" pt_clust_8="13000.00000" pt_clust_9="20.74928"></scales>
<clustering>
<clus scale="   20.749">  1  9  2 -1</clus>
<clus scale="   90.444">  5  6 -1 -1</clus>
<clus scale="   91.032">  7  8 -1 -1</clus>
<clus scale="  112.653">  1  5  2 -1</clus>
<clus scale="   20.749">  1  5  2 -1</clus>
</clustering>
</event>
<event>
 9    1  0.1504846E-005  0.9565284E+02  0.7546771E-02  0.1290004E+00
         -1   -1    0    0    0  501 -0.00000000000E+00  0.00000000000E+00  0.23687028416E+03  0.23687028416E+03  0.00000000000E+00 0.  1.
         21   -1    0    0  501  502  0.00000000000E+00 -0.00000000000E+00 -0.85500419751E+02  0.85500419751E+02  0.00000000000E+00 0. -1.
         23    2    1    2    0    0 -0.22374931106E+02 -0.76245867097E+01  0.12723489381E+03  0.15851735541E+03  0.91543770401E+02 0.  0.
         23    2    1    2    0    0  0.60683845842E+01  0.57860164217E+02  0.25668808784E+02  0.11101520540E+03  0.90999253798E+02 0.  0.
        -11    1    3    3    0    0 -0.55431476045E+02  0.11026082696E+02  0.73023612826E+02  0.92339975450E+02  0.00000000000E+00 0.  1.
         11    1    3    3    0    0  0.33056544938E+02 -0.18650669406E+02  0.54211280980E+02  0.66177379957E+02  0.00000000000E+00 0. -1.
        -13    1    4    4    0    0 -0.20007155376E+02 -0.12132904033E+02  0.27744448658E+02  0.36293912132E+02  0.00000000000E+00 0.  1.
         13    1    4    4    0    0  0.26075539960E+02  0.69993068251E+02 -0.20756398742E+01  0.74721293272E+02  0.00000000000E+00 0. -1.
         -1    1    1    2    0  502  0.16306546522E+02 -0.50235577508E+02 -0.15338381762E+01  0.52838143103E+02  0.00000000000E+00 0.  1.
<scales pt_clust_5="13000.00000" pt_clust_6="13000.00000" pt_clust_7="13000.00000" pt_clust_8="13000.00000" pt_clust_9="52.81588"></scales>
<clustering>
<clus scale="   52.816">  2  9  1 -1</clus>
<clus scale="   90.999">  7  8 -1 -1</clus>
<clus scale="   91.544">  5  6 -1 -1</clus>
<clus scale="   95.132">  2  7  1 -1</clus>
<clus scale="   52.816">  2  5  1 -1</clus>
</clustering>
</event>
<event>
 9    1  0.1504846E-005  0.1109641E+03  0.7546771E-02  0.1263917E+00
         21   -1    0    0  501  502  0.00000000000E+00  0.00000000000E+00  0.97477386786E+02  0.97477386786E+02  0.00000000000E+00 0.  1.
         -1   -1    0    0    0  501 -0.00000000000E+00 -0.00000000000E+00 -0.53162119079E+03  0.53162119079E+03  0.00000000000E+00 0.  1.
         23    2    1    2    0    0 -0.67882803889E+02 -0.31058535226E+02 -0.39311857010E+03  0.41089944635E+03  0.93399342513E+02 0.  0.
         23    2    1    2    0    0  0.20305896085E+01  0.48978436140E+02 -0.92997464563E+02  0.13241597592E+03  0.80513674388E+02 0.  0.
        -11    1    4    4    0    0  0.21277986807E+02 -0.15838389817E+02 -0.29298524120E+02  0.39522282705E+02  0.00000000000E+00 0.  1.
         11    1    4    4    0    0 -0.19247397198E+02  0.64816825957E+02 -0.63698940443E+02  0.92893693217E+02  0.00000000000E+00 0. -1.
        -13    1    3    3    0    0 -0.26634054601E+02  0.31300721505E+02 -0.19158913158E+03  0.19594770570E+03  0.00000000000E+00 0.  1.
         13    1    3    3    0    0 -0.41248749288E+02 -0.62359256731E+02 -0.20152943852E+03  0.21495174065E+03  0.00000000000E+00 0. -1.
         -1    1    1    2    0  502  0.65852214280E+02 -0.17919900914E+02  0.51972230656E+02  0.85783155303E+02  0.00000000000E+00 0.  1.
<scales pt_clust_5="13000.00000" pt_clust_6="13000.00000" pt_clust_7="13000.00000" pt_clust_8="13000.00000" pt_clust_9="68.24688"></scales>
<clustering>
<clus scale="   68.247">  1  9  2 -1</clus>
<clus scale="   80.514">  5  6 -1 -1</clus>
<clus scale="   93.399">  7  8 -1 -1</clus>
<clus scale="  100.360">  1  5  2 -1</clus>
<clus scale="   68.247">  1  5  2 -1</clus>
</clustering>
</event>
<event>
 9    1  0.1504846E-005  0.1019390E+03  0.7546771E-02  0.1276403E+00
         21   -1    0    0  501  502  0.00000000000E+00  0.00000000000E+00  0.14203105278E+03  0.14203105278E+03  0.00000000000E+00 0. -1.
          1   -1    0    0  502    0 -0.00000000000E+00 -0.00000000000E+00 -0.14956649335E+03  0.14956649335E+03  0.00000000000E+00 0. -1.
         23    2    1    2    0    0  0.16554356319E+02  0.88588408978E+01 -0.15581323551E+02  0.95110346861E+02  0.91927551155E+02 0.  0.
         23    2    1    2    0    0 -0.30728107277E+02 -0.69326064817E+02 -0.30717434969E+02  0.12327671366E+03  0.92213163275E+02 0.  0.
        -11    1    3    3    0    0 -0.30162724389E+01 -0.39078166402E+02  0.47550948636E+01  0.39481792208E+02  0.00000000000E+00 0. -1.
         11    1    3    3    0    0  0.19570628758E+02  0.47937007300E+02 -0.20336418415E+02  0.55628554653E+02  0.00000000000E+00 0.  1.
        -11    1    4    4    0    0  0.17507899071E+02 -0.38159878061E+02  0.20140753236E+02  0.46565574886E+02  0.00000000000E+00 0.  1.
         11    1    4    4    0    0 -0.48236006348E+02 -0.31166186755E+02 -0.50858188205E+02  0.76711138779E+02  0.00000000000E+00 0. -1.
          1    1    1    2  501    0  0.14173750959E+02  0.60467223919E+02  0.38763317951E+02  0.73210485610E+02  0.00000000000E+00 0. -1.
<scales pt_clust_5="13000.00000" pt_clust_6="13000.00000" pt_clust_7="13000.00000" pt_clust_8="13000.00000" pt_clust_9="62.10620"></scales>
<clustering>
<clus scale="   62.106">  1  9  2 -1</clus>
<clus scale="   91.928">  5  6 -1 -1</clus>
<clus scale="   92.213">  7  8 -1 -1</clus>
<clus scale="  101.681">  2  5  1 -1</clus>
<clus scale="   62.106">  1  5  2 -1</clus>
</clustering>
</event>
<event>
 9    1  0.1504846E-005  0.9922489E+02  0.7546771E-02  0.1286194E+00
         21   -1    0    0  501  502  0.00000000000E+00  0.00000000000E+00  0.71328440543E+02  0.71328440543E+02  0.00000000000E+00 0. -1.
         -4   -1    0    0    0  501 -0.00000000000E+00 -0.00000000000E+00 -0.24407630957E+03  0.24407630957E+03  0.00000000000E+00 0.  1.
         23    2    1    2    0    0  0.24847764527E+02 -0.24317768606E+02 -0.10150173387E+03  0.13644806043E+03  0.84301280801E+02 0.  0.
         23    2    1    2    0    0 -0.52142200486E+02 -0.90641432912E+01 -0.14403666520E+02  0.10760961885E+03  0.92581837818E+02 0.  0.
        -13    1    3    3    0    0  0.53670480885E+02 -0.28730778404E+02 -0.58036788495E+02  0.84108542758E+02  0.00000000000E+00 0.  1.
         13    1    3    3    0    0 -0.28822716358E+02  0.44130097984E+01 -0.43464945378E+02  0.52339517674E+02  0.00000000000E+00 0. -1.
        -13    1    4    4    0    0  0.12549453584E+02 -0.24521407316E+02  0.18720360535E+02  0.33305256351E+02  0.00000000000E+00 0.  1.
         13    1    4    4    0    0 -0.64691654070E+02  0.15457264025E+02 -0.33124027055E+02  0.74304362495E+02  0.00000000000E+00 0. -1.
         -4    1    1    2    0  502  0.27294435959E+02  0.33381911897E+02 -0.56842468639E+02  0.71347070839E+02  0.00000000000E+00 0.  1.
<scales pt_clust_5="13000.00000" pt_clust_6="13000.00000" pt_clust_7="13000.00000" pt_clust_8="13000.00000" pt_clust_9="43.12007"></scales>
<clustering>
<clus scale="   43.120">  1  9  2 -1</clus>
<clus scale="   84.301">  5  6 -1 -1</clus>
<clus scale="   91.547">  2  5  1 -1</clus>
<clus scale="   92.582">  7  8 -1 -1</clus>
<clus scale="   43.120">  1  5  2 -1</clus>
</clustering>
</event>
<event>
 9    1  0.1504846E-005  0.1179288E+03  0.7546771E-02  0.1249584E+00
         21   -1    0    0  501  502  0.00000000000E+00  0.00000000000E+00  0.85556277316E+02  0.85556277316E+02  0.00000000000E+00 0.  1.
          2   -1    0    0  502    0 -0.00000000000E+00 -0.00000000000E+00 -0.21283824906E+03  0.21283824906E+03  0.00000000000E+00 0. -1.
         23    2    1    2    0    0 -0.37241747116E+02  0.71794769498E+02 -0.11460082818E+03  0.16238209825E+03  0.81811731164E+02 0.  0.
         23    2    1    2    0    0  0.33208285971E+02 -0.51455990767E+02  0.34279425247E+01  0.10975528846E+03  0.91016280475E+02 0.  0.
        -11    1    4    4    0    0 -0.18165360385E+02  0.12142925742E+02  0.15940931303E+02  0.27047074783E+02  0.00000000000E+00 0. -1.
         11    1    4    4    0    0  0.51373646356E+02 -0.63598916510E+02 -0.12512988778E+02  0.82708213675E+02  0.00000000000E+00 0.  1.
        -13    1    3    3    0    0 -0.29875864937E+02  0.27998593122E+02 -0.16099547235E+01  0.40976584494E+02  0.00000000000E+00 0.  1.
         13    1    3    3    0    0 -0.73658821792E+01  0.43796176376E+02 -0.11299087345E+03  0.12140551375E+03  0.00000000000E+00 0. -1.
          2    1    1    2  501    0  0.40334611452E+01 -0.20338778730E+02 -0.16109086090E+02  0.26257139671E+02  0.00000000000E+00 0. -1.
<scales pt_clust_5="13000.00000" pt_clust_6="13000.00000" pt_clust_7="13000.00000" pt_clust_8="13000.00000" pt_clust_9="20.73488"></scales>
<clustering>
<clus scale="   20.735">  1  9  2 -1</clus>
<clus scale="   81.812">  7  8 -1 -1</clus>
<clus scale="   91.016">  5  6 -1 -1</clus>
<clus scale="  110.979">  2  7  1 -1</clus>
<clus scale="   20.735">  1  5  2 -1</clus>
</clustering>
</event>
<event>
 9    1  0.1504846E-005  0.1297921E+03  0.7546771E-02  0.1228075E+00
         21   -1    0    0  501  502  0.00000000000E+00  0.00000000000E+00  0.32343571206E+03  0.32343571206E+03  0.00000000000E+00 0. -1.
          2   -1    0    0  502    0 -0.00000000000E+00 -0.00000000000E+00 -0.43825240876E+03  0.43825240876E+03  0.00000000000E+00 0. -1.
         23    2    1    2    0    0  0.79734914866E+02  0.65271234811E+02 -0.29811559278E+03  0.32833682869E+03  0.91182101714E+02 0.  0.
         23    2    1    2    0    0  0.18027816048E+02 -0.98002174716E+02 -0.75033407845E+02  0.15520664407E+03  0.92356167479E+02 0.  0.
        -11    1    4    4    0    0 -0.11618482281E+02 -0.10283900988E+03 -0.45406327489E+02  0.11301586464E+03  0.00000000000E+00 0. -1.
         11    1    4    4    0    0  0.29646298329E+02  0.48368351648E+01 -0.29627080356E+02  0.42190779437E+02  0.00000000000E+00 0.  1.
        -11    1    3    3    0    0  0.47011621185E+02 -0.12837493509E+02 -0.72551288981E+02  0.87398989118E+02  0.00000000000E+00 0.  1.
         11    1    3    3    0    0  0.32723293681E+02  0.78108728320E+02 -0.22556430380E+03  0.24093783958E+03  0.00000000000E+00 0. -1.
          2    1    1    2  501    0 -0.97762730914E+02  0.32730939904E+02  0.25833230394E+03  0.27814464805E+03  0.00000000000E+00 0. -1.
<scales pt_clust_5="13000.00000" pt_clust_6="13000.00000" pt_clust_7="13000.00000" pt_clust_8="13000.00000" pt_clust_9="103.09639"></scales>
<clustering>
<clus scale="   91.182">  7  8 -1 -1</clus>
<clus scale="   92.356">  5  6 -1 -1</clus>
<clus scale="  103.096">  1  9  2 -1</clus>
<clus scale="  128.959">  2  7  1 -1</clus>
<clus scale="  103.096">  1  5  2 -1</clus>
</clustering>
</event>
<event>
 9    1  0.1504846E-005  0.2158444E+03  0.7546771E-02  0.1137090E+00
          2   -1    0    0  502    0 -0.00000000000E+00  0.00000000000E+00  0.10072828626E+04  0.10072828626E+04  0.00000000000E+00 0. -1.
         21   -1    0    0  501  502  0.00000000000E+00 -0.00000000000E+00 -0.23441118244E+03  0.23441118244E+03  0.00000000000E+00 0. -1.
         23    2    1    2    0    0  0.10408618716E+02 -0.19305667538E+03  0.66039926472E+03  0.69409199685E+03  0.90869642818E+02 0.  0.
         23    2    1    2    0    0 -0.51414932557E+02  0.19751528334E+03  0.28970843277E+03  0.36562951510E+03  0.89989909707E+02 0.  0.
        -11    1    3    3    0    0 -0.24466524228E+02 -0.25768220660E+02  0.19720978806E+03  0.20038540993E+03  0.00000000000E+00 0.  1.
         11    1    3    3    0    0  0.34875142945E+02 -0.16728845472E+03  0.46318947666E+03  0.49370658692E+03  0.00000000000E+00 0. -1.
        -13    1    4    4    0    0  0.24671370828E+01  0.15276990656E+03  0.19087474700E+03  0.24449519454E+03  0.00000000000E+00 0.  1.
         13    1    4    4    0    0 -0.53882069640E+02  0.44745376789E+02  0.98833685771E+02  0.12113432055E+03  0.00000000000E+00 0. -1.
          2    1    1    2  501    0  0.41006313841E+02 -0.44586079640E+01 -0.17723601734E+03  0.18197253310E+03  0.00000000000E+00 0. -1.
<scales pt_clust_5="13000.00000" pt_clust_6="13000.00000" pt_clust_7="13000.00000" pt_clust_8="13000.00000" pt_clust_9="41.24799"></scales>
<clustering>
<clus scale="   41.248">  2  9  1 -1</clus>
<clus scale="   89.990">  7  8 -1 -1</clus>
<clus scale="   90.870">  5  6 -1 -1</clus>
<clus scale="  215.476">  2  7  1 -1</clus>
<clus scale="   41.248">  2  5  1 -1</clus>
</clustering>
</event>
<event>
 9    1  0.1504846E-005  0.1200400E+03  0.7546771E-02  0.1244303E+00
         -1   -1    0    0    0  501 -0.00000000000E+00  0.00000000000E+00  0.10928970982E+03  0.10928970982E+03  0.00000000000E+00 0.  1.
         21   -1    0    0  501  502  0.00000000000E+00 -0.00000000000E+00 -0.28055820780E+03  0.28055820780E+03  0.00000000000E+00 0.  1.
         23    2    1    2    0    0  0.54027465773E+02 -0.44201756109E+02  0.36795778023E+02  0.12033026821E+03  0.90844272612E+02 0.  0.
         23    2    1    2    0    0 -0.50974165500E+02  0.80745120950E+02 -0.16782052039E+03  0.21507226372E+03  0.94732314717E+02 0.  0.
        -13    1    4    4    0    0 -0.40996109467E+02  0.37068390558E+02 -0.17131213501E+02  0.57863849216E+02  0.00000000000E+00 0. -1.
         13    1    4    4    0    0 -0.99780560332E+01  0.43676730392E+02 -0.15068930689E+03  0.15720841451E+03  0.00000000000E+00 0.  1.
        -13    1    3    3    0    0  0.11338297535E+02  0.28259845714E+02  0.10653374451E+02  0.32259421228E+02  0.00000000000E+00 0. -1.
         13    1    3    3    0    0  0.42689168238E+02 -0.72461601824E+02  0.26142403572E+02  0.88070846983E+02  0.00000000000E+00 0.  1.
         -1    1    1    2    0  502 -0.30533002729E+01 -0.36543364841E+02 -0.40243755608E+02  0.54445385680E+02  0.00000000000E+00 0.  1.
<scales pt_clust_5="13000.00000" pt_clust_6="13000.00000" pt_clust_7="13000.00000" pt_clust_8="13000.00000" pt_clust_9="36.67070"></scales>
<clustering>
<clus scale="   36.671">  2  9  1 -1</clus>
<clus scale="   90.844">  7  8 -1 -1</clus>
<clus scale="   94.732">  5  6 -1 -1</clus>
<clus scale="  116.996">  1  7  2 -1</clus>
<clus scale="   36.671">  2  5  1 -1</clus>
</clustering>
</event>
<event>
 9    1  0.1504846E-005  0.1622972E+03  0.7546771E-02  0.1204395E+00
         21   -1    0    0  501  502  0.00000000000E+00  0.00000000000E+00  0.98968723501E+03  0.98968723501E+03  0.00000000000E+00 0.  1.
         -2   -1    0    0    0  501 -0.00000000000E+00 -0.00000000000E+00 -0.99208808735E+02  0.99208808735E+02  0.00000000000E+00 0.  1.
         23    2    1    2    0    0  0.56143522873E+02  0.20021184134E+01 -0.21575154643E+02  0.11090849501E+03  0.93161705272E+02 0.  0.
         23    2    1    2    0    0 -0.17977793347E+03  0.52603414545E+00  0.36001908732E+03  0.41227212455E+03  0.89633583953E+02 0.  0.
        -11    1    3    3    0    0  0.65650956991E+02 -0.20924329421E+02 -0.40293836775E+02  0.79821482056E+02  0.00000000000E+00 0.  1.
         11    1    3    3    0    0 -0.95074341178E+01  0.22926447834E+02  0.18718682132E+02  0.31087012956E+02  0.00000000000E+00 0. -1.
        -13    1    4    4    0    0 -0.76582388422E+02  0.12072432377E+02  0.70855083922E+02  0.10502879966E+03  0.00000000000E+00 0.  1.
         13    1    4    4    0    0 -0.10319554504E+03 -0.11546398232E+02  0.28916400340E+03  0.30724332489E+03  0.00000000000E+00 0. -1.
         -2    1    1    2    0  502  0.12363441059E+03 -0.25281525589E+01  0.55203449359E+03  0.56571542418E+03  0.00000000000E+00 0.  1.
<scales pt_clust_5="13000.00000" pt_clust_6="13000.00000" pt_clust_7="13000.00000" pt_clust_8="13000.00000" pt_clust_9="135.30037"></scales>
<clustering>
<clus scale="   89.634">  7  8 -1 -1</clus>
<clus scale="   93.162">  5  6 -1 -1</clus>
<clus scale="  108.790">  2  5  1 -1</clus>
<clus scale="  135.300">  1  9  2 -1</clus>
<clus scale="  135.300">  1  5  2 -1</clus>
</clustering>
</event>
<event>
 9    1  0.1504846E-005  0.9423163E+02  0.7546771E-02  0.1294687E+00
         21   -1    0    0  501  502  0.00000000000E+00  0.00000000000E+00  0.18765820198E+03  0.18765820198E+03  0.00000000000E+00 0. -1.
          4   -1    0    0  502    0 -0.00000000000E+00 -0.00000000000E+00 -0.11480604729E+03  0.11480604729E+03  0.00000000000E+00 0. -1.
         23    2    1    2    0    0 -0.50036026386E+01 -0.47116636770E+01 -0.43482004164E+02  0.99495435526E+02  0.89226796370E+02 0.  0.
         23    2    1    2    0    0  0.22401255924E+02  0.46139397412E+02  0.37247070728E+02  0.11200891615E+03  0.92347131832E+02 0.  0.
        -11    1    4    4    0    0 -0.27446371668E+02 -0.10713155741E+02  0.15713892267E+02  0.33391637184E+02  0.00000000000E+00 0.  1.
         11    1    4    4    0    0  0.49847627592E+02  0.56852553152E+02  0.21533178461E+02  0.78617278961E+02  0.00000000000E+00 0. -1.
        -13    1    3    3    0    0  0.32881383643E+00 -0.41965020659E+02 -0.45385383955E+02  0.61814271445E+02  0.00000000000E+00 0.  1.
         13    1    3    3    0    0 -0.53324164751E+01  0.37253356982E+02  0.19033797906E+01  0.37681164082E+02  0.00000000000E+00 0. -1.
          4    1    1    2  501    0 -0.17397653285E+02 -0.41427733735E+02  0.79087088128E+02  0.90959897596E+02  0.00000000000E+00 0. -1.
<scales pt_clust_5="13000.00000" pt_clust_6="13000.00000" pt_clust_7="13000.00000" pt_clust_8="13000.00000" pt_clust_9="44.93257"></scales>
<clustering>
<clus scale="   44.933">  1  9  2 -1</clus>
<clus scale="   89.227">  7  8 -1 -1</clus>
<clus scale="   91.176">  2  7  1 -1</clus>
<clus scale="   92.347">  5  6 -1 -1</clus>
<clus scale="   44.933">  1  5  2 -1</clus>
</clustering>
</event>
<event>
 9    1  0.1504846E-005  0.1006261E+03  0.7546771E-02  0.1279219E+00
         21   -1    0    0  501  502  0.00000000000E+00  0.00000000000E+00  0.33484963875E+03  0.33484963875E+03  0.00000000000E+00 0.  1.
          2   -1    0    0  502    0 -0.00000000000E+00 -0.00000000000E+00 -0.43421925770E+02  0.43421925770E+02  0.00000000000E+00 0. -1.
         23    2    1    2    0    0 -0.48815817476E+02 -0.18236482518E+02  0.81390997618E+02  0.13249022444E+03  0.90628978524E+02 0.  0.
         23    2    1    2    0    0  0.24022383806E+02  0.71441703975E+01  0.18940015435E+03  0.21166944491E+03  0.91123110947E+02 0.  0.
        -11    1    4    4    0    0  0.43213968639E+01 -0.32020605464E+02  0.14759942499E+03  0.15109461904E+03  0.00000000000E+00 0.  1.
         11    1    4    4    0    0  0.19700986942E+02  0.39164775861E+02  0.41800729354E+02  0.60574825871E+02  0.00000000000E+00 0. -1.
        -11    1    3    3    0    0 -0.19233583909E+02  0.13021802844E+02 -0.14501866008E+02  0.27382516630E+02  0.00000000000E+00 0. -1.
         11    1    3    3    0    0 -0.29582233567E+02 -0.31258285362E+02  0.95892863625E+02  0.10510770781E+03  0.00000000000E+00 0.  1.
          2    1    1    2  501    0  0.24793433670E+02  0.11092312121E+02  0.20636561012E+02  0.34111895165E+02  0.00000000000E+00 0. -1.
<scales pt_clust_5="13000.00000" pt_clust_6="13000.00000" pt_clust_7="13000.00000" pt_clust_8="13000.00000" pt_clust_9="27.16164"></scales>
<clustering>
<clus scale="   27.162">  1  9  2 -1</clus>
<clus scale="   90.629">  7  8 -1 -1</clus>
<clus scale="   91.123">  5  6 -1 -1</clus>
<clus scale="  100.179">  2  7  1 -1</clus>
<clus scale="   27.162">  1  5  2 -1</clus>
</clustering>
</event>
<event>
 9    1  0.1504846E-005  0.9625618E+02  0.7546771E-02  0.1289479E+00
         21   -1    0    0  501  502  0.00000000000E+00  0.00000000000E+00  0.34318531084E+02  0.34318531084E+02  0.00000000000E+00 0.  1.
          2   -1    0    0  502    0 -0.00000000000E+00 -0.00000000000E+00 -0.53279769052E+03  0.53279769052E+03  0.00000000000E+00 0. -1.
         23    2    1    2    0    0  0.18447002297E+02  0.42886449251E+00 -0.20525474385E+03  0.22597544395E+03  0.92708767524E+02 0.  0.
         23    2    1    2    0    0  0.97821898686E+01  0.56824499120E+02 -0.21351457414E+03  0.23902078079E+03  0.90651780696E+02 0.  0.
        -11    1    3    3    0    0 -0.13595262557E+02  0.34688203202E+02 -0.42133859835E+02  0.56243797435E+02  0.00000000000E+00 0.  1.
         11    1    3    3    0    0  0.32042264854E+02 -0.34259338709E+02 -0.16312088402E+03  0.16973164652E+03  0.00000000000E+00 0. -1.
        -11    1    4    4    0    0 -0.22740528382E+02  0.57488529930E+02 -0.18731180051E+03  0.19725053438E+03  0.00000000000E+00 0.  1.
         11    1    4    4    0    0  0.32522718251E+02 -0.66403080974E+00 -0.26202773628E+02  0.41770246410E+02  0.00000000000E+00 0. -1.
          2    1    1    2  501    0 -0.28229192166E+02 -0.57253363612E+02 -0.79709841442E+02  0.10211999686E+03  0.00000000000E+00 0. -1.
<scales pt_clust_5="13000.00000" pt_clust_6="13000.00000" pt_clust_7="13000.00000" pt_clust_8="13000.00000" pt_clust_9="63.83443"></scales>
<clustering>
<clus scale="   63.834">  1  9  2 -1</clus>
<clus scale="   90.652">  7  8 -1 -1</clus>
<clus scale="   92.709">  5  6 -1 -1</clus>
<clus scale="   94.277">  1  7  2 -1</clus>
<clus scale="   63.834">  1  5  2 -1</clus>
</clustering>
</event>
<event>
 9    1  0.1504846E-005  0.1476082E+03  0.7546771E-02  0.1226263E+00
          2   -1    0    0  502    0 -0.00000000000E+00  0.00000000000E+00  0.75754648397E+03  0.75754648397E+03  0.00000000000E+00 0. -1.
         21   -1    0    0  501  502  0.00000000000E+00 -0.00000000000E+00 -0.58454941049E+02  0.58454941049E+02  0.00000000000E+00 0.  1.
         23    2    1    2    0    0 -0.44919306430E+01 -0.89252870833E+01  0.10233149188E+03  0.13696197926E+03  0.90482105093E+02 0.  0.
         23    2    1    2    0    0 -0.89743572362E+02  0.75166417481E+02  0.51932539260E+03  0.54024339499E+03  0.91979146145E+02 0.  0.
        -11    1    4    4    0    0 -0.38803841472E+02  0.87950978925E+02  0.32139400889E+03  0.33546269801E+03  0.00000000000E+00 0.  1.
         11    1    4    4    0    0 -0.50939730890E+02 -0.12784561443E+02  0.19793138372E+03  0.20478069698E+03  0.00000000000E+00 0. -1.
        -13    1    3    3    0    0  0.30676424052E+02  0.16567061528E+02  0.12247227975E+02  0.36952741622E+02  0.00000000000E+00 0.  1.
         13    1    3    3    0    0 -0.35168354695E+02 -0.25492348611E+02  0.90084263905E+02  0.10000923764E+03  0.00000000000E+00 0. -1.
          2    1    1    2  501    0  0.94235503005E+02 -0.66241130398E+02  0.77434658440E+02  0.13879605078E+03  0.00000000000E+00 0. -1.
<scales pt_clust_5="13000.00000" pt_clust_6="13000.00000" pt_clust_7="13000.00000" pt_clust_8="13000.00000" pt_clust_9="115.44698"></scales>
<clustering>
<clus scale="   90.482">  7  8 -1 -1</clus>
<clus scale="   91.032">  1  7  2 -1</clus>
<clus scale="   91.979">  5  6 -1 -1</clus>
<clus scale="  115.447">  2  9  1 -1</clus>
<clus scale="  115.447">  2  5  1 -1</clus>
</clustering>
</event>
<event>
 9    1  0.1504846E-005  0.1252982E+03  0.7546771E-02  0.1234714E+00
         21   -1    0    0  501  502  0.00000000000E+00  0.00000000000E+00  0.11698943445E+03  0.11698943445E+03  0.00000000000E+00 0.  1.
          2   -1    0    0  502    0 -0.00000000000E+00 -0.00000000000E+00 -0.39752400248E+03  0.39752400248E+03  0.00000000000E+00 0. -1.
         23    2    1    2    0    0 -0.81331976411E+02  0.22035975490E+02 -0.29033319868E+03  0.31617238498E+03  0.92580430778E+02 0.  0.
         23    2    1    2    0    0  0.74236552271E+02 -0.41721184650E+02 -0.49514352464E+02  0.13544524550E+03  0.92962468167E+02 0.  0.
        -11    1    4    4    0    0  0.45509457844E+02 -0.49944409454E+02  0.10522581473E+02  0.68383327718E+02  0.00000000000E+00 0.  1.
         11    1    4    4    0    0  0.28727094427E+02  0.82232248040E+01 -0.60036933937E+02  0.67061917784E+02  0.00000000000E+00 0. -1.
        -13    1    3    3    0    0 -0.61501582885E+02  0.11027886672E+02 -0.28642041927E+03  0.29315646941E+03  0.00000000000E+00 0. -1.
         13    1    3    3    0    0 -0.19830393526E+02  0.11008088818E+02 -0.39127794147E+01  0.23015915571E+02  0.00000000000E+00 0.  1.
          2    1    1    2  501    0  0.70954241402E+01  0.19685209160E+02  0.59312983110E+02  0.62895806449E+02  0.00000000000E+00 0. -1.
<scales pt_clust_5="13000.00000" pt_clust_6="13000.00000" pt_clust_7="13000.00000" pt_clust_8="13000.00000" pt_clust_9="20.92493"></scales>
<clustering>
<clus scale="   20.925">  1  9  2 -1</clus>
<clus scale="   92.580">  7  8 -1 -1</clus>
<clus scale="   92.962">  5  6 -1 -1</clus>
<clus scale="  125.015">  2  7  1 -1</clus>
<clus scale="   20.925">  1  5  2 -1</clus>
</clustering>
</event>
<event>
 9    1  0.1504846E-005  0.9434786E+02  0.7546771E-02  0.1293385E+00
          2   -1    0    0  502    0 -0.00000000000E+00  0.00000000000E+00  0.49845746406E+03  0.49845746406E+03  0.00000000000E+00 0. -1.
         21   -1    0    0  501  502  0.00000000000E+00 -0.00000000000E+00 -0.39774135434E+02  0.39774135434E+02  0.00000000000E+00 0.  1.
         23    2    1    2    0    0 -0.20227208269E+02 -0.14827914794E+02  0.23656731445E+03  0.25504343592E+03  0.91945923945E+02 0.  0.
         23    2    1    2    0    0 -0.13613377570E+02  0.27095471339E+02  0.22753175250E+03  0.24678749854E+03  0.90630471842E+02 0.  0.
        -11    1    3    3    0    0 -0.49268760838E+02 -0.34186006361E+02  0.16100101055E+03  0.17180634221E+03  0.00000000000E+00 0. -1.
         11    1    3    3    0    0  0.29041552569E+02  0.19358091567E+02  0.75566303896E+02  0.83237093710E+02  0.00000000000E+00 0.  1.
        -13    1    4    4    0    0  0.27417183626E+02  0.12555385645E+02  0.23685232404E+02  0.38344881023E+02  0.00000000000E+00 0.  1.
         13    1    4    4    0    0 -0.41030561195E+02  0.14540085694E+02  0.20384652009E+03  0.20844261752E+03  0.00000000000E+00 0. -1.
          2    1    1    2  501    0  0.33840585839E+02 -0.12267556545E+02 -0.54157383150E+01  0.36400665035E+02  0.00000000000E+00 0. -1.
<scales pt_clust_5="13000.00000" pt_clust_6="13000.00000" pt_clust_7="13000.00000" pt_clust_8="13000.00000" pt_clust_9="35.99553"></scales>
<clustering>
<clus scale="   35.996">  2  9  1 -1</clus>
<clus scale="   90.630">  7  8 -1 -1</clus>
<clus scale="   91.946">  5  6 -1 -1</clus>
<clus scale="   93.066">  2  7  1 -1</clus>
<clus scale="   35.996">  2  5  1 -1</clus>
</clustering>
</event>
<event>
 9    1  0.1504846E-005  0.1217517E+03  0.7546771E-02  0.1250032E+00
         21   -1    0    0  501  502  0.00000000000E+00  0.00000000000E+00  0.41222921946E+03  0.41222921946E+03  0.00000000000E+00 0. -1.
          2   -1    0    0  502    0 -0.00000000000E+00 -0.00000000000E+00 -0.42100040126E+02  0.42100040126E+02  0.00000000000E+00 0.  1.
         23    2    1    2    0    0 -0.27097991827E+02 -0.11713062805E+02  0.11584501680E+03  0.15157891451E+03  0.93191214207E+02 0.  0.
         23    2    1    2    0    0  0.28289842111E+02  0.38558245395E+02  0.15332193965E+03  0.19827329121E+03  0.11626533178E+03 0.  0.
        -13    1    4    4    0    0  0.64341383201E+02  0.23102678205E+02  0.41979470609E+02  0.80223583098E+02  0.00000000000E+00 0.  1.
         13    1    4    4    0    0 -0.36051541090E+02  0.15455567190E+02  0.11134246904E+03  0.11804970811E+03  0.00000000000E+00 0. -1.
        -13    1    3    3    0    0 -0.28189926699E+01 -0.49783931033E+02  0.42844376442E+02  0.65742125775E+02  0.00000000000E+00 0.  1.
         13    1    3    3    0    0 -0.24278999157E+02  0.38070868227E+02  0.73000640354E+02  0.85836788732E+02  0.00000000000E+00 0. -1.
          2    1    1    2  501    0 -0.11918502838E+01 -0.26845182589E+02  0.10096222288E+03  0.10447705387E+03  0.00000000000E+00 0.  1.
<scales pt_clust_5="13000.00000" pt_clust_6="13000.00000" pt_clust_7="13000.00000" pt_clust_8="13000.00000" pt_clust_9="26.87163"></scales>
<clustering>
<clus scale="   26.872">  1  9  2 -1</clus>
<clus scale="   93.191">  7  8 -1 -1</clus>
<clus scale="   99.952">  2  7  1 -1</clus>
<clus scale="  116.265">  5  6 -1 -1</clus>
<clus scale="   26.872">  1  5  2 -1</clus>
</clustering>
</event>
<event>
 9    1  0.1504846E-005  0.1010376E+03  0.7546771E-02  0.1278651E+00
         21   -1    0    0  501  502  0.00000000000E+00  0.00000000000E+00  0.61435271084E+02  0.61435271084E+02  0.00000000000E+00 0. -1.
          1   -1    0    0  502    0 -0.00000000000E+00 -0.00000000000E+00 -0.41980602753E+03  0.41980602753E+03  0.00000000000E+00 0. -1.
         23    2    1    2    0    0 -0.30891769539E+02  0.50472055389E+02 -0.23318855266E+03  0.25734771971E+03  0.91374055108E+02 0.  0.
         23    2    1    2    0    0 -0.41035703165E+02 -0.10987346123E+02 -0.53641310866E+02  0.11503264489E+03  0.92468743094E+02 0.  0.
        -11    1    4    4    0    0 -0.33377273566E+01 -0.47499585188E+02 -0.35900766887E+02  0.59634017809E+02  0.00000000000E+00 0.  1.
         11    1    4    4    0    0 -0.37697975808E+02  0.36512239065E+02 -0.17740543980E+02  0.55398627079E+02  0.00000000000E+00 0. -1.
        -13    1    3    3    0    0 -0.54479504994E+02  0.60690553597E+02 -0.19439965753E+03  0.21081410439E+03  0.00000000000E+00 0. -1.
         13    1    3    3    0    0  0.23587735455E+02 -0.10218498208E+02 -0.38788895135E+02  0.46533615326E+02  0.00000000000E+00 0.  1.
          1    1    1    2  501    0  0.71927472704E+02 -0.39484709266E+02 -0.71540892914E+02  0.10886093401E+03  0.00000000000E+00 0. -1.
<scales pt_clust_5="13000.00000" pt_clust_6="13000.00000" pt_clust_7="13000.00000" pt_clust_8="13000.00000" pt_clust_9="82.05244"></scales>
<clustering>
<clus scale="   82.052">  1  9  2 -1</clus>
<clus scale="   91.374">  7  8 -1 -1</clus>
<clus scale="   92.469">  5  6 -1 -1</clus>
<clus scale="  100.037">  2  7  1 -1</clus>
<clus scale="   82.052">  1  5  2 -1</clus>
</clustering>
</event>
<event>
 9    1  0.1504846E-005  0.1403283E+03  0.7546771E-02  0.1213052E+00
         21   -1    0    0  501  502  0.00000000000E+00  0.00000000000E+00  0.73544060760E+03  0.73544060760E+03  0.00000000000E+00 0.  1.
         -1   -1    0    0    0  501 -0.00000000000E+00 -0.00000000000E+00 -0.56240399270E+02  0.56240399270E+02  0.00000000000E+00 0.  1.
         23    2    1    2    0    0 -0.85562133752E+02  0.85821796193E+02  0.87784719660E+02  0.17479709714E+03  0.90341622341E+02 0.  0.
         23    2    1    2    0    0  0.42416282601E+02 -0.57883066519E+02  0.31361779121E+03  0.33437072809E+03  0.91093767194E+02 0.  0.
        -13    1    3    3    0    0 -0.93901466808E+02  0.62215117701E+02  0.96460831544E+02  0.14830002819E+03  0.00000000000E+00 0. -1.
         13    1    3    3    0    0  0.83393330560E+01  0.23606678493E+02 -0.86761118836E+01  0.26497068945E+02  0.00000000000E+00 0.  1.
        -13    1    4    4    0    0 -0.15586757193E+02 -0.41466605510E+02  0.20886632060E+03  0.21351244988E+03  0.00000000000E+00 0. -1.
         13    1    4    4    0    0  0.58003039795E+02 -0.16416461009E+02  0.10475147061E+03  0.12085827821E+03  0.00000000000E+00 0.  1.
         -1    1    1    2    0  502  0.43145851151E+02 -0.27938729674E+02  0.27779769746E+03  0.28251318165E+03  0.00000000000E+00 0.  1.
<scales pt_clust_5="13000.00000" pt_clust_6="13000.00000" pt_clust_7="13000.00000" pt_clust_8="13000.00000" pt_clust_9="51.40172"></scales>
<clustering>
<clus scale="   51.402">  1  9  2 -1</clus>
<clus scale="   90.342">  5  6 -1 -1</clus>
<clus scale="   91.094">  7  8 -1 -1</clus>
<clus scale="  139.841">  2  5  1 -1</clus>
<clus scale="   51.402">  1  5  2 -1</clus>
</clustering>
</event>
<event>
 9    1  0.1504846E-005  0.9959344E+02  0.7546771E-02  0.1282819E+00
         -1   -1    0    0    0  501 -0.00000000000E+00  0.00000000000E+00  0.43238599770E+03  0.43238599770E+03  0.00000000000E+00 0.  1.
         21   -1    0    0  501  502  0.00000000000E+00 -0.00000000000E+00 -0.59461079877E+02  0.59461079877E+02  0.00000000000E+00 0. -1.
         23    2    1    2    0    0 -0.15466863858E+02 -0.33483032716E+02  0.29851777132E+03  0.31315086991E+03  0.87122156604E+02 0.  0.
         23    2    1    2    0    0  0.37397992829E+01  0.59692326013E+02  0.94303202104E+02  0.14376335599E+03  0.90540867650E+02 0.  0.
        -11    1    4    4    0    0 -0.15702299521E+02 -0.17416570450E+02  0.46184811625E+01  0.23900408045E+02  0.00000000000E+00 0.  1.
         11    1    4    4    0    0  0.19442098804E+02  0.77108896462E+02  0.89684720941E+02  0.11986294794E+03  0.00000000000E+00 0. -1.
        -11    1    3    3    0    0  0.53362446685E+01 -0.55587065977E+02  0.24805003652E+03  0.25425817200E+03  0.00000000000E+00 0.  1.
         11    1    3    3    0    0 -0.20803108527E+02  0.22104033261E+02  0.50467734800E+02  0.58892697906E+02  0.00000000000E+00 0. -1.
         -1    1    1    2    0  502  0.11727064575E+02 -0.26209293296E+02 -0.19896055597E+02  0.34932851686E+02  0.00000000000E+00 0.  1.
<scales pt_clust_5="13000.00000" pt_clust_6="13000.00000" pt_clust_7="13000.00000" pt_clust_8="13000.00000" pt_clust_9="28.71326"></scales>
<clustering>
<clus scale="   28.713">  2  9  1 -1</clus>
<clus scale="   87.122">  7  8 -1 -1</clus>
<clus scale="   90.541">  5  6 -1 -1</clus>
<clus scale="   96.496">  1  7  2 -1</clus>
<clus scale="   28.713">  2  5  1 -1</clus>
</clustering>
</event>
<event>
 9    1  0.1504846E-005  0.9911978E+02  0.7546771E-02  0.1284219E+00
         21   -1    0    0  501  502  0.00000000000E+00  0.00000000000E+00  0.27903778124E+03  0.27903778124E+03  0.00000000000E+00 0.  1.
         -1   -1    0    0    0  501 -0.00000000000E+00 -0.00000000000E+00 -0.51418291773E+02  0.51418291773E+02  0.00000000000E+00 0.  1.
         23    2    1    2    0    0  0.28886971538E+02 -0.88927387284E+01  0.33254039352E+02  0.10137417266E+03  0.90869983069E+02 0.  0.
         23    2    1    2    0    0 -0.28111238171E+02 -0.11891022045E+02  0.14987094768E+03  0.17996645246E+03  0.94841894419E+02 0.  0.
        -11    1    4    4    0    0 -0.25454100302E+01 -0.51607517490E+02  0.67396344859E+02  0.84923979382E+02  0.00000000000E+00 0.  1.
         11    1    4    4    0    0 -0.25565828141E+02  0.39716495445E+02  0.82474602818E+02  0.95042473079E+02  0.00000000000E+00 0. -1.
        -13    1    3    3    0    0  0.60526877244E+02 -0.27504324212E+00  0.10427341296E+02  0.61419117254E+02  0.00000000000E+00 0.  1.
         13    1    3    3    0    0 -0.31639905706E+02 -0.86176954863E+01  0.22826698055E+02  0.39955055409E+02  0.00000000000E+00 0. -1.
         -1    1    1    2    0  502 -0.77573336679E+00  0.20783760774E+02  0.44494502442E+02  0.49115447893E+02  0.00000000000E+00 0.  1.
<scales pt_clust_5="13000.00000" pt_clust_6="13000.00000" pt_clust_7="13000.00000" pt_clust_8="13000.00000" pt_clust_9="20.79823"></scales>
<clustering>
<clus scale="   20.798">  1  9  2 -1</clus>
<clus scale="   90.870">  7  8 -1 -1</clus>
<clus scale="   94.842">  5  6 -1 -1</clus>
<clus scale="   95.326">  2  7  1 -1</clus>
<clus scale="   20.798">  1  5  2 -1</clus>
</clustering>
</event>
<event>
 9    1  0.1504846E-005  0.9331823E+02  0.7546771E-02  0.1295222E+00
         21   -1    0    0  501  502  0.00000000000E+00  0.00000000000E+00  0.51807801033E+03  0.51807801033E+03  0.00000000000E+00 0.  1.
         -2   -1    0    0    0  501 -0.00000000000E+00 -0.00000000000E+00 -0.56765004852E+02  0.56765004852E+02  0.00000000000E+00 0.  1.
         23    2    1    2    0    0  0.73939423800E+01  0.80182527605E+01  0.52036217398E+02  0.10576311780E+03  0.91428148859E+02 0.  0.
         23    2    1    2    0    0  0.26826987529E+02  0.55339388052E+02  0.90726165109E+02  0.14249183562E+03  0.91052463189E+02 0.  0.
        -11    1    3    3    0    0 -0.12508122356E+02  0.46715225968E+02  0.23899343587E+02  0.53943897579E+02  0.00000000000E+00 0.  1.
         11    1    3    3    0    0  0.19902064736E+02 -0.38696973207E+02  0.28136873811E+02  0.51819220218E+02  0.00000000000E+00 0. -1.
        -13    1    4    4    0    0 -0.32333371121E+02  0.11768154497E+02  0.16899755805E+02  0.38334554837E+02  0.00000000000E+00 0.  1.
         13    1    4    4    0    0  0.59160358650E+02  0.43571233555E+02  0.73826409304E+02  0.10415728078E+03  0.00000000000E+00 0. -1.
         -2    1    1    2    0  502 -0.34220929909E+02 -0.63357640812E+02  0.31855062297E+03  0.32658806176E+03  0.00000000000E+00 0.  1.
<scales pt_clust_5="13000.00000" pt_clust_6="13000.00000" pt_clust_7="13000.00000" pt_clust_8="13000.00000" pt_clust_9="72.00877"></scales>
<clustering>
<clus scale="   72.009">  1  9  2 -1</clus>
<clus scale="   91.052">  7  8 -1 -1</clus>
<clus scale="   91.428">  5  6 -1 -1</clus>
<clus scale="   92.950">  1  7  2 -1</clus>
<clus scale="   72.009">  1  5  2 -1</clus>
</clustering>
</event>
<event>
 9    1  0.1504846E-005  0.1169089E+03  0.7546771E-02  0.1258564E+00
         21   -1    0    0  501  502  0.00000000000E+00  0.00000000000E+00  0.15386633072E+02  0.15386633072E+02  0.00000000000E+00 0.  1.
          1   -1    0    0  502    0 -0.00000000000E+00 -0.00000000000E+00 -0.10386262376E+04  0.10386262376E+04  0.00000000000E+00 0. -1.
         23    2    1    2    0    0  0.35334584883E+02  0.87196026884E+01 -0.49619772637E+03  0.51041738444E+03  0.11396998871E+03 0.  0.
         23    2    1    2    0    0 -0.48675640494E+01 -0.24837148007E+02 -0.32492720773E+03  0.33856291655E+03  0.91687409390E+02 0.  0.
        -11    1    4    4    0    0  0.41125265516E+01  0.34620661685E+02 -0.12756637852E+03  0.13224478825E+03  0.00000000000E+00 0.  1.
         11    1    4    4    0    0 -0.89800906010E+01 -0.59457809692E+02 -0.19736082920E+03  0.20631812830E+03  0.00000000000E+00 0. -1.
        -11    1    3    3    0    0 -0.30891102733E+02 -0.27487297597E+02 -0.23172397750E+03  0.23538439521E+03  0.00000000000E+00 0. -1.
         11    1    3    3    0    0  0.66225687616E+02  0.36206900286E+02 -0.26447374887E+03  0.27503298924E+03  0.00000000000E+00 0.  1.
          1    1    1    2  501    0 -0.30467020834E+02  0.16117545318E+02 -0.20211467043E+03  0.20503256968E+03  0.00000000000E+00 0. -1.
<scales pt_clust_5="13000.00000" pt_clust_6="13000.00000" pt_clust_7="13000.00000" pt_clust_8="13000.00000" pt_clust_9="34.46761"></scales>
<clustering>
<clus scale="   34.468">  1  9  2 -1</clus>
<clus scale="   91.687">  5  6 -1 -1</clus>
<clus scale="   95.316">  1  5  2 -1</clus>
<clus scale="  113.970">  7  8 -1 -1</clus>
<clus scale="   34.468">  1  5  2 -1</clus>
</clustering>
</event>
<event>
 9    1  0.1504846E-005  0.1101259E+03  0.7546771E-02  0.1262811E+00
         21   -1    0    0  501  502  0.00000000000E+00  0.00000000000E+00  0.85280876390E+02  0.85280876390E+02  0.00000000000E+00 0.  1.
         -2   -1    0    0    0  501 -0.00000000000E+00 -0.00000000000E+00 -0.38347565634E+03  0.38347565634E+03  0.00000000000E+00 0.  1.
         23    2    1    2    0    0 -0.13147409218E+02  0.36418170415E+02 -0.21359338768E+03  0.23532418970E+03  0.90863642292E+02 0.  0.
         23    2    1    2    0    0  0.55623431394E+02 -0.86071878127E+02 -0.90945279836E+02  0.16778214838E+03  0.96837343337E+02 0.  0.
        -11    1    4    4    0    0  0.81593554681E+02 -0.76698978612E+02 -0.62955760175E+02  0.12846660743E+03  0.00000000000E+00 0.  1.
         11    1    4    4    0    0 -0.25970123287E+02 -0.93728995143E+01 -0.27989519661E+02  0.39315540944E+02  0.00000000000E+00 0. -1.
        -13    1    3    3    0    0 -0.21677212419E+02 -0.77510835168E+01 -0.72527819228E+01  0.24136770281E+02  0.00000000000E+00 0.  1.
         13    1    3    3    0    0  0.85298032016E+01  0.44169253932E+02 -0.20634060576E+03  0.21118741942E+03  0.00000000000E+00 0. -1.
         -2    1    1    2    0  502 -0.42476022176E+02  0.49653707711E+02  0.63438875654E+01  0.65650194659E+02  0.00000000000E+00 0.  1.
<scales pt_clust_5="13000.00000" pt_clust_6="13000.00000" pt_clust_7="13000.00000" pt_clust_8="13000.00000" pt_clust_9="65.34297"></scales>
<clustering>
<clus scale="   65.343">  1  9  2 -1</clus>
<clus scale="   90.864">  7  8 -1 -1</clus>
<clus scale="   96.837">  5  6 -1 -1</clus>
<clus scale="  104.912">  2  7  1 -1</clus>
<clus scale="   65.343">  1  5  2 -1</clus>
</clustering>
</event>
<event>
 9    1  0.1504846E-005  0.1074874E+03  0.7546771E-02  0.1268579E+00
          1   -1    0    0  502    0 -0.00000000000E+00  0.00000000000E+00  0.24742016052E+03  0.24742016052E+03  0.00000000000E+00 0. -1.
         21   -1    0    0  501  502  0.00000000000E+00 -0.00000000000E+00 -0.75270524739E+02  0.75270524739E+02  0.00000000000E+00 0.  1.
         23    2    1    2    0    0  0.33592305647E+02 -0.36072686442E+02  0.88236046311E+02  0.13675194934E+03  0.92118478467E+02 0.  0.
         23    2    1    2    0    0 -0.44975197379E+02 -0.13527695991E+02  0.77884808262E+02  0.13469310816E+03  0.99350002964E+02 0.  0.
        -11    1    3    3    0    0 -0.27773876608E+01  0.28574731361E+02  0.35917652467E+02  0.45981593201E+02  0.00000000000E+00 0. -1.
         11    1    3    3    0    0  0.36369693308E+02 -0.64647417803E+02  0.52318393844E+02  0.90770356143E+02  0.00000000000E+00 0.  1.
        -13    1    4    4    0    0 -0.51290459511E+02  0.32777225206E+02  0.57407607402E+02  0.83670132764E+02  0.00000000000E+00 0. -1.
         13    1    4    4    0    0  0.63152621327E+01 -0.46304921197E+02  0.20477200860E+02  0.51022975393E+02  0.00000000000E+00 0.  1.
          1    1    1    2  501    0  0.11382891732E+02  0.49600382434E+02  0.60287812118E+01  0.51245627761E+02  0.00000000000E+00 0. -1.
<scales pt_clust_5="13000.00000" pt_clust_6="13000.00000" pt_clust_7="13000.00000" pt_clust_8="13000.00000" pt_clust_9="50.88976"></scales>
<clustering>
<clus scale="   50.890">  2  9  1 -1</clus>
<clus scale="   92.118">  5  6 -1 -1</clus>
<clus scale="   99.350">  7  8 -1 -1</clus>
<clus scale="  100.841">  1  5  2 -1</clus>
<clus scale="   50.890">  2  5  1 -1</clus>
</clustering>
</event>
<event>
 9    1  0.1504846E-005  0.1066435E+03  0.7546771E-02  0.1273025E+00
         21   -1    0    0  501  502  0.00000000000E+00  0.00000000000E+00  0.43651558493E+02  0.43651558493E+02  0.00000000000E+00 0. -1.
          4   -1    0    0  502    0 -0.00000000000E+00 -0.00000000000E+00 -0.89787118441E+03  0.89787118441E+03  0.00000000000E+00 0. -1.
         23    2    1    2    0    0  0.39890525861E+02  0.16478637820E+02 -0.37459091832E+03  0.38861956170E+03  0.94042586616E+02 0.  0.
         23    2    1    2    0    0  0.22329781122E+02 -0.87709669393E+02 -0.42876938475E+03  0.44551650986E+03  0.80312950573E+02 0.  0.
        -11    1    4    4    0    0  0.41433822954E+02 -0.33082701060E+02 -0.29557969508E+03  0.30029749073E+03  0.00000000000E+00 0. -1.
         11    1    4    4    0    0 -0.19104041832E+02 -0.54626968332E+02 -0.13318968967E+03  0.14521901913E+03  0.00000000000E+00 0.  1.
        -13    1    3    3    0    0  0.45728835054E+02  0.48024740382E+02 -0.18947725652E+03  0.20074643903E+03  0.00000000000E+00 0. -1.
         13    1    3    3    0    0 -0.58383091927E+01 -0.31546102562E+02 -0.18511366179E+03  0.18787312267E+03  0.00000000000E+00 0.  1.
          4    1    1    2  501    0 -0.62220306983E+02  0.71231031572E+02 -0.50859322852E+02  0.10738667134E+03  0.00000000000E+00 0. -1.
<scales pt_clust_5="13000.00000" pt_clust_6="13000.00000" pt_clust_7="13000.00000" pt_clust_8="13000.00000" pt_clust_9="94.57921"></scales>
<clustering>
<clus scale="   80.313">  5  6 -1 -1</clus>
<clus scale="   94.043">  7  8 -1 -1</clus>
<clus scale="   94.579">  1  9  2 -1</clus>
<clus scale="   94.758">  1  5  2 -1</clus>
<clus scale="   94.579">  1  5  2 -1</clus>
</clustering>
</event>
<event>
 9    1  0.1504846E-005  0.2954655E+03  0.7546771E-02  0.1087706E+00
          2   -1    0    0  502    0 -0.00000000000E+00  0.00000000000E+00  0.92414994250E+03  0.92414994250E+03  0.00000000000E+00 0. -1.
         21   -1    0    0  501  502  0.00000000000E+00 -0.00000000000E+00 -0.28661101991E+03  0.28661101991E+03  0.00000000000E+00 0. -1.
         23    2    1    2    0    0 -0.24792504767E+03 -0.65655575792E+02  0.37445401358E+03  0.46351643426E+03  0.94096719633E+02 0.  0.
         23    2    1    2    0    0  0.32422675482E+03  0.25835369403E+03  0.15604284029E+02  0.42444246027E+03  0.89656503577E+02 0.  0.
        -11    1    3    3    0    0 -0.24244430660E+03 -0.42762592444E+02  0.35919323492E+03  0.43546258292E+03  0.00000000000E+00 0. -1.
         11    1    3    3    0    0 -0.54807410658E+01 -0.22892983347E+02  0.15260778662E+02  0.28053851332E+02  0.00000000000E+00 0.  1.
        -11    1    4    4    0    0  0.59604068869E+02  0.11807281745E+02 -0.11151368859E+02  0.61777098956E+02  0.00000000000E+00 0.  1.
         11    1    4    4    0    0  0.26462268595E+03  0.24654641228E+03  0.26755652888E+02  0.36266536131E+03  0.00000000000E+00 0. -1.
          2    1    1    2  501    0 -0.76301707157E+02 -0.19269811824E+03  0.24748062498E+03  0.32280206788E+03  0.00000000000E+00 0. -1.
<scales pt_clust_5="13000.00000" pt_clust_6="13000.00000" pt_clust_7="13000.00000" pt_clust_8="13000.00000" pt_clust_9="207.25481"></scales>
<clustering>
<clus scale="   89.657">  7  8 -1 -1</clus>
<clus scale="   94.097">  5  6 -1 -1</clus>
<clus scale="  207.255">  2  9  1 -1</clus>
<clus scale="  294.082">  2  7  1 -1</clus>
<clus scale="  207.255">  2  5  1 -1</clus>
</clustering>
</event>
<event>
 9    1  0.1504846E-005  0.1053615E+03  0.7546771E-02  0.1270276E+00
         21   -1    0    0  501  502  0.00000000000E+00  0.00000000000E+00  0.18946527104E+03  0.18946527104E+03  0.00000000000E+00 0.  1.
         -1   -1    0    0    0  501 -0.00000000000E+00 -0.00000000000E+00 -0.13820227528E+03  0.13820227528E+03  0.00000000000E+00 0.  1.
         23    2    1    2    0    0 -0.53121875915E+02 -0.97496005258E+01 -0.85650709722E+02  0.13624730154E+03  0.91160817730E+02 0.  0.
         23    2    1    2    0    0  0.31909704745E+02 -0.63092973262E+01  0.74685027468E+02  0.12374268001E+03  0.93146986197E+02 0.  0.
        -11    1    4    4    0    0  0.27895285081E+01 -0.47841654809E+02  0.37402089580E+02  0.60790802833E+02  0.00000000000E+00 0.  1.
         11    1    4    4    0    0  0.29120176237E+02  0.41532357482E+02  0.37282937888E+02  0.62951877174E+02  0.00000000000E+00 0. -1.
        -13    1    3    3    0    0 -0.16515485287E+02  0.27463303294E+02 -0.76911520928E+02  0.83320923744E+02  0.00000000000E+00 0.  1.
         13    1    3    3    0    0 -0.36606390629E+02 -0.37212903820E+02 -0.87391887936E+01  0.52926377794E+02  0.00000000000E+00 0. -1.
         -1    1    1    2    0  502  0.21212171171E+02  0.16058897852E+02  0.62228678019E+02  0.67677564776E+02  0.00000000000E+00 0.  1.
<scales pt_clust_5="13000.00000" pt_clust_6="13000.00000" pt_clust_7="13000.00000" pt_clust_8="13000.00000" pt_clust_9="26.60535"></scales>
<clustering>
<clus scale="   26.605">  1  9  2 -1</clus>
<clus scale="   91.161">  7  8 -1 -1</clus>
<clus scale="   93.147">  5  6 -1 -1</clus>
<clus scale="  103.610">  2  7  1 -1</clus>
<clus scale="   26.605">  1  5  2 -1</clus>
</clustering>
</event>
<event>
 9    1  0.1504846E-005  0.1007007E+03  0.7546771E-02  0.1279423E+00
         -2   -1    0    0    0  501 -0.00000000000E+00  0.00000000000E+00  0.77749740284E+02  0.77749740284E+02  0.00000000000E+00 0.  1.
         21   -1    0    0  501  502  0.00000000000E+00 -0.00000000000E+00 -0.52633664733E+03  0.52633664733E+03  0.00000000000E+00 0. -1.
         23    2    1    2    0    0 -0.29198225463E+02  0.40944986490E+01  0.17572690889E+02  0.98781431999E+02  0.92626511071E+02 0.  0.
         23    2    1    2    0    0  0.74062964950E+02 -0.43602213814E+02 -0.24332614349E+03  0.27459203264E+03  0.93844000651E+02 0.  0.
        -13    1    3    3    0    0  0.30506559848E+02  0.18553690765E+02  0.82639886602E+01  0.36649463070E+02  0.00000000000E+00 0.  1.
         13    1    3    3    0    0 -0.59704785311E+02 -0.14459192116E+02  0.93087022292E+01  0.62131968928E+02  0.00000000000E+00 0. -1.
        -13    1    4    4    0    0  0.57791191151E+02 -0.72767031591E+02 -0.16350330343E+03  0.18806433180E+03  0.00000000000E+00 0. -1.
         13    1    4    4    0    0  0.16271773799E+02  0.29164817777E+02 -0.79822840064E+02  0.86527700850E+02  0.00000000000E+00 0.  1.
         -2    1    1    2    0  502 -0.44864739487E+02  0.39507715165E+02 -0.22283345444E+03  0.23071292297E+03  0.00000000000E+00 0.  1.
<scales pt_clust_5="13000.00000" pt_clust_6="13000.00000" pt_clust_7="13000.00000" pt_clust_8="13000.00000" pt_clust_9="59.78047"></scales>
<clustering>
<clus scale="   59.780">  2  9  1 -1</clus>
<clus scale="   92.627">  5  6 -1 -1</clus>
<clus scale="   93.844">  7  8 -1 -1</clus>
<clus scale="   99.567">  1  5  2 -1</clus>
<clus scale="   59.780">  2  5  1 -1</clus>
</clustering>
</event>
<event>
 9    1  0.1504846E-005  0.1477326E+03  0.7546771E-02  0.1204224E+00
         21   -1    0    0  501  502  0.00000000000E+00  0.00000000000E+00  0.57403779605E+02  0.57403779605E+02  0.00000000000E+00 0.  1.
          1   -1    0    0  502    0 -0.00000000000E+00 -0.00000000000E+00 -0.58351006338E+03  0.58351006338E+03  0.00000000000E+00 0. -1.
         23    2    1    2    0    0  0.92203704467E+02 -0.43896205735E+01 -0.21968434600E+03  0.25655680050E+03  0.95075696799E+02 0.  0.
         23    2    1    2    0    0 -0.14638977781E+03  0.23211286016E+02 -0.21386724413E+03  0.27546830591E+03  0.90414924682E+02 0.  0.
        -11    1    4    4    0    0 -0.11464899015E+03 -0.68042597071E+01 -0.95739882133E+02  0.14952195131E+03  0.00000000000E+00 0.  1.
         11    1    4    4    0    0 -0.31740787667E+02  0.30015545723E+02 -0.11812736199E+03  0.12594635460E+03  0.00000000000E+00 0. -1.
        -13    1    3    3    0    0  0.21390839868E+02 -0.43800044106E+02 -0.58502099677E+02  0.76147932083E+02  0.00000000000E+00 0.  1.
         13    1    3    3    0    0  0.70812864599E+02  0.39410423532E+02 -0.16118224632E+03  0.18040886842E+03  0.00000000000E+00 0. -1.
          1    1    1    2  501    0  0.54186073347E+02 -0.18821665443E+02 -0.92554693655E+02  0.10888873657E+03  0.00000000000E+00 0. -1.
<scales pt_clust_5="13000.00000" pt_clust_6="13000.00000" pt_clust_7="13000.00000" pt_clust_8="13000.00000" pt_clust_9="57.36191"></scales>
<clustering>
<clus scale="   57.362">  1  9  2 -1</clus>
<clus scale="   90.415">  5  6 -1 -1</clus>
<clus scale="   95.076">  7  8 -1 -1</clus>
<clus scale="  144.777">  1  5  2 -1</clus>
<clus scale="   57.362">  1  5  2 -1</clus>
</clustering>
</event>
<event>
 9    1  0.1504846E-005  0.9169744E+02  0.7546771E-02  0.1299221E+00
          1   -1    0    0  502    0 -0.00000000000E+00  0.00000000000E+00  0.32937022077E+03  0.32937022077E+03  0.00000000000E+00 0. -1.
         21   -1    0    0  501  502  0.00000000000E+00 -0.00000000000E+00 -0.77998056211E+02  0.77998056211E+02  0.00000000000E+00 0.  1.
         23    2    1    2    0    0 -0.79044704020E+01 -0.68859526261E+01  0.21664600392E+03  0.23525344722E+03  0.91097730035E+02 0.  0.
         23    2    1    2    0    0 -0.48631730284E+02  0.20061169254E+02  0.43780380401E+02  0.11336189608E+03  0.90369807306E+02 0.  0.
        -11    1    3    3    0    0  0.21247815612E+02  0.34546656171E+02  0.10840059170E+03  0.11573948938E+03  0.00000000000E+00 0.  1.
         11    1    3    3    0    0 -0.29152286014E+02 -0.41432608797E+02  0.10824541223E+03  0.11951395784E+03  0.00000000000E+00 0. -1.
        -13    1    4    4    0    0  0.25704495476E+02  0.90044239360E+01  0.18420039271E+01  0.27298236510E+02  0.00000000000E+00 0.  1.
         13    1    4    4    0    0 -0.74336225760E+02  0.11056745318E+02  0.41938376474E+02  0.86063659570E+02  0.00000000000E+00 0. -1.
          1    1    1    2  501    0  0.56536200686E+02 -0.13175216628E+02 -0.90542197604E+01  0.58752933685E+02  0.00000000000E+00 0. -1.
<scales pt_clust_5="13000.00000" pt_clust_6="13000.00000" pt_clust_7="13000.00000" pt_clust_8="13000.00000" pt_clust_9="58.05108"></scales>
<clustering>
<clus scale="   58.051">  2  9  1 -1</clus>
<clus scale="   90.370">  7  8 -1 -1</clus>
<clus scale="   90.974">  2  7  1 -1</clus>
<clus scale="   91.098">  5  6 -1 -1</clus>
<clus scale="   58.051">  2  5  1 -1</clus>
</clustering>
</event>
<event>
 9    1  0.1504846E-005  0.9170263E+02  0.7546771E-02  0.1300024E+00
          2   -1    0    0  502    0 -0.00000000000E+00  0.00000000000E+00  0.56779371878E+03  0.56779371878E+03  0.00000000000E+00 0. -1.
         21   -1    0    0  501  502  0.00000000000E+00 -0.00000000000E+00 -0.23469105571E+02  0.23469105571E+02  0.00000000000E+00 0. -1.
         23    2    1    2    0    0 -0.80355003319E+01 -0.16317959135E+02  0.28859021998E+03  0.30298826509E+03  0.90480543002E+02 0.  0.
         23    2    1    2    0    0  0.23607352048E+02 -0.15844668741E+02  0.21440555616E+03  0.23363949752E+03  0.88370309996E+02 0.  0.
        -13    1    3    3    0    0  0.36681119396E+02  0.12409466376E+02  0.10761586348E+03  0.11437077182E+03  0.00000000000E+00 0.  1.
         13    1    3    3    0    0 -0.44716619728E+02 -0.28727425511E+02  0.18097435650E+03  0.18861749327E+03  0.00000000000E+00 0. -1.
        -13    1    4    4    0    0  0.20020747207E+02 -0.52290477723E+02  0.12170555055E+03  0.13396777752E+03  0.00000000000E+00 0. -1.
         13    1    4    4    0    0  0.35866048408E+01  0.36445808981E+02  0.92700005610E+02  0.99671719994E+02  0.00000000000E+00 0.  1.
          2    1    1    2  501    0 -0.15571851716E+02  0.32162627877E+02  0.41328837072E+02  0.54635061742E+02  0.00000000000E+00 0. -1.
<scales pt_clust_5="13000.00000" pt_clust_6="13000.00000" pt_clust_7="13000.00000" pt_clust_8="13000.00000" pt_clust_9="35.73398"></scales>
<clustering>
<clus scale="   35.734">  2  9  1 -1</clus>
<clus scale="   88.370">  7  8 -1 -1</clus>
<clus scale="   89.621">  2  7  1 -1</clus>
<clus scale="   90.481">  5  6 -1 -1</clus>
<clus scale="   35.734">  2  5  1 -1</clus>
</clustering>
</event>
<event>
 9    1  0.1504846E-005  0.9743850E+02  0.7546771E-02  0.1286858E+00
         21   -1    0    0  501  502  0.00000000000E+00  0.00000000000E+00  0.22084636006E+03  0.22084636006E+03  0.00000000000E+00 0.  1.
         -1   -1    0    0    0  501 -0.00000000000E+00 -0.00000000000E+00 -0.23841449321E+03  0.23841449321E+03  0.00000000000E+00 0.  1.
         23    2    1    2    0    0  0.39636796953E+02  0.31686633764E+02 -0.12444014761E+03  0.16166362509E+03  0.89859105867E+02 0.  0.
         23    2    1    2    0    0 -0.30236731123E+02  0.11488456007E+02 -0.69036711299E+02  0.11622377530E+03  0.87724876216E+02 0.  0.
        -13    1    3    3    0    0 -0.60659889739E+01  0.45914175382E+02 -0.94408423315E+02  0.10515635081E+03  0.00000000000E+00 0.  1.
         13    1    3    3    0    0  0.45702785927E+02 -0.14227541618E+02 -0.30031724296E+02  0.56507274277E+02  0.00000000000E+00 0. -1.
        -13    1    4    4    0    0  0.45227047491E+01  0.23007439802E+02  0.12695018737E+02  0.26663845282E+02  0.00000000000E+00 0.  1.
         13    1    4    4    0    0 -0.34759435872E+02 -0.11518983795E+02 -0.81731730036E+02  0.89559930016E+02  0.00000000000E+00 0. -1.
         -1    1    1    2    0  502 -0.94000658294E+01 -0.43175089771E+02  0.17590872576E+03  0.18137345288E+03  0.00000000000E+00 0.  1.
<scales pt_clust_5="13000.00000" pt_clust_6="13000.00000" pt_clust_7="13000.00000" pt_clust_8="13000.00000" pt_clust_9="44.18653"></scales>
<clustering>
<clus scale="   44.187">  1  9  2 -1</clus>
<clus scale="   87.725">  7  8 -1 -1</clus>
<clus scale="   89.859">  5  6 -1 -1</clus>
<clus scale="   95.474">  1  7  2 -1</clus>
<clus scale="   44.187">  1  5  2 -1</clus>
</clustering>
</event>
<event>
 9    1  0.1504846E-005  0.1146774E+03  0.7546771E-02  0.1253727E+00
          1   -1    0    0  502    0 -0.00000000000E+00  0.00000000000E+00  0.12619011914E+04  0.12619011914E+04  0.00000000000E+00 0. -1.
         21   -1    0    0  501  502  0.00000000000E+00 -0.00000000000E+00 -0.17224668189E+02  0.17224668189E+02  0.00000000000E+00 0. -1.
         23    2    1    2    0    0 -0.57421685110E+02 -0.43001697987E+02  0.63285289099E+03  0.64400081363E+03  0.95330322416E+02 0.  0.
         23    2    1    2    0    0  0.15105214322E+02  0.61641385658E+02  0.52660423456E+03  0.53816903844E+03  0.91027831711E+02 0.  0.
        -13    1    3    3    0    0 -0.64057904069E+02  0.10782818729E+02  0.32855213711E+03  0.33491221395E+03  0.00000000000E+00 0.  1.
         13    1    3    3    0    0  0.66362189591E+01 -0.53784516716E+02  0.30430075389E+03  0.30908859969E+03  0.00000000000E+00 0. -1.
        -13    1    4    4    0    0 -0.17407988336E+02 -0.16393820369E+02  0.74975367071E+02  0.78696258308E+02  0.00000000000E+00 0.  1.
         13    1    4    4    0    0  0.32513202658E+02  0.78035206027E+02  0.45162886749E+03  0.45947278013E+03  0.00000000000E+00 0. -1.
          1    1    1    2  501    0  0.42316470788E+02 -0.18639687671E+02  0.85219397617E+02  0.96956007481E+02  0.00000000000E+00 0. -1.
<scales pt_clust_5="13000.00000" pt_clust_6="13000.00000" pt_clust_7="13000.00000" pt_clust_8="13000.00000" pt_clust_9="46.23983"></scales>
<clustering>
<clus scale="   46.240">  2  9  1 -1</clus>
<clus scale="   91.028">  7  8 -1 -1</clus>
<clus scale="   95.330">  5  6 -1 -1</clus>
<clus scale="  111.126">  2  7  1 -1</clus>
<clus scale="   46.240">  2  5  1 -1</clus>
</clustering>
</event>
<event>
 9    1  0.1504846E-005  0.1009608E+03  0.7546771E-02  0.1287124E+00
          1   -1    0    0  502    0 -0.00000000000E+00  0.00000000000E+00  0.64311988487E+03  0.64311988487E+03  0.00000000000E+00 0. -1.
         21   -1    0    0  501  502  0.00000000000E+00 -0.00000000000E+00 -0.29177955519E+02  0.29177955519E+02  0.00000000000E+00 0.  1.
         23    2    1    2    0    0  0.29739467016E+02  0.10641395762E+02  0.31864894762E+03  0.33539086309E+03  0.99760733858E+02 0.  0.
         23    2    1    2    0    0  0.23775558860E+02 -0.19792494541E+02  0.25215095732E+03  0.26756121411E+03  0.83975460559E+02 0.  0.
        -13    1    3    3    0    0  0.10097209331E+02  0.55075545182E+02  0.17655015421E+03  0.18521670082E+03  0.00000000000E+00 0. -1.
         13    1    3    3    0    0  0.19642257685E+02 -0.44434149421E+02  0.14209879342E+03  0.15017416226E+03  0.00000000000E+00 0.  1.
        -13    1    4    4    0    0  0.25061419216E+02  0.29188640588E+02  0.13966893584E+03  0.14487050463E+03  0.00000000000E+00 0.  1.
         13    1    4    4    0    0 -0.12858603560E+01 -0.48981135129E+02  0.11248202148E+03  0.12269070947E+03  0.00000000000E+00 0. -1.
          1    1    1    2  501    0 -0.53515025877E+02  0.91510987791E+01  0.43142024408E+02  0.69345763197E+02  0.00000000000E+00 0. -1.
<scales pt_clust_5="13000.00000" pt_clust_6="13000.00000" pt_clust_7="13000.00000" pt_clust_8="13000.00000" pt_clust_9="54.29181"></scales>
<clustering>
<clus scale="   54.292">  2  9  1 -1</clus>
<clus scale="   83.975">  7  8 -1 -1</clus>
<clus scale="   85.398">  2  7  1 -1</clus>
<clus scale="   99.761">  5  6 -1 -1</clus>
<clus scale="   54.292">  2  5  1 -1</clus>
</clustering>
</event>
<event>
 9    1  0.1504846E-005  0.1204013E+03  0.7546771E-02  0.1242636E+00
         -4   -1    0    0    0  501 -0.00000000000E+00  0.00000000000E+00  0.16327841901E+03  0.16327841901E+03  0.00000000000E+00 0.  1.
         21   -1    0    0  501  502  0.00000000000E+00 -0.00000000000E+00 -0.20897167585E+03  0.20897167585E+03  0.00000000000E+00 0.  1.
         23    2    1    2    0    0  0.43671735965E+02  0.69121452024E+02  0.10969595558E+03  0.16425245377E+03  0.90888229411E+02 0.  0.
         23    2    1    2    0    0 -0.42282192968E+02 -0.45801169531E+02 -0.10568042441E+03  0.15307287428E+03  0.91528256635E+02 0.  0.
        -11    1    4    4    0    0 -0.52661828657E+02 -0.67298238303E+02 -0.91978567053E+02  0.12554830892E+03  0.00000000000E+00 0.  1.
         11    1    4    4    0    0  0.10379635689E+02  0.21497068772E+02 -0.13701857359E+02  0.27524565354E+02  0.00000000000E+00 0. -1.
        -13    1    3    3    0    0  0.40882749978E+02 -0.76989176931E+01  0.20110737850E+02  0.46207297652E+02  0.00000000000E+00 0. -1.
         13    1    3    3    0    0  0.27889859871E+01  0.76820369717E+02  0.89585217729E+02  0.11804515611E+03  0.00000000000E+00 0.  1.
         -4    1    1    2    0  502 -0.13895429973E+01 -0.23320282493E+02 -0.49708788007E+02  0.54924766821E+02  0.00000000000E+00 0.  1.
<scales pt_clust_5="13000.00000" pt_clust_6="13000.00000" pt_clust_7="13000.00000" pt_clust_8="13000.00000" pt_clust_9="23.36164"></scales>
<clustering>
<clus scale="   23.362">  2  9  1 -1</clus>
<clus scale="   90.888">  7  8 -1 -1</clus>
<clus scale="   91.528">  5  6 -1 -1</clus>
<clus scale="  119.915">  1  7  2 -1</clus>
<clus scale="   23.362">  2  5  1 -1</clus>
</clustering>
</event>
<event>
 9    1  0.1504846E-005  0.1021774E+03  0.7546771E-02  0.1276445E+00
          3   -1    0    0  502    0 -0.00000000000E+00  0.00000000000E+00  0.14721015663E+03  0.14721015663E+03  0.00000000000E+00 0. -1.
         21   -1    0    0  501  502  0.00000000000E+00 -0.00000000000E+00 -0.30036562595E+03  0.30036562595E+03  0.00000000000E+00 0. -1.
         23    2    1    2    0    0 -0.10048309568E+02 -0.53724317516E+02  0.83965412127E+02  0.13513069395E+03  0.90679894116E+02 0.  0.
         23    2    1    2    0    0 -0.24880290408E+02  0.18918419225E+02 -0.33403680040E+02  0.10284509864E+03  0.92110656480E+02 0.  0.
        -11    1    4    4    0    0  0.17323659445E+02  0.28388281502E+02 -0.46936409974E+02  0.57524171307E+02  0.00000000000E+00 0.  1.
         11    1    4    4    0    0 -0.42203949853E+02 -0.94698622777E+01  0.13532729935E+02  0.45320927332E+02  0.00000000000E+00 0. -1.
        -13    1    3    3    0    0 -0.24381572066E+02 -0.71862577160E+02  0.82309823443E+02  0.11195355326E+03  0.00000000000E+00 0. -1.
         13    1    3    3    0    0  0.14333262498E+02  0.18138259644E+02  0.16555886835E+01  0.23177140692E+02  0.00000000000E+00 0.  1.
          3    1    1    2  501    0  0.34928599975E+02  0.34805898292E+02 -0.20371720140E+03  0.20959998998E+03  0.00000000000E+00 0. -1.
<scales pt_clust_5="13000.00000" pt_clust_6="13000.00000" pt_clust_7="13000.00000" pt_clust_8="13000.00000" pt_clust_9="49.30981"></scales>
<clustering>
<clus scale="   49.310">  2  9  1 -1</clus>
<clus scale="   90.680">  7  8 -1 -1</clus>
<clus scale="   92.111">  5  6 -1 -1</clus>
<clus scale="  100.890">  1  7  2 -1</clus>
<clus scale="   49.310">  2  5  1 -1</clus>
</clustering>
</event>
<event>
 9    1  0.1504846E-005  0.1350653E+03  0.7546771E-02  0.1220219E+00
          2   -1    0    0  502    0 -0.00000000000E+00  0.00000000000E+00  0.34380144646E+03  0.34380144646E+03  0.00000000000E+00 0. -1.
         21   -1    0    0  501  502  0.00000000000E+00 -0.00000000000E+00 -0.10324172136E+03  0.10324172136E+03  0.00000000000E+00 0. -1.
         23    2    1    2    0    0 -0.61604324538E+02 -0.54656807457E+02  0.12591899409E+03  0.17557402247E+03  0.90488589841E+02 0.  0.
         23    2    1    2    0    0  0.57404546549E+02  0.13025977044E+03  0.92618114524E+02  0.19261204811E+03  0.90875718332E+02 0.  0.
        -13    1    4    4    0    0  0.42032276032E+02  0.59890417653E+02 -0.26059285655E+01  0.73214515082E+02  0.00000000000E+00 0.  1.
         13    1    4    4    0    0  0.15372270518E+02  0.70369352783E+02  0.95224043089E+02  0.11939753303E+03  0.00000000000E+00 0. -1.
        -13    1    3    3    0    0 -0.26313474465E+02 -0.70726503008E+02  0.50593936606E+02  0.90853638273E+02  0.00000000000E+00 0.  1.
         13    1    3    3    0    0 -0.35290850073E+02  0.16069695551E+02  0.75325057482E+02  0.84720384198E+02  0.00000000000E+00 0. -1.
          2    1    1    2  501    0  0.41997779885E+01 -0.75602962978E+02  0.22022616491E+02  0.78857097229E+02  0.00000000000E+00 0. -1.
<scales pt_clust_5="13000.00000" pt_clust_6="13000.00000" pt_clust_7="13000.00000" pt_clust_8="13000.00000" pt_clust_9="75.71952"></scales>
<clustering>
<clus scale="   75.720">  2  9  1 -1</clus>
<clus scale="   90.489">  7  8 -1 -1</clus>
<clus scale="   90.876">  5  6 -1 -1</clus>
<clus scale="  134.805">  1  7  2 -1</clus>
<clus scale="   75.720">  2  5  1 -1</clus>
</clustering>
</event>
<event>
 9    1  0.1504846E-005  0.1140065E+03  0.7546771E-02  0.1253857E+00
         -1   -1    0    0    0  501 -0.00000000000E+00  0.00000000000E+00  0.22581859142E+03  0.22581859142E+03  0.00000000000E+00 0.  1.
         21   -1    0    0  501  502  0.00000000000E+00 -0.00000000000E+00 -0.27593133413E+03  0.27593133413E+03  0.00000000000E+00 0.  1.
         23    2    1    2    0    0  0.54040575083E+02 -0.16192835248E+02  0.14702117038E+03  0.18310904973E+03  0.93440397500E+02 0.  0.
         23    2    1    2    0    0 -0.11455761730E+03  0.13864591976E+02 -0.44028592702E+02  0.15399285048E+03  0.91976118810E+02 0.  0.
        -11    1    3    3    0    0  0.50142242700E+02  0.23148755927E+02  0.12764806510E+03  0.13908320505E+03  0.00000000000E+00 0.  1.
         11    1    3    3    0    0  0.38983323835E+01 -0.39341591175E+02  0.19373105281E+02  0.44025844680E+02  0.00000000000E+00 0. -1.
        -13    1    4    4    0    0 -0.11349283686E+03 -0.12635857853E+02 -0.15837721934E+02  0.11528713006E+03  0.00000000000E+00 0.  1.
         13    1    4    4    0    0 -0.10647804452E+01  0.26500449829E+02 -0.28190870768E+02  0.38705720420E+02  0.00000000000E+00 0. -1.
         -1    1    1    2    0  502  0.60517042221E+02  0.23282432729E+01 -0.15310532038E+03  0.16464802533E+03  0.00000000000E+00 0.  1.
<scales pt_clust_5="13000.00000" pt_clust_6="13000.00000" pt_clust_7="13000.00000" pt_clust_8="13000.00000" pt_clust_9="60.56181"></scales>
<clustering>
<clus scale="   60.562">  2  9  1 -1</clus>
<clus scale="   91.976">  7  8 -1 -1</clus>
<clus scale="   93.440">  5  6 -1 -1</clus>
<clus scale="  112.809">  2  7  1 -1</clus>
<clus scale="   60.562">  2  5  1 -1</clus>
</clustering>
</event>
<event>
 9    1  0.1504846E-005  0.1490048E+03  0.7546771E-02  0.1210313E+00
         21   -1    0    0  501  502  0.00000000000E+00  0.00000000000E+00  0.11667325293E+03  0.11667325293E+03  0.00000000000E+00 0. -1.
          2   -1    0    0  502    0 -0.00000000000E+00 -0.00000000000E+00 -0.50241538834E+03  0.50241538834E+03  0.00000000000E+00 0. -1.
         23    2    1    2    0    0 -0.70746439056E+02 -0.54716296921E+02 -0.43178192298E+03  0.45766471734E+03  0.12256603402E+03 0.  0.
         23    2    1    2    0    0  0.49391984325E+02  0.41056891920E+02  0.22479297390E+01  0.11082433012E+03  0.90287000549E+02 0.  0.
        -11    1    3    3    0    0 -0.58795695583E+02  0.28790224324E+02 -0.22520997220E+03  0.23453217778E+03  0.00000000000E+00 0. -1.
         11    1    3    3    0    0 -0.11950743473E+02 -0.83506521244E+02 -0.20657195078E+03  0.22313253956E+03  0.00000000000E+00 0.  1.
        -13    1    4    4    0    0  0.48088036628E+02  0.66716037978E+02  0.12456085701E+02  0.83178380972E+02  0.00000000000E+00 0.  1.
         13    1    4    4    0    0  0.13039476978E+01 -0.25659146058E+02 -0.10208155962E+02  0.27645949145E+02  0.00000000000E+00 0. -1.
          2    1    1    2  501    0  0.21354454731E+02  0.13659405000E+02  0.43791857836E+02  0.50599593818E+02  0.00000000000E+00 0. -1.
<scales pt_clust_5="13000.00000" pt_clust_6="13000.00000" pt_clust_7="13000.00000" pt_clust_8="13000.00000" pt_clust_9="25.34940"></scales>
<clustering>
<clus scale="   25.349">  1  9  2 -1</clus>
<clus scale="   90.287">  7  8 -1 -1</clus>
<clus scale="  122.566">  5  6 -1 -1</clus>
<clus scale="  123.821">  1  7  2 -1</clus>
<clus scale="   25.349">  1  5  2 -1</clus>
</clustering>
</event>
<event>
 9    1  0.1504846E-005  0.1067846E+03  0.7546771E-02  0.1269068E+00
         21   -1    0    0  501  502  0.00000000000E+00  0.00000000000E+00  0.38052082829E+02  0.38052082829E+02  0.00000000000E+00 0. -1.
          2   -1    0    0  502    0 -0.00000000000E+00 -0.00000000000E+00 -0.81364656762E+03  0.81364656762E+03  0.00000000000E+00 0. -1.
         23    2    1    2    0    0 -0.22312188771E+02  0.21277084031E+02 -0.37140295901E+03  0.38425814859E+03  0.93614201510E+02 0.  0.
         23    2    1    2    0    0  0.39069395152E+02 -0.70584653857E+02 -0.39737959043E+03  0.41491962152E+03  0.87972395841E+02 0.  0.
        -11    1    3    3    0    0 -0.20038157663E+02 -0.33790187255E+02 -0.21165745354E+03  0.21527234415E+03  0.00000000000E+00 0.  1.
         11    1    3    3    0    0 -0.22740311075E+01  0.55067271286E+02 -0.15974550548E+03  0.16898580445E+03  0.00000000000E+00 0. -1.
        -11    1    4    4    0    0  0.10521295432E+02 -0.81221694573E+02 -0.34244732277E+03  0.35210485683E+03  0.00000000000E+00 0. -1.
         11    1    4    4    0    0  0.28548099721E+02  0.10637040716E+02 -0.54932267661E+02  0.62814764691E+02  0.00000000000E+00 0.  1.
          2    1    1    2  501    0 -0.16757206382E+02  0.49307569826E+02 -0.68119353396E+01  0.52520880332E+02  0.00000000000E+00 0. -1.
<scales pt_clust_5="13000.00000" pt_clust_6="13000.00000" pt_clust_7="13000.00000" pt_clust_8="13000.00000" pt_clust_9="52.07725"></scales>
<clustering>
<clus scale="   52.077">  1  9  2 -1</clus>
<clus scale="   87.972">  7  8 -1 -1</clus>
<clus scale="   93.614">  5  6 -1 -1</clus>
<clus scale="  101.875">  1  7  2 -1</clus>
<clus scale="   52.077">  1  5  2 -1</clus>
</clustering>
</event>
<event>
 9    1  0.1504846E-005  0.1071286E+03  0.7546771E-02  0.1266435E+00
          2   -1    0    0  502    0 -0.00000000000E+00  0.00000000000E+00  0.38428742486E+03  0.38428742486E+03  0.00000000000E+00 0. -1.
         21   -1    0    0  501  502  0.00000000000E+00 -0.00000000000E+00 -0.10001491039E+03  0.10001491039E+03  0.00000000000E+00 0. -1.
         23    2    1    2    0    0 -0.78882183620E+00  0.37202870824E+02  0.16491958602E+03  0.19100665843E+03  0.88884182358E+02 0.  0.
         23    2    1    2    0    0  0.60700147315E+02 -0.94371463357E+02  0.14731013060E+03  0.20589304503E+03  0.90006613288E+02 0.  0.
        -13    1    3    3    0    0  0.17741109575E+02  0.57209168940E+02  0.14602258519E+03  0.15782975437E+03  0.00000000000E+00 0. -1.
         13    1    3    3    0    0 -0.18529931412E+02 -0.20006298116E+02  0.18897000834E+02  0.33176904059E+02  0.00000000000E+00 0.  1.
        -13    1    4    4    0    0  0.65461250145E+01 -0.67836549881E+02  0.30983887781E+02  0.74864214111E+02  0.00000000000E+00 0.  1.
         13    1    4    4    0    0  0.54154022300E+02 -0.26534913476E+02  0.11632624282E+03  0.13102883092E+03  0.00000000000E+00 0. -1.
          2    1    1    2  501    0 -0.59911325478E+02  0.57168592534E+02 -0.27957202151E+02  0.87402631797E+02  0.00000000000E+00 0. -1.
<scales pt_clust_5="13000.00000" pt_clust_6="13000.00000" pt_clust_7="13000.00000" pt_clust_8="13000.00000" pt_clust_9="82.81072"></scales>
<clustering>
<clus scale="   82.811">  2  9  1 -1</clus>
<clus scale="   88.884">  5  6 -1 -1</clus>
<clus scale="   90.007">  7  8 -1 -1</clus>
<clus scale="  106.187">  1  5  2 -1</clus>
<clus scale="   82.811">  2  5  1 -1</clus>
</clustering>
</event>
<event>
 9    1  0.1504846E-005  0.1096641E+03  0.7546771E-02  0.1263272E+00
         -1   -1    0    0    0  501 -0.00000000000E+00  0.00000000000E+00  0.38833021355E+02  0.38833021355E+02  0.00000000000E+00 0.  1.
         21   -1    0    0  501  502  0.00000000000E+00 -0.00000000000E+00 -0.49862490172E+03  0.49862490172E+03  0.00000000000E+00 0.  1.
         23    2    1    2    0    0 -0.21373805166E+02 -0.42822043678E+02 -0.80432211622E+02  0.13008768092E+03  0.90348752558E+02 0.  0.
         23    2    1    2    0    0  0.24706998922E+02  0.65934312024E+02 -0.26022210197E+03  0.28596576553E+03  0.95410205960E+02 0.  0.
        -11    1    3    3    0    0  0.12217775172E+02 -0.61193782232E+02 -0.60533522159E+02  0.86938255786E+02  0.00000000000E+00 0.  1.
         11    1    3    3    0    0 -0.33591580338E+02  0.18371738555E+02 -0.19898689463E+02  0.43149425135E+02  0.00000000000E+00 0. -1.
        -13    1    4    4    0    0  0.56832604298E+01 -0.24047557578E+02 -0.78472479484E+02  0.82270982193E+02  0.00000000000E+00 0. -1.
         13    1    4    4    0    0  0.19023738492E+02  0.89981869602E+02 -0.18174962249E+03  0.20369478334E+03  0.00000000000E+00 0.  1.
         -1    1    1    2    0  502 -0.33331937561E+01 -0.23112268346E+02 -0.11913756677E+03  0.12140447662E+03  0.00000000000E+00 0.  1.
<scales pt_clust_5="13000.00000" pt_clust_6="13000.00000" pt_clust_7="13000.00000" pt_clust_8="13000.00000" pt_clust_9="23.35138"></scales>
<clustering>
<clus scale="   23.351">  2  9  1 -1</clus>
<clus scale="   90.349">  5  6 -1 -1</clus>
<clus scale="   95.410">  7  8 -1 -1</clus>
<clus scale="  105.290">  1  5  2 -1</clus>
<clus scale="   23.351">  2  5  1 -1</clus>
</clustering>
</event>
<event>
 9    1  0.1504846E-005  0.9487782E+02  0.7546771E-02  0.1292670E+00
          1   -1    0    0  502    0 -0.00000000000E+00  0.00000000000E+00  0.13170456677E+03  0.13170456677E+03  0.00000000000E+00 0. -1.
         21   -1    0    0  501  502  0.00000000000E+00 -0.00000000000E+00 -0.22368349636E+03  0.22368349636E+03  0.00000000000E+00 0.  1.
         23    2    1    2    0    0  0.14832004235E+02 -0.14731948588E+02  0.89987479342E+02  0.12911564707E+03  0.90200250673E+02 0.  0.
         23    2    1    2    0    0 -0.31665647266E+02  0.21355449167E+01 -0.93088982812E+02  0.13494203886E+03  0.92393297175E+02 0.  0.
        -13    1    4    4    0    0 -0.16312671136E+02  0.38726768591E+02 -0.10499189520E+02  0.43313956476E+02  0.00000000000E+00 0. -1.
         13    1    4    4    0    0 -0.15352976130E+02 -0.36591223674E+02 -0.82589793292E+02  0.91628082388E+02  0.00000000000E+00 0.  1.
        -13    1    3    3    0    0  0.34523441978E+02 -0.22852930992E+02  0.52398861471E+01  0.41732252608E+02  0.00000000000E+00 0. -1.
         13    1    3    3    0    0 -0.19691437743E+02  0.81209824044E+01  0.84747593195E+02  0.87383394463E+02  0.00000000000E+00 0.  1.
          1    1    1    2  501    0  0.16833643031E+02  0.12596403671E+02 -0.88877426120E+02  0.91330377186E+02  0.00000000000E+00 0. -1.
<scales pt_clust_5="13000.00000" pt_clust_6="13000.00000" pt_clust_7="13000.00000" pt_clust_8="13000.00000" pt_clust_9="21.02477"></scales>
<clustering>
<clus scale="   21.025">  2  9  1 -1</clus>
<clus scale="   90.200">  7  8 -1 -1</clus>
<clus scale="   92.393">  5  6 -1 -1</clus>
<clus scale="   92.744">  1  7  2 -1</clus>
<clus scale="   21.025">  2  5  1 -1</clus>
</clustering>
</event>
<event>
 9    1  0.1504846E-005  0.9284076E+02  0.7546771E-02  0.1297442E+00
          2   -1    0    0  502    0 -0.00000000000E+00  0.00000000000E+00  0.14064338887E+03  0.14064338887E+03  0.00000000000E+00 0. -1.
         21   -1    0    0  501  502  0.00000000000E+00 -0.00000000000E+00 -0.29257774346E+03  0.29257774346E+03  0.00000000000E+00 0. -1.
         23    2    1    2    0    0 -0.22130284567E+01  0.43960803697E+01  0.68162225385E+02  0.11207843934E+03  0.88832789991E+02 0.  0.
         23    2    1    2    0    0  0.14952691803E+02 -0.48768048047E+02 -0.87369734845E+01  0.10480024734E+03  0.91130958704E+02 0.  0.
        -11    1    3    3    0    0  0.24408548023E+02 -0.31865717698E+02  0.16034120807E+02  0.43223769052E+02  0.00000000000E+00 0. -1.
         11    1    3    3    0    0 -0.26621576480E+02  0.36261798068E+02  0.52128104578E+02  0.68854670287E+02  0.00000000000E+00 0.  1.
        -11    1    4    4    0    0 -0.27655977554E+02 -0.44941326970E+02 -0.25805249545E+02  0.58740844975E+02  0.00000000000E+00 0. -1.
         11    1    4    4    0    0  0.42608669357E+02 -0.38267210770E+01  0.17068276060E+02  0.46059402365E+02  0.00000000000E+00 0.  1.
          2    1    1    2  501    0 -0.12739663346E+02  0.44371967678E+02 -0.21135960648E+03  0.21634244565E+03  0.00000000000E+00 0. -1.
<scales pt_clust_5="13000.00000" pt_clust_6="13000.00000" pt_clust_7="13000.00000" pt_clust_8="13000.00000" pt_clust_9="46.16460"></scales>
<clustering>
<clus scale="   46.165">  2  9  1 -1</clus>
<clus scale="   88.833">  5  6 -1 -1</clus>
<clus scale="   90.586">  1  5  2 -1</clus>
<clus scale="   91.131">  7  8 -1 -1</clus>
<clus scale="   46.165">  2  5  1 -1</clus>
</clustering>
</event>
<event>
 9    1  0.1504846E-005  0.1177135E+03  0.7546771E-02  0.1247727E+00
          1   -1    0    0  502    0 -0.00000000000E+00  0.00000000000E+00  0.25965027811E+03  0.25965027811E+03  0.00000000000E+00 0. -1.
         21   -1    0    0  501  502  0.00000000000E+00 -0.00000000000E+00 -0.63574270836E+03  0.63574270836E+03  0.00000000000E+00 0.  1.
         23    2    1    2    0    0  0.14473633608E+02  0.73502935739E+02  0.23764947468E+03  0.26456626122E+03  0.88914937607E+02 0.  0.
         23    2    1    2    0    0  0.26762767982E+01 -0.46664723349E+02 -0.55085334424E+03  0.56033289477E+03  0.91371698209E+02 0.  0.
        -11    1    3    3    0    0  0.47088020012E+02  0.29619173104E+02  0.16156352931E+03  0.17087232382E+03  0.00000000000E+00 0. -1.
         11    1    3    3    0    0 -0.32614386404E+02  0.43883762635E+02  0.76085945370E+02  0.93693937405E+02  0.00000000000E+00 0.  1.
        -11    1    4    4    0    0  0.19937675184E+01  0.27356544401E+02 -0.11408286266E+03  0.11733394728E+03  0.00000000000E+00 0. -1.
         11    1    4    4    0    0  0.68250927981E+00 -0.74021267750E+02 -0.43677048158E+03  0.44299894749E+03  0.00000000000E+00 0.  1.
          1    1    1    2  501    0 -0.17149910406E+02 -0.26838212390E+02 -0.62888560681E+02  0.70493830480E+02  0.00000000000E+00 0. -1.
<scales pt_clust_5="13000.00000" pt_clust_6="13000.00000" pt_clust_7="13000.00000" pt_clust_8="13000.00000" pt_clust_9="31.84979"></scales>
<clustering>
<clus scale="   31.850">  2  9  1 -1</clus>
<clus scale="   88.915">  5  6 -1 -1</clus>
<clus scale="   91.372">  7  8 -1 -1</clus>
<clus scale="  115.817">  1  5  2 -1</clus>
<clus scale="   31.850">  2  5  1 -1</clus>
</clustering>
</event>
<event>
 9    1  0.1504846E-005  0.2287624E+03  0.7546771E-02  0.1128919E+00
          1   -1    0    0  502    0 -0.00000000000E+00  0.00000000000E+00  0.11464077976E+04  0.11464077976E+04  0.00000000000E+00 0. -1.
         21   -1    0    0  501  502  0.00000000000E+00 -0.00000000000E+00 -0.10093409509E+03  0.10093409509E+03  0.00000000000E+00 0. -1.
         23    2    1    2    0    0 -0.69483658002E+02 -0.15057857239E+03  0.41834901071E+03  0.45919333928E+03  0.91327667681E+02 0.  0.
         23    2    1    2    0    0  0.16853133651E+03  0.25790765453E+03  0.38064221923E+03  0.50164622571E+03  0.10881758612E+03 0.  0.
        -13    1    4    4    0    0  0.16606767460E+03  0.17534912130E+03  0.30993752562E+03  0.39292118379E+03  0.00000000000E+00 0. -1.
         13    1    4    4    0    0  0.24636619110E+01  0.82558533228E+02  0.70704693619E+02  0.10872504191E+03  0.00000000000E+00 0.  1.
        -13    1    3    3    0    0 -0.48285726255E+02 -0.35706141604E+02  0.72453552345E+02  0.94106095210E+02  0.00000000000E+00 0. -1.
         13    1    3    3    0    0 -0.21197931748E+02 -0.11487243079E+03  0.34589545836E+03  0.36508724407E+03  0.00000000000E+00 0.  1.
          1    1    1    2  501    0 -0.99047678512E+02 -0.10732908214E+03  0.24648247254E+03  0.28650232767E+03  0.00000000000E+00 0. -1.
<scales pt_clust_5="13000.00000" pt_clust_6="13000.00000" pt_clust_7="13000.00000" pt_clust_8="13000.00000" pt_clust_9="146.04792"></scales>
<clustering>
<clus scale="   91.328">  7  8 -1 -1</clus>
<clus scale="  108.818">  5  6 -1 -1</clus>
<clus scale="  146.048">  2  9  1 -1</clus>
<clus scale="  220.979">  1  7  2 -1</clus>
<clus scale="  146.048">  2  5  1 -1</clus>
</clustering>
</event>
<event>
 9    1  0.1504846E-005  0.2602708E+03  0.7546771E-02  0.1117270E+00
          2   -1    0    0  502    0 -0.00000000000E+00  0.00000000000E+00  0.70778003188E+03  0.70778003188E+03  0.00000000000E+00 0. -1.
         21   -1    0    0  501  502  0.00000000000E+00 -0.00000000000E+00 -0.37652669824E+03  0.37652669824E+03  0.00000000000E+00 0. -1.
         23    2    1    2    0    0 -0.17703982598E+03  0.20222548493E+02 -0.10554490790E+03  0.22655607459E+03  0.91847024446E+02 0.  0.
         23    2    1    2    0    0  0.35680453474E+03  0.11745304287E+03  0.49137567487E+03  0.62483733431E+03  0.88695812765E+02 0.  0.
        -11    1    3    3    0    0 -0.14934084304E+03  0.45853146564E+02 -0.59853481931E+02  0.16729506194E+03  0.00000000000E+00 0.  1.
         11    1    3    3    0    0 -0.27698982938E+02 -0.25630598070E+02 -0.45691425971E+02  0.59261012652E+02  0.00000000000E+00 0. -1.
        -13    1    4    4    0    0  0.23040791976E+03  0.56596765728E+02  0.36891403214E+03  0.43862121071E+03  0.00000000000E+00 0. -1.
         13    1    4    4    0    0  0.12639661498E+03  0.60856277144E+02  0.12246164273E+03  0.18621612359E+03  0.00000000000E+00 0.  1.
          2    1    1    2  501    0 -0.17976470876E+03 -0.13767559137E+03 -0.54577433331E+02  0.23291332122E+03  0.00000000000E+00 0. -1.
<scales pt_clust_5="13000.00000" pt_clust_6="13000.00000" pt_clust_7="13000.00000" pt_clust_8="13000.00000" pt_clust_9="244.69148"></scales>
<clustering>
<clus scale="   88.696">  7  8 -1 -1</clus>
<clus scale="   91.847">  5  6 -1 -1</clus>
<clus scale="  200.469">  1  5  2 -1</clus>
<clus scale="  244.691">  2  9  1 -1</clus>
<clus scale="  244.691">  2  5  1 -1</clus>
</clustering>
</event>
<event>
 9    1  0.1504846E-005  0.9338691E+02  0.7546771E-02  0.1302717E+00
         21   -1    0    0  501  502  0.00000000000E+00  0.00000000000E+00  0.43968459726E+02  0.43968459726E+02  0.00000000000E+00 0.  1.
         -2   -1    0    0    0  501 -0.00000000000E+00 -0.00000000000E+00 -0.30688652906E+03  0.30688652906E+03  0.00000000000E+00 0.  1.
         23    2    1    2    0    0 -0.33115868081E+01 -0.24498454808E+01 -0.14035772108E+03  0.16162802043E+03  0.80039732453E+02 0.  0.
         23    2    1    2    0    0 -0.38884516356E+02 -0.17454963144E+01 -0.96808913631E+02  0.13961599779E+03  0.92766420170E+02 0.  0.
        -11    1    3    3    0    0 -0.22073623636E+02  0.14483317959E+02 -0.90482649728E+01  0.27908465714E+02  0.00000000000E+00 0.  1.
         11    1    3    3    0    0  0.18762036828E+02 -0.16933163440E+02 -0.13130945611E+03  0.13371955472E+03  0.00000000000E+00 0. -1.
        -13    1    4    4    0    0 -0.53211364999E+02 -0.22586994963E+02 -0.24091462515E+02  0.62626035102E+02  0.00000000000E+00 0.  1.
         13    1    4    4    0    0  0.14326848642E+02  0.20841498649E+02 -0.72717451116E+02  0.76989962689E+02  0.00000000000E+00 0. -1.
         -2    1    1    2    0  502  0.42196103164E+02  0.41953417952E+01 -0.25751434618E+02  0.49610970560E+02  0.00000000000E+00 0.  1.
<scales pt_clust_5="13000.00000" pt_clust_6="13000.00000" pt_clust_7="13000.00000" pt_clust_8="13000.00000" pt_clust_9="42.40415"></scales>
<clustering>
<clus scale="   42.404">  1  9  2 -1</clus>
<clus scale="   80.040">  5  6 -1 -1</clus>
<clus scale="   80.758">  2  5  1 -1</clus>
<clus scale="   92.766">  7  8 -1 -1</clus>
<clus scale="   42.404">  1  5  2 -1</clus>
</clustering>
</event>
<event>
 9    1  0.1504846E-005  0.9632911E+02  0.7546771E-02  0.1288228E+00
         21   -1    0    0  501  502  0.00000000000E+00  0.00000000000E+00  0.13692366237E+03  0.13692366237E+03  0.00000000000E+00 0.  1.
         -1   -1    0    0    0  501 -0.00000000000E+00 -0.00000000000E+00 -0.31257516776E+03  0.31257516776E+03  0.00000000000E+00 0.  1.
         23    2    1    2    0    0 -0.34043124875E+02 -0.15654080168E+01 -0.21529980737E+03  0.23615724459E+03  0.90856217540E+02 0.  0.
         23    2    1    2    0    0  0.25437761878E+02 -0.20959595735E+02 -0.58046906673E+02  0.11271464154E+03  0.90822699043E+02 0.  0.
        -11    1    4    4    0    0 -0.28598335184E+02 -0.16583786252E+02  0.31202604607E+00  0.33060310071E+02  0.00000000000E+00 0. -1.
         11    1    4    4    0    0  0.54036097062E+02 -0.43758094830E+01 -0.58358932719E+02  0.79654331473E+02  0.00000000000E+00 0.  1.
        -13    1    3    3    0    0 -0.24947920080E+02 -0.44610554637E+02 -0.92023825574E+02  0.10526578159E+03  0.00000000000E+00 0. -1.
         13    1    3    3    0    0 -0.90952047953E+01  0.43045146620E+02 -0.12327598179E+03  0.13089146299E+03  0.00000000000E+00 0.  1.
         -1    1    1    2    0  502  0.86053629973E+01  0.22525003752E+02  0.97695208642E+02  0.10062694400E+03  0.00000000000E+00 0.  1.
<scales pt_clust_5="13000.00000" pt_clust_6="13000.00000" pt_clust_7="13000.00000" pt_clust_8="13000.00000" pt_clust_9="24.11282"></scales>
<clustering>
<clus scale="   24.113">  1  9  2 -1</clus>
<clus scale="   90.823">  5  6 -1 -1</clus>
<clus scale="   90.856">  7  8 -1 -1</clus>
<clus scale="   96.298">  1  5  2 -1</clus>
<clus scale="   24.113">  1  5  2 -1</clus>
</clustering>
</event>
<event>
 9    1  0.1504846E-005  0.1258747E+03  0.7546771E-02  0.1251503E+00
         21   -1    0    0  501  502  0.00000000000E+00  0.00000000000E+00  0.63089305949E+03  0.63089305949E+03  0.00000000000E+00 0.  1.
          1   -1    0    0  502    0 -0.00000000000E+00 -0.00000000000E+00 -0.25295828228E+02  0.25295828228E+02  0.00000000000E+00 0. -1.
         23    2    1    2    0    0  0.62714281706E+01  0.53057720863E+01  0.25876730357E+03  0.28777259058E+03  0.12563862649E+03 0.  0.
         23    2    1    2    0    0  0.18289746870E+02  0.35667990232E+01  0.19742158366E+03  0.21674287460E+03  0.87492600253E+02 0.  0.
        -11    1    4    4    0    0  0.10010358248E+02  0.39268240973E+02  0.15715320256E+03  0.16229396506E+03  0.00000000000E+00 0. -1.
         11    1    4    4    0    0  0.82793886224E+01 -0.35701441950E+02  0.40268381104E+02  0.54448909539E+02  0.00000000000E+00 0.  1.
        -13    1    3    3    0    0 -0.59242113382E+02  0.10432319065E+02  0.12726907225E+03  0.14076888161E+03  0.00000000000E+00 0.  1.
         13    1    3    3    0    0  0.65513541553E+02 -0.51265469789E+01  0.13149823132E+03  0.14700370897E+03  0.00000000000E+00 0. -1.
          1    1    1    2  501    0 -0.24561175040E+02 -0.88725711095E+01  0.14940834403E+03  0.15167342253E+03  0.00000000000E+00 0. -1.
<scales pt_clust_5="13000.00000" pt_clust_6="13000.00000" pt_clust_7="13000.00000" pt_clust_8="13000.00000" pt_clust_9="26.11463"></scales>
<clustering>
<clus scale="   26.115">  1  9  2 -1</clus>
<clus scale="   87.493">  5  6 -1 -1</clus>
<clus scale="   87.831">  1  5  2 -1</clus>
<clus scale="  125.639">  7  8 -1 -1</clus>
<clus scale="   26.115">  1  5  2 -1</clus>
</clustering>
</event>
<event>
 9    1  0.1504846E-005  0.9861628E+02  0.7546771E-02  0.1284706E+00
          1   -1    0    0  502    0 -0.00000000000E+00  0.00000000000E+00  0.88757141433E+02  0.88757141433E+02  0.00000000000E+00 0. -1.
         21   -1    0    0  501  502  0.00000000000E+00 -0.00000000000E+00 -0.36009079416E+03  0.36009079416E+03  0.00000000000E+00 0. -1.
         23    2    1    2    0    0 -0.13859194709E+02 -0.67258413540E+01  0.20298555997E+02  0.98655602257E+02  0.95307828961E+02 0.  0.
         23    2    1    2    0    0  0.38723750461E+02  0.34614707962E+02 -0.73927357622E+02  0.12930449482E+03  0.92502385468E+02 0.  0.
        -11    1    4    4    0    0 -0.15789753993E+02 -0.17859955169E+02 -0.39587178344E+02  0.46210810630E+02  0.00000000000E+00 0.  1.
         11    1    4    4    0    0  0.54513504455E+02  0.52474663132E+02 -0.34340179278E+02  0.83093684186E+02  0.00000000000E+00 0. -1.
        -11    1    3    3    0    0 -0.14790635736E+02 -0.46204733341E+02 -0.91815524259E+01  0.49375512084E+02  0.00000000000E+00 0.  1.
         11    1    3    3    0    0  0.93144102688E+00  0.39478891987E+02  0.29480108423E+02  0.49280090173E+02  0.00000000000E+00 0. -1.
          1    1    1    2  501    0 -0.24864555752E+02 -0.27888866608E+02 -0.21770485111E+03  0.22088783853E+03  0.00000000000E+00 0. -1.
<scales pt_clust_5="13000.00000" pt_clust_6="13000.00000" pt_clust_7="13000.00000" pt_clust_8="13000.00000" pt_clust_9="37.36355"></scales>
<clustering>
<clus scale="   37.364">  2  9  1 -1</clus>
<clus scale="   92.502">  5  6 -1 -1</clus>
<clus scale="   95.308">  7  8 -1 -1</clus>
<clus scale="   95.908">  2  5  1 -1</clus>
<clus scale="   37.364">  2  5  1 -1</clus>
</clustering>
</event>
<event>
 9    1  0.1504846E-005  0.9207487E+02  0.7546771E-02  0.1298752E+00
          3   -1    0    0  502    0 -0.00000000000E+00  0.00000000000E+00  0.21728780126E+03  0.21728780126E+03  0.00000000000E+00 0. -1.
         21   -1    0    0  501  502  0.00000000000E+00 -0.00000000000E+00 -0.10105765074E+03  0.10105765074E+03  0.00000000000E+00 0.  1.
         23    2    1    2    0    0  0.17494941258E+02 -0.15195872527E+02  0.12177258794E+03  0.15340934398E+03  0.90381835215E+02 0.  0.
         23    2    1    2    0    0  0.25323781970E+02 -0.28356897157E+02  0.14985442815E+02  0.10050257115E+03  0.91819364847E+02 0.  0.
        -11    1    4    4    0    0  0.19533104473E+02 -0.61604040218E+02  0.16572310716E+02  0.66717624538E+02  0.00000000000E+00 0.  1.
         11    1    4    4    0    0  0.57906774963E+01  0.33247143060E+02 -0.15868679010E+01  0.33784946608E+02  0.00000000000E+00 0. -1.
        -13    1    3    3    0    0 -0.22758555806E+02 -0.22926265600E+02  0.10369587831E+03  0.10861123650E+03  0.00000000000E+00 0. -1.
         13    1    3    3    0    0  0.40253497064E+02  0.77303930729E+01  0.18076709634E+02  0.44798107484E+02  0.00000000000E+00 0.  1.
          3    1    1    2  501    0 -0.42818723228E+02  0.43552769685E+02 -0.20527880242E+02  0.64433536868E+02  0.00000000000E+00 0. -1.
<scales pt_clust_5="13000.00000" pt_clust_6="13000.00000" pt_clust_7="13000.00000" pt_clust_8="13000.00000" pt_clust_9="61.07607"></scales>
<clustering>
<clus scale="   61.076">  2  9  1 -1</clus>
<clus scale="   90.382">  7  8 -1 -1</clus>
<clus scale="   90.641">  1  7  2 -1</clus>
<clus scale="   91.819">  5  6 -1 -1</clus>
<clus scale="   61.076">  2  5  1 -1</clus>
</clustering>
</event>
<event>
 9    1  0.1504846E-005  0.9544439E+02  0.7546771E-02  0.1290492E+00
         -1   -1    0    0    0  501 -0.00000000000E+00  0.00000000000E+00  0.28584231473E+03  0.28584231473E+03  0.00000000000E+00 0.  1.
         21   -1    0    0  501  502  0.00000000000E+00 -0.00000000000E+00 -0.88359507714E+02  0.88359507714E+02  0.00000000000E+00 0.  1.
         23    2    1    2    0    0 -0.24722773930E+02  0.15443419098E+02  0.16353253457E+03  0.18962532758E+03  0.91461250000E+02 0.  0.
         23    2    1    2    0    0  0.33916053045E+02  0.47940898201E+02  0.49008992465E+02  0.11878247454E+03  0.90877756034E+02 0.  0.
        -11    1    3    3    0    0 -0.55583439894E+02  0.28519849022E+02  0.10558686883E+03  0.12268450370E+03  0.00000000000E+00 0.  1.
         11    1    3    3    0    0  0.30860665964E+02 -0.13076429925E+02  0.57945665741E+02  0.66940823878E+02  0.00000000000E+00 0. -1.
        -11    1    4    4    0    0  0.23807560147E+02 -0.16728949470E+02 -0.98864688684E+01  0.30731090726E+02  0.00000000000E+00 0. -1.
         11    1    4    4    0    0  0.10108492898E+02  0.64669847671E+02  0.58895461333E+02  0.88051383817E+02  0.00000000000E+00 0.  1.
         -1    1    1    2    0  502 -0.91932791152E+01 -0.63384317299E+02 -0.15058720027E+02  0.65794020315E+02  0.00000000000E+00 0.  1.
<scales pt_clust_5="13000.00000" pt_clust_6="13000.00000" pt_clust_7="13000.00000" pt_clust_8="13000.00000" pt_clust_9="64.04755"></scales>
<clustering>
<clus scale="   64.048">  2  9  1 -1</clus>
<clus scale="   90.878">  7  8 -1 -1</clus>
<clus scale="   91.461">  5  6 -1 -1</clus>
<clus scale="   94.885">  2  7  1 -1</clus>
<clus scale="   64.048">  2  5  1 -1</clus>
</clustering>
</event>
<event>
 9    1  0.1504846E-005  0.1071630E+03  0.7546771E-02  0.1266671E+00
         21   -1    0    0  501  502  0.00000000000E+00  0.00000000000E+00  0.51711478596E+03  0.51711478596E+03  0.00000000000E+00 0.  1.
         -2   -1    0    0    0  501 -0.00000000000E+00 -0.00000000000E+00 -0.71352918625E+02  0.71352918625E+02  0.00000000000E+00 0.  1.
         23    2    1    2    0    0 -0.42910917288E+02 -0.55269179940E+02  0.18835061565E+02  0.11790781410E+03  0.93013246409E+02 0.  0.
         23    2    1    2    0    0 -0.14564011834E+02  0.34388221570E+02  0.10960889635E+03  0.14740352347E+03  0.91208707649E+02 0.  0.
        -11    1    3    3    0    0 -0.19991746197E+02 -0.55364479078E+02 -0.28437129902E+02  0.65372515759E+02  0.00000000000E+00 0.  1.
         11    1    3    3    0    0 -0.22919171091E+02  0.95299137460E-01  0.47272191468E+02  0.52535298339E+02  0.00000000000E+00 0. -1.
        -13    1    4    4    0    0 -0.88258321894E+01 -0.27483488020E+02  0.11083583574E+02  0.30920595926E+02  0.00000000000E+00 0.  1.
         13    1    4    4    0    0 -0.57381796446E+01  0.61871709590E+02  0.98525312771E+02  0.11648292755E+03  0.00000000000E+00 0. -1.
         -2    1    1    2    0  502  0.57474929122E+02  0.20880958370E+02  0.31731790942E+03  0.32315636701E+03  0.00000000000E+00 0.  1.
<scales pt_clust_5="13000.00000" pt_clust_6="13000.00000" pt_clust_7="13000.00000" pt_clust_8="13000.00000" pt_clust_9="61.15049"></scales>
<clustering>
<clus scale="   61.150">  1  9  2 -1</clus>
<clus scale="   91.209">  7  8 -1 -1</clus>
<clus scale="   93.013">  5  6 -1 -1</clus>
<clus scale="  105.601">  1  7  2 -1</clus>
<clus scale="   61.150">  1  5  2 -1</clus>
</clustering>
</event>
<event>
 9    1  0.1504846E-005  0.2416212E+03  0.7546771E-02  0.1156879E+00
         21   -1    0    0  501  502  0.00000000000E+00  0.00000000000E+00  0.80563723793E+03  0.80563723793E+03  0.00000000000E+00 0. -1.
          3   -1    0    0  502    0 -0.00000000000E+00 -0.00000000000E+00 -0.28320240751E+03  0.28320240751E+03  0.00000000000E+00 0. -1.
         23    2    1    2    0    0 -0.12459378805E+02  0.18644670697E+02 -0.18551082555E+03  0.20881777116E+03  0.93208021589E+02 0.  0.
         23    2    1    2    0    0  0.20085273824E+03 -0.12876981420E+03  0.19182599372E+03  0.31966563860E+03  0.92007723201E+02 0.  0.
        -11    1    3    3    0    0  0.22384552596E+02 -0.21998786817E+02 -0.12091276748E+03  0.12491962278E+03  0.00000000000E+00 0.  1.
         11    1    3    3    0    0 -0.34843931402E+02  0.40643457515E+02 -0.64598058076E+02  0.83898148379E+02  0.00000000000E+00 0. -1.
        -13    1    4    4    0    0  0.16039925273E+03 -0.10291805123E+03  0.19354813677E+03  0.27162644716E+03  0.00000000000E+00 0. -1.
         13    1    4    4    0    0  0.40453485508E+02 -0.25851762966E+02 -0.17221430502E+01  0.48039191447E+02  0.00000000000E+00 0.  1.
          3    1    1    2  501    0 -0.18839335944E+03  0.11012514350E+03  0.51611966225E+03  0.56035623569E+03  0.00000000000E+00 0. -1.
<scales pt_clust_5="13000.00000" pt_clust_6="13000.00000" pt_clust_7="13000.00000" pt_clust_8="13000.00000" pt_clust_9="223.41747"></scales>
<clustering>
<clus scale="   92.008">  7  8 -1 -1</clus>
<clus scale="   93.208">  5  6 -1 -1</clus>
<clus scale="   95.868">  2  5  1 -1</clus>
<clus scale="  223.417">  1  9  2 -1</clus>
<clus scale="  223.417">  1  5  2 -1</clus>
</clustering>
</event>
<event>
 9    1  0.1504846E-005  0.1081595E+03  0.7546771E-02  0.1264175E+00
         21   -1    0    0  501  502  0.00000000000E+00  0.00000000000E+00  0.40647718538E+03  0.40647718538E+03  0.00000000000E+00 0. -1.
         -4   -1    0    0    0  501 -0.00000000000E+00 -0.00000000000E+00 -0.70470607343E+02  0.70470607343E+02  0.00000000000E+00 0.  1.
         23    2    1    2    0    0 -0.67224614676E+02  0.20670429748E+02  0.14247129059E+02  0.11612508439E+03  0.91299720993E+02 0.  0.
         23    2    1    2    0    0  0.26343066758E+02 -0.17679597921E+02  0.11698611819E+03  0.15198697615E+03  0.91693858686E+02 0.  0.
        -11    1    4    4    0    0  0.56275098272E+02 -0.21236044283E+02  0.48869017917E+02  0.77498626920E+02  0.00000000000E+00 0.  1.
         11    1    4    4    0    0 -0.29932031514E+02  0.35564463628E+01  0.68117100269E+02  0.74488349226E+02  0.00000000000E+00 0. -1.
        -11    1    3    3    0    0  0.11951008035E+00  0.42054379200E+02 -0.63390033444E+01  0.42529613871E+02  0.00000000000E+00 0.  1.
         11    1    3    3    0    0 -0.67344124756E+02 -0.21383949453E+02  0.20586132403E+02  0.73595470518E+02  0.00000000000E+00 0. -1.
         -4    1    1    2    0  502  0.40881547918E+02 -0.29908318271E+01  0.20477333080E+03  0.20883573219E+03  0.00000000000E+00 0.  1.
<scales pt_clust_5="13000.00000" pt_clust_6="13000.00000" pt_clust_7="13000.00000" pt_clust_8="13000.00000" pt_clust_9="40.99080"></scales>
<clustering>
<clus scale="   40.991">  1  9  2 -1</clus>
<clus scale="   91.300">  7  8 -1 -1</clus>
<clus scale="   91.694">  5  6 -1 -1</clus>
<clus scale="  107.826">  2  7  1 -1</clus>
<clus scale="   40.991">  1  5  2 -1</clus>
</clustering>
</event>
<event>
 9    1  0.1504846E-005  0.1140604E+03  0.7546771E-02  0.1256787E+00
         -3   -1    0    0    0  501 -0.00000000000E+00  0.00000000000E+00  0.16345849367E+03  0.16345849367E+03  0.00000000000E+00 0.  1.
         21   -1    0    0  501  502  0.00000000000E+00 -0.00000000000E+00 -0.26834040675E+03  0.26834040675E+03  0.00000000000E+00 0.  1.
         23    2    1    2    0    0 -0.39423398551E+02  0.42009723684E+02  0.10576528620E+03  0.15384570714E+03  0.95724524574E+02 0.  0.
         23    2    1    2    0    0  0.58343696647E+02 -0.81665562138E+02 -0.18362003781E+03  0.22636801459E+03  0.86330230878E+02 0.  0.
        -11    1    3    3    0    0 -0.54794908093E+02  0.12529102230E+01  0.93856366755E+02  0.10868794467E+03  0.00000000000E+00 0. -1.
         11    1    3    3    0    0  0.15371509542E+02  0.40756813461E+02  0.11908919443E+02  0.45157762471E+02  0.00000000000E+00 0.  1.
        -13    1    4    4    0    0  0.79896929708E+02 -0.56060845342E+02 -0.14976623733E+03  0.17876314945E+03  0.00000000000E+00 0.  1.
         13    1    4    4    0    0 -0.21553233061E+02 -0.25604716796E+02 -0.33853800487E+02  0.47604865140E+02  0.00000000000E+00 0. -1.
         -3    1    1    2    0  502 -0.18920298096E+02  0.39655838454E+02 -0.27027161465E+02  0.51585178689E+02  0.00000000000E+00 0.  1.
<scales pt_clust_5="13000.00000" pt_clust_6="13000.00000" pt_clust_7="13000.00000" pt_clust_8="13000.00000" pt_clust_9="43.93817"></scales>
<clustering>
<clus scale="   43.938">  2  9  1 -1</clus>
<clus scale="   86.330">  7  8 -1 -1</clus>
<clus scale="   95.725">  5  6 -1 -1</clus>
<clus scale="  106.299">  2  7  1 -1</clus>
<clus scale="   43.938">  2  5  1 -1</clus>
</clustering>
</event>
<event>
 9    1  0.1504846E-005  0.9644913E+02  0.7546771E-02  0.1288441E+00
         21   -1    0    0  501  502  0.00000000000E+00  0.00000000000E+00  0.45949006499E+02  0.45949006499E+02  0.00000000000E+00 0.  1.
          2   -1    0    0  502    0 -0.00000000000E+00 -0.00000000000E+00 -0.39077156968E+03  0.39077156968E+03  0.00000000000E+00 0. -1.
         23    2    1    2    0    0 -0.23745263288E+02  0.63269402111E+01 -0.18144978449E+03  0.20549464374E+03  0.93274630058E+02 0.  0.
         23    2    1    2    0    0  0.23631068002E+02  0.19657457261E+02 -0.17691704551E+03  0.20192321728E+03  0.92349887300E+02 0.  0.
        -11    1    3    3    0    0  0.18235772170E+02  0.23208108130E+02 -0.15204112190E+02  0.33201275534E+02  0.00000000000E+00 0. -1.
         11    1    3    3    0    0 -0.41981035458E+02 -0.16881167919E+02 -0.16624567230E+03  0.17229336820E+03  0.00000000000E+00 0.  1.
        -13    1    4    4    0    0 -0.94874066493E+01  0.42643265148E+02 -0.40132868701E+02  0.59322054058E+02  0.00000000000E+00 0.  1.
         13    1    4    4    0    0  0.33118474651E+02 -0.22985807887E+02 -0.13678417681E+03  0.14260116323E+03  0.00000000000E+00 0. -1.
          2    1    1    2  501    0  0.11419528603E+00 -0.25984397472E+02  0.13544266814E+02  0.29302715165E+02  0.00000000000E+00 0. -1.
<scales pt_clust_5="13000.00000" pt_clust_6="13000.00000" pt_clust_7="13000.00000" pt_clust_8="13000.00000" pt_clust_9="25.98465"></scales>
<clustering>
<clus scale="   25.985">  1  9  2 -1</clus>
<clus scale="   92.350">  7  8 -1 -1</clus>
<clus scale="   93.275">  5  6 -1 -1</clus>
<clus scale="   95.555">  1  7  2 -1</clus>
<clus scale="   25.985">  1  5  2 -1</clus>
</clustering>
</event>
<event>
 9    1  0.1504846E-005  0.1410729E+03  0.7546771E-02  0.1215355E+00
          1   -1    0    0  502    0 -0.00000000000E+00  0.00000000000E+00  0.54434712095E+03  0.54434712095E+03  0.00000000000E+00 0. -1.
         21   -1    0    0  501  502  0.00000000000E+00 -0.00000000000E+00 -0.83318458821E+02  0.83318458821E+02  0.00000000000E+00 0.  1.
         23    2    1    2    0    0 -0.85856679599E+02  0.78803660939E+02  0.41860854164E+03  0.44061573768E+03  0.72991305967E+02 0.  0.
         23    2    1    2    0    0  0.68217615782E+02 -0.49965108879E+02  0.71451900826E+02  0.14248928862E+03  0.89708795726E+02 0.  0.
        -11    1    4    4    0    0  0.90101904842E+02 -0.45126950547E+02  0.60583415449E+02  0.11758037740E+03  0.00000000000E+00 0. -1.
         11    1    4    4    0    0 -0.21884289060E+02 -0.48381583318E+01  0.10868485377E+02  0.24908911218E+02  0.00000000000E+00 0.  1.
        -11    1    3    3    0    0 -0.96838965826E+02  0.58779872237E+02  0.32203789045E+03  0.34138140191E+03  0.00000000000E+00 0.  1.
         11    1    3    3    0    0  0.10982286227E+02  0.20023788701E+02  0.96570651187E+02  0.99234335768E+02  0.00000000000E+00 0. -1.
          1    1    1    2  501    0  0.17639063817E+02 -0.28838552060E+02 -0.29031780331E+02  0.44560553480E+02  0.00000000000E+00 0. -1.
<scales pt_clust_5="13000.00000" pt_clust_6="13000.00000" pt_clust_7="13000.00000" pt_clust_8="13000.00000" pt_clust_9="33.80531"></scales>
<clustering>
<clus scale="   33.805">  2  9  1 -1</clus>
<clus scale="   72.991">  7  8 -1 -1</clus>
<clus scale="   89.709">  5  6 -1 -1</clus>
<clus scale="  131.079">  1  7  2 -1</clus>
<clus scale="   33.805">  2  5  1 -1</clus>
</clustering>
</event>
<event>
 9    1  0.1504846E-005  0.2394144E+03  0.7546771E-02  0.1158703E+00
          2   -1    0    0  502    0 -0.00000000000E+00  0.00000000000E+00  0.68475906419E+03  0.68475906419E+03  0.00000000000E+00 0. -1.
         21   -1    0    0  501  502  0.00000000000E+00 -0.00000000000E+00 -0.23439547300E+03  0.23439547300E+03  0.00000000000E+00 0.  1.
         23    2    1    2    0    0 -0.62012472033E+01 -0.23813476344E+02 -0.75258795442E+02  0.12075260815E+03  0.91168903473E+02 0.  0.
         23    2    1    2    0    0 -0.12597365439E+03  0.19608481369E+03  0.52390348347E+03  0.58126010233E+03  0.95235659309E+02 0.  0.
        -11    1    3    3    0    0 -0.46381726296E+01  0.22978469139E+02 -0.69783339227E+02  0.73615467961E+02  0.00000000000E+00 0.  1.
         11    1    3    3    0    0 -0.15630745737E+01 -0.46791945483E+02 -0.54754562144E+01  0.47137140186E+02  0.00000000000E+00 0. -1.
        -11    1    4    4    0    0 -0.12671468857E+03  0.14435045022E+03  0.46352236468E+03  0.50174360717E+03  0.00000000000E+00 0.  1.
         11    1    4    4    0    0  0.74103418305E+00  0.51734363471E+02  0.60381118790E+02  0.79516495155E+02  0.00000000000E+00 0. -1.
          2    1    1    2  501    0  0.13217490159E+03 -0.17227133735E+03  0.17189031645E+01  0.21714182672E+03  0.00000000000E+00 0. -1.
<scales pt_clust_5="13000.00000" pt_clust_6="13000.00000" pt_clust_7="13000.00000" pt_clust_8="13000.00000" pt_clust_9="219.65753"></scales>
<clustering>
<clus scale="   91.169">  5  6 -1 -1</clus>
<clus scale="   94.432">  1  5  2 -1</clus>
<clus scale="   95.236">  7  8 -1 -1</clus>
<clus scale="  219.658">  2  9  1 -1</clus>
<clus scale="  219.658">  2  5  1 -1</clus>
</clustering>
</event>
<event>
 9    1  0.1504846E-005  0.9817438E+02  0.7546771E-02  0.1287471E+00
         21   -1    0    0  501  502  0.00000000000E+00  0.00000000000E+00  0.15877311272E+03  0.15877311272E+03  0.00000000000E+00 0. -1.
         -1   -1    0    0    0  501 -0.00000000000E+00 -0.00000000000E+00 -0.22101240018E+03  0.22101240018E+03  0.00000000000E+00 0.  1.
         23    2    1    2    0    0 -0.42889749830E+02  0.35804786709E+02 -0.18062027241E+03  0.20307443551E+03  0.74121725293E+02 0.  0.
         23    2    1    2    0    0  0.49807020168E+02 -0.14452249377E+02  0.58658001716E+02  0.11290971216E+03  0.81352536317E+02 0.  0.
        -11    1    4    4    0    0  0.24538972016E+02 -0.85285215596E+01 -0.18244970230E+02  0.31745484187E+02  0.00000000000E+00 0.  1.
         11    1    4    4    0    0  0.25268048153E+02 -0.59237278170E+01  0.76902971946E+02  0.81164227975E+02  0.00000000000E+00 0. -1.
        -13    1    3    3    0    0 -0.32508485148E+02  0.59024589068E+02 -0.13086230920E+03  0.14719255310E+03  0.00000000000E+00 0.  1.
         13    1    3    3    0    0 -0.10381264683E+02 -0.23219802359E+02 -0.49757963212E+02  0.55881882404E+02  0.00000000000E+00 0. -1.
         -1    1    1    2    0  502 -0.69172703380E+01 -0.21352537332E+02  0.59722983226E+02  0.63801365227E+02  0.00000000000E+00 0.  1.
<scales pt_clust_5="13000.00000" pt_clust_6="13000.00000" pt_clust_7="13000.00000" pt_clust_8="13000.00000" pt_clust_9="22.44503"></scales>
<clustering>
<clus scale="   22.445">  1  9  2 -1</clus>
<clus scale="   74.122">  7  8 -1 -1</clus>
<clus scale="   81.353">  5  6 -1 -1</clus>
<clus scale="   92.271">  2  7  1 -1</clus>
<clus scale="   22.445">  1  5  2 -1</clus>
</clustering>
</event>
<event>
 9    1  0.1504846E-005  0.1162039E+03  0.7546771E-02  0.1260064E+00
          3   -1    0    0  502    0 -0.00000000000E+00  0.00000000000E+00  0.12948928033E+03  0.12948928033E+03  0.00000000000E+00 0. -1.
         21   -1    0    0  501  502  0.00000000000E+00 -0.00000000000E+00 -0.26456198557E+03  0.26456198557E+03  0.00000000000E+00 0. -1.
         23    2    1    2    0    0  0.12869631076E+02 -0.14890854371E+02  0.64625041239E+02  0.11305522118E+03  0.90651652682E+02 0.  0.
         23    2    1    2    0    0 -0.38081275212E+02  0.33704504759E+02 -0.60253795793E+02  0.13804781694E+03  0.11331594191E+03 0.  0.
        -11    1    4    4    0    0 -0.17909425380E+02  0.48092307089E+02 -0.87363425193E+02  0.10132120005E+03  0.00000000000E+00 0. -1.
         11    1    4    4    0    0 -0.20171849832E+02 -0.14387802330E+02  0.27109629400E+02  0.36726616884E+02  0.00000000000E+00 0.  1.
        -13    1    3    3    0    0 -0.38963295390E+02 -0.11776923022E+01  0.30564285127E+02  0.49534845030E+02  0.00000000000E+00 0. -1.
         13    1    3    3    0    0  0.51832926466E+02 -0.13713162069E+02  0.34060756112E+02  0.63520376155E+02  0.00000000000E+00 0.  1.
          3    1    1    2  501    0  0.25211644135E+02 -0.18813650388E+02 -0.13944395069E+03  0.14294822778E+03  0.00000000000E+00 0. -1.
<scales pt_clust_5="13000.00000" pt_clust_6="13000.00000" pt_clust_7="13000.00000" pt_clust_8="13000.00000" pt_clust_9="31.45760"></scales>
<clustering>
<clus scale="   31.458">  2  9  1 -1</clus>
<clus scale="   90.652">  7  8 -1 -1</clus>
<clus scale="   94.237">  1  7  2 -1</clus>
<clus scale="  113.316">  5  6 -1 -1</clus>
<clus scale="   31.458">  2  5  1 -1</clus>
</clustering>
</event>
<event>
 9    1  0.1504846E-005  0.1101891E+03  0.7546771E-02  0.1261002E+00
         21   -1    0    0  501  502  0.00000000000E+00  0.00000000000E+00  0.87619674170E+02  0.87619674170E+02  0.00000000000E+00 0.  1.
          2   -1    0    0  502    0 -0.00000000000E+00 -0.00000000000E+00 -0.28265253318E+03  0.28265253318E+03  0.00000000000E+00 0. -1.
         23    2    1    2    0    0 -0.99433638056E+01 -0.56440857287E+02 -0.15837227388E+03  0.19075677260E+03  0.89565218160E+02 0.  0.
         23    2    1    2    0    0  0.29131694945E+02  0.64032165404E+02 -0.73780584134E+02  0.13704527655E+03  0.91591808434E+02 0.  0.
        -13    1    3    3    0    0  0.39130737697E+02 -0.15063153803E+02 -0.68519021156E+02  0.80330377165E+02  0.00000000000E+00 0.  1.
         13    1    3    3    0    0 -0.49074101503E+02 -0.41377703484E+02 -0.89853252725E+02  0.11042639544E+03  0.00000000000E+00 0. -1.
        -13    1    4    4    0    0 -0.13401554488E+02  0.52169419244E+02 -0.75629847786E+02  0.92850007232E+02  0.00000000000E+00 0. -1.
         13    1    4    4    0    0  0.42533249433E+02  0.11862746161E+02  0.18492636522E+01  0.44195269315E+02  0.00000000000E+00 0.  1.
          2    1    1    2  501    0 -0.19188331139E+02 -0.75913081171E+01  0.37119999009E+02  0.42470158197E+02  0.00000000000E+00 0. -1.
<scales pt_clust_5="13000.00000" pt_clust_6="13000.00000" pt_clust_7="13000.00000" pt_clust_8="13000.00000" pt_clust_9="20.63541"></scales>
<clustering>
<clus scale="   20.635">  1  9  2 -1</clus>
<clus scale="   89.565">  5  6 -1 -1</clus>
<clus scale="   91.592">  7  8 -1 -1</clus>
<clus scale="  108.510">  2  5  1 -1</clus>
<clus scale="   20.635">  1  5  2 -1</clus>
</clustering>
</event>
<event>
 9    1  0.1504846E-005  0.1133815E+03  0.7546771E-02  0.1260223E+00
          1   -1    0    0  502    0 -0.00000000000E+00  0.00000000000E+00  0.43062308398E+03  0.43062308398E+03  0.00000000000E+00 0. -1.
         21   -1    0    0  501  502  0.00000000000E+00 -0.00000000000E+00 -0.43658202114E+02  0.43658202114E+02  0.00000000000E+00 0.  1.
         23    2    1    2    0    0 -0.80721316138E+02 -0.22445142058E+01  0.21940100276E+03  0.25072154911E+03  0.90573320885E+02 0.  0.
         23    2    1    2    0    0  0.46912860371E+02  0.40355572190E+02  0.10676817711E+03  0.14424024503E+03  0.74675404030E+02 0.  0.
        -11    1    3    3    0    0 -0.56538627471E+02 -0.43939358296E+02  0.11106084906E+03  0.13214308835E+03  0.00000000000E+00 0.  1.
         11    1    3    3    0    0 -0.24182688668E+02  0.41694844090E+02  0.10834015370E+03  0.11857846077E+03  0.00000000000E+00 0. -1.
        -13    1    4    4    0    0  0.65539698859E+02  0.19059762401E+02  0.81506761771E+02  0.10631123592E+03  0.00000000000E+00 0. -1.
         13    1    4    4    0    0 -0.18626838487E+02  0.21295809789E+02  0.25261415340E+02  0.37929009104E+02  0.00000000000E+00 0.  1.
          1    1    1    2  501    0  0.33808455767E+02 -0.38111057984E+02  0.60795701996E+02  0.79319491950E+02  0.00000000000E+00 0. -1.
<scales pt_clust_5="13000.00000" pt_clust_6="13000.00000" pt_clust_7="13000.00000" pt_clust_8="13000.00000" pt_clust_9="50.94570"></scales>
<clustering>
<clus scale="   50.946">  2  9  1 -1</clus>
<clus scale="   74.675">  7  8 -1 -1</clus>
<clus scale="   90.573">  5  6 -1 -1</clus>
<clus scale="  101.135">  2  7  1 -1</clus>
<clus scale="   50.946">  2  5  1 -1</clus>
</clustering>
</event>
<event>
 9    1  0.1504846E-005  0.9642649E+02  0.7546771E-02  0.1288974E+00
          3   -1    0    0  502    0 -0.00000000000E+00  0.00000000000E+00  0.16609788478E+03  0.16609788478E+03  0.00000000000E+00 0. -1.
         21   -1    0    0  501  502  0.00000000000E+00 -0.00000000000E+00 -0.15770580193E+03  0.15770580193E+03  0.00000000000E+00 0. -1.
         23    2    1    2    0    0 -0.19839123930E+02  0.15980675455E+02  0.11533335734E+03  0.14889868815E+03  0.90664564134E+02 0.  0.
         23    2    1    2    0    0  0.44669736110E+02  0.86704660051E+00 -0.59322622236E+02  0.11862053284E+03  0.92496055094E+02 0.  0.
        -13    1    4    4    0    0  0.66581000713E+02 -0.12890221553E+02 -0.18509431237E+02  0.70297841449E+02  0.00000000000E+00 0. -1.
         13    1    4    4    0    0 -0.21911264603E+02  0.13757268153E+02 -0.40813190999E+02  0.48322691389E+02  0.00000000000E+00 0.  1.
        -13    1    3    3    0    0  0.16681795430E+02 -0.14637977346E+02 -0.19728604079E+01  0.22281042564E+02  0.00000000000E+00 0.  1.
         13    1    3    3    0    0 -0.36520919360E+02  0.30618652801E+02  0.11730621775E+03  0.12661764558E+03  0.00000000000E+00 0. -1.
          3    1    1    2  501    0 -0.24830612179E+02 -0.16847722055E+02 -0.47618652255E+02  0.56284465728E+02  0.00000000000E+00 0. -1.
<scales pt_clust_5="13000.00000" pt_clust_6="13000.00000" pt_clust_7="13000.00000" pt_clust_8="13000.00000" pt_clust_9="30.00675"></scales>
<clustering>
<clus scale="   30.007">  2  9  1 -1</clus>
<clus scale="   90.665">  7  8 -1 -1</clus>
<clus scale="   92.496">  5  6 -1 -1</clus>
<clus scale="   94.671">  1  7  2 -1</clus>
<clus scale="   30.007">  2  5  1 -1</clus>
</clustering>
</event>
<event>
 9    1  0.1504846E-005  0.9751219E+02  0.7546771E-02  0.1286559E+00
         -1   -1    0    0    0  501 -0.00000000000E+00  0.00000000000E+00  0.29104768929E+03  0.29104768929E+03  0.00000000000E+00 0.  1.
         21   -1    0    0  501  502  0.00000000000E+00 -0.00000000000E+00 -0.53313381675E+02  0.53313381675E+02  0.00000000000E+00 0.  1.
         23    2    1    2    0    0  0.63934701927E+01 -0.37661427559E+02  0.18995093703E+03  0.21385560599E+03  0.90518518264E+02 0.  0.
         23    2    1    2    0    0 -0.71244425533E+01  0.14388976442E+02  0.51484238410E+02  0.10692925399E+03  0.92333299682E+02 0.  0.
        -13    1    3    3    0    0 -0.21715928509E+02 -0.39780309091E+02  0.37511442863E+02  0.58831648694E+02  0.00000000000E+00 0.  1.
         13    1    3    3    0    0  0.28109398702E+02  0.21188815325E+01  0.15243949417E+03  0.15502395730E+03  0.00000000000E+00 0. -1.
        -13    1    4    4    0    0  0.42518773881E+02  0.64798808338E+01  0.28916150129E+02  0.51826428840E+02  0.00000000000E+00 0. -1.
         13    1    4    4    0    0 -0.49643216434E+02  0.79090956079E+01  0.22568088281E+02  0.55102825154E+02  0.00000000000E+00 0.  1.
         -1    1    1    2    0  502  0.73097236062E+00  0.23272451117E+02 -0.37008678237E+01  0.23576210982E+02  0.00000000000E+00 0.  1.
<scales pt_clust_5="13000.00000" pt_clust_6="13000.00000" pt_clust_7="13000.00000" pt_clust_8="13000.00000" pt_clust_9="23.28393"></scales>
<clustering>
<clus scale="   23.284">  2  9  1 -1</clus>
<clus scale="   90.519">  5  6 -1 -1</clus>
<clus scale="   92.333">  7  8 -1 -1</clus>
<clus scale="   95.796">  1  5  2 -1</clus>
<clus scale="   23.284">  2  5  1 -1</clus>
</clustering>
</event>
<event>
 9    1  0.1504846E-005  0.1239610E+03  0.7546771E-02  0.1237419E+00
         -3   -1    0    0    0  501 -0.00000000000E+00  0.00000000000E+00  0.51628795217E+03  0.51628795217E+03  0.00000000000E+00 0.  1.
         21   -1    0    0  501  502  0.00000000000E+00 -0.00000000000E+00 -0.91817321757E+02  0.91817321757E+02  0.00000000000E+00 0. -1.
         23    2    1    2    0    0  0.10095846952E+02 -0.73679926097E+02  0.35235363106E+03  0.37162495116E+03  0.91767997500E+02 0.  0.
         23    2    1    2    0    0 -0.17647819905E+02  0.99794810016E+02  0.11887782296E+03  0.18239156162E+03  0.94150386640E+02 0.  0.
        -11    1    4    4    0    0  0.16533842993E+02  0.92532597473E+02  0.53232723192E+02  0.10802486926E+03  0.00000000000E+00 0. -1.
         11    1    4    4    0    0 -0.34181662898E+02  0.72622125436E+01  0.65645099769E+02  0.74366692364E+02  0.00000000000E+00 0.  1.
        -11    1    3    3    0    0 -0.17710173451E+02 -0.55031307396E+02  0.31960362342E+03  0.32479004163E+03  0.00000000000E+00 0.  1.
         11    1    3    3    0    0  0.27806020403E+02 -0.18648618701E+02  0.32750007641E+02  0.46834909529E+02  0.00000000000E+00 0. -1.
         -3    1    1    2    0  502  0.75519729523E+01 -0.26114883919E+02 -0.46760823612E+02  0.54088761147E+02  0.00000000000E+00 0.  1.
<scales pt_clust_5="13000.00000" pt_clust_6="13000.00000" pt_clust_7="13000.00000" pt_clust_8="13000.00000" pt_clust_9="27.18491"></scales>
<clustering>
<clus scale="   27.185">  2  9  1 -1</clus>
<clus scale="   91.768">  7  8 -1 -1</clus>
<clus scale="   94.150">  5  6 -1 -1</clus>
<clus scale="  122.161">  1  7  2 -1</clus>
<clus scale="   27.185">  2  5  1 -1</clus>
</clustering>
</event>
<event>
 9    1  0.1504846E-005  0.1412584E+03  0.7546771E-02  0.1213167E+00
         21   -1    0    0  501  502  0.00000000000E+00  0.00000000000E+00  0.28034597220E+03  0.28034597220E+03  0.00000000000E+00 0.  1.
          1   -1    0    0  502    0 -0.00000000000E+00 -0.00000000000E+00 -0.15970778469E+03  0.15970778469E+03  0.00000000000E+00 0. -1.
         23    2    1    2    0    0  0.48715941038E+02 -0.83093461656E+02 -0.84483309564E+02  0.15777684126E+03  0.92077878795E+02 0.  0.
         23    2    1    2    0    0 -0.73851308932E+02  0.10373168840E+03  0.16426665868E+03  0.23005775303E+03  0.98634454252E+02 0.  0.
        -11    1    4    4    0    0 -0.85850299069E+02  0.40546075823E+02  0.11445926712E+03  0.14871174111E+03  0.00000000000E+00 0.  1.
         11    1    4    4    0    0  0.11998990136E+02  0.63185612576E+02  0.49807391565E+02  0.81346011921E+02  0.00000000000E+00 0. -1.
        -11    1    3    3    0    0 -0.20885853579E+02 -0.34512780012E+01 -0.35231005154E+02  0.41101750860E+02  0.00000000000E+00 0.  1.
         11    1    3    3    0    0  0.69601794617E+02 -0.79642183655E+02 -0.49252304410E+02  0.11667509040E+03  0.00000000000E+00 0. -1.
          1    1    1    2  501    0  0.25135367895E+02 -0.20638226743E+02  0.40854838389E+02  0.52219162594E+02  0.00000000000E+00 0. -1.
<scales pt_clust_5="13000.00000" pt_clust_6="13000.00000" pt_clust_7="13000.00000" pt_clust_8="13000.00000" pt_clust_9="32.52266"></scales>
<clustering>
<clus scale="   32.523">  1  9  2 -1</clus>
<clus scale="   92.078">  7  8 -1 -1</clus>
<clus scale="   98.634">  5  6 -1 -1</clus>
<clus scale="  136.761">  2  7  1 -1</clus>
<clus scale="   32.523">  1  5  2 -1</clus>
</clustering>
</event>
<event>
 9    1  0.1504846E-005  0.1008015E+03  0.7546771E-02  0.1284522E+00
         21   -1    0    0  501  502  0.00000000000E+00  0.00000000000E+00  0.15720112159E+03  0.15720112159E+03  0.00000000000E+00 0. -1.
          2   -1    0    0  502    0 -0.00000000000E+00 -0.00000000000E+00 -0.11418730210E+03  0.11418730210E+03  0.00000000000E+00 0. -1.
         23    2    1    2    0    0 -0.31215294994E+02 -0.19406663189E+02 -0.26884901514E+02  0.90982392121E+02  0.78765376461E+02 0.  0.
         23    2    1    2    0    0  0.22899765847E+02  0.68767528475E+02  0.46263792062E+02  0.12505033707E+03  0.90795793393E+02 0.  0.
        -11    1    4    4    0    0 -0.28066180764E+02  0.44187428809E+00  0.24048528271E+02  0.36962649629E+02  0.00000000000E+00 0.  1.
         11    1    4    4    0    0  0.50965946611E+02  0.68325654187E+02  0.22215263791E+02  0.88087687445E+02  0.00000000000E+00 0. -1.
        -13    1    3    3    0    0  0.19250994408E+02 -0.26812045636E+02 -0.22162438321E+02  0.39757518147E+02  0.00000000000E+00 0.  1.
         13    1    3    3    0    0 -0.50466289401E+02  0.74053824470E+01 -0.47224631929E+01  0.51224873975E+02  0.00000000000E+00 0. -1.
          2    1    1    2  501    0  0.83155291469E+01 -0.49360865287E+02  0.23634928945E+02  0.55355694495E+02  0.00000000000E+00 0. -1.
<scales pt_clust_5="13000.00000" pt_clust_6="13000.00000" pt_clust_7="13000.00000" pt_clust_8="13000.00000" pt_clust_9="50.05640"></scales>
<clustering>
<clus scale="   50.056">  1  9  2 -1</clus>
<clus scale="   78.765">  7  8 -1 -1</clus>
<clus scale="   90.117">  2  7  1 -1</clus>
<clus scale="   90.796">  5  6 -1 -1</clus>
<clus scale="   50.056">  1  5  2 -1</clus>
</clustering>
</event>
<event>
 9    1  0.1504846E-005  0.9279951E+02  0.7546771E-02  0.1297179E+00
         21   -1    0    0  501  502  0.00000000000E+00  0.00000000000E+00  0.39639960193E+02  0.39639960193E+02  0.00000000000E+00 0.  1.
          2   -1    0    0  502    0 -0.00000000000E+00 -0.00000000000E+00 -0.48454215857E+03  0.48454215857E+03  0.00000000000E+00 0. -1.
         23    2    1    2    0    0  0.54979818762E+01 -0.17476617015E+02 -0.36628575477E+03  0.37758387906E+03  0.89825784909E+02 0.  0.
         23    2    1    2    0    0  0.20076315048E+02  0.71819379290E+01 -0.71671047562E+02  0.11816826244E+03  0.91500603997E+02 0.  0.
        -11    1    4    4    0    0  0.19026897023E+02 -0.40597348438E+02 -0.24835764923E+02  0.51254099639E+02  0.00000000000E+00 0.  1.
         11    1    4    4    0    0  0.10494180250E+01  0.47779286367E+02 -0.46835282638E+02  0.66914162804E+02  0.00000000000E+00 0. -1.
        -13    1    3    3    0    0  0.73186041580E+01  0.36569715377E+02 -0.13464240890E+03  0.13971214809E+03  0.00000000000E+00 0.  1.
         13    1    3    3    0    0 -0.18206222818E+01 -0.54046332392E+02 -0.23164334587E+03  0.23787173098E+03  0.00000000000E+00 0. -1.
          2    1    1    2  501    0 -0.25574296924E+02  0.10294679086E+02 -0.69453960474E+01  0.28429977258E+02  0.00000000000E+00 0. -1.
<scales pt_clust_5="13000.00000" pt_clust_6="13000.00000" pt_clust_7="13000.00000" pt_clust_8="13000.00000" pt_clust_9="27.56855"></scales>
<clustering>
<clus scale="   27.569">  1  9  2 -1</clus>
<clus scale="   89.826">  7  8 -1 -1</clus>
<clus scale="   91.149">  2  7  1 -1</clus>
<clus scale="   91.501">  5  6 -1 -1</clus>
<clus scale="   27.569">  1  5  2 -1</clus>
</clustering>
</event>
<event>
 9    1  0.1504846E-005  0.3006368E+03  0.7546771E-02  0.1085029E+00
          2   -1    0    0  502    0 -0.00000000000E+00  0.00000000000E+00  0.53462596497E+03  0.53462596497E+03  0.00000000000E+00 0. -1.
         21   -1    0    0  501  502  0.00000000000E+00 -0.00000000000E+00 -0.25673627601E+03  0.25673627601E+03  0.00000000000E+00 0. -1.
         23    2    1    2    0    0  0.52895598466E+01 -0.26040014019E+03  0.20696428635E+03  0.34471481035E+03  0.90320939955E+02 0.  0.
         23    2    1    2    0    0 -0.30938337461E+02  0.33200362031E+03  0.10715316858E+03  0.36240154536E+03  0.93110117164E+02 0.  0.
        -11    1    3    3    0    0  0.41143398837E+02 -0.77541922909E+02  0.49652588600E+02  0.10085092281E+03  0.00000000000E+00 0.  1.
         11    1    3    3    0    0 -0.35853838991E+02 -0.18285821729E+03  0.15731169775E+03  0.24386388754E+03  0.00000000000E+00 0. -1.
        -13    1    4    4    0    0 -0.62905500840E+02  0.23530818810E+03  0.86580395837E+02  0.25850185757E+03  0.00000000000E+00 0.  1.
         13    1    4    4    0    0  0.31967163379E+02  0.96695432204E+02  0.20572772740E+02  0.10389968778E+03  0.00000000000E+00 0. -1.
          2    1    1    2  501    0  0.25648777614E+02 -0.71603480113E+02 -0.36227765971E+02  0.84245885268E+02  0.00000000000E+00 0. -1.
<scales pt_clust_5="13000.00000" pt_clust_6="13000.00000" pt_clust_7="13000.00000" pt_clust_8="13000.00000" pt_clust_9="76.05865"></scales>
<clustering>
<clus scale="   76.059">  2  9  1 -1</clus>
<clus scale="   90.321">  5  6 -1 -1</clus>
<clus scale="   93.110">  7  8 -1 -1</clus>
<clus scale="  299.785">  1  5  2 -1</clus>
<clus scale="   76.059">  2  5  1 -1</clus>
</clustering>
</event>
<event>
 9    1  0.1504846E-005  0.9744751E+02  0.7546771E-02  0.1286059E+00
          4   -1    0    0  502    0 -0.00000000000E+00  0.00000000000E+00  0.57611838055E+03  0.57611838055E+03  0.00000000000E+00 0.  1.
         21   -1    0    0  501  502  0.00000000000E+00 -0.00000000000E+00 -0.23692698084E+02  0.23692698084E+02  0.00000000000E+00 0. -1.
         23    2    1    2    0    0 -0.36820989950E+01  0.39615859150E+02  0.24525270108E+03  0.26504715543E+03  0.92293732526E+02 0.  0.
         23    2    1    2    0    0 -0.20366948107E+02 -0.19401047822E+02  0.18227893542E+03  0.20597914934E+03  0.91709249430E+02 0.  0.
        -13    1    4    4    0    0 -0.56489466946E+02 -0.18773719326E+02  0.12080590873E+03  0.13467583301E+03  0.00000000000E+00 0. -1.
         13    1    4    4    0    0  0.36122518839E+02 -0.62732849670E+00  0.61473026695E+02  0.71303316328E+02  0.00000000000E+00 0.  1.
        -13    1    3    3    0    0 -0.34876993495E+02 -0.48861313618E+01  0.16085600523E+03  0.16466612697E+03  0.00000000000E+00 0. -1.
         13    1    3    3    0    0  0.31194894500E+02  0.44501990511E+02  0.84396695852E+02  0.10038102845E+03  0.00000000000E+00 0.  1.
          4    1    1    2  501    0  0.24049047102E+02 -0.20214811327E+02  0.12489404596E+03  0.12878477387E+03  0.00000000000E+00 0.  1.
<scales pt_clust_5="13000.00000" pt_clust_6="13000.00000" pt_clust_7="13000.00000" pt_clust_8="13000.00000" pt_clust_9="31.41650"></scales>
<clustering>
<clus scale="   31.416">  2  9  1 -1</clus>
<clus scale="   91.709">  5  6 -1 -1</clus>
<clus scale="   92.294">  7  8 -1 -1</clus>
<clus scale="   96.894">  2  5  1 -1</clus>
<clus scale="   31.416">  2  5  1 -1</clus>
</clustering>
</event>
<event>
 9    1  0.1504846E-005  0.1026469E+03  0.7546771E-02  0.1275164E+00
          2   -1    0    0  502    0 -0.00000000000E+00  0.00000000000E+00  0.46435049407E+03  0.46435049407E+03  0.00000000000E+00 0. -1.
         21   -1    0    0  501  502  0.00000000000E+00 -0.00000000000E+00 -0.16770319718E+03  0.16770319718E+03  0.00000000000E+00 0.  1.
         23    2    1    2    0    0  0.26150331539E+02  0.36061779518E+02  0.42414157549E+03  0.43629604786E+03  0.92053644873E+02 0.  0.
         23    2    1    2    0    0 -0.15465553744E+02 -0.67588483205E+02 -0.10589909328E+03  0.15607830933E+03  0.91315027630E+02 0.  0.
        -11    1    3    3    0    0  0.41238229071E+02  0.59991193862E+02  0.33303644996E+03  0.34090000276E+03  0.00000000000E+00 0. -1.
         11    1    3    3    0    0 -0.15087897532E+02 -0.23929414344E+02  0.91105125533E+02  0.95396045102E+02  0.00000000000E+00 0.  1.
        -13    1    4    4    0    0 -0.39449090357E+02 -0.67566185714E+02 -0.10642409592E+03  0.13208901686E+03  0.00000000000E+00 0. -1.
         13    1    4    4    0    0  0.23983536613E+02 -0.22297490552E-01  0.52500263697E+00  0.23989292475E+02  0.00000000000E+00 0.  1.
          2    1    1    2  501    0 -0.10684777795E+02  0.31526703687E+02 -0.21595185327E+02  0.39679334057E+02  0.00000000000E+00 0. -1.
<scales pt_clust_5="13000.00000" pt_clust_6="13000.00000" pt_clust_7="13000.00000" pt_clust_8="13000.00000" pt_clust_9="33.28810"></scales>
<clustering>
<clus scale="   33.288">  2  9  1 -1</clus>
<clus scale="   91.315">  7  8 -1 -1</clus>
<clus scale="   92.054">  5  6 -1 -1</clus>
<clus scale="  101.985">  2  7  1 -1</clus>
<clus scale="   33.288">  2  5  1 -1</clus>
</clustering>
</event>
<event>
 9    1  0.1504846E-005  0.1059213E+03  0.7546771E-02  0.1269108E+00
         21   -1    0    0  501  502  0.00000000000E+00  0.00000000000E+00  0.12331168539E+03  0.12331168539E+03  0.00000000000E+00 0.  1.
          1   -1    0    0  502    0 -0.00000000000E+00 -0.00000000000E+00 -0.17376342874E+03  0.17376342874E+03  0.00000000000E+00 0. -1.
         23    2    1    2    0    0 -0.35550623096E+02 -0.35605852001E+02 -0.85724911106E+02  0.13517662527E+03  0.91609694559E+02 0.  0.
         23    2    1    2    0    0  0.10175027905E+02  0.70654760681E+02  0.27778940425E+02  0.11798368185E+03  0.89737691362E+02 0.  0.
        -13    1    4    4    0    0  0.39128312166E+02  0.40992121514E+02  0.45723954247E+02  0.72815237630E+02  0.00000000000E+00 0.  1.
         13    1    4    4    0    0 -0.28953284261E+02  0.29662639167E+02 -0.17945013822E+02  0.45168444216E+02  0.00000000000E+00 0. -1.
        -13    1    3    3    0    0  0.10777693200E+02 -0.52291252340E+02 -0.57304895739E+02  0.78322313663E+02  0.00000000000E+00 0.  1.
         13    1    3    3    0    0 -0.46328316296E+02  0.16685400339E+02 -0.28420015367E+02  0.56854311611E+02  0.00000000000E+00 0. -1.
          1    1    1    2  501    0  0.25375595191E+02 -0.35048908680E+02  0.74942273312E+01  0.43914807005E+02  0.00000000000E+00 0. -1.
<scales pt_clust_5="13000.00000" pt_clust_6="13000.00000" pt_clust_7="13000.00000" pt_clust_8="13000.00000" pt_clust_9="43.27062"></scales>
<clustering>
<clus scale="   43.271">  1  9  2 -1</clus>
<clus scale="   89.738">  5  6 -1 -1</clus>
<clus scale="   91.610">  7  8 -1 -1</clus>
<clus scale="  104.306">  1  5  2 -1</clus>
<clus scale="   43.271">  1  5  2 -1</clus>
</clustering>
</event>
<event>
 9    1  0.1504846E-005  0.9876379E+02  0.7546771E-02  0.1283625E+00
          4   -1    0    0  502    0 -0.00000000000E+00  0.00000000000E+00  0.97012648887E+02  0.97012648887E+02  0.00000000000E+00 0. -1.
         21   -1    0    0  501  502  0.00000000000E+00 -0.00000000000E+00 -0.29037823811E+03  0.29037823811E+03  0.00000000000E+00 0.  1.
         23    2    1    2    0    0 -0.62553912743E+02 -0.24424650972E+01  0.14278835102E+02  0.11154732567E+03  0.91213831716E+02 0.  0.
         23    2    1    2    0    0 -0.71768934716E+01  0.21069742649E+02 -0.56620661730E+02  0.10845916041E+03  0.89788909596E+02 0.  0.
        -13    1    4    4    0    0  0.39926929607E+02 -0.21423439435E+01 -0.23696225168E+02  0.46478601879E+02  0.00000000000E+00 0. -1.
         13    1    4    4    0    0 -0.47103823078E+02  0.23212086592E+02 -0.32924436562E+02  0.61980558528E+02  0.00000000000E+00 0.  1.
        -13    1    3    3    0    0 -0.25794839597E+02  0.41989235858E+02 -0.76156130480E+01  0.49864488765E+02  0.00000000000E+00 0.  1.
         13    1    3    3    0    0 -0.36759073147E+02 -0.44431700955E+02  0.21894448150E+02  0.61682836901E+02  0.00000000000E+00 0. -1.
          4    1    1    2  501    0  0.69730806215E+02 -0.18627277552E+02 -0.15102376260E+03  0.16738440093E+03  0.00000000000E+00 0. -1.
<scales pt_clust_5="13000.00000" pt_clust_6="13000.00000" pt_clust_7="13000.00000" pt_clust_8="13000.00000" pt_clust_9="72.17590"></scales>
<clustering>
<clus scale="   72.176">  2  9  1 -1</clus>
<clus scale="   89.789">  5  6 -1 -1</clus>
<clus scale="   91.214">  7  8 -1 -1</clus>
<clus scale="   97.449">  2  5  1 -1</clus>
<clus scale="   72.176">  2  5  1 -1</clus>
</clustering>
</event>
<event>
 9    1  0.1504846E-005  0.2582799E+03  0.7546771E-02  0.1108268E+00
          1   -1    0    0  502    0 -0.00000000000E+00  0.00000000000E+00  0.10707610713E+04  0.10707610713E+04  0.00000000000E+00 0. -1.
         21   -1    0    0  501  502  0.00000000000E+00 -0.00000000000E+00 -0.21938615698E+03  0.21938615698E+03  0.00000000000E+00 0. -1.
         23    2    1    2    0    0  0.23934168106E+03 -0.48918197105E+02  0.93161657304E+03  0.96749230658E+03  0.91948321452E+02 0.  0.
         23    2    1    2    0    0 -0.21897963650E+03  0.35751023615E+02 -0.76514464236E+00  0.23956157890E+03  0.90326893830E+02 0.  0.
        -11    1    4    4    0    0 -0.14662930175E+03  0.63779552788E+02  0.14245299749E+02  0.16053321167E+03  0.00000000000E+00 0.  1.
         11    1    4    4    0    0 -0.72350334749E+02 -0.28028529173E+02 -0.15010444391E+02  0.79028367228E+02  0.00000000000E+00 0. -1.
        -13    1    3    3    0    0  0.20601548699E+03 -0.51061012402E+02  0.88532650260E+03  0.91041343579E+03  0.00000000000E+00 0. -1.
         13    1    3    3    0    0  0.33326194064E+02  0.21428152970E+01  0.46290070443E+02  0.57078870782E+02  0.00000000000E+00 0.  1.
          1    1    1    2  501    0 -0.20362044557E+02  0.13167173490E+02 -0.79476514112E+02  0.83093342764E+02  0.00000000000E+00 0. -1.
<scales pt_clust_5="13000.00000" pt_clust_6="13000.00000" pt_clust_7="13000.00000" pt_clust_8="13000.00000" pt_clust_9="24.24845"></scales>
<clustering>
<clus scale="   24.248">  2  9  1 -1</clus>
<clus scale="   90.327">  5  6 -1 -1</clus>
<clus scale="   91.948">  7  8 -1 -1</clus>
<clus scale="  257.707">  2  5  1 -1</clus>
<clus scale="   24.248">  2  5  1 -1</clus>
</clustering>
</event>
<event>
 9    1  0.1504846E-005  0.1301204E+03  0.7546771E-02  0.1240082E+00
         -3   -1    0    0    0  501 -0.00000000000E+00  0.00000000000E+00  0.56423797121E+02  0.56423797121E+02  0.00000000000E+00 0.  1.
         21   -1    0    0  501  502  0.00000000000E+00 -0.00000000000E+00 -0.49680707538E+03  0.49680707538E+03  0.00000000000E+00 0.  1.
         23    2    1    2    0    0  0.54079901682E+02 -0.14997989033E+02 -0.12265670429E+03  0.15828576136E+03  0.82825960301E+02 0.  0.
         23    2    1    2    0    0  0.43098222399E+02  0.68765978440E+02 -0.12516168049E+03  0.17264841147E+03  0.86924168996E+02 0.  0.
        -11    1    4    4    0    0  0.24581060035E+02  0.81411743482E+02 -0.60932806442E+02  0.10461791142E+03  0.00000000000E+00 0.  1.
         11    1    4    4    0    0  0.18517162364E+02 -0.12645765043E+02 -0.64228874047E+02  0.68030500048E+02  0.00000000000E+00 0. -1.
        -11    1    3    3    0    0 -0.21825827447E+02 -0.64289059502E+01 -0.19770081799E+02  0.30142224699E+02  0.00000000000E+00 0. -1.
         11    1    3    3    0    0  0.75905729129E+02 -0.85690830831E+01 -0.10288662249E+03  0.12814353666E+03  0.00000000000E+00 0.  1.
         -3    1    1    2    0  502 -0.97178124081E+02 -0.53767989406E+02 -0.19256489348E+03  0.22229669967E+03  0.00000000000E+00 0.  1.
<scales pt_clust_5="13000.00000" pt_clust_6="13000.00000" pt_clust_7="13000.00000" pt_clust_8="13000.00000" pt_clust_9="96.82716"></scales>
<clustering>
<clus scale="   82.826">  7  8 -1 -1</clus>
<clus scale="   86.924">  5  6 -1 -1</clus>
<clus scale="  100.049">  1  7  2 -1</clus>
<clus scale="   96.827">  2  9  1 -1</clus>
<clus scale="   96.827">  2  5  1 -1</clus>
</clustering>
</event>
<event>
 9    1  0.1504846E-005  0.1202230E+03  0.7546771E-02  0.1243289E+00
         -1   -1    0    0    0  501 -0.00000000000E+00  0.00000000000E+00  0.16423315830E+03  0.16423315830E+03  0.00000000000E+00 0.  1.
         21   -1    0    0  501  502  0.00000000000E+00 -0.00000000000E+00 -0.19753842399E+03  0.19753842399E+03  0.00000000000E+00 0. -1.
         23    2    1    2    0    0 -0.38214072177E+02  0.60362084943E+02  0.88205261087E+02  0.14570475821E+03  0.91355415113E+02 0.  0.
         23    2    1    2    0    0  0.63572767953E+02 -0.83404092713E+02 -0.71235504187E+02  0.15522624987E+03  0.89570933255E+02 0.  0.
        -13    1    4    4    0    0  0.59582993181E+02 -0.12675576332E+02 -0.10295197819E+02  0.61780210504E+02  0.00000000000E+00 0. -1.
         13    1    4    4    0    0  0.39897747717E+01 -0.70728516380E+02 -0.60940306369E+02  0.93446039362E+02  0.00000000000E+00 0.  1.
        -13    1    3    3    0    0 -0.64544976691E+02  0.58384447278E+02  0.53741966737E+02  0.10228879063E+03  0.00000000000E+00 0.  1.
         13    1    3    3    0    0  0.26330904514E+02  0.19776376653E+01  0.34463294351E+02  0.43415967579E+02  0.00000000000E+00 0. -1.
         -1    1    1    2    0  502 -0.25358695776E+02  0.23042007770E+02 -0.50275022595E+02  0.60840574212E+02  0.00000000000E+00 0.  1.
<scales pt_clust_5="13000.00000" pt_clust_6="13000.00000" pt_clust_7="13000.00000" pt_clust_8="13000.00000" pt_clust_9="34.26365"></scales>
<clustering>
<clus scale="   34.264">  2  9  1 -1</clus>
<clus scale="   89.571">  5  6 -1 -1</clus>
<clus scale="   91.355">  7  8 -1 -1</clus>
<clus scale="  118.873">  2  5  1 -1</clus>
<clus scale="   34.264">  2  5  1 -1</clus>
</clustering>
</event>
<event>
 9    1  0.1504846E-005  0.1146130E+03  0.7546771E-02  0.1253292E+00
         -3   -1    0    0    0  501 -0.00000000000E+00  0.00000000000E+00  0.98004720440E+03  0.98004720440E+03  0.00000000000E+00 0.  1.
         21   -1    0    0  501  502  0.00000000000E+00 -0.00000000000E+00 -0.20997388224E+02  0.20997388224E+02  0.00000000000E+00 0. -1.
         23    2    1    2    0    0  0.68381089095E+02  0.40198966204E+02  0.59363028254E+03  0.60609326782E+03  0.93060231671E+02 0.  0.
         23    2    1    2    0    0 -0.34173759815E+02 -0.40084637164E+02  0.32813516138E+03  0.34435212657E+03  0.90172495470E+02 0.  0.
        -11    1    4    4    0    0 -0.35643662465E+02 -0.64293995658E+02  0.28988098400E+03  0.29905714076E+03  0.00000000000E+00 0.  1.
         11    1    4    4    0    0  0.14699026498E+01  0.24209358494E+02  0.38254177381E+02  0.45294985811E+02  0.00000000000E+00 0. -1.
        -13    1    3    3    0    0  0.90760399243E+02  0.27206954590E+02  0.50275052982E+03  0.51160117639E+03  0.00000000000E+00 0. -1.
         13    1    3    3    0    0 -0.22379310148E+02  0.12992011614E+02  0.90879752722E+02  0.94492091433E+02  0.00000000000E+00 0.  1.
         -3    1    1    2    0  502 -0.34207329280E+02 -0.11432904044E+00  0.37284372244E+02  0.50599198227E+02  0.00000000000E+00 0.  1.
<scales pt_clust_5="13000.00000" pt_clust_6="13000.00000" pt_clust_7="13000.00000" pt_clust_8="13000.00000" pt_clust_9="34.20752"></scales>
<clustering>
<clus scale="   34.208">  2  9  1 -1</clus>
<clus scale="   90.172">  5  6 -1 -1</clus>
<clus scale="   93.060">  7  8 -1 -1</clus>
<clus scale="  112.281">  2  5  1 -1</clus>
<clus scale="   34.208">  2  5  1 -1</clus>
</clustering>
</event>
<event>
 9    1  0.1504846E-005  0.9779884E+02  0.7546771E-02  0.1285196E+00
         21   -1    0    0  501  502  0.00000000000E+00  0.00000000000E+00  0.18814321553E+03  0.18814321553E+03  0.00000000000E+00 0. -1.
          3   -1    0    0  502    0 -0.00000000000E+00 -0.00000000000E+00 -0.86486825658E+02  0.86486825658E+02  0.00000000000E+00 0. -1.
         23    2    1    2    0    0 -0.40213921905E+02  0.23787259522E+02  0.89841936994E+01  0.10274750568E+03  0.91067782209E+02 0.  0.
         23    2    1    2    0    0  0.39741680511E+01 -0.27190171530E+02  0.31252524410E+02  0.10048732804E+03  0.91465203087E+02 0.  0.
        -13    1    3    3    0    0  0.24686950886E+02 -0.53559036830E+01  0.18023244924E+02  0.31031735464E+02  0.00000000000E+00 0.  1.
         13    1    3    3    0    0 -0.64900872791E+02  0.29143163205E+02 -0.90390512243E+01  0.71715770216E+02  0.00000000000E+00 0. -1.
        -13    1    4    4    0    0  0.44551158117E+02  0.32382750943E+01  0.12161793870E+02  0.46294722650E+02  0.00000000000E+00 0.  1.
         13    1    4    4    0    0 -0.40576990066E+02 -0.30428446624E+02  0.19090730540E+02  0.54192605393E+02  0.00000000000E+00 0. -1.
          3    1    1    2  501    0  0.36239753854E+02  0.34029120076E+01  0.61419671764E+02  0.71395207466E+02  0.00000000000E+00 0. -1.
<scales pt_clust_5="13000.00000" pt_clust_6="13000.00000" pt_clust_7="13000.00000" pt_clust_8="13000.00000" pt_clust_9="36.39917"></scales>
<clustering>
<clus scale="   36.399">  1  9  2 -1</clus>
<clus scale="   91.068">  5  6 -1 -1</clus>
<clus scale="   91.465">  7  8 -1 -1</clus>
<clus scale="   97.427">  2  5  1 -1</clus>
<clus scale="   36.399">  1  5  2 -1</clus>
</clustering>
</event>
<event>
 9    1  0.1504846E-005  0.1028649E+03  0.7546771E-02  0.1274978E+00
         21   -1    0    0  501  502  0.00000000000E+00  0.00000000000E+00  0.25405993069E+02  0.25405993069E+02  0.00000000000E+00 0.  1.
          1   -1    0    0  502    0 -0.00000000000E+00 -0.00000000000E+00 -0.76584240926E+03  0.76584240926E+03  0.00000000000E+00 0. -1.
         23    2    1    2    0    0  0.16251321227E+02 -0.50314310468E+02 -0.47201569139E+03  0.48373449596E+03  0.91676683959E+02 0.  0.
         23    2    1    2    0    0  0.12753457522E+01  0.28665870726E+02 -0.10392404493E+03  0.14067567128E+03  0.90366358370E+02 0.  0.
        -11    1    3    3    0    0  0.34179902904E+02 -0.66364304721E+02 -0.41783021840E+03  0.42444620167E+03  0.00000000000E+00 0. -1.
         11    1    3    3    0    0 -0.17928581677E+02  0.16049994253E+02 -0.54185472994E+02  0.59288294293E+02  0.00000000000E+00 0.  1.
        -13    1    4    4    0    0  0.43461800915E+02  0.23669732521E+02 -0.38641521983E+02  0.62788148544E+02  0.00000000000E+00 0.  1.
         13    1    4    4    0    0 -0.42186455163E+02  0.49961382046E+01 -0.65282522943E+02  0.77887522737E+02  0.00000000000E+00 0. -1.
          1    1    1    2  501    0 -0.17526666979E+02  0.21648439742E+02 -0.16449667987E+03  0.16683823509E+03  0.00000000000E+00 0. -1.
<scales pt_clust_5="13000.00000" pt_clust_6="13000.00000" pt_clust_7="13000.00000" pt_clust_8="13000.00000" pt_clust_9="27.85390"></scales>
<clustering>
<clus scale="   27.854">  1  9  2 -1</clus>
<clus scale="   90.366">  7  8 -1 -1</clus>
<clus scale="   91.677">  5  6 -1 -1</clus>
<clus scale="  101.699">  1  7  2 -1</clus>
<clus scale="   27.854">  1  5  2 -1</clus>
</clustering>
</event>
<event>
 9    1  0.1504846E-005  0.1058118E+03  0.7546771E-02  0.1270928E+00
          1   -1    0    0  502    0 -0.00000000000E+00  0.00000000000E+00  0.54610286890E+03  0.54610286890E+03  0.00000000000E+00 0. -1.
         21   -1    0    0  501  502  0.00000000000E+00 -0.00000000000E+00 -0.88142188115E+02  0.88142188115E+02  0.00000000000E+00 0.  1.
         23    2    1    2    0    0 -0.14862623931E+02 -0.21074443218E+02  0.32415364409E+03  0.33933665527E+03  0.96998715901E+02 0.  0.
         23    2    1    2    0    0  0.69131764406E+02  0.55472755933E+02  0.17649524519E+03  0.21776783737E+03  0.91737843435E+02 0.  0.
        -11    1    4    4    0    0 -0.12102019604E+02  0.42359304873E+02  0.76403911921E+02  0.88194826065E+02  0.00000000000E+00 0. -1.
         11    1    4    4    0    0  0.81233784011E+02  0.13113451060E+02  0.10009133327E+03  0.12957301131E+03  0.00000000000E+00 0.  1.
        -13    1    3    3    0    0  0.41057884864E+02 -0.41510084116E+01  0.15392314434E+03  0.15935907613E+03  0.00000000000E+00 0.  1.
         13    1    3    3    0    0 -0.55920508795E+02 -0.16923434806E+02  0.17023049975E+03  0.17997757914E+03  0.00000000000E+00 0. -1.
          1    1    1    2  501    0 -0.54269140476E+02 -0.34398312716E+02 -0.42688208501E+02  0.77140564366E+02  0.00000000000E+00 0. -1.
<scales pt_clust_5="13000.00000" pt_clust_6="13000.00000" pt_clust_7="13000.00000" pt_clust_8="13000.00000" pt_clust_9="64.25250"></scales>
<clustering>
<clus scale="   64.252">  2  9  1 -1</clus>
<clus scale="   91.738">  5  6 -1 -1</clus>
<clus scale="   96.999">  7  8 -1 -1</clus>
<clus scale="  101.011">  2  5  1 -1</clus>
<clus scale="   64.252">  2  5  1 -1</clus>
</clustering>
</event>
<event>
 9    1  0.1504846E-005  0.1121219E+03  0.7546771E-02  0.1258127E+00
          2   -1    0    0  502    0 -0.00000000000E+00  0.00000000000E+00  0.23724894457E+03  0.23724894457E+03  0.00000000000E+00 0. -1.
         21   -1    0    0  501  502  0.00000000000E+00 -0.00000000000E+00 -0.18896421688E+03  0.18896421688E+03  0.00000000000E+00 0. -1.
         23    2    1    2    0    0 -0.22945137101E+02  0.59855491535E+02  0.15598815564E+03  0.18977170060E+03  0.87016288507E+02 0.  0.
         23    2    1    2    0    0  0.52868230702E+02 -0.53669358644E+02  0.64728926330E+01  0.11824716339E+03  0.90912284293E+02 0.  0.
        -11    1    3    3    0    0 -0.50046647844E+02  0.98755744960E+01  0.67854059576E+02  0.84890325320E+02  0.00000000000E+00 0.  1.
         11    1    3    3    0    0  0.27101510743E+02  0.49979917039E+02  0.88134096063E+02  0.10488137528E+03  0.00000000000E+00 0. -1.
        -13    1    4    4    0    0  0.67598205284E+02 -0.70913251634E+01  0.12218960534E+02  0.69058723176E+02  0.00000000000E+00 0. -1.
         13    1    4    4    0    0 -0.14729974582E+02 -0.46578033480E+02 -0.57460679006E+01  0.49188440211E+02  0.00000000000E+00 0.  1.
          2    1    1    2  501    0 -0.29923093600E+02 -0.61861328916E+01 -0.11417632059E+03  0.11819429747E+03  0.00000000000E+00 0. -1.
<scales pt_clust_5="13000.00000" pt_clust_6="13000.00000" pt_clust_7="13000.00000" pt_clust_8="13000.00000" pt_clust_9="30.55585"></scales>
<clustering>
<clus scale="   30.556">  2  9  1 -1</clus>
<clus scale="   87.016">  5  6 -1 -1</clus>
<clus scale="   90.912">  7  8 -1 -1</clus>
<clus scale="  108.987">  1  5  2 -1</clus>
<clus scale="   30.556">  2  5  1 -1</clus>
</clustering>
</event>
<event>
 9    1  0.1504846E-005  0.1111843E+03  0.7546771E-02  0.1258782E+00
          1   -1    0    0  502    0 -0.00000000000E+00  0.00000000000E+00  0.35423360451E+03  0.35423360451E+03  0.00000000000E+00 0. -1.
         21   -1    0    0  501  502  0.00000000000E+00 -0.00000000000E+00 -0.10584978124E+03  0.10584978124E+03  0.00000000000E+00 0. -1.
         23    2    1    2    0    0 -0.39553734305E+02  0.43207381914E+02  0.21075765165E+03  0.23646857025E+03  0.89817711165E+02 0.  0.
         23    2    1    2    0    0  0.11202678660E+03 -0.26769711628E+02  0.16446314280E+02  0.14634174987E+03  0.88762650506E+02 0.  0.
        -11    1    4    4    0    0  0.34866277071E+02 -0.53398075514E+02  0.82733046938E+01  0.64307537007E+02  0.00000000000E+00 0.  1.
         11    1    4    4    0    0  0.77160509533E+02  0.26628363886E+02  0.81730095858E+01  0.82034212864E+02  0.00000000000E+00 0. -1.
        -13    1    3    3    0    0  0.20230223049E+02  0.16752360474E+02  0.15367178404E+02  0.30431130083E+02  0.00000000000E+00 0.  1.
         13    1    3    3    0    0 -0.59783957354E+02  0.26455021441E+02  0.19539047325E+03  0.20603744017E+03  0.00000000000E+00 0. -1.
          1    1    1    2  501    0 -0.72473052298E+02 -0.16437670286E+02  0.21179857338E+02  0.77273065623E+02  0.00000000000E+00 0. -1.
<scales pt_clust_5="13000.00000" pt_clust_6="13000.00000" pt_clust_7="13000.00000" pt_clust_8="13000.00000" pt_clust_9="74.31380"></scales>
<clustering>
<clus scale="   74.314">  2  9  1 -1</clus>
<clus scale="   88.763">  5  6 -1 -1</clus>
<clus scale="   89.818">  7  8 -1 -1</clus>
<clus scale="  110.334">  2  5  1 -1</clus>
<clus scale="   74.314">  2  5  1 -1</clus>
</clustering>
</event>
<event>
 9    1  0.1504846E-005  0.1413689E+03  0.7546771E-02  0.1215055E+00
          2   -1    0    0  502    0 -0.00000000000E+00  0.00000000000E+00  0.11766202188E+04  0.11766202188E+04  0.00000000000E+00 0. -1.
         21   -1    0    0  501  502  0.00000000000E+00 -0.00000000000E+00 -0.35657102079E+02  0.35657102079E+02  0.00000000000E+00 0. -1.
         23    2    1    2    0    0  0.44559529180E+02  0.86827296596E+02  0.63217980970E+03  0.64808924870E+03  0.10413371893E+03 0.  0.
         23    2    1    2    0    0 -0.62110043835E+02 -0.71857216736E+02  0.52166219196E+03  0.53776858066E+03  0.89679912348E+02 0.  0.
        -11    1    3    3    0    0  0.68576964105E+02  0.20466186991E+02  0.34742109222E+03  0.35471549182E+03  0.00000000000E+00 0.  1.
         11    1    3    3    0    0 -0.24017434925E+02  0.66361109605E+02  0.28475871748E+03  0.29337375689E+03  0.00000000000E+00 0. -1.
        -13    1    4    4    0    0 -0.84620293722E+02 -0.47427774788E+02  0.36937271126E+03  0.38189813793E+03  0.00000000000E+00 0. -1.
         13    1    4    4    0    0  0.22510249887E+02 -0.24429441949E+02  0.15228948070E+03  0.15587044273E+03  0.00000000000E+00 0.  1.
          2    1    1    2  501    0  0.17550514655E+02 -0.14970079860E+02 -0.12878884929E+02  0.26419491530E+02  0.00000000000E+00 0. -1.
<scales pt_clust_5="13000.00000" pt_clust_6="13000.00000" pt_clust_7="13000.00000" pt_clust_8="13000.00000" pt_clust_9="23.06781"></scales>
<clustering>
<clus scale="   23.068">  2  9  1 -1</clus>
<clus scale="   89.680">  7  8 -1 -1</clus>
<clus scale="  104.134">  5  6 -1 -1</clus>
<clus scale="  131.087">  2  7  1 -1</clus>
<clus scale="   23.068">  2  5  1 -1</clus>
</clustering>
</event>
<event>
 9    1  0.1504846E-005  0.1534761E+03  0.7546771E-02  0.1197401E+00
          2   -1    0    0  502    0 -0.00000000000E+00  0.00000000000E+00  0.99245139640E+03  0.99245139640E+03  0.00000000000E+00 0. -1.
         21   -1    0    0  501  502  0.00000000000E+00 -0.00000000000E+00 -0.45032413944E+02  0.45032413944E+02  0.00000000000E+00 0. -1.
         23    2    1    2    0    0  0.10225898630E+03  0.43780298371E+02  0.62945579487E+03  0.64669328236E+03  0.98101931454E+02 0.  0.
         23    2    1    2    0    0 -0.14570511692E+03 -0.12250794118E+02  0.22906801392E+03  0.28694435422E+03  0.92113214921E+02 0.  0.
        -11    1    4    4    0    0 -0.48977440379E+02 -0.35918383802E+02  0.38454686502E+02  0.71886597326E+02  0.00000000000E+00 0.  1.
         11    1    4    4    0    0 -0.96727676540E+02  0.23667589684E+02  0.19061332742E+03  0.21505775689E+03  0.00000000000E+00 0. -1.
        -13    1    3    3    0    0  0.11987355578E+03  0.25233631742E+02  0.50624124299E+03  0.52085180392E+03  0.00000000000E+00 0. -1.
         13    1    3    3    0    0 -0.17614569482E+02  0.18546666628E+02  0.12321455188E+03  0.12584147844E+03  0.00000000000E+00 0.  1.
          2    1    1    2  501    0  0.43446130618E+02 -0.31529504252E+02  0.88895173673E+02  0.10384617377E+03  0.00000000000E+00 0. -1.
<scales pt_clust_5="13000.00000" pt_clust_6="13000.00000" pt_clust_7="13000.00000" pt_clust_8="13000.00000" pt_clust_9="53.68124"></scales>
<clustering>
<clus scale="   53.681">  2  9  1 -1</clus>
<clus scale="   92.113">  5  6 -1 -1</clus>
<clus scale="   98.102">  7  8 -1 -1</clus>
<clus scale="  149.719">  2  5  1 -1</clus>
<clus scale="   53.681">  2  5  1 -1</clus>
</clustering>
</event>
<event>
 9    1  0.2003285E-005  0.1190817E+03  0.7546771E-02  0.1244874E+00
         21   -1    0    0  501  502  0.00000000000E+00  0.00000000000E+00  0.83626674141E+02  0.83626674141E+02  0.00000000000E+00 0. -1.
          2   -1    0    0  502    0 -0.00000000000E+00 -0.00000000000E+00 -0.66240479590E+03  0.66240479590E+03  0.00000000000E+00 0. -1.
         23    2    1    2    0    0 -0.39747562066E+02 -0.64537852057E+02 -0.56371967908E+03  0.57613523334E+03  0.91689298637E+02 0.  0.
         23    2    1    2    0    0  0.72344322139E+02  0.46158133995E+02  0.91272304959E+01  0.12533942363E+03  0.90897692493E+02 0.  0.
        -11    1    3    3    0    0 -0.14536391761E+02  0.23321118183E+02 -0.13922423288E+03  0.14191042336E+03  0.00000000000E+00 0.  1.
         11    1    3    3    0    0 -0.25211170305E+02 -0.87858970240E+02 -0.42449544620E+03  0.43422480998E+03  0.00000000000E+00 0. -1.
        -11    1    4    4    0    0  0.10265523691E+02 -0.26533760663E+02  0.86838040019E+01  0.29746090222E+02  0.00000000000E+00 0.  1.
         11    1    4    4    0    0  0.62078798448E+02  0.72691894658E+02  0.44342649394E+00  0.95593333411E+02  0.00000000000E+00 0. -1.
          2    1    1    2  501    0 -0.32596760073E+02  0.18379718062E+02 -0.24185673181E+02  0.44556813065E+02  0.00000000000E+00 0. -1.
<scales pt_clust_5="13000.00000" pt_clust_6="13000.00000" pt_clust_7="13000.00000" pt_clust_8="13000.00000" pt_clust_9="37.42142"></scales>
<clustering>
<clus scale="   37.421">  1  9  2 -1</clus>
<clus scale="   90.898">  7  8 -1 -1</clus>
<clus scale="   91.689">  5  6 -1 -1</clus>
<clus scale="  118.473">  1  7  2 -1</clus>
<clus scale="   37.421">  1  5  2 -1</clus>
</clustering>
</event>
<event>
 9    1  0.1504846E-005  0.1324645E+03  0.7546771E-02  0.1224810E+00
         21   -1    0    0  501  502  0.00000000000E+00  0.00000000000E+00  0.56274833906E+02  0.56274833906E+02  0.00000000000E+00 0. -1.
          3   -1    0    0  502    0 -0.00000000000E+00 -0.00000000000E+00 -0.55963563617E+03  0.55963563617E+03  0.00000000000E+00 0. -1.
         23    2    1    2    0    0 -0.71868495672E+02 -0.72685530599E+02 -0.22214667621E+03  0.26114728671E+03  0.91654201062E+02 0.  0.
         23    2    1    2    0    0  0.97323457305E+02 -0.11929788065E+01 -0.20052613106E+03  0.24243980308E+03  0.95357487070E+02 0.  0.
        -11    1    3    3    0    0 -0.88035649180E+02 -0.48478801473E+02 -0.20238204180E+03  0.22596229898E+03  0.00000000000E+00 0. -1.
         11    1    3    3    0    0  0.16167153507E+02 -0.24206729126E+02 -0.19764634413E+02  0.35184987722E+02  0.00000000000E+00 0.  1.
        -11    1    4    4    0    0  0.80533163520E+01 -0.24941301606E+02 -0.56975942141E+01  0.26821390902E+02  0.00000000000E+00 0.  1.
         11    1    4    4    0    0  0.89270140953E+02  0.23748322799E+02 -0.19482853685E+03  0.21561841218E+03  0.00000000000E+00 0. -1.
          3    1    1    2  501    0 -0.25454961633E+02  0.73878509406E+02 -0.80687994983E+02  0.11232338028E+03  0.00000000000E+00 0. -1.
<scales pt_clust_5="13000.00000" pt_clust_6="13000.00000" pt_clust_7="13000.00000" pt_clust_8="13000.00000" pt_clust_9="78.14083"></scales>
<clustering>
<clus scale="   78.141">  1  9  2 -1</clus>
<clus scale="   91.654">  5  6 -1 -1</clus>
<clus scale="   95.357">  7  8 -1 -1</clus>
<clus scale="  129.824">  2  5  1 -1</clus>
<clus scale="   78.141">  1  5  2 -1</clus>
</clustering>
</event>
<event>
 9    1  0.1504846E-005  0.1010140E+03  0.7546771E-02  0.1280604E+00
          3   -1    0    0  502    0 -0.00000000000E+00  0.00000000000E+00  0.53384660258E+03  0.53384660258E+03  0.00000000000E+00 0. -1.
         21   -1    0    0  501  502  0.00000000000E+00 -0.00000000000E+00 -0.32354121270E+02  0.32354121270E+02  0.00000000000E+00 0.  1.
         23    2    1    2    0    0  0.11618383060E+02 -0.16167650723E+02  0.23107611762E+03  0.24932918288E+03  0.91501308968E+02 0.  0.
         23    2    1    2    0    0 -0.56616764826E+02 -0.56968344521E+01  0.21399155303E+03  0.24146153281E+03  0.96298364869E+02 0.  0.
        -11    1    4    4    0    0 -0.22283127570E+02 -0.50193005968E+02  0.11958634072E+03  0.13159319325E+03  0.00000000000E+00 0. -1.
         11    1    4    4    0    0 -0.34333637256E+02  0.44496171516E+02  0.94405212311E+02  0.10986833956E+03  0.00000000000E+00 0.  1.
        -13    1    3    3    0    0  0.47579775692E+02 -0.21443914175E+02  0.93997164889E+02  0.10751345738E+03  0.00000000000E+00 0. -1.
         13    1    3    3    0    0 -0.35961392631E+02  0.52762634521E+01  0.13707895273E+03  0.14181572550E+03  0.00000000000E+00 0.  1.
          3    1    1    2  501    0  0.44998381766E+02  0.21864485175E+02  0.56424810654E+02  0.75410008161E+02  0.00000000000E+00 0. -1.
<scales pt_clust_5="13000.00000" pt_clust_6="13000.00000" pt_clust_7="13000.00000" pt_clust_8="13000.00000" pt_clust_9="50.02909"></scales>
<clustering>
<clus scale="   50.029">  2  9  1 -1</clus>
<clus scale="   91.501">  7  8 -1 -1</clus>
<clus scale="   96.298">  5  6 -1 -1</clus>
<clus scale="   96.452">  1  7  2 -1</clus>
<clus scale="   50.029">  2  5  1 -1</clus>
</clustering>
</event>
<event>
 9    1  0.1504846E-005  0.1153257E+03  0.7546771E-02  0.1258639E+00
          1   -1    0    0  502    0 -0.00000000000E+00  0.00000000000E+00  0.14759586847E+03  0.14759586847E+03  0.00000000000E+00 0. -1.
         21   -1    0    0  501  502  0.00000000000E+00 -0.00000000000E+00 -0.11820879929E+03  0.11820879929E+03  0.00000000000E+00 0.  1.
         23    2    1    2    0    0  0.41797104100E+02  0.66863739630E+01  0.64862258761E+02  0.13463345242E+03  0.11012424070E+03 0.  0.
         23    2    1    2    0    0 -0.22674717588E+02  0.19063899081E+01 -0.73194544221E+01  0.96067843998E+02  0.93046650112E+02 0.  0.
        -11    1    3    3    0    0 -0.19499889790E+02 -0.33214042746E+02  0.26365396126E+01  0.38605306351E+02  0.00000000000E+00 0.  1.
         11    1    3    3    0    0  0.61296993890E+02  0.39900416709E+02  0.62225719148E+02  0.96028146067E+02  0.00000000000E+00 0. -1.
        -13    1    4    4    0    0 -0.46246581649E+02  0.32832567017E+02 -0.13905377544E+01  0.56733212199E+02  0.00000000000E+00 0.  1.
         13    1    4    4    0    0  0.23571864061E+02 -0.30926177109E+02 -0.59289166677E+01  0.39334631799E+02  0.00000000000E+00 0. -1.
          1    1    1    2  501    0 -0.19122386512E+02 -0.85927638711E+01 -0.28155735163E+02  0.35103371340E+02  0.00000000000E+00 0. -1.
<scales pt_clust_5="13000.00000" pt_clust_6="13000.00000" pt_clust_7="13000.00000" pt_clust_8="13000.00000" pt_clust_9="20.96429"></scales>
<clustering>
<clus scale="   20.964">  2  9  1 -1</clus>
<clus scale="   93.047">  7  8 -1 -1</clus>
<clus scale="   99.148">  2  7  1 -1</clus>
<clus scale="  110.124">  5  6 -1 -1</clus>
<clus scale="   20.964">  2  5  1 -1</clus>
</clustering>
</event>
<event>
 9    1  0.1504846E-005  0.1112694E+03  0.7546771E-02  0.1258300E+00
          1   -1    0    0  502    0 -0.00000000000E+00  0.00000000000E+00  0.32288958506E+03  0.32288958506E+03  0.00000000000E+00 0. -1.
         21   -1    0    0  501  502  0.00000000000E+00 -0.00000000000E+00 -0.65238666238E+02  0.65238666238E+02  0.00000000000E+00 0.  1.
         23    2    1    2    0    0 -0.46510015097E+02 -0.28139563637E+02  0.16946640426E+03  0.20005501140E+03  0.91368095446E+02 0.  0.
         23    2    1    2    0    0  0.59464453390E+02  0.57803042206E+02  0.94213084441E+02  0.15514782286E+03  0.91200486585E+02 0.  0.
        -11    1    4    4    0    0  0.43013193639E+02 -0.66197061448E+01  0.48884035748E+01  0.43793285170E+02  0.00000000000E+00 0.  1.
         11    1    4    4    0    0  0.16451259750E+02  0.64422748351E+02  0.89324680866E+02  0.11135453769E+03  0.00000000000E+00 0. -1.
        -13    1    3    3    0    0 -0.72165194582E+02 -0.15680940692E+02  0.14394313816E+03  0.16178174876E+03  0.00000000000E+00 0. -1.
         13    1    3    3    0    0  0.25655179485E+02 -0.12458622945E+02  0.25523266106E+02  0.38273262636E+02  0.00000000000E+00 0.  1.
          1    1    1    2  501    0 -0.12954438293E+02 -0.29663478569E+02 -0.60285698838E+01  0.32925417038E+02  0.00000000000E+00 0. -1.
<scales pt_clust_5="13000.00000" pt_clust_6="13000.00000" pt_clust_7="13000.00000" pt_clust_8="13000.00000" pt_clust_9="32.36880"></scales>
<clustering>
<clus scale="   32.369">  2  9  1 -1</clus>
<clus scale="   91.200">  5  6 -1 -1</clus>
<clus scale="   91.368">  7  8 -1 -1</clus>
<clus scale="  111.132">  2  5  1 -1</clus>
<clus scale="   32.369">  2  5  1 -1</clus>
</clustering>
</event>
<event>
 9    1  0.1504846E-005  0.2128214E+03  0.7546771E-02  0.1140686E+00
         21   -1    0    0  501  502  0.00000000000E+00  0.00000000000E+00  0.89430316154E+02  0.89430316154E+02  0.00000000000E+00 0. -1.
          1   -1    0    0  502    0 -0.00000000000E+00 -0.00000000000E+00 -0.85591494533E+03  0.85591494533E+03  0.00000000000E+00 0. -1.
         23    2    1    2    0    0 -0.59359999371E+02 -0.17258275564E+03 -0.57198008273E+03  0.60758368536E+03  0.93211064801E+02 0.  0.
         23    2    1    2    0    0  0.61405026703E+02  0.21351190653E+03 -0.16143383154E+03  0.28510182192E+03  0.76578426227E+02 0.  0.
        -11    1    3    3    0    0  0.18178357506E+02 -0.82261291965E+02 -0.27570102166E+03  0.28828532079E+03  0.00000000000E+00 0.  1.
         11    1    3    3    0    0 -0.77538356876E+02 -0.90321463680E+02 -0.29627906108E+03  0.31929836457E+03  0.00000000000E+00 0. -1.
        -11    1    4    4    0    0  0.43464642440E+02  0.18756748072E+03 -0.16472534306E+03  0.25338739829E+03  0.00000000000E+00 0. -1.
         11    1    4    4    0    0  0.17940384263E+02  0.25944425803E+02  0.32915115237E+01  0.31714423625E+02  0.00000000000E+00 0.  1.
          1    1    1    2  501    0 -0.20450273324E+01 -0.40929150881E+02 -0.33070714905E+02  0.52659754205E+02  0.00000000000E+00 0. -1.
<scales pt_clust_5="13000.00000" pt_clust_6="13000.00000" pt_clust_7="13000.00000" pt_clust_8="13000.00000" pt_clust_9="40.98021"></scales>
<clustering>
<clus scale="   40.980">  1  9  2 -1</clus>
<clus scale="   76.578">  7  8 -1 -1</clus>
<clus scale="   93.211">  5  6 -1 -1</clus>
<clus scale="  206.080">  1  7  2 -1</clus>
<clus scale="   40.980">  1  5  2 -1</clus>
</clustering>
</event>
<event>
 9    1  0.1504846E-005  0.1102909E+03  0.7546771E-02  0.1260327E+00
          1   -1    0    0  502    0 -0.00000000000E+00  0.00000000000E+00  0.52570145111E+03  0.52570145111E+03  0.00000000000E+00 0. -1.
         21   -1    0    0  501  502  0.00000000000E+00 -0.00000000000E+00 -0.11463963007E+03  0.11463963007E+03  0.00000000000E+00 0. -1.
         23    2    1    2    0    0 -0.20710073536E+02 -0.75915348428E+02  0.38812401577E+03  0.40655629168E+03  0.91954985766E+02 0.  0.
         23    2    1    2    0    0  0.24208867661E+02  0.16649184443E+02  0.98686226117E+02  0.13754268326E+03  0.91190755441E+02 0.  0.
        -13    1    4    4    0    0  0.81386290753E+01 -0.28262095824E+02  0.81825590533E+02  0.86950621675E+02  0.00000000000E+00 0. -1.
         13    1    4    4    0    0  0.16070238586E+02  0.44911280267E+02  0.16860635584E+02  0.50592061588E+02  0.00000000000E+00 0.  1.
        -13    1    3    3    0    0 -0.41384591042E+02 -0.29796701118E+02  0.84047886221E+02  0.98308570082E+02  0.00000000000E+00 0.  1.
         13    1    3    3    0    0  0.20674517506E+02 -0.46118647310E+02  0.30407612955E+03  0.30824772159E+03  0.00000000000E+00 0. -1.
          1    1    1    2  501    0 -0.34987941246E+01  0.59266163985E+02 -0.75748420847E+02  0.96242106246E+02  0.00000000000E+00 0. -1.
<scales pt_clust_5="13000.00000" pt_clust_6="13000.00000" pt_clust_7="13000.00000" pt_clust_8="13000.00000" pt_clust_9="59.36935"></scales>
<clustering>
<clus scale="   59.369">  2  9  1 -1</clus>
<clus scale="   91.191">  5  6 -1 -1</clus>
<clus scale="   91.955">  7  8 -1 -1</clus>
<clus scale="  109.655">  2  5  1 -1</clus>
<clus scale="   59.369">  2  5  1 -1</clus>
</clustering>
</event>
<event>
 9    1  0.1504846E-005  0.1755472E+03  0.7546771E-02  0.1174619E+00
         21   -1    0    0  501  502  0.00000000000E+00  0.00000000000E+00  0.10032035339E+03  0.10032035339E+03  0.00000000000E+00 0. -1.
          2   -1    0    0  502    0 -0.00000000000E+00 -0.00000000000E+00 -0.51687758132E+03  0.51687758132E+03  0.00000000000E+00 0. -1.
         23    2    1    2    0    0  0.88903487286E+01 -0.16602937721E+03 -0.31156372494E+03  0.36890557667E+03  0.10665166387E+03 0.  0.
         23    2    1    2    0    0 -0.46128572694E+02  0.87971038561E+02 -0.39777640715E+02  0.13997385431E+03  0.90242286898E+02 0.  0.
        -11    1    4    4    0    0 -0.15900778577E+02  0.57850580009E+02 -0.66547307646E+02  0.89599489517E+02  0.00000000000E+00 0.  1.
         11    1    4    4    0    0 -0.30227794117E+02  0.30120458552E+02  0.26769666931E+02  0.50374364791E+02  0.00000000000E+00 0. -1.
        -13    1    3    3    0    0 -0.18772956413E+02 -0.70847199795E+02 -0.22724766240E+03  0.23877447451E+03  0.00000000000E+00 0.  1.
         13    1    3    3    0    0  0.27663305142E+02 -0.95182177413E+02 -0.84316062544E+02  0.13013110217E+03  0.00000000000E+00 0. -1.
          2    1    1    2  501    0  0.37238223965E+02  0.78058338647E+02 -0.65215862279E+02  0.10831850373E+03  0.00000000000E+00 0. -1.
<scales pt_clust_5="13000.00000" pt_clust_6="13000.00000" pt_clust_7="13000.00000" pt_clust_8="13000.00000" pt_clust_9="86.48578"></scales>
<clustering>
<clus scale="   86.486">  1  9  2 -1</clus>
<clus scale="   90.242">  5  6 -1 -1</clus>
<clus scale="  106.652">  7  8 -1 -1</clus>
<clus scale="  166.090">  1  5  2 -1</clus>
<clus scale="   86.486">  1  5  2 -1</clus>
</clustering>
</event>
<event>
 9    1  0.1504846E-005  0.1237972E+03  0.7546771E-02  0.1251577E+00
          1   -1    0    0  502    0 -0.00000000000E+00  0.00000000000E+00  0.39273677141E+03  0.39273677141E+03  0.00000000000E+00 0. -1.
         21   -1    0    0  501  502  0.00000000000E+00 -0.00000000000E+00 -0.43541885866E+02  0.43541885866E+02  0.00000000000E+00 0.  1.
         23    2    1    2    0    0  0.17341007558E+02  0.13523753730E+02  0.17857314422E+03  0.20164007744E+03  0.91031590846E+02 0.  0.
         23    2    1    2    0    0 -0.52504403744E+01  0.44528348179E+01  0.17353551447E+03  0.21277926547E+03  0.12293512993E+03 0.  0.
        -11    1    4    4    0    0  0.48755217210E+02  0.60204667797E+01  0.25829637520E+02  0.55502138696E+02  0.00000000000E+00 0.  1.
         11    1    4    4    0    0 -0.54005657584E+02 -0.15676319618E+01  0.14770587695E+03  0.15727712677E+03  0.00000000000E+00 0. -1.
        -13    1    3    3    0    0 -0.24974713990E+02 -0.20283891724E+02  0.10792714586E+03  0.11262078590E+03  0.00000000000E+00 0. -1.
         13    1    3    3    0    0  0.42315721548E+02  0.33807645454E+02  0.70645998365E+02  0.89019291540E+02  0.00000000000E+00 0.  1.
          1    1    1    2  501    0 -0.12090567183E+02 -0.17976588548E+02 -0.29137731510E+01  0.21859314367E+02  0.00000000000E+00 0. -1.
<scales pt_clust_5="13000.00000" pt_clust_6="13000.00000" pt_clust_7="13000.00000" pt_clust_8="13000.00000" pt_clust_9="21.66425"></scales>
<clustering>
<clus scale="   21.664">  2  9  1 -1</clus>
<clus scale="   91.032">  7  8 -1 -1</clus>
<clus scale="   92.192">  1  7  2 -1</clus>
<clus scale="  122.935">  5  6 -1 -1</clus>
<clus scale="   21.664">  2  5  1 -1</clus>
</clustering>
</event>
<event>
 9    1  0.1504846E-005  0.1038658E+03  0.7546771E-02  0.1272876E+00
          1   -1    0    0  502    0 -0.00000000000E+00  0.00000000000E+00  0.22592897328E+03  0.22592897328E+03  0.00000000000E+00 0. -1.
         21   -1    0    0  501  502  0.00000000000E+00 -0.00000000000E+00 -0.77144697046E+02  0.77144697046E+02  0.00000000000E+00 0. -1.
         23    2    1    2    0    0  0.15046699997E+02 -0.49893632157E+02  0.14592897630E+03  0.17936333261E+03  0.90333610860E+02 0.  0.
         23    2    1    2    0    0  0.54347290541E+01  0.51465261347E+02  0.13459004194E+01  0.10311331751E+03  0.89175867785E+02 0.  0.
        -11    1    3    3    0    0  0.37248332736E+02 -0.60325794476E+02  0.13504916949E+03  0.15252841687E+03  0.00000000000E+00 0.  1.
         11    1    3    3    0    0 -0.22201632739E+02  0.10432162319E+02  0.10879806806E+02  0.26834915745E+02  0.00000000000E+00 0. -1.
        -11    1    4    4    0    0  0.31388864803E+02  0.52161403800E+02  0.27015503635E+02  0.66602629953E+02  0.00000000000E+00 0. -1.
         11    1    4    4    0    0 -0.25954135749E+02 -0.69614245333E+00 -0.25669603216E+02  0.36510687559E+02  0.00000000000E+00 0.  1.
          1    1    1    2  501    0 -0.20481429051E+02 -0.15716291899E+01  0.15093995148E+01  0.20597020201E+02  0.00000000000E+00 0. -1.
<scales pt_clust_5="13000.00000" pt_clust_6="13000.00000" pt_clust_7="13000.00000" pt_clust_8="13000.00000" pt_clust_9="20.54164"></scales>
<clustering>
<clus scale="   20.542">  2  9  1 -1</clus>
<clus scale="   89.176">  7  8 -1 -1</clus>
<clus scale="   90.334">  5  6 -1 -1</clus>
<clus scale="  102.860">  2  7  1 -1</clus>
<clus scale="   20.542">  2  5  1 -1</clus>
</clustering>
</event>
<event>
 9    1  0.1504846E-005  0.9738750E+02  0.7546771E-02  0.1289230E+00
          2   -1    0    0  502    0 -0.00000000000E+00  0.00000000000E+00  0.48389763788E+03  0.48389763788E+03  0.00000000000E+00 0. -1.
         21   -1    0    0  501  502  0.00000000000E+00 -0.00000000000E+00 -0.27961688539E+02  0.27961688539E+02  0.00000000000E+00 0.  1.
         23    2    1    2    0    0 -0.14289439201E+02 -0.15606179084E+02  0.30512107424E+03  0.32066807626E+03  0.96340045076E+02 0.  0.
         23    2    1    2    0    0  0.95080443709E+00 -0.31866622825E+01  0.96707976070E+02  0.13238099097E+03  0.90339555504E+02 0.  0.
        -11    1    3    3    0    0  0.29506826673E+02  0.26017869464E+01  0.32588458594E+02  0.44038957176E+02  0.00000000000E+00 0.  1.
         11    1    3    3    0    0 -0.43796265873E+02 -0.18207966030E+02  0.27253261565E+03  0.27662911908E+03  0.00000000000E+00 0. -1.
        -13    1    4    4    0    0  0.17366533993E+02 -0.42807560834E+02  0.61350543973E+02  0.76798261786E+02  0.00000000000E+00 0.  1.
         13    1    4    4    0    0 -0.16415729555E+02  0.39620898552E+02  0.35357432097E+02  0.55582729183E+02  0.00000000000E+00 0. -1.
          2    1    1    2  501    0  0.13338634763E+02  0.18792841366E+02  0.54106899030E+02  0.58810259196E+02  0.00000000000E+00 0. -1.
<scales pt_clust_5="13000.00000" pt_clust_6="13000.00000" pt_clust_7="13000.00000" pt_clust_8="13000.00000" pt_clust_9="23.04540"></scales>
<clustering>
<clus scale="   23.045">  2  9  1 -1</clus>
<clus scale="   90.340">  7  8 -1 -1</clus>
<clus scale="   91.456">  2  7  1 -1</clus>
<clus scale="   96.340">  5  6 -1 -1</clus>
<clus scale="   23.045">  2  5  1 -1</clus>
</clustering>
</event>
<event>
 9    1  0.1504846E-005  0.1728024E+03  0.7546771E-02  0.1196239E+00
         21   -1    0    0  501  502  0.00000000000E+00  0.00000000000E+00  0.74299963045E+03  0.74299963045E+03  0.00000000000E+00 0. -1.
          2   -1    0    0  502    0 -0.00000000000E+00 -0.00000000000E+00 -0.11730108436E+03  0.11730108436E+03  0.00000000000E+00 0. -1.
         23    2    1    2    0    0  0.57287199299E+02  0.30212634642E+02 -0.67049405458E+01  0.10779681558E+03  0.85910248088E+02 0.  0.
         23    2    1    2    0    0 -0.17004272400E+03  0.51857052097E+02  0.15228052768E+03  0.25253660276E+03  0.94771803738E+02 0.  0.
        -11    1    3    3    0    0  0.52662980525E+02 -0.20584799306E+02 -0.21038090968E+01  0.56582236550E+02  0.00000000000E+00 0. -1.
         11    1    3    3    0    0  0.46242187739E+01  0.50797433947E+02 -0.46011314489E+01  0.51214579033E+02  0.00000000000E+00 0.  1.
        -11    1    4    4    0    0 -0.12689313567E+03  0.79604147677E+02  0.10670170790E+03  0.18391286708E+03  0.00000000000E+00 0. -1.
         11    1    4    4    0    0 -0.43149588335E+02 -0.27747095580E+02  0.45578819777E+02  0.68623735681E+02  0.00000000000E+00 0.  1.
          2    1    1    2  501    0  0.11275552470E+03 -0.82069686739E+02  0.48012295895E+03  0.49996729647E+03  0.00000000000E+00 0. -1.
<scales pt_clust_5="13000.00000" pt_clust_6="13000.00000" pt_clust_7="13000.00000" pt_clust_8="13000.00000" pt_clust_9="144.49557"></scales>
<clustering>
<clus scale="   85.910">  5  6 -1 -1</clus>
<clus scale="   94.772">  7  8 -1 -1</clus>
<clus scale="  107.588">  2  5  1 -1</clus>
<clus scale="  144.496">  1  9  2 -1</clus>
<clus scale="  144.496">  1  5  2 -1</clus>
</clustering>
</event>
<event>
 9    1  0.1504846E-005  0.1046309E+03  0.7546771E-02  0.1271809E+00
         21   -1    0    0  501  502  0.00000000000E+00  0.00000000000E+00  0.99987372357E+02  0.99987372357E+02  0.00000000000E+00 0. -1.
          1   -1    0    0  502    0 -0.00000000000E+00 -0.00000000000E+00 -0.33040564003E+03  0.33040564003E+03  0.00000000000E+00 0. -1.
         23    2    1    2    0    0 -0.37956108893E+02  0.30559430688E+02 -0.20058097619E+03  0.22681871775E+03  0.94018390243E+02 0.  0.
         23    2    1    2    0    0  0.17543760159E+02 -0.40874087527E+02 -0.91950720017E+02  0.13738415844E+03  0.91874901502E+02 0.  0.
        -13    1    4    4    0    0  0.36872201397E+02  0.37577254676E+01 -0.45229290467E+01  0.37338138996E+02  0.00000000000E+00 0.  1.
         13    1    4    4    0    0 -0.19328441238E+02 -0.44631812995E+02 -0.87427790970E+02  0.10004601944E+03  0.00000000000E+00 0. -1.
        -13    1    3    3    0    0  0.30421810264E+02  0.15202828594E+02 -0.47101897607E+02  0.58096482640E+02  0.00000000000E+00 0.  1.
         13    1    3    3    0    0 -0.68377919157E+02  0.15356602094E+02 -0.15347907859E+03  0.16872223511E+03  0.00000000000E+00 0. -1.
          1    1    1    2  501    0  0.20412348734E+02  0.10314656840E+02  0.62113428534E+02  0.66190136205E+02  0.00000000000E+00 0. -1.
<scales pt_clust_5="13000.00000" pt_clust_6="13000.00000" pt_clust_7="13000.00000" pt_clust_8="13000.00000" pt_clust_9="22.87042"></scales>
<clustering>
<clus scale="   22.870">  1  9  2 -1</clus>
<clus scale="   91.875">  5  6 -1 -1</clus>
<clus scale="   94.018">  7  8 -1 -1</clus>
<clus scale="  102.709">  1  5  2 -1</clus>
<clus scale="   22.870">  1  5  2 -1</clus>
</clustering>
</event>
<event>
 9    1  0.1704025E-005  0.9301247E+02  0.7546771E-02  0.1297032E+00
         21   -1    0    0  501  502  0.00000000000E+00  0.00000000000E+00  0.18458175044E+03  0.18458175044E+03  0.00000000000E+00 0.  1.
         -2   -1    0    0    0  501 -0.00000000000E+00 -0.00000000000E+00 -0.39798030671E+03  0.39798030671E+03  0.00000000000E+00 0.  1.
         23    2    1    2    0    0  0.18785310621E+02 -0.20072322413E+02 -0.28494792572E+03  0.30032757912E+03  0.90805001964E+02 0.  0.
         23    2    1    2    0    0 -0.69899722123E+01 -0.44202745877E+01 -0.85208734615E+02  0.12313664490E+03  0.88508227431E+02 0.  0.
        -11    1    3    3    0    0  0.28684730834E+02  0.24763859816E+02 -0.61711898823E+02  0.72418374687E+02  0.00000000000E+00 0. -1.
         11    1    3    3    0    0 -0.98994202129E+01 -0.44836182229E+02 -0.22323602690E+03  0.22790920443E+03  0.00000000000E+00 0.  1.
        -13    1    4    4    0    0 -0.13698032604E+02 -0.41867387402E+02 -0.68825388873E+02  0.81715655652E+02  0.00000000000E+00 0.  1.
         13    1    4    4    0    0  0.67080603915E+01  0.37447112814E+02 -0.16383345741E+02  0.41420989245E+02  0.00000000000E+00 0. -1.
         -2    1    1    2    0  502 -0.11795338409E+02  0.24492597001E+02  0.15675810407E+03  0.15909783314E+03  0.00000000000E+00 0.  1.
<scales pt_clust_5="13000.00000" pt_clust_6="13000.00000" pt_clust_7="13000.00000" pt_clust_8="13000.00000" pt_clust_9="27.18487"></scales>
<clustering>
<clus scale="   27.185">  1  9  2 -1</clus>
<clus scale="   88.508">  7  8 -1 -1</clus>
<clus scale="   90.772">  1  7  2 -1</clus>
<clus scale="   90.805">  5  6 -1 -1</clus>
<clus scale="   27.185">  1  5  2 -1</clus>
</clustering>
</event>
<event>
 9    1  0.1504846E-005  0.1063497E+03  0.7546771E-02  0.1270002E+00
         -1   -1    0    0    0  501 -0.00000000000E+00  0.00000000000E+00  0.18585672511E+03  0.18585672511E+03  0.00000000000E+00 0.  1.
         21   -1    0    0  501  502  0.00000000000E+00 -0.00000000000E+00 -0.12887342086E+03  0.12887342086E+03  0.00000000000E+00 0.  1.
         23    2    1    2    0    0  0.62624426456E+02 -0.46570829319E+01  0.38512662136E+02  0.11725681380E+03  0.91227342547E+02 0.  0.
         23    2    1    2    0    0  0.23209266307E+01  0.57577166485E+02  0.14532479448E+02  0.11360472507E+03  0.96821091705E+02 0.  0.
        -11    1    4    4    0    0 -0.15031370404E+02 -0.23726523041E+02 -0.41622079542E+01  0.28393907214E+02  0.00000000000E+00 0. -1.
         11    1    4    4    0    0  0.17352297035E+02  0.81303689526E+02  0.18694687402E+02  0.85210817858E+02  0.00000000000E+00 0.  1.
        -11    1    3    3    0    0  0.46577620882E+02  0.25531213331E+02  0.57394233876E+02  0.78201123415E+02  0.00000000000E+00 0.  1.
         11    1    3    3    0    0  0.16046805574E+02 -0.30188296262E+02 -0.18881571740E+02  0.39055690389E+02  0.00000000000E+00 0. -1.
         -1    1    1    2    0  502 -0.64945353087E+02 -0.52920083553E+02  0.39381626712E+01  0.83868607095E+02  0.00000000000E+00 0.  1.
<scales pt_clust_5="13000.00000" pt_clust_6="13000.00000" pt_clust_7="13000.00000" pt_clust_8="13000.00000" pt_clust_9="83.77610"></scales>
<clustering>
<clus scale="   83.776">  2  9  1 -1</clus>
<clus scale="   91.227">  7  8 -1 -1</clus>
<clus scale="   96.821">  5  6 -1 -1</clus>
<clus scale="  101.284">  1  7  2 -1</clus>
<clus scale="   83.776">  2  5  1 -1</clus>
</clustering>
</event>
<event>
 9    1  0.1504846E-005  0.9600064E+02  0.7546771E-02  0.1289076E+00
         -3   -1    0    0    0  501 -0.00000000000E+00  0.00000000000E+00  0.94639751377E+02  0.94639751377E+02  0.00000000000E+00 0.  1.
         21   -1    0    0  501  502  0.00000000000E+00 -0.00000000000E+00 -0.21371774710E+03  0.21371774710E+03  0.00000000000E+00 0.  1.
         23    2    1    2    0    0 -0.52356219113E+01  0.46228776590E+02  0.12076536197E+02  0.10305975570E+03  0.91164461264E+02 0.  0.
         23    2    1    2    0    0 -0.22934380061E+02  0.61923042574E+00 -0.47982988254E+02  0.10576990522E+03  0.91425031872E+02 0.  0.
        -11    1    4    4    0    0 -0.15664401356E+02  0.22609997506E+02 -0.69133494816E+02  0.74404472732E+02  0.00000000000E+00 0.  1.
         11    1    4    4    0    0 -0.72699787054E+01 -0.21990767081E+02  0.21150506562E+02  0.31365432485E+02  0.00000000000E+00 0. -1.
        -13    1    3    3    0    0  0.38020794489E+01 -0.27613389007E+02  0.14517728590E+01  0.27911694772E+02  0.00000000000E+00 0. -1.
         13    1    3    3    0    0 -0.90377013602E+01  0.73842165597E+02  0.10624763338E+02  0.75148060932E+02  0.00000000000E+00 0.  1.
         -3    1    1    2    0  502  0.28170001972E+02 -0.46848007015E+02 -0.83171543661E+02  0.99527837550E+02  0.00000000000E+00 0.  1.
<scales pt_clust_5="13000.00000" pt_clust_6="13000.00000" pt_clust_7="13000.00000" pt_clust_8="13000.00000" pt_clust_9="54.66521"></scales>
<clustering>
<clus scale="   54.665">  2  9  1 -1</clus>
<clus scale="   91.164">  7  8 -1 -1</clus>
<clus scale="   91.425">  5  6 -1 -1</clus>
<clus scale="   95.753">  1  7  2 -1</clus>
<clus scale="   54.665">  2  5  1 -1</clus>
</clustering>
</event>
<event>
 9    1  0.1504846E-005  0.2111867E+03  0.7546771E-02  0.1140940E+00
         21   -1    0    0  501  502  0.00000000000E+00  0.00000000000E+00  0.22593583762E+03  0.22593583762E+03  0.00000000000E+00 0. -1.
          2   -1    0    0  502    0 -0.00000000000E+00 -0.00000000000E+00 -0.39826100136E+03  0.39826100136E+03  0.00000000000E+00 0. -1.
         23    2    1    2    0    0  0.16390828993E+03 -0.64286498895E+02 -0.13687532999E+03  0.24124227996E+03  0.92001631690E+02 0.  0.
         23    2    1    2    0    0 -0.21866708358E+03  0.85484006014E+02  0.71591044398E+02  0.26086602809E+03  0.88334581267E+02 0.  0.
        -11    1    3    3    0    0  0.66120471952E+02 -0.71708520263E+02 -0.89292962183E+02  0.13223941086E+03  0.00000000000E+00 0.  1.
         11    1    3    3    0    0  0.97787817979E+02  0.74220213678E+01 -0.47582367804E+02  0.10900286910E+03  0.00000000000E+00 0. -1.
        -13    1    4    4    0    0 -0.96801471025E+02 -0.34204593202E+00  0.31606561570E+01  0.96853660413E+02  0.00000000000E+00 0.  1.
         13    1    4    4    0    0 -0.12186561255E+03  0.85826051946E+02  0.68430388241E+02  0.16401236768E+03  0.00000000000E+00 0. -1.
          2    1    1    2  501    0  0.54758793648E+02 -0.21197507119E+02 -0.10704087815E+03  0.12208853093E+03  0.00000000000E+00 0. -1.
<scales pt_clust_5="13000.00000" pt_clust_6="13000.00000" pt_clust_7="13000.00000" pt_clust_8="13000.00000" pt_clust_9="58.71851"></scales>
<clustering>
<clus scale="   58.719">  1  9  2 -1</clus>
<clus scale="   88.335">  7  8 -1 -1</clus>
<clus scale="   92.002">  5  6 -1 -1</clus>
<clus scale="  209.615">  1  7  2 -1</clus>
<clus scale="   58.719">  1  5  2 -1</clus>
</clustering>
</event>
<event>
 9    1  0.1504846E-005  0.9887150E+02  0.7546771E-02  0.1286783E+00
         21   -1    0    0  501  502  0.00000000000E+00  0.00000000000E+00  0.14840028753E+03  0.14840028753E+03  0.00000000000E+00 0. -1.
         -3   -1    0    0    0  501 -0.00000000000E+00 -0.00000000000E+00 -0.11273588856E+03  0.11273588856E+03  0.00000000000E+00 0.  1.
         23    2    1    2    0    0  0.83786009102E+01 -0.18298739594E+02 -0.37619767797E+02  0.10388573282E+03  0.94720397645E+02 0.  0.
         23    2    1    2    0    0 -0.34123251848E+02  0.30670013798E+02  0.25560959258E+02  0.10163264026E+03  0.87010257238E+02 0.  0.
        -13    1    4    4    0    0  0.29191251331E+02  0.11505017205E+02  0.14490908916E+02  0.34561264681E+02  0.00000000000E+00 0.  1.
         13    1    4    4    0    0 -0.63314503179E+02  0.19164996593E+02  0.11070050342E+02  0.67071375577E+02  0.00000000000E+00 0. -1.
        -13    1    3    3    0    0  0.30245054499E+02  0.22322363931E+02 -0.43373073420E+02  0.57395772937E+02  0.00000000000E+00 0.  1.
         13    1    3    3    0    0 -0.21866453589E+02 -0.40621103525E+02  0.57533056226E+01  0.46489959881E+02  0.00000000000E+00 0. -1.
         -3    1    1    2    0  502  0.25744650938E+02 -0.12371274204E+02  0.47723207507E+02  0.55617803014E+02  0.00000000000E+00 0.  1.
<scales pt_clust_5="13000.00000" pt_clust_6="13000.00000" pt_clust_7="13000.00000" pt_clust_8="13000.00000" pt_clust_9="28.56283"></scales>
<clustering>
<clus scale="   28.563">  1  9  2 -1</clus>
<clus scale="   87.010">  5  6 -1 -1</clus>
<clus scale="   91.512">  1  5  2 -1</clus>
<clus scale="   94.720">  7  8 -1 -1</clus>
<clus scale="   28.563">  1  5  2 -1</clus>
</clustering>
</event>
<event>
 9    1  0.1504846E-005  0.3254425E+03  0.7546771E-02  0.1073192E+00
          2   -1    0    0  502    0 -0.00000000000E+00  0.00000000000E+00  0.87961388519E+03  0.87961388519E+03  0.00000000000E+00 0. -1.
         21   -1    0    0  501  502  0.00000000000E+00 -0.00000000000E+00 -0.19577822714E+03  0.19577822714E+03  0.00000000000E+00 0. -1.
         23    2    1    2    0    0  0.31320339364E+03  0.13032569213E+03  0.55714821273E+03  0.65852511696E+03  0.90332977885E+02 0.  0.
         23    2    1    2    0    0 -0.23404655563E+03 -0.13654449188E+03  0.16395551754E+03  0.32915503676E+03  0.89662913356E+02 0.  0.
        -11    1    3    3    0    0  0.96186416984E+02  0.87498223637E+01  0.21315133057E+03  0.23401255506E+03  0.00000000000E+00 0.  1.
         11    1    3    3    0    0  0.21701697666E+03  0.12157586977E+03  0.34399688216E+03  0.42451256189E+03  0.00000000000E+00 0. -1.
        -11    1    4    4    0    0 -0.11417154943E+02 -0.35870398065E+02  0.40887344378E+02  0.55577079940E+02  0.00000000000E+00 0. -1.
         11    1    4    4    0    0 -0.22262940069E+03 -0.10067409381E+03  0.12306817316E+03  0.27357795682E+03  0.00000000000E+00 0.  1.
          2    1    1    2  501    0 -0.79156838014E+02  0.62187997479E+01 -0.37268072220E+02  0.87711958601E+02  0.00000000000E+00 0. -1.
<scales pt_clust_5="13000.00000" pt_clust_6="13000.00000" pt_clust_7="13000.00000" pt_clust_8="13000.00000" pt_clust_9="79.40075"></scales>
<clustering>
<clus scale="   79.401">  2  9  1 -1</clus>
<clus scale="   89.663">  7  8 -1 -1</clus>
<clus scale="   90.333">  5  6 -1 -1</clus>
<clus scale="  325.257">  2  7  1 -1</clus>
<clus scale="   79.401">  2  5  1 -1</clus>
</clustering>
</event>
<event>
 9    1  0.1504846E-005  0.1079262E+03  0.7546771E-02  0.1266271E+00
         21   -1    0    0  501  502  0.00000000000E+00  0.00000000000E+00  0.63399646591E+03  0.63399646591E+03  0.00000000000E+00 0. -1.
         -3   -1    0    0    0  501 -0.00000000000E+00 -0.00000000000E+00 -0.13282551301E+03  0.13282551301E+03  0.00000000000E+00 0.  1.
         23    2    1    2    0    0 -0.38256016018E+02 -0.48054062915E+02 -0.78789008453E+02  0.13140168629E+03  0.85357949731E+02 0.  0.
         23    2    1    2    0    0  0.92182777863E+02 -0.40096258322E+02  0.44774953911E+03  0.46761632805E+03  0.89888853719E+02 0.  0.
        -11    1    4    4    0    0  0.56306485329E+02  0.13303610374E+02  0.11532745150E+03  0.12902646011E+03  0.00000000000E+00 0.  1.
         11    1    4    4    0    0  0.35876292533E+02 -0.53399868696E+02  0.33242208761E+03  0.33858986794E+03  0.00000000000E+00 0. -1.
        -13    1    3    3    0    0  0.16969245678E+02 -0.46910340157E+02 -0.39154286323E+02  0.63416034645E+02  0.00000000000E+00 0.  1.
         13    1    3    3    0    0 -0.55225261696E+02 -0.11437227579E+01 -0.39634722130E+02  0.67985651644E+02  0.00000000000E+00 0. -1.
         -3    1    1    2    0  502 -0.53926761844E+02  0.88150321238E+02  0.13221042225E+03  0.16780396458E+03  0.00000000000E+00 0.  1.
<scales pt_clust_5="13000.00000" pt_clust_6="13000.00000" pt_clust_7="13000.00000" pt_clust_8="13000.00000" pt_clust_9="103.33719"></scales>
<clustering>
<clus scale="   85.358">  7  8 -1 -1</clus>
<clus scale="   89.889">  5  6 -1 -1</clus>
<clus scale="  103.337">  1  9  2 -1</clus>
<clus scale="  104.183">  2  7  1 -1</clus>
<clus scale="  103.337">  1  5  2 -1</clus>
</clustering>
</event>
<event>
 9    1  0.1504846E-005  0.1574757E+03  0.7546771E-02  0.1191653E+00
          2   -1    0    0  502    0 -0.00000000000E+00  0.00000000000E+00  0.10137696197E+04  0.10137696197E+04  0.00000000000E+00 0. -1.
         21   -1    0    0  501  502  0.00000000000E+00 -0.00000000000E+00 -0.45165385143E+02  0.45165385143E+02  0.00000000000E+00 0. -1.
         23    2    1    2    0    0  0.64776272431E+02 -0.90597757984E+02  0.48479382356E+03  0.50586550845E+03  0.92037720853E+02 0.  0.
         23    2    1    2    0    0 -0.66247826103E+02  0.13913578767E+03  0.46906660696E+03  0.50232025451E+03  0.92491158792E+02 0.  0.
        -11    1    3    3    0    0 -0.14533427443E+02 -0.39309141095E+02  0.81318085270E+02  0.91482567076E+02  0.00000000000E+00 0. -1.
         11    1    3    3    0    0  0.79309699874E+02 -0.51288616890E+02  0.40347573829E+03  0.41438294138E+03  0.00000000000E+00 0.  1.
        -13    1    4    4    0    0  0.78320449306E+01  0.41726493764E+02  0.22855093043E+03  0.23246068272E+03  0.00000000000E+00 0.  1.
         13    1    4    4    0    0 -0.74079871034E+02  0.97409293909E+02  0.24051567652E+03  0.26985957179E+03  0.00000000000E+00 0. -1.
          2    1    1    2  501    0  0.14715536719E+01 -0.48538029689E+02  0.14743804075E+02  0.50749241914E+02  0.00000000000E+00 0. -1.
<scales pt_clust_5="13000.00000" pt_clust_6="13000.00000" pt_clust_7="13000.00000" pt_clust_8="13000.00000" pt_clust_9="48.56033"></scales>
<clustering>
<clus scale="   48.560">  2  9  1 -1</clus>
<clus scale="   92.038">  5  6 -1 -1</clus>
<clus scale="   92.491">  7  8 -1 -1</clus>
<clus scale="  157.210">  1  5  2 -1</clus>
<clus scale="   48.560">  2  5  1 -1</clus>
</clustering>
</event>
<event>
 9    1  0.1504846E-005  0.2073441E+03  0.7546771E-02  0.1145238E+00
         -1   -1    0    0    0  501 -0.00000000000E+00  0.00000000000E+00  0.44724943370E+03  0.44724943370E+03  0.00000000000E+00 0.  1.
         21   -1    0    0  501  502  0.00000000000E+00 -0.00000000000E+00 -0.40584460819E+03  0.40584460819E+03  0.00000000000E+00 0.  1.
         23    2    1    2    0    0  0.19544896793E+03  0.87332916331E+02  0.30801814434E+03  0.38457968914E+03  0.84847054866E+02 0.  0.
         23    2    1    2    0    0 -0.11781279028E+03 -0.35014271888E+02  0.25878325745E+02  0.16140528616E+03  0.10137122800E+03 0.  0.
        -11    1    3    3    0    0  0.14625555417E+03  0.27123676194E+02  0.16773093862E+03  0.22418753022E+03  0.00000000000E+00 0.  1.
         11    1    3    3    0    0  0.49193413759E+02  0.60209240138E+02  0.14028720572E+03  0.16039215892E+03  0.00000000000E+00 0. -1.
        -13    1    4    4    0    0 -0.79544439843E+02 -0.46443004742E+02  0.59113414769E+02  0.10944709409E+03  0.00000000000E+00 0. -1.
         13    1    4    4    0    0 -0.38268350441E+02  0.11428732854E+02 -0.33235089024E+02  0.51958192064E+02  0.00000000000E+00 0.  1.
         -1    1    1    2    0  502 -0.77636177648E+02 -0.52318644444E+02 -0.29249164457E+03  0.30710906659E+03  0.00000000000E+00 0.  1.
<scales pt_clust_5="13000.00000" pt_clust_6="13000.00000" pt_clust_7="13000.00000" pt_clust_8="13000.00000" pt_clust_9="93.61953"></scales>
<clustering>
<clus scale="   84.847">  5  6 -1 -1</clus>
<clus scale="   93.620">  2  9  1 -1</clus>
<clus scale="  101.371">  7  8 -1 -1</clus>
<clus scale="  199.786">  1  5  2 -1</clus>
<clus scale="   93.620">  2  5  1 -1</clus>
</clustering>
</event>
<event>
 9    1  0.1504846E-005  0.1975078E+03  0.7546771E-02  0.1151927E+00
          1   -1    0    0  502    0 -0.00000000000E+00  0.00000000000E+00  0.17331495924E+04  0.17331495924E+04  0.00000000000E+00 0. -1.
         21   -1    0    0  501  502  0.00000000000E+00 -0.00000000000E+00 -0.31765153090E+02  0.31765153090E+02  0.00000000000E+00 0. -1.
         23    2    1    2    0    0 -0.80867338995E+02  0.13129873914E+03  0.68434750602E+03  0.70730641611E+03  0.90398959430E+02 0.  0.
         23    2    1    2    0    0  0.13406835692E+03 -0.15889145713E+03  0.73387167207E+03  0.76817047498E+03  0.91090219512E+02 0.  0.
        -11    1    3    3    0    0 -0.74035407839E+02  0.88972036111E+02  0.61483416247E+03  0.62563432784E+03  0.00000000000E+00 0. -1.
         11    1    3    3    0    0 -0.68319311565E+01  0.42326703029E+02  0.69513343542E+02  0.81672088274E+02  0.00000000000E+00 0.  1.
        -13    1    4    4    0    0  0.71041801716E+02 -0.83045113753E+02  0.22878603807E+03  0.25354778588E+03  0.00000000000E+00 0.  1.
         13    1    4    4    0    0  0.63026555202E+02 -0.75846343380E+02  0.50508563399E+03  0.51462268910E+03  0.00000000000E+00 0. -1.
          1    1    1    2  501    0 -0.53201017923E+02  0.27592717993E+02  0.28316526125E+03  0.28943785443E+03  0.00000000000E+00 0. -1.
<scales pt_clust_5="13000.00000" pt_clust_6="13000.00000" pt_clust_7="13000.00000" pt_clust_8="13000.00000" pt_clust_9="59.93088"></scales>
<clustering>
<clus scale="   59.931">  2  9  1 -1</clus>
<clus scale="   90.399">  5  6 -1 -1</clus>
<clus scale="   91.090">  7  8 -1 -1</clus>
<clus scale="  197.190">  1  5  2 -1</clus>
<clus scale="   59.931">  2  5  1 -1</clus>
</clustering>
</event>
<event>
 9    1  0.1504846E-005  0.1046640E+03  0.7546771E-02  0.1276021E+00
          1   -1    0    0  502    0 -0.00000000000E+00  0.00000000000E+00  0.26140832379E+03  0.26140832379E+03  0.00000000000E+00 0. -1.
         21   -1    0    0  501  502  0.00000000000E+00 -0.00000000000E+00 -0.49351895946E+02  0.49351895946E+02  0.00000000000E+00 0.  1.
         23    2    1    2    0    0 -0.29684717885E+02  0.69326821680E+01  0.13487027939E+03  0.17101815509E+03  0.10063782862E+03 0.  0.
         23    2    1    2    0    0  0.18236664670E+02 -0.24734995808E+02  0.65019817394E+02  0.11532895537E+03  0.90159832164E+02 0.  0.
        -13    1    3    3    0    0  0.12082791614E+02  0.44214589406E+02  0.39879125003E+02  0.60755809438E+02  0.00000000000E+00 0. -1.
         13    1    3    3    0    0 -0.41767509499E+02 -0.37281907238E+02  0.94991154387E+02  0.11026234565E+03  0.00000000000E+00 0.  1.
        -13    1    4    4    0    0  0.41133660645E+01 -0.40224978097E+02 -0.63626547619E+01  0.40932285777E+02  0.00000000000E+00 0.  1.
         13    1    4    4    0    0  0.14123298606E+02  0.15489982289E+02  0.71382472156E+02  0.74396669589E+02  0.00000000000E+00 0. -1.
          1    1    1    2  501    0  0.11448053215E+02  0.17802313640E+02  0.12166331064E+02  0.24413109284E+02  0.00000000000E+00 0. -1.
<scales pt_clust_5="13000.00000" pt_clust_6="13000.00000" pt_clust_7="13000.00000" pt_clust_8="13000.00000" pt_clust_9="21.16554"></scales>
<clustering>
<clus scale="   21.166">  2  9  1 -1</clus>
<clus scale="   90.160">  7  8 -1 -1</clus>
<clus scale="   94.633">  2  7  1 -1</clus>
<clus scale="  100.638">  5  6 -1 -1</clus>
<clus scale="   21.166">  2  5  1 -1</clus>
</clustering>
</event>
<event>
 9    1  0.1504846E-005  0.1109087E+03  0.7546771E-02  0.1259031E+00
          1   -1    0    0  502    0 -0.00000000000E+00  0.00000000000E+00  0.18069632711E+03  0.18069632711E+03  0.00000000000E+00 0. -1.
         21   -1    0    0  501  502  0.00000000000E+00 -0.00000000000E+00 -0.26286108468E+03  0.26286108468E+03  0.00000000000E+00 0. -1.
         23    2    1    2    0    0 -0.65943265731E+02  0.24717930800E+02  0.13369222117E+03  0.17632075100E+03  0.90862020866E+02 0.  0.
         23    2    1    2    0    0  0.27450583704E+02 -0.69788320648E+01 -0.78952902084E+02  0.12392201255E+03  0.91218779894E+02 0.  0.
        -11    1    3    3    0    0 -0.50977812684E+00  0.46080188280E+02  0.55983947360E+02  0.72511005976E+02  0.00000000000E+00 0.  1.
         11    1    3    3    0    0 -0.65433487604E+02 -0.21362257480E+02  0.77708273807E+02  0.10380974503E+03  0.00000000000E+00 0. -1.
        -11    1    4    4    0    0  0.35453294645E+02  0.29532655178E+02 -0.72578152036E+02  0.86004081159E+02  0.00000000000E+00 0.  1.
         11    1    4    4    0    0 -0.80027109410E+01 -0.36511487243E+02 -0.63747500487E+01  0.37917931395E+02  0.00000000000E+00 0. -1.
          1    1    1    2  501    0  0.38492682027E+02 -0.17739098735E+02 -0.13690407665E+03  0.14331464823E+03  0.00000000000E+00 0. -1.
<scales pt_clust_5="13000.00000" pt_clust_6="13000.00000" pt_clust_7="13000.00000" pt_clust_8="13000.00000" pt_clust_9="42.38351"></scales>
<clustering>
<clus scale="   42.384">  2  9  1 -1</clus>
<clus scale="   90.862">  5  6 -1 -1</clus>
<clus scale="   91.219">  7  8 -1 -1</clus>
<clus scale="  110.615">  1  5  2 -1</clus>
<clus scale="   42.384">  2  5  1 -1</clus>
</clustering>
</event>
<event>
 9    1  0.1504846E-005  0.1111179E+03  0.7546771E-02  0.1259204E+00
         21   -1    0    0  501  502  0.00000000000E+00  0.00000000000E+00  0.54455709324E+02  0.54455709324E+02  0.00000000000E+00 0. -1.
          2   -1    0    0  502    0 -0.00000000000E+00 -0.00000000000E+00 -0.51099493276E+03  0.51099493276E+03  0.00000000000E+00 0. -1.
         23    2    1    2    0    0 -0.59143025913E+02  0.49868581854E+02 -0.38436247019E+03  0.40222396092E+03  0.89804416794E+02 0.  0.
         23    2    1    2    0    0  0.25336690090E+02 -0.78094742295E+01 -0.38319666316E+02  0.99523155271E+02  0.87940467681E+02 0.  0.
        -11    1    3    3    0    0 -0.81014883908E+02  0.50075912844E+02 -0.33406240897E+03  0.34737400816E+03  0.00000000000E+00 0.  1.
         11    1    3    3    0    0  0.21871857995E+02 -0.20733099009E+00 -0.50300061224E+02  0.54849952757E+02  0.00000000000E+00 0. -1.
        -13    1    4    4    0    0 -0.12741106179E+02 -0.33121222495E+02 -0.40374843902E+02  0.53753876012E+02  0.00000000000E+00 0.  1.
         13    1    4    4    0    0  0.38077796268E+02  0.25311748266E+02  0.20551775852E+01  0.45769279259E+02  0.00000000000E+00 0. -1.
          2    1    1    2  501    0  0.33806335823E+02 -0.42059107624E+02 -0.33857086926E+02  0.63703525892E+02  0.00000000000E+00 0. -1.
<scales pt_clust_5="13000.00000" pt_clust_6="13000.00000" pt_clust_7="13000.00000" pt_clust_8="13000.00000" pt_clust_9="53.96144"></scales>
<clustering>
<clus scale="   53.961">  1  9  2 -1</clus>
<clus scale="   87.940">  7  8 -1 -1</clus>
<clus scale="   89.804">  5  6 -1 -1</clus>
<clus scale="  109.617">  1  7  2 -1</clus>
<clus scale="   53.961">  1  5  2 -1</clus>
</clustering>
</event>
<event>
 9    1  0.1504846E-005  0.2483114E+03  0.7546771E-02  0.1114982E+00
          2   -1    0    0  502    0 -0.00000000000E+00  0.00000000000E+00  0.12451618358E+04  0.12451618358E+04  0.00000000000E+00 0. -1.
         21   -1    0    0  501  502  0.00000000000E+00 -0.00000000000E+00 -0.92710042023E+02  0.92710042023E+02  0.00000000000E+00 0.  1.
         23    2    1    2    0    0 -0.16909325877E+03  0.88810892614E+02  0.45753801426E+03  0.50182960236E+03  0.77537155642E+02 0.  0.
         23    2    1    2    0    0  0.28966786695E+03 -0.13834091386E+03  0.52804391308E+03  0.62429475726E+03  0.88701117284E+02 0.  0.
        -11    1    4    4    0    0  0.10286434859E+03 -0.91957769820E+02  0.18285598226E+03  0.22907120266E+03  0.00000000000E+00 0.  1.
         11    1    4    4    0    0  0.18680351835E+03 -0.46383144040E+02  0.34518793082E+03  0.39522355459E+03  0.00000000000E+00 0. -1.
        -13    1    3    3    0    0 -0.11075698496E+03  0.15769614475E+02  0.27087751555E+03  0.29307067218E+03  0.00000000000E+00 0.  1.
         13    1    3    3    0    0 -0.58336273810E+02  0.73041278139E+02  0.18666049871E+03  0.20875893019E+03  0.00000000000E+00 0. -1.
          2    1    1    2  501    0 -0.12057460817E+03  0.49530021245E+02  0.16686986643E+03  0.21174751820E+03  0.00000000000E+00 0. -1.
<scales pt_clust_5="13000.00000" pt_clust_6="13000.00000" pt_clust_7="13000.00000" pt_clust_8="13000.00000" pt_clust_9="130.35129"></scales>
<clustering>
<clus scale="   77.537">  7  8 -1 -1</clus>
<clus scale="   88.701">  5  6 -1 -1</clus>
<clus scale="  130.351">  2  9  1 -1</clus>
<clus scale="  244.546">  1  7  2 -1</clus>
<clus scale="  130.351">  2  5  1 -1</clus>
</clustering>
</event>
<event>
 9    1  0.1504846E-005  0.1171304E+03  0.7546771E-02  0.1248221E+00
         21   -1    0    0  501  502  0.00000000000E+00  0.00000000000E+00  0.24794058735E+02  0.24794058735E+02  0.00000000000E+00 0. -1.
          1   -1    0    0  502    0 -0.00000000000E+00 -0.00000000000E+00 -0.78125244319E+03  0.78125244319E+03  0.00000000000E+00 0. -1.
         23    2    1    2    0    0 -0.68696336645E+02  0.28128089651E+02 -0.44791431178E+03  0.46295005584E+03  0.90471804498E+02 0.  0.
         23    2    1    2    0    0  0.74675811368E+02 -0.17165547922E+01 -0.27939006354E+03  0.30330600074E+03  0.91412795164E+02 0.  0.
        -11    1    3    3    0    0 -0.67204873210E+02 -0.14832010284E+02 -0.33786811025E+03  0.34480624043E+03  0.00000000000E+00 0.  1.
         11    1    3    3    0    0 -0.14914634347E+01  0.42960099935E+02 -0.11004620153E+03  0.11814381541E+03  0.00000000000E+00 0. -1.
        -13    1    4    4    0    0  0.12071391452E+02 -0.27558904612E+02 -0.22315304859E+02  0.37459104981E+02  0.00000000000E+00 0.  1.
         13    1    4    4    0    0  0.62604419916E+02  0.25842349820E+02 -0.25707475868E+03  0.26584689576E+03  0.00000000000E+00 0. -1.
          1    1    1    2  501    0 -0.59794747236E+01 -0.26411534859E+02 -0.29154009134E+02  0.39790445338E+02  0.00000000000E+00 0. -1.
<scales pt_clust_5="13000.00000" pt_clust_6="13000.00000" pt_clust_7="13000.00000" pt_clust_8="13000.00000" pt_clust_9="27.07994"></scales>
<clustering>
<clus scale="   27.080">  1  9  2 -1</clus>
<clus scale="   90.472">  5  6 -1 -1</clus>
<clus scale="   91.413">  7  8 -1 -1</clus>
<clus scale="  116.397">  2  5  1 -1</clus>
<clus scale="   27.080">  1  5  2 -1</clus>
</clustering>
</event>
