<event>
 9    1  0.1881049E-005  0.1139840E+03  0.7546771E-02  0.1256669E+00
         21   -1    0    0  501  502  0.00000000000E+00  0.00000000000E+00  0.40845166576E+02  0.40845166576E+02  0.00000000000E+00 0. -1.
          2   -1    0    0  502    0 -0.00000000000E+00 -0.00000000000E+00 -0.37748791125E+03  0.37748791125E+03  0.00000000000E+00 0. -1.
         23    2    1    2    0    0 -0.61939452274E+02  0.83711202914E+01 -0.16907024263E+03  0.20186162942E+03  0.90866930655E+02 0.  0.
         23    2    1    2    0    0  0.43697820297E+02 -0.25953820386E+02 -0.14085310702E+03  0.17964978969E+03  0.99253961574E+02 0.  0.
        -11    1    4    4    0    0  0.75443062203E+02 -0.16442285402E+02 -0.10982565562E+03  0.13425229613E+03  0.00000000000E+00 0.  1.
         11    1    4    4    0    0 -0.31745241906E+02 -0.95115349844E+01 -0.31027451401E+02  0.45397493564E+02  0.00000000000E+00 0. -1.
        -11    1    3    3    0    0 -0.40739830248E+02  0.24434051101E+02 -0.21905437149E+02  0.52312568265E+02  0.00000000000E+00 0.  1.
         11    1    3    3    0    0 -0.21199622025E+02 -0.16062930810E+02 -0.14716480548E+03  0.14954906115E+03  0.00000000000E+00 0. -1.
          2    1    1    2  501    0  0.18241631977E+02  0.17582700095E+02 -0.26719395023E+02  0.36821658710E+02  0.00000000000E+00 0. -1.
<scales pt_clust_5="13000.00000" pt_clust_6="13000.00000" pt_clust_7="13000.00000" pt_clust_8="13000.00000" pt_clust_9="25.33591"></scales>
<clustering>
<clus scale="   25.336">  1  9  2 -1</clus>
<clus scale="   90.867">  7  8 -1 -1</clus>
<clus scale="   99.254">  5  6 -1 -1</clus>
<clus scale="  106.760">  2  7  1 -1</clus>
<clus scale="   25.336">  1  5  2 -1</clus>
</clustering>
</event>
<event>
 9    1  0.1881049E-005  0.1007486E+03  0.7546771E-02  0.1278794E+00
          1   -1    0    0  502    0 -0.00000000000E+00  0.00000000000E+00  0.24170608098E+03  0.24170608098E+03  0.00000000000E+00 0. -1.
         21   -1    0    0  501  502  0.00000000000E+00 -0.00000000000E+00 -0.10629640878E+03  0.10629640878E+03  0.00000000000E+00 0.  1.
         23    2    1    2    0    0 -0.24660587035E+02 -0.44413495130E+02  0.17210711327E+03  0.20159567955E+03  0.91865425875E+02 0.  0.
         23    2    1    2    0    0  0.15566887770E+02  0.15702187107E+01 -0.66469988016E+01  0.93291174269E+02  0.91729313863E+02 0.  0.
        -13    1    4    4    0    0  0.15572129932E+02 -0.41546279780E+02 -0.19258482701E+02  0.48368106745E+02  0.00000000000E+00 0. -1.
         13    1    4    4    0    0 -0.52421622969E-02  0.43116498491E+02  0.12611483899E+02  0.44923067524E+02  0.00000000000E+00 0.  1.
        -13    1    3    3    0    0 -0.25469431422E+02  0.22394823954E+02  0.33222725397E+02  0.47475989296E+02  0.00000000000E+00 0.  1.
         13    1    3    3    0    0  0.80884438702E+00 -0.66808319084E+02  0.13888438788E+03  0.15411969025E+03  0.00000000000E+00 0. -1.
          1    1    1    2  501    0  0.90936992649E+01  0.42843276420E+02 -0.30050442266E+02  0.53115635938E+02  0.00000000000E+00 0. -1.
<scales pt_clust_5="13000.00000" pt_clust_6="13000.00000" pt_clust_7="13000.00000" pt_clust_8="13000.00000" pt_clust_9="43.79774"></scales>
<clustering>
<clus scale="   43.798">  2  9  1 -1</clus>
<clus scale="   91.729">  5  6 -1 -1</clus>
<clus scale="   91.865">  7  8 -1 -1</clus>
<clus scale="  100.624">  2  5  1 -1</clus>
<clus scale="   43.798">  2  5  1 -1</clus>
</clustering>
</event>
<event>
 9    1  0.1881049E-005  0.1507230E+03  0.7546771E-02  0.1200019E+00
         -4   -1    0    0    0  501 -0.00000000000E+00  0.00000000000E+00  0.34852013101E+03  0.34852013101E+03  0.00000000000E+00 0.  1.
         21   -1    0    0  501  502  0.00000000000E+00 -0.00000000000E+00 -0.98671425107E+02  0.98671425107E+02  0.00000000000E+00 0. -1.
         23    2    1    2    0    0  0.10803445889E+03  0.37091220371E+02  0.19317146560E+03  0.24189490069E+03  0.90281365330E+02 0.  0.
         23    2    1    2    0    0 -0.11429408033E+03 -0.62042907121E+02  0.72244844737E+02  0.17522806983E+03  0.92591034890E+02 0.  0.
        -11    1    4    4    0    0 -0.75219885833E+02  0.65784016442E+01  0.13256554442E+02  0.76661873370E+02  0.00000000000E+00 0. -1.
         11    1    4    4    0    0 -0.39074194496E+02 -0.68621308765E+02  0.58988290295E+02  0.98566196457E+02  0.00000000000E+00 0.  1.
        -13    1    3    3    0    0  0.96865716698E+02 -0.67482439796E+01  0.10645754665E+03  0.14408926090E+03  0.00000000000E+00 0.  1.
         13    1    3    3    0    0  0.11168742189E+02  0.43839464350E+02  0.86713918942E+02  0.97805639790E+02  0.00000000000E+00 0. -1.
         -4    1    1    2    0  502  0.62596214426E+01  0.24951686750E+02 -0.15567604427E+02  0.30068585598E+02  0.00000000000E+00 0.  1.
<scales pt_clust_5="13000.00000" pt_clust_6="13000.00000" pt_clust_7="13000.00000" pt_clust_8="13000.00000" pt_clust_9="25.72488"></scales>
<clustering>
<clus scale="   25.725">  2  9  1 -1</clus>
<clus scale="   90.281">  7  8 -1 -1</clus>
<clus scale="   92.591">  5  6 -1 -1</clus>
<clus scale="  149.315">  1  7  2 -1</clus>
<clus scale="   25.725">  2  5  1 -1</clus>
</clustering>
</event>
<event>
 9    1  0.1881049E-005  0.9509626E+02  0.7546771E-02  0.1291488E+00
         21   -1    0    0  501  502  0.00000000000E+00  0.00000000000E+00  0.47959264623E+02  0.47959264623E+02  0.00000000000E+00 0. -1.
          1   -1    0    0  502    0 -0.00000000000E+00 -0.00000000000E+00 -0.34335530015E+03  0.34335530015E+03  0.00000000000E+00 0. -1.
         23    2    1    2    0    0  0.27650178151E+02 -0.41519830986E+00 -0.19631737208E+03  0.21780307461E+03  0.90182947332E+02 0.  0.
         23    2    1    2    0    0 -0.31794461520E+02 -0.21168537047E+02 -0.11186616701E+03  0.14808408440E+03  0.89195638829E+02 0.  0.
        -11    1    4    4    0    0 -0.23940825941E+02  0.32476657500E+02 -0.64557206967E+02  0.76128374477E+02  0.00000000000E+00 0. -1.
         11    1    4    4    0    0 -0.78536355789E+01 -0.53645194546E+02 -0.47308960045E+02  0.71955709921E+02  0.00000000000E+00 0.  1.
        -11    1    3    3    0    0  0.45066706630E+02 -0.22823116334E+02 -0.59403572375E+02  0.77978760548E+02  0.00000000000E+00 0.  1.
         11    1    3    3    0    0 -0.17416528479E+02  0.22407918024E+02 -0.13691379970E+03  0.13982431406E+03  0.00000000000E+00 0. -1.
          1    1    1    2  501    0  0.41442833691E+01  0.21583735356E+02  0.12787503562E+02  0.25427405765E+02  0.00000000000E+00 0. -1.
<scales pt_clust_5="13000.00000" pt_clust_6="13000.00000" pt_clust_7="13000.00000" pt_clust_8="13000.00000" pt_clust_9="21.97801"></scales>
<clustering>
<clus scale="   21.978">  1  9  2 -1</clus>
<clus scale="   89.196">  5  6 -1 -1</clus>
<clus scale="   90.183">  7  8 -1 -1</clus>
<clus scale="   94.160">  1  5  2 -1</clus>
<clus scale="   21.978">  1  5  2 -1</clus>
</clustering>
</event>
<event>
 9    1  0.1881049E-005  0.1206466E+03  0.7546771E-02  0.1242299E+00
         21   -1    0    0  501  502  0.00000000000E+00  0.00000000000E+00  0.73776642581E+02  0.73776642581E+02  0.00000000000E+00 0. -1.
          2   -1    0    0  502    0 -0.00000000000E+00 -0.00000000000E+00 -0.57710541802E+03  0.57710541802E+03  0.00000000000E+00 0. -1.
         23    2    1    2    0    0  0.11154517996E+03  0.29673634436E+02 -0.36065192442E+03  0.38937808230E+03  0.90678711041E+02 0.  0.
         23    2    1    2    0    0 -0.41256354691E+02 -0.18335578099E+01 -0.15521935902E+03  0.18486910809E+03  0.91531901402E+02 0.  0.
        -11    1    4    4    0    0  0.27507219451E+02 -0.13159766619E+02 -0.41583739754E+02  0.51565821930E+02  0.00000000000E+00 0.  1.
         11    1    4    4    0    0 -0.68763574141E+02  0.11326208809E+02 -0.11363561927E+03  0.13330328616E+03  0.00000000000E+00 0. -1.
        -13    1    3    3    0    0  0.85416754906E+02 -0.25288926971E+01 -0.32034827486E+03  0.33155004829E+03  0.00000000000E+00 0. -1.
         13    1    3    3    0    0  0.26128425057E+02  0.32202527133E+02 -0.40303649564E+02  0.57828034014E+02  0.00000000000E+00 0.  1.
          2    1    1    2  501    0 -0.70288825272E+02 -0.27840076626E+02  0.12542508004E+02  0.76634870208E+02  0.00000000000E+00 0. -1.
<scales pt_clust_5="13000.00000" pt_clust_6="13000.00000" pt_clust_7="13000.00000" pt_clust_8="13000.00000" pt_clust_9="75.60151"></scales>
<clustering>
<clus scale="   75.602">  1  9  2 -1</clus>
<clus scale="   90.679">  7  8 -1 -1</clus>
<clus scale="   91.532">  5  6 -1 -1</clus>
<clus scale="  120.001">  2  7  1 -1</clus>
<clus scale="   75.602">  1  5  2 -1</clus>
</clustering>
</event>
<event>
 9    1  0.1881049E-005  0.1465972E+03  0.7546771E-02  0.1205313E+00
          3   -1    0    0  502    0 -0.00000000000E+00  0.00000000000E+00  0.15399324567E+03  0.15399324567E+03  0.00000000000E+00 0. -1.
         21   -1    0    0  501  502  0.00000000000E+00 -0.00000000000E+00 -0.38893472544E+03  0.38893472544E+03  0.00000000000E+00 0.  1.
         23    2    1    2    0    0 -0.33887615231E+02  0.98965374798E+02  0.73548295421E+02  0.16104589327E+03  0.97897457083E+02 0.  0.
         23    2    1    2    0    0  0.58592878077E+02 -0.11469638041E+03 -0.14565701705E+03  0.21643625083E+03  0.95080487054E+02 0.  0.
        -13    1    3    3    0    0  0.22629742191E+02  0.56771476144E+02  0.28498036402E+01  0.61181918211E+02  0.00000000000E+00 0.  1.
         13    1    3    3    0    0 -0.56517357422E+02  0.42193898654E+02  0.70698491781E+02  0.99863975054E+02  0.00000000000E+00 0. -1.
        -13    1    4    4    0    0 -0.23480594885E+02 -0.20949781479E+02 -0.51139229522E+02  0.60045420111E+02  0.00000000000E+00 0. -1.
         13    1    4    4    0    0  0.82073472962E+02 -0.93746598927E+02 -0.94517787531E+02  0.15639083072E+03  0.00000000000E+00 0.  1.
          3    1    1    2  501    0 -0.24705262846E+02  0.15731005608E+02 -0.16283275814E+03  0.16544582701E+03  0.00000000000E+00 0. -1.
<scales pt_clust_5="13000.00000" pt_clust_6="13000.00000" pt_clust_7="13000.00000" pt_clust_8="13000.00000" pt_clust_9="29.28847"></scales>
<clustering>
<clus scale="   29.288">  2  9  1 -1</clus>
<clus scale="   95.080">  7  8 -1 -1</clus>
<clus scale="   97.897">  5  6 -1 -1</clus>
<clus scale="  144.731">  2  7  1 -1</clus>
<clus scale="   29.288">  2  5  1 -1</clus>
</clustering>
</event>
<event>
 9    1  0.1881049E-005  0.9468736E+02  0.7546771E-02  0.1292267E+00
         -1   -1    0    0    0  501 -0.00000000000E+00  0.00000000000E+00  0.50445765900E+03  0.50445765900E+03  0.00000000000E+00 0.  1.
         21   -1    0    0  501  502  0.00000000000E+00 -0.00000000000E+00 -0.40100749042E+02  0.40100749042E+02  0.00000000000E+00 0. -1.
         23    2    1    2    0    0 -0.27017916852E+02  0.15601316770E+02  0.32073557879E+03  0.33493105424E+03  0.91291460025E+02 0.  0.
         23    2    1    2    0    0  0.17340893739E+02  0.28043404368E+01  0.15895071206E+03  0.18379321144E+03  0.90587221979E+02 0.  0.
        -11    1    3    3    0    0 -0.28645947922E+01 -0.37564782345E+02  0.14106086321E+03  0.14600508863E+03  0.00000000000E+00 0.  1.
         11    1    3    3    0    0 -0.24153322060E+02  0.53166099115E+02  0.17967471558E+03  0.18892596561E+03  0.00000000000E+00 0. -1.
        -13    1    4    4    0    0 -0.27918025931E+02 -0.26291779056E+02  0.70810339583E+02  0.80528119373E+02  0.00000000000E+00 0.  1.
         13    1    4    4    0    0  0.45258919669E+02  0.29096119493E+02  0.88140372475E+02  0.10326509207E+03  0.00000000000E+00 0. -1.
         -1    1    1    2    0  502  0.96770231135E+01 -0.18405657207E+02 -0.15329380888E+02  0.25834142370E+02  0.00000000000E+00 0.  1.
<scales pt_clust_5="13000.00000" pt_clust_6="13000.00000" pt_clust_7="13000.00000" pt_clust_8="13000.00000" pt_clust_9="20.79454"></scales>
<clustering>
<clus scale="   20.795">  2  9  1 -1</clus>
<clus scale="   90.587">  7  8 -1 -1</clus>
<clus scale="   91.291">  5  6 -1 -1</clus>
<clus scale="   94.009">  2  7  1 -1</clus>
<clus scale="   20.795">  2  5  1 -1</clus>
</clustering>
</event>
<event>
 9    1  0.1881049E-005  0.1007486E+03  0.7546771E-02  0.1279471E+00
          2   -1    0    0  502    0 -0.00000000000E+00  0.00000000000E+00  0.73890814714E+03  0.73890814714E+03  0.00000000000E+00 0. -1.
         21   -1    0    0  501  502  0.00000000000E+00 -0.00000000000E+00 -0.17941367836E+02  0.17941367836E+02  0.00000000000E+00 0.  1.
         23    2    1    2    0    0 -0.39287520290E+02  0.43410262756E+01  0.34712063360E+03  0.36118073680E+03  0.91632071939E+02 0.  0.
         23    2    1    2    0    0  0.43507966876E+02  0.18649043977E+02  0.33705581513E+03  0.35208112025E+03  0.90076426990E+02 0.  0.
        -13    1    4    4    0    0 -0.14316570906E+02 -0.22495100190E+02  0.53465726259E+02  0.59745942285E+02  0.00000000000E+00 0.  1.
         13    1    4    4    0    0  0.57824537782E+02  0.41144144167E+02  0.28359008887E+03  0.29233517797E+03  0.00000000000E+00 0. -1.
        -13    1    3    3    0    0 -0.65232624670E+02 -0.10743983439E+02  0.27927661077E+03  0.28699504147E+03  0.00000000000E+00 0.  1.
         13    1    3    3    0    0  0.25945104380E+02  0.15085009715E+02  0.67844022824E+02  0.74185695335E+02  0.00000000000E+00 0. -1.
          2    1    1    2  501    0 -0.42204465856E+01 -0.22990070252E+02  0.36790330573E+02  0.43587657923E+02  0.00000000000E+00 0. -1.
<scales pt_clust_5="13000.00000" pt_clust_6="13000.00000" pt_clust_7="13000.00000" pt_clust_8="13000.00000" pt_clust_9="23.37425"></scales>
<clustering>
<clus scale="   23.374">  2  9  1 -1</clus>
<clus scale="   90.076">  5  6 -1 -1</clus>
<clus scale="   91.632">  7  8 -1 -1</clus>
<clus scale="   99.336">  2  5  1 -1</clus>
<clus scale="   23.374">  2  5  1 -1</clus>
</clustering>
</event>
<event>
 9    1  0.1881049E-005  0.9204575E+02  0.7546771E-02  0.1300434E+00
          2   -1    0    0  502    0 -0.00000000000E+00  0.00000000000E+00  0.70400794370E+03  0.70400794370E+03  0.00000000000E+00 0. -1.
         21   -1    0    0  501  502  0.00000000000E+00 -0.00000000000E+00 -0.36015926461E+02  0.36015926461E+02  0.00000000000E+00 0. -1.
         23    2    1    2    0    0 -0.34508271737E+01  0.24137211683E+01  0.47846895507E+03  0.48713609989E+03  0.91385472563E+02 0.  0.
         23    2    1    2    0    0  0.41471065225E+01 -0.56836297722E+02  0.82887878220E+02  0.13316574180E+03  0.87264833713E+02 0.  0.
        -13    1    4    4    0    0  0.37444790171E+02 -0.48878641081E+02  0.76730766215E+02  0.98381117847E+02  0.00000000000E+00 0.  1.
         13    1    4    4    0    0 -0.33297683648E+02 -0.79576566412E+01  0.61571120049E+01  0.34784623956E+02  0.00000000000E+00 0. -1.
        -13    1    3    3    0    0 -0.30633209224E+02 -0.33924170172E+02  0.26268324364E+03  0.26663032333E+03  0.00000000000E+00 0.  1.
         13    1    3    3    0    0  0.27182382050E+02  0.36337891340E+02  0.21578571143E+03  0.22050577656E+03  0.00000000000E+00 0. -1.
          2    1    1    2  501    0 -0.69627934884E+00  0.54422576554E+02  0.10663518395E+03  0.11972202847E+03  0.00000000000E+00 0. -1.
<scales pt_clust_5="13000.00000" pt_clust_6="13000.00000" pt_clust_7="13000.00000" pt_clust_8="13000.00000" pt_clust_9="54.42703"></scales>
<clustering>
<clus scale="   54.427">  2  9  1 -1</clus>
<clus scale="   87.265">  5  6 -1 -1</clus>
<clus scale="   87.956">  2  5  1 -1</clus>
<clus scale="   91.385">  7  8 -1 -1</clus>
<clus scale="   54.427">  2  5  1 -1</clus>
</clustering>
</event>
<event>
 9    1  0.1881049E-005  0.1831742E+03  0.7546771E-02  0.1185262E+00
         21   -1    0    0  501  502  0.00000000000E+00  0.00000000000E+00  0.13629937425E+03  0.13629937425E+03  0.00000000000E+00 0.  1.
         -2   -1    0    0    0  501 -0.00000000000E+00 -0.00000000000E+00 -0.89552294106E+03  0.89552294106E+03  0.00000000000E+00 0.  1.
         23    2    1    2    0    0 -0.48551051179E+02 -0.48232076614E+02 -0.32232435966E+02  0.11951364622E+03  0.92525909447E+02 0.  0.
         23    2    1    2    0    0  0.15950055742E+03  0.15494351003E+03 -0.71949085491E+03  0.75818736266E+03  0.87937861449E+02 0.  0.
        -13    1    4    4    0    0  0.46405118036E+02  0.99965770679E+02 -0.39800906970E+03  0.41298645238E+03  0.00000000000E+00 0.  1.
         13    1    4    4    0    0  0.11309543938E+03  0.54977739355E+02 -0.32148178522E+03  0.34520091028E+03  0.00000000000E+00 0. -1.
        -13    1    3    3    0    0  0.12749141532E+02 -0.39477106249E+02  0.12266964575E+02  0.43260385429E+02  0.00000000000E+00 0.  1.
         13    1    3    3    0    0 -0.61300192710E+02 -0.87549703647E+01 -0.44499400542E+02  0.76253260789E+02  0.00000000000E+00 0. -1.
         -2    1    1    2    0  502 -0.11094950624E+03 -0.10671143342E+03 -0.75002759335E+01  0.15412130643E+03  0.00000000000E+00 0.  1.
<scales pt_clust_5="13000.00000" pt_clust_6="13000.00000" pt_clust_7="13000.00000" pt_clust_8="13000.00000" pt_clust_9="160.68512"></scales>
<clustering>
<clus scale="   87.938">  5  6 -1 -1</clus>
<clus scale="   92.526">  7  8 -1 -1</clus>
<clus scale="  115.085">  2  7  1 -1</clus>
<clus scale="  160.685">  1  9  2 -1</clus>
<clus scale="  160.685">  1  5  2 -1</clus>
</clustering>
</event>
<event>
 9    1  0.1881049E-005  0.1961278E+03  0.7546771E-02  0.1178684E+00
         21   -1    0    0  501  502  0.00000000000E+00  0.00000000000E+00  0.28226868610E+03  0.28226868610E+03  0.00000000000E+00 0.  1.
         -1   -1    0    0    0  501 -0.00000000000E+00 -0.00000000000E+00 -0.83082718087E+03  0.83082718087E+03  0.00000000000E+00 0.  1.
         23    2    1    2    0    0 -0.36191409656E+02 -0.27037798355E+02  0.11232084630E+03  0.15626486877E+03  0.98802206584E+02 0.  0.
         23    2    1    2    0    0 -0.62946439818E+02  0.16891043063E+03 -0.73952824604E+03  0.76672101098E+03  0.92011380353E+02 0.  0.
        -11    1    4    4    0    0 -0.51241378919E+02  0.63364346463E+02 -0.47027268273E+03  0.47728096069E+03  0.00000000000E+00 0.  1.
         11    1    4    4    0    0 -0.11705060899E+02  0.10554608417E+03 -0.26925556331E+03  0.28944005028E+03  0.00000000000E+00 0. -1.
        -11    1    3    3    0    0  0.30611038390E+02 -0.26119497680E+02  0.55547610939E+02  0.68591551312E+02  0.00000000000E+00 0.  1.
         11    1    3    3    0    0 -0.66802448046E+02 -0.91830067543E+00  0.56773235357E+02  0.87673317457E+02  0.00000000000E+00 0. -1.
         -1    1    1    2    0  502  0.99137849474E+02 -0.14187263227E+03  0.78648904988E+02  0.19010998722E+03  0.00000000000E+00 0.  1.
<scales pt_clust_5="13000.00000" pt_clust_6="13000.00000" pt_clust_7="13000.00000" pt_clust_8="13000.00000" pt_clust_9="173.20513"></scales>
<clustering>
<clus scale="   92.011">  5  6 -1 -1</clus>
<clus scale="   98.802">  7  8 -1 -1</clus>
<clus scale="  108.640">  2  7  1 -1</clus>
<clus scale="  173.205">  1  9  2 -1</clus>
<clus scale="  173.205">  1  5  2 -1</clus>
</clustering>
</event>
<event>
 9    1  0.1881049E-005  0.3704403E+03  0.7546771E-02  0.1101330E+00
          2   -1    0    0  502    0 -0.00000000000E+00  0.00000000000E+00  0.16146600328E+04  0.16146600328E+04  0.00000000000E+00 0. -1.
         21   -1    0    0  501  502  0.00000000000E+00 -0.00000000000E+00 -0.11125010972E+03  0.11125010972E+03  0.00000000000E+00 0. -1.
         23    2    1    2    0    0  0.44488736264E+02 -0.13697826891E+02  0.27187520336E+03  0.29123413924E+03  0.93457581517E+02 0.  0.
         23    2    1    2    0    0  0.32886099704E+03 -0.53524344987E+02  0.71307239100E+03  0.79224933037E+03  0.90401082908E+02 0.  0.
        -13    1    4    4    0    0  0.24142177373E+03 -0.17112838817E+02  0.58388590300E+03  0.63206017895E+03  0.00000000000E+00 0. -1.
         13    1    4    4    0    0  0.87439223302E+02 -0.36411506170E+02  0.12918648800E+03  0.16018915143E+03  0.00000000000E+00 0.  1.
        -13    1    3    3    0    0  0.63995420735E+02 -0.32253198653E+02  0.23426479944E+03  0.24498097672E+03  0.00000000000E+00 0.  1.
         13    1    3    3    0    0 -0.19506684471E+02  0.18555371762E+02  0.37610403915E+02  0.46253162518E+02  0.00000000000E+00 0. -1.
          2    1    1    2  501    0 -0.37334973330E+03  0.67222171878E+02  0.51846232871E+03  0.64242667288E+03  0.00000000000E+00 0. -1.
<scales pt_clust_5="13000.00000" pt_clust_6="13000.00000" pt_clust_7="13000.00000" pt_clust_8="13000.00000" pt_clust_9="359.24041"></scales>
<clustering>
<clus scale="   90.401">  5  6 -1 -1</clus>
<clus scale="   93.458">  7  8 -1 -1</clus>
<clus scale="  104.409">  1  7  2 -1</clus>
<clus scale="  359.240">  2  9  1 -1</clus>
<clus scale="  359.240">  2  5  1 -1</clus>
</clustering>
</event>
<event>
 9    1  0.1881049E-005  0.9576776E+02  0.7546771E-02  0.1292888E+00
          3   -1    0    0  502    0 -0.00000000000E+00  0.00000000000E+00  0.30266856447E+03  0.30266856447E+03  0.00000000000E+00 0. -1.
         21   -1    0    0  501  502  0.00000000000E+00 -0.00000000000E+00 -0.51013195238E+02  0.51013195238E+02  0.00000000000E+00 0.  1.
         23    2    1    2    0    0  0.67256588169E+01  0.12804872278E+02  0.12234186445E+03  0.15068002837E+03  0.86762549017E+02 0.  0.
         23    2    1    2    0    0  0.38115413089E+02 -0.33851350422E+02  0.98383396931E+02  0.14460355034E+03  0.92909608435E+02 0.  0.
        -13    1    4    4    0    0 -0.28533780697E+02  0.46538688661E+01  0.24208926286E+02  0.37708185427E+02  0.00000000000E+00 0. -1.
         13    1    4    4    0    0  0.66649193786E+02 -0.38505219288E+02  0.74174470645E+02  0.10689536491E+03  0.00000000000E+00 0.  1.
        -13    1    3    3    0    0  0.34183186679E+02 -0.10606400489E+02  0.10443513727E+03  0.11039784363E+03  0.00000000000E+00 0.  1.
         13    1    3    3    0    0 -0.27457527862E+02  0.23411272767E+02  0.17906727187E+02  0.40282184740E+02  0.00000000000E+00 0. -1.
          3    1    1    2  501    0 -0.44841071906E+02  0.21046478144E+02  0.30930107847E+02  0.58398180994E+02  0.00000000000E+00 0. -1.
<scales pt_clust_5="13000.00000" pt_clust_6="13000.00000" pt_clust_7="13000.00000" pt_clust_8="13000.00000" pt_clust_9="49.53459"></scales>
<clustering>
<clus scale="   49.535">  2  9  1 -1</clus>
<clus scale="   86.763">  7  8 -1 -1</clus>
<clus scale="   89.817">  1  7  2 -1</clus>
<clus scale="   92.910">  5  6 -1 -1</clus>
<clus scale="   49.535">  2  5  1 -1</clus>
</clustering>
</event>
<event>
 9    1  0.1881049E-005  0.9286907E+02  0.7546771E-02  0.1298660E+00
         21   -1    0    0  501  502  0.00000000000E+00  0.00000000000E+00  0.10091945255E+03  0.10091945255E+03  0.00000000000E+00 0. -1.
          3   -1    0    0  502    0 -0.00000000000E+00 -0.00000000000E+00 -0.22898568507E+03  0.22898568507E+03  0.00000000000E+00 0. -1.
         23    2    1    2    0    0  0.15191986588E+02 -0.26071756938E+02 -0.87499651651E+02  0.12742615824E+03  0.87582554189E+02 0.  0.
         23    2    1    2    0    0  0.36396846439E+02 -0.10346028242E+02 -0.80318438032E+02  0.12786079849E+03  0.92008486414E+02 0.  0.
        -11    1    4    4    0    0 -0.21959321638E+02 -0.11234496013E+02 -0.61942897750E+02  0.66673445158E+02  0.00000000000E+00 0.  1.
         11    1    4    4    0    0  0.58356168076E+02  0.88846777064E+00 -0.18375540281E+02  0.61187353335E+02  0.00000000000E+00 0. -1.
        -11    1    3    3    0    0 -0.74453985745E+00 -0.56755361388E+02 -0.64404774752E+02  0.85846959158E+02  0.00000000000E+00 0. -1.
         11    1    3    3    0    0  0.15936526445E+02  0.30683604450E+02 -0.23094876900E+02  0.41579199081E+02  0.00000000000E+00 0.  1.
          3    1    1    2  501    0 -0.51588833027E+02  0.36417785180E+02  0.39751857169E+02  0.74618180887E+02  0.00000000000E+00 0. -1.
<scales pt_clust_5="13000.00000" pt_clust_6="13000.00000" pt_clust_7="13000.00000" pt_clust_8="13000.00000" pt_clust_9="63.14794"></scales>
<clustering>
<clus scale="   63.148">  1  9  2 -1</clus>
<clus scale="   87.583">  7  8 -1 -1</clus>
<clus scale="   88.486">  2  7  1 -1</clus>
<clus scale="   92.008">  5  6 -1 -1</clus>
<clus scale="   63.148">  1  5  2 -1</clus>
</clustering>
</event>
<event>
 9    1  0.1881049E-005  0.9061068E+02  0.7546771E-02  0.1308715E+00
         -1   -1    0    0    0  501 -0.00000000000E+00  0.00000000000E+00  0.15860558912E+03  0.15860558912E+03  0.00000000000E+00 0.  1.
         21   -1    0    0  501  502  0.00000000000E+00 -0.00000000000E+00 -0.60071867260E+02  0.60071867260E+02  0.00000000000E+00 0. -1.
         23    2    1    2    0    0  0.62171118959E+01  0.16499785827E+02  0.55253592368E+02  0.97356596846E+02  0.78194961905E+02 0.  0.
         23    2    1    2    0    0 -0.14049962350E+02  0.22916227995E+01  0.44056816820E+02  0.10094749880E+03  0.89703631074E+02 0.  0.
        -11    1    4    4    0    0 -0.37982254831E+02  0.32102584266E+02  0.12252636213E+02  0.51218694758E+02  0.00000000000E+00 0.  1.
         11    1    4    4    0    0  0.23932292480E+02 -0.29810961467E+02  0.31804180608E+02  0.49728804038E+02  0.00000000000E+00 0. -1.
        -13    1    3    3    0    0 -0.36038768463E+02  0.52462986691E+01  0.25907944826E+02  0.44693826052E+02  0.00000000000E+00 0.  1.
         13    1    3    3    0    0  0.42255880359E+02  0.11253487158E+02  0.29345647541E+02  0.52662770794E+02  0.00000000000E+00 0. -1.
         -1    1    1    2    0  502  0.78328504544E+01 -0.18791408627E+02 -0.77668733110E+00  0.20373360735E+02  0.00000000000E+00 0.  1.
<scales pt_clust_5="13000.00000" pt_clust_6="13000.00000" pt_clust_7="13000.00000" pt_clust_8="13000.00000" pt_clust_9="20.35855"></scales>
<clustering>
<clus scale="   20.359">  2  9  1 -1</clus>
<clus scale="   78.195">  7  8 -1 -1</clus>
<clus scale="   79.234">  1  7  2 -1</clus>
<clus scale="   89.704">  5  6 -1 -1</clus>
<clus scale="   20.359">  2  5  1 -1</clus>
</clustering>
</event>
<event>
 9    1  0.1881049E-005  0.1114515E+03  0.7546771E-02  0.1259154E+00
         21   -1    0    0  501  502  0.00000000000E+00  0.00000000000E+00  0.22959878451E+03  0.22959878451E+03  0.00000000000E+00 0.  1.
         -1   -1    0    0    0  501 -0.00000000000E+00 -0.00000000000E+00 -0.17857970393E+03  0.17857970393E+03  0.00000000000E+00 0.  1.
         23    2    1    2    0    0  0.66087115311E+02  0.33907240848E+02 -0.10505913344E+03  0.15593816272E+03  0.88102674657E+02 0.  0.
         23    2    1    2    0    0  0.63084617913E+01 -0.61179325872E+02  0.50134091214E+02  0.12105708225E+03  0.91425835833E+02 0.  0.
        -11    1    4    4    0    0  0.38457144616E+02 -0.24979692267E+02 -0.67582019436E+01  0.46353104441E+02  0.00000000000E+00 0.  1.
         11    1    4    4    0    0 -0.32148682825E+02 -0.36199633605E+02  0.56892293158E+02  0.74703977814E+02  0.00000000000E+00 0. -1.
        -13    1    3    3    0    0 -0.41574320425E+01 -0.21678800558E+02 -0.70772000123E+01  0.23180625420E+02  0.00000000000E+00 0.  1.
         13    1    3    3    0    0  0.70244547354E+02  0.55586041406E+02 -0.97981933431E+02  0.13275753730E+03  0.00000000000E+00 0. -1.
         -1    1    1    2    0  502 -0.72395577102E+02  0.27272085024E+02  0.10594412281E+03  0.13118324346E+03  0.00000000000E+00 0.  1.
<scales pt_clust_5="13000.00000" pt_clust_6="13000.00000" pt_clust_7="13000.00000" pt_clust_8="13000.00000" pt_clust_9="77.36205"></scales>
<clustering>
<clus scale="   77.362">  1  9  2 -1</clus>
<clus scale="   88.103">  7  8 -1 -1</clus>
<clus scale="   91.426">  5  6 -1 -1</clus>
<clus scale="  108.742">  2  7  1 -1</clus>
<clus scale="   77.362">  1  5  2 -1</clus>
</clustering>
</event>
<event>
 9    1  0.1881049E-005  0.1047026E+03  0.7546771E-02  0.1272009E+00
          1   -1    0    0  502    0 -0.00000000000E+00  0.00000000000E+00  0.76412358382E+03  0.76412358382E+03  0.00000000000E+00 0. -1.
         21   -1    0    0  501  502  0.00000000000E+00 -0.00000000000E+00 -0.27992111380E+02  0.27992111380E+02  0.00000000000E+00 0. -1.
         23    2    1    2    0    0  0.42511009888E+02 -0.83957557653E+01  0.54069493050E+03  0.55025325631E+03  0.92466012866E+02 0.  0.
         23    2    1    2    0    0 -0.67480424403E+02  0.19422435268E+02  0.16996511603E+03  0.20452810001E+03  0.89514045575E+02 0.  0.
        -11    1    4    4    0    0 -0.48162911071E+02 -0.32566209518E+02  0.92545432973E+02  0.10929264005E+03  0.00000000000E+00 0.  1.
         11    1    4    4    0    0 -0.19317513332E+02  0.51988644785E+02  0.77419683061E+02  0.95235459957E+02  0.00000000000E+00 0. -1.
        -13    1    3    3    0    0  0.53661267175E+02 -0.41068850981E+02  0.36284649840E+03  0.36908503561E+03  0.00000000000E+00 0.  1.
         13    1    3    3    0    0 -0.11150257287E+02  0.32673095216E+02  0.17784843211E+03  0.18116822070E+03  0.00000000000E+00 0. -1.
          1    1    1    2  501    0  0.24969414515E+02 -0.11026679502E+02  0.25471425904E+02  0.37334338881E+02  0.00000000000E+00 0. -1.
<scales pt_clust_5="13000.00000" pt_clust_6="13000.00000" pt_clust_7="13000.00000" pt_clust_8="13000.00000" pt_clust_9="27.29577"></scales>
<clustering>
<clus scale="   27.296">  2  9  1 -1</clus>
<clus scale="   89.514">  5  6 -1 -1</clus>
<clus scale="   92.466">  7  8 -1 -1</clus>
<clus scale="  102.105">  2  5  1 -1</clus>
<clus scale="   27.296">  2  5  1 -1</clus>
</clustering>
</event>
<event>
 9    1  0.1881049E-005  0.9196484E+02  0.7546771E-02  0.1298353E+00
          1   -1    0    0  502    0 -0.00000000000E+00  0.00000000000E+00  0.34060780096E+03  0.34060780096E+03  0.00000000000E+00 0. -1.
         21   -1    0    0  501  502  0.00000000000E+00 -0.00000000000E+00 -0.71740179504E+02  0.71740179504E+02  0.00000000000E+00 0.  1.
         23    2    1    2    0    0  0.56118777480E+01 -0.54525861466E+01  0.26683455739E+03  0.28218564991E+03  0.91470411205E+02 0.  0.
         23    2    1    2    0    0  0.11890819964E+02  0.28220153428E+02  0.17211164861E+02  0.97680315679E+02  0.91145220480E+02 0.  0.
        -13    1    4    4    0    0  0.28150219125E+02  0.51706714982E+02 -0.82083754074E+01  0.59442380822E+02  0.00000000000E+00 0.  1.
         13    1    4    4    0    0 -0.16259399161E+02 -0.23486561553E+02  0.25419540268E+02  0.38237934857E+02  0.00000000000E+00 0. -1.
        -13    1    3    3    0    0 -0.42546348706E+02  0.38364975533E+01  0.12835920556E+03  0.13528117442E+03  0.00000000000E+00 0. -1.
         13    1    3    3    0    0  0.48158226454E+02 -0.92890836999E+01  0.13847535183E+03  0.14690447548E+03  0.00000000000E+00 0.  1.
          1    1    1    2  501    0 -0.17502697712E+02 -0.22767567282E+02 -0.15178100794E+02  0.32482014882E+02  0.00000000000E+00 0. -1.
<scales pt_clust_5="13000.00000" pt_clust_6="13000.00000" pt_clust_7="13000.00000" pt_clust_8="13000.00000" pt_clust_9="28.71770"></scales>
<clustering>
<clus scale="   28.718">  2  9  1 -1</clus>
<clus scale="   91.145">  5  6 -1 -1</clus>
<clus scale="   91.470">  7  8 -1 -1</clus>
<clus scale="   91.641">  2  5  1 -1</clus>
<clus scale="   28.718">  2  5  1 -1</clus>
</clustering>
</event>
<event>
 9    1  0.1881049E-005  0.1051443E+03  0.7546771E-02  0.1269934E+00
         -3   -1    0    0    0  501 -0.00000000000E+00  0.00000000000E+00  0.26771105419E+03  0.26771105419E+03  0.00000000000E+00 0.  1.
         21   -1    0    0  501  502  0.00000000000E+00 -0.00000000000E+00 -0.97551836520E+02  0.97551836520E+02  0.00000000000E+00 0.  1.
         23    2    1    2    0    0  0.35333811308E+02 -0.16221954771E+02  0.40446319960E+02  0.10897445687E+03  0.93423216674E+02 0.  0.
         23    2    1    2    0    0 -0.50644697996E+02  0.42838348920E+02 -0.84966838292E+01  0.11470897164E+03  0.93198417177E+02 0.  0.
        -11    1    4    4    0    0 -0.26698751052E+02  0.53294749901E+00 -0.46082714088E+02  0.53260903846E+02  0.00000000000E+00 0. -1.
         11    1    4    4    0    0 -0.23945946944E+02  0.42305401421E+02  0.37586030259E+02  0.61448067789E+02  0.00000000000E+00 0.  1.
        -11    1    3    3    0    0  0.18678650955E+02 -0.43177927390E+02  0.56443873940E+02  0.73478815454E+02  0.00000000000E+00 0. -1.
         11    1    3    3    0    0  0.16655160353E+02  0.26955972619E+02 -0.15997553980E+02  0.35495641417E+02  0.00000000000E+00 0.  1.
         -3    1    1    2    0  502  0.15310886687E+02 -0.26616394149E+02  0.13820958154E+03  0.14157946220E+03  0.00000000000E+00 0.  1.
<scales pt_clust_5="13000.00000" pt_clust_6="13000.00000" pt_clust_7="13000.00000" pt_clust_8="13000.00000" pt_clust_9="30.70597"></scales>
<clustering>
<clus scale="   30.706">  2  9  1 -1</clus>
<clus scale="   93.198">  5  6 -1 -1</clus>
<clus scale="   93.423">  7  8 -1 -1</clus>
<clus scale="  104.945">  2  5  1 -1</clus>
<clus scale="   30.706">  2  5  1 -1</clus>
</clustering>
</event>
<event>
 9    1  0.1881049E-005  0.1265324E+03  0.7546771E-02  0.1232896E+00
          3   -1    0    0  502    0 -0.00000000000E+00  0.00000000000E+00  0.25545972927E+03  0.25545972927E+03  0.00000000000E+00 0. -1.
         21   -1    0    0  501  502  0.00000000000E+00 -0.00000000000E+00 -0.10595734827E+03  0.10595734827E+03  0.00000000000E+00 0. -1.
         23    2    1    2    0    0  0.89288950080E+02 -0.16756635800E+02  0.15994734137E+03  0.20559724866E+03  0.91835587834E+02 0.  0.
         23    2    1    2    0    0 -0.72488072453E+02  0.33367610623E+02  0.13882634844E+02  0.12190779764E+03  0.91109085657E+02 0.  0.
        -11    1    4    4    0    0 -0.15673252948E+02  0.57344349140E+02  0.67101195125E+01  0.59825169788E+02  0.00000000000E+00 0.  1.
         11    1    4    4    0    0 -0.56814819505E+02 -0.23976738516E+02  0.71725153320E+01  0.62082627855E+02  0.00000000000E+00 0. -1.
        -11    1    3    3    0    0  0.93143949651E+02  0.99960930385E+01  0.14989314272E+03  0.17675879460E+03  0.00000000000E+00 0. -1.
         11    1    3    3    0    0 -0.38549995712E+01 -0.26752728839E+02  0.10054198654E+02  0.28838454060E+02  0.00000000000E+00 0.  1.
          3    1    1    2  501    0 -0.16800877627E+02 -0.16610974823E+02 -0.24327595222E+02  0.33912031241E+02  0.00000000000E+00 0. -1.
<scales pt_clust_5="13000.00000" pt_clust_6="13000.00000" pt_clust_7="13000.00000" pt_clust_8="13000.00000" pt_clust_9="23.62613"></scales>
<clustering>
<clus scale="   23.626">  2  9  1 -1</clus>
<clus scale="   91.109">  5  6 -1 -1</clus>
<clus scale="   91.836">  7  8 -1 -1</clus>
<clus scale="  126.006">  2  5  1 -1</clus>
<clus scale="   23.626">  2  5  1 -1</clus>
</clustering>
</event>
<event>
 9    1  0.1881049E-005  0.1753333E+03  0.7546771E-02  0.1172548E+00
         21   -1    0    0  501  502  0.00000000000E+00  0.00000000000E+00  0.10557420290E+03  0.10557420290E+03  0.00000000000E+00 0.  1.
          1   -1    0    0  502    0 -0.00000000000E+00 -0.00000000000E+00 -0.67014697356E+03  0.67014697356E+03  0.00000000000E+00 0. -1.
         23    2    1    2    0    0 -0.16190528942E+03 -0.77007902988E+01 -0.54769016881E+03  0.57836954991E+03  0.90962576540E+02 0.  0.
         23    2    1    2    0    0  0.99708278489E+02  0.62137517410E+01 -0.88489816705E+01  0.13462030657E+03  0.89799615560E+02 0.  0.
        -11    1    4    4    0    0 -0.73054079126E+01  0.24430044711E+02 -0.50912418601E+01  0.26002246308E+02  0.00000000000E+00 0. -1.
         11    1    4    4    0    0  0.10701368640E+03 -0.18216292970E+02 -0.37577398104E+01  0.10861806026E+03  0.00000000000E+00 0.  1.
        -13    1    3    3    0    0 -0.81831087351E+02 -0.39829586491E+02 -0.19367784158E+03  0.21399492783E+03  0.00000000000E+00 0.  1.
         13    1    3    3    0    0 -0.80074202072E+02  0.32128796192E+02 -0.35401232723E+03  0.36437462208E+03  0.00000000000E+00 0. -1.
          1    1    1    2  501    0  0.62197010933E+02  0.14870385577E+01 -0.80336201789E+01  0.62731319976E+02  0.00000000000E+00 0. -1.
<scales pt_clust_5="13000.00000" pt_clust_6="13000.00000" pt_clust_7="13000.00000" pt_clust_8="13000.00000" pt_clust_9="62.21478"></scales>
<clustering>
<clus scale="   62.215">  1  9  2 -1</clus>
<clus scale="   89.800">  5  6 -1 -1</clus>
<clus scale="   90.963">  7  8 -1 -1</clus>
<clus scale="  174.733">  1  5  2 -1</clus>
<clus scale="   62.215">  1  5  2 -1</clus>
</clustering>
</event>
<event>
 9    1  0.1881049E-005  0.9258986E+02  0.7546771E-02  0.1296704E+00
         21   -1    0    0  501  502  0.00000000000E+00  0.00000000000E+00  0.92060840505E+02  0.92060840505E+02  0.00000000000E+00 0. -1.
          2   -1    0    0  502    0 -0.00000000000E+00 -0.00000000000E+00 -0.36515155632E+03  0.36515155632E+03  0.00000000000E+00 0. -1.
         23    2    1    2    0    0  0.64164621294E+01 -0.11582154094E+02 -0.25242690521E+03  0.26904255172E+03  0.92137044048E+02 0.  0.
         23    2    1    2    0    0 -0.20251389394E+02 -0.52689057131E+02 -0.46356245785E+02  0.11758447105E+03  0.92146355297E+02 0.  0.
        -11    1    3    3    0    0  0.26265675683E+02 -0.46215428820E+02 -0.14587360424E+03  0.15525739916E+03  0.00000000000E+00 0. -1.
         11    1    3    3    0    0 -0.19849213554E+02  0.34633274725E+02 -0.10655330096E+03  0.11378515256E+03  0.00000000000E+00 0.  1.
        -11    1    4    4    0    0  0.89096906402E+01 -0.52610415078E+02 -0.64135915285E+02  0.83430533927E+02  0.00000000000E+00 0. -1.
         11    1    4    4    0    0 -0.29161080034E+02 -0.78642053300E-01  0.17779669500E+02  0.34153937121E+02  0.00000000000E+00 0.  1.
          2    1    1    2  501    0  0.13834927265E+02  0.64271211226E+02  0.25692435177E+02  0.70585374053E+02  0.00000000000E+00 0. -1.
<scales pt_clust_5="13000.00000" pt_clust_6="13000.00000" pt_clust_7="13000.00000" pt_clust_8="13000.00000" pt_clust_9="65.74339"></scales>
<clustering>
<clus scale="   65.743">  1  9  2 -1</clus>
<clus scale="   92.137">  5  6 -1 -1</clus>
<clus scale="   92.146">  7  8 -1 -1</clus>
<clus scale="   92.581">  2  5  1 -1</clus>
<clus scale="   65.743">  1  5  2 -1</clus>
</clustering>
</event>
<event>
 9    1  0.1881049E-005  0.9976829E+02  0.7546771E-02  0.1281774E+00
          1   -1    0    0  502    0 -0.00000000000E+00  0.00000000000E+00  0.18475688571E+03  0.18475688571E+03  0.00000000000E+00 0. -1.
         21   -1    0    0  501  502  0.00000000000E+00 -0.00000000000E+00 -0.13538555680E+03  0.13538555680E+03  0.00000000000E+00 0. -1.
         23    2    1    2    0    0  0.15669649012E+02 -0.54820722443E+02  0.74882885672E+02  0.13095497760E+03  0.91054434719E+02 0.  0.
         23    2    1    2    0    0  0.75809168465E+01  0.26375277925E+02  0.49630305429E+02  0.10554518147E+03  0.89014001865E+02 0.  0.
        -11    1    3    3    0    0 -0.14085709317E+01 -0.41047104544E+02 -0.10832790224E+02  0.42475854407E+02  0.00000000000E+00 0.  1.
         11    1    3    3    0    0  0.17078219943E+02 -0.13773617899E+02  0.85715675896E+02  0.88479123192E+02  0.00000000000E+00 0. -1.
        -13    1    4    4    0    0  0.29369090382E+02  0.43708996490E+02  0.56119096683E+02  0.76956954569E+02  0.00000000000E+00 0.  1.
         13    1    4    4    0    0 -0.21788173536E+02 -0.17333718564E+02 -0.64887912533E+01  0.28588226899E+02  0.00000000000E+00 0. -1.
          1    1    1    2  501    0 -0.23250565858E+02  0.28445444517E+02 -0.75141862185E+02  0.83642283441E+02  0.00000000000E+00 0. -1.
<scales pt_clust_5="13000.00000" pt_clust_6="13000.00000" pt_clust_7="13000.00000" pt_clust_8="13000.00000" pt_clust_9="36.73870"></scales>
<clustering>
<clus scale="   36.739">  2  9  1 -1</clus>
<clus scale="   89.014">  7  8 -1 -1</clus>
<clus scale="   91.054">  5  6 -1 -1</clus>
<clus scale="   97.910">  2  7  1 -1</clus>
<clus scale="   36.739">  2  5  1 -1</clus>
</clustering>
</event>
<event>
 9    1  0.1881049E-005  0.1488093E+03  0.7546771E-02  0.1202009E+00
          1   -1    0    0  502    0 -0.00000000000E+00  0.00000000000E+00  0.58033833025E+03  0.58033833025E+03  0.00000000000E+00 0. -1.
         21   -1    0    0  501  502  0.00000000000E+00 -0.00000000000E+00 -0.60549820067E+02  0.60549820067E+02  0.00000000000E+00 0.  1.
         23    2    1    2    0    0  0.10621278602E+03  0.30393398790E+02  0.34127472210E+03  0.37018916781E+03  0.91469499940E+02 0.  0.
         23    2    1    2    0    0 -0.12961379790E+03 -0.24701043702E+02  0.18590357157E+03  0.24550733381E+03  0.91125379927E+02 0.  0.
        -11    1    3    3    0    0  0.76307715612E+02  0.23773427559E+02  0.32657913986E+03  0.33621715886E+03  0.00000000000E+00 0. -1.
         11    1    3    3    0    0  0.29905070407E+02  0.66199712313E+01  0.14695582240E+02  0.33972008956E+02  0.00000000000E+00 0.  1.
        -13    1    4    4    0    0 -0.69065481910E+02 -0.20144631952E+02  0.16712193789E+03  0.18194941361E+03  0.00000000000E+00 0. -1.
         13    1    4    4    0    0 -0.60548315990E+02 -0.45564117505E+01  0.18781633684E+02  0.63557920207E+02  0.00000000000E+00 0.  1.
          1    1    1    2  501    0  0.23401011881E+02 -0.56923550881E+01 -0.73897834910E+01  0.25191648687E+02  0.00000000000E+00 0. -1.
<scales pt_clust_5="13000.00000" pt_clust_6="13000.00000" pt_clust_7="13000.00000" pt_clust_8="13000.00000" pt_clust_9="24.08340"></scales>
<clustering>
<clus scale="   24.083">  2  9  1 -1</clus>
<clus scale="   91.125">  7  8 -1 -1</clus>
<clus scale="   91.469">  5  6 -1 -1</clus>
<clus scale="  148.598">  2  7  1 -1</clus>
<clus scale="   24.083">  2  5  1 -1</clus>
</clustering>
</event>
<event>
 9    1  0.1881049E-005  0.1049252E+03  0.7546771E-02  0.1271146E+00
         21   -1    0    0  501  502  0.00000000000E+00  0.00000000000E+00  0.13104443837E+03  0.13104443837E+03  0.00000000000E+00 0. -1.
          3   -1    0    0  502    0 -0.00000000000E+00 -0.00000000000E+00 -0.39250804874E+03  0.39250804874E+03  0.00000000000E+00 0. -1.
         23    2    1    2    0    0  0.37241241796E+02  0.11681887290E+02 -0.25242319030E+03  0.27186353515E+03  0.93107132712E+02 0.  0.
         23    2    1    2    0    0 -0.11618471654E+03 -0.57695602171E+02  0.80673799722E+01  0.15872653490E+03  0.91111796135E+02 0.  0.
        -11    1    3    3    0    0 -0.29965001805E+02  0.73441358763E+01 -0.52407722315E+02  0.60814529705E+02  0.00000000000E+00 0.  1.
         11    1    3    3    0    0  0.67206243600E+02  0.43377514142E+01 -0.20001546799E+03  0.21104900545E+03  0.00000000000E+00 0. -1.
        -11    1    4    4    0    0  0.12417371765E+02 -0.21132842285E+02  0.48673430158E+01  0.24989581281E+02  0.00000000000E+00 0.  1.
         11    1    4    4    0    0 -0.12860208831E+03 -0.36562759886E+02  0.32000369563E+01  0.13373695362E+03  0.00000000000E+00 0. -1.
          3    1    1    2  501    0  0.78943474748E+02  0.46013714880E+02 -0.17107800044E+02  0.92962417055E+02  0.00000000000E+00 0. -1.
<scales pt_clust_5="13000.00000" pt_clust_6="13000.00000" pt_clust_7="13000.00000" pt_clust_8="13000.00000" pt_clust_9="91.37469"></scales>
<clustering>
<clus scale="   91.112">  7  8 -1 -1</clus>
<clus scale="   91.375">  1  9  2 -1</clus>
<clus scale="   93.107">  5  6 -1 -1</clus>
<clus scale="  103.159">  1  7  2 -1</clus>
<clus scale="   91.375">  1  5  2 -1</clus>
</clustering>
</event>
<event>
 9    1  0.1881049E-005  0.1006281E+03  0.7546771E-02  0.1282387E+00
          2   -1    0    0  502    0 -0.00000000000E+00  0.00000000000E+00  0.15547949921E+03  0.15547949921E+03  0.00000000000E+00 0. -1.
         21   -1    0    0  501  502  0.00000000000E+00 -0.00000000000E+00 -0.10909825069E+03  0.10909825069E+03  0.00000000000E+00 0.  1.
         23    2    1    2    0    0 -0.59825936229E+02 -0.87792387597E+01  0.18931544751E+02  0.11176979618E+03  0.92075329332E+02 0.  0.
         23    2    1    2    0    0  0.13479268334E+02  0.21061348922E+02 -0.13502785818E+02  0.89752658482E+02  0.85134854122E+02 0.  0.
        -11    1    3    3    0    0 -0.71155235075E+02  0.23728093964E+02  0.18871181226E+02  0.77344756788E+02  0.00000000000E+00 0.  1.
         11    1    3    3    0    0  0.11329298845E+02 -0.32507332724E+02  0.60363525206E-01  0.34425039388E+02  0.00000000000E+00 0. -1.
        -11    1    4    4    0    0  0.35692594119E+02  0.37414728318E+02 -0.27773737108E+02  0.58695857120E+02  0.00000000000E+00 0.  1.
         11    1    4    4    0    0 -0.22213325785E+02 -0.16353379396E+02  0.14270951290E+02  0.31056801362E+02  0.00000000000E+00 0. -1.
          2    1    1    2  501    0  0.46346667895E+02 -0.12282110163E+02  0.40952489591E+02  0.63055295247E+02  0.00000000000E+00 0. -1.
<scales pt_clust_5="13000.00000" pt_clust_6="13000.00000" pt_clust_7="13000.00000" pt_clust_8="13000.00000" pt_clust_9="47.94649"></scales>
<clustering>
<clus scale="   47.946">  2  9  1 -1</clus>
<clus scale="   85.135">  7  8 -1 -1</clus>
<clus scale="   92.075">  5  6 -1 -1</clus>
<clus scale="   94.319">  2  7  1 -1</clus>
<clus scale="   47.946">  2  5  1 -1</clus>
</clustering>
</event>
<event>
 9    1  0.1881049E-005  0.1496501E+03  0.7546771E-02  0.1201273E+00
          1   -1    0    0  502    0 -0.00000000000E+00  0.00000000000E+00  0.20289916806E+03  0.20289916806E+03  0.00000000000E+00 0. -1.
         21   -1    0    0  501  502  0.00000000000E+00 -0.00000000000E+00 -0.51534983881E+03  0.51534983881E+03  0.00000000000E+00 0. -1.
         23    2    1    2    0    0  0.10542548987E+03 -0.44047947197E+02  0.45489152649E+02  0.15419003492E+03  0.93008323775E+02 0.  0.
         23    2    1    2    0    0 -0.12561392543E+03 -0.12558099868E+01  0.42246666502E+02  0.16081062411E+03  0.91076015920E+02 0.  0.
        -11    1    4    4    0    0 -0.79192039099E+02  0.43776470001E+02  0.24845726189E+02  0.93835326462E+02  0.00000000000E+00 0.  1.
         11    1    4    4    0    0 -0.46421886331E+02 -0.45032279988E+02  0.17400940313E+02  0.66975297649E+02  0.00000000000E+00 0. -1.
        -13    1    3    3    0    0  0.38962396887E+02  0.27675612451E+02  0.26270672176E+02  0.54535824119E+02  0.00000000000E+00 0.  1.
         13    1    3    3    0    0  0.66463092986E+02 -0.71723559649E+02  0.19218480473E+02  0.99654210797E+02  0.00000000000E+00 0. -1.
          1    1    1    2  501    0  0.20188435557E+02  0.45303757184E+02 -0.40018648990E+03  0.40324834785E+03  0.00000000000E+00 0. -1.
<scales pt_clust_5="13000.00000" pt_clust_6="13000.00000" pt_clust_7="13000.00000" pt_clust_8="13000.00000" pt_clust_9="49.59842"></scales>
<clustering>
<clus scale="   49.598">  2  9  1 -1</clus>
<clus scale="   91.076">  5  6 -1 -1</clus>
<clus scale="   93.008">  7  8 -1 -1</clus>
<clus scale="  148.457">  2  5  1 -1</clus>
<clus scale="   49.598">  2  5  1 -1</clus>
</clustering>
</event>
<event>
 9    1  0.1881049E-005  0.9942426E+02  0.7546771E-02  0.1283865E+00
         21   -1    0    0  501  502  0.00000000000E+00  0.00000000000E+00  0.49177920961E+03  0.49177920961E+03  0.00000000000E+00 0. -1.
          4   -1    0    0  502    0 -0.00000000000E+00 -0.00000000000E+00 -0.48316500766E+02  0.48316500766E+02  0.00000000000E+00 0. -1.
         23    2    1    2    0    0 -0.38981522147E+02 -0.19759513695E+02  0.64331518484E+02  0.12018939342E+03  0.91634865466E+02 0.  0.
         23    2    1    2    0    0  0.19330459665E+01 -0.32167036439E+02  0.14288720434E+03  0.17520205233E+03  0.96127785149E+02 0.  0.
        -11    1    4    4    0    0  0.97184611406E+01  0.25321942030E+02  0.98470034217E+02  0.10213714737E+03  0.00000000000E+00 0.  1.
         11    1    4    4    0    0 -0.77854151741E+01 -0.57488978469E+02  0.44417170120E+02  0.73064904956E+02  0.00000000000E+00 0. -1.
        -13    1    3    3    0    0  0.25791280095E+02 -0.22283791238E+02  0.35597600264E+02  0.49284344628E+02  0.00000000000E+00 0.  1.
         13    1    3    3    0    0 -0.64772802242E+02  0.25242775432E+01  0.28733918221E+02  0.70905048788E+02  0.00000000000E+00 0. -1.
          4    1    1    2  501    0  0.37048476180E+02  0.51926550134E+02  0.23624398602E+03  0.24470426463E+03  0.00000000000E+00 0. -1.
<scales pt_clust_5="13000.00000" pt_clust_6="13000.00000" pt_clust_7="13000.00000" pt_clust_8="13000.00000" pt_clust_9="63.78837"></scales>
<clustering>
<clus scale="   63.788">  1  9  2 -1</clus>
<clus scale="   91.635">  7  8 -1 -1</clus>
<clus scale="   95.087">  2  7  1 -1</clus>
<clus scale="   96.128">  5  6 -1 -1</clus>
<clus scale="   63.788">  1  5  2 -1</clus>
</clustering>
</event>
<event>
 9    1  0.1881049E-005  0.1221363E+03  0.7546771E-02  0.1240476E+00
         21   -1    0    0  501  502  0.00000000000E+00  0.00000000000E+00  0.35358281846E+03  0.35358281846E+03  0.00000000000E+00 0. -1.
          2   -1    0    0  502    0 -0.00000000000E+00 -0.00000000000E+00 -0.69985616250E+02  0.69985616250E+02  0.00000000000E+00 0. -1.
         23    2    1    2    0    0 -0.10137315960E+03  0.22420238960E+02  0.71064944568E+02  0.15465133290E+03  0.89931217144E+02 0.  0.
         23    2    1    2    0    0  0.42173182722E+02 -0.95653290765E+01  0.15234549696E+03  0.18352194895E+03  0.92742020911E+02 0.  0.
        -13    1    4    4    0    0 -0.23950095464E+02  0.16088559198E+02  0.27073567856E+02  0.39565475939E+02  0.00000000000E+00 0.  1.
         13    1    4    4    0    0  0.66123278186E+02 -0.25653888274E+02  0.12527192910E+03  0.14395647302E+03  0.00000000000E+00 0. -1.
        -13    1    3    3    0    0 -0.39180520207E+01 -0.24218533397E+02  0.30742741736E+02  0.39331980131E+02  0.00000000000E+00 0.  1.
         13    1    3    3    0    0 -0.97455107582E+02  0.46638772357E+02  0.40322202833E+02  0.11531935276E+03  0.00000000000E+00 0. -1.
          2    1    1    2  501    0  0.59199976881E+02 -0.12854909883E+02  0.60186760686E+02  0.85395152865E+02  0.00000000000E+00 0. -1.
<scales pt_clust_5="13000.00000" pt_clust_6="13000.00000" pt_clust_7="13000.00000" pt_clust_8="13000.00000" pt_clust_9="60.57958"></scales>
<clustering>
<clus scale="   60.580">  1  9  2 -1</clus>
<clus scale="   89.931">  7  8 -1 -1</clus>
<clus scale="   92.742">  5  6 -1 -1</clus>
<clus scale="  120.016">  2  7  1 -1</clus>
<clus scale="   60.580">  1  5  2 -1</clus>
</clustering>
</event>
<event>
 9    1  0.1881049E-005  0.1362112E+03  0.7546771E-02  0.1218613E+00
          3   -1    0    0  502    0 -0.00000000000E+00  0.00000000000E+00  0.63841744105E+03  0.63841744105E+03  0.00000000000E+00 0. -1.
         21   -1    0    0  501  502  0.00000000000E+00 -0.00000000000E+00 -0.13001202213E+03  0.13001202213E+03  0.00000000000E+00 0. -1.
         23    2    1    2    0    0 -0.10759707928E+03  0.39223461642E+02  0.46988193903E+03  0.49255144525E+03  0.93286002041E+02 0.  0.
         23    2    1    2    0    0  0.61536775870E+02 -0.30121438349E+02  0.12925869911E+03  0.17371501883E+03  0.93675080147E+02 0.  0.
        -11    1    4    4    0    0  0.28890388910E+02  0.20294995670E+02  0.49441840787E+01  0.35650895877E+02  0.00000000000E+00 0.  1.
         11    1    4    4    0    0  0.32646386960E+02 -0.50416434019E+02  0.12431451503E+03  0.13806412296E+03  0.00000000000E+00 0. -1.
        -13    1    3    3    0    0 -0.10359885963E+03  0.64437107368E+02  0.37909156700E+03  0.39824022988E+03  0.00000000000E+00 0. -1.
         13    1    3    3    0    0 -0.39982196457E+01 -0.25213645726E+02  0.90790372029E+02  0.94311215368E+02  0.00000000000E+00 0.  1.
          3    1    1    2  501    0  0.46060303406E+02 -0.91020232928E+01 -0.90735219220E+02  0.10216299910E+03  0.00000000000E+00 0. -1.
<scales pt_clust_5="13000.00000" pt_clust_6="13000.00000" pt_clust_7="13000.00000" pt_clust_8="13000.00000" pt_clust_9="46.95102"></scales>
<clustering>
<clus scale="   46.951">  2  9  1 -1</clus>
<clus scale="   93.286">  7  8 -1 -1</clus>
<clus scale="   93.675">  5  6 -1 -1</clus>
<clus scale="  135.944">  1  7  2 -1</clus>
<clus scale="   46.951">  2  5  1 -1</clus>
</clustering>
</event>
<event>
 9    1  0.1881049E-005  0.1144857E+03  0.7546771E-02  0.1255750E+00
         21   -1    0    0  501  502  0.00000000000E+00  0.00000000000E+00  0.34479818102E+02  0.34479818102E+02  0.00000000000E+00 0.  1.
          2   -1    0    0  502    0 -0.00000000000E+00 -0.00000000000E+00 -0.87293404775E+03  0.87293404775E+03  0.00000000000E+00 0. -1.
         23    2    1    2    0    0  0.20228131043E+02 -0.25792723852E+02 -0.33284617454E+03  0.34678579994E+03  0.91648094608E+02 0.  0.
         23    2    1    2    0    0 -0.14186447586E+02  0.11402759069E+03 -0.34868438742E+03  0.38049774879E+03  0.99970936145E+02 0.  0.
        -11    1    3    3    0    0 -0.35116325199E+02 -0.16989976337E+02 -0.10123055694E+03  0.10848705567E+03  0.00000000000E+00 0.  1.
         11    1    3    3    0    0  0.55344456242E+02 -0.88027475152E+01 -0.23161561760E+03  0.23829874426E+03  0.00000000000E+00 0. -1.
        -11    1    4    4    0    0  0.80236198878E+01  0.41761627242E+02 -0.27749553114E+02  0.50778437196E+02  0.00000000000E+00 0.  1.
         11    1    4    4    0    0 -0.22210067473E+02  0.72265963446E+02 -0.32093483431E+03  0.32971931160E+03  0.00000000000E+00 0. -1.
          2    1    1    2  501    0 -0.60416834578E+01 -0.88234866835E+02 -0.15692366769E+03  0.18013031712E+03  0.00000000000E+00 0. -1.
<scales pt_clust_5="13000.00000" pt_clust_6="13000.00000" pt_clust_7="13000.00000" pt_clust_8="13000.00000" pt_clust_9="88.44147"></scales>
<clustering>
<clus scale="   88.441">  1  9  2 -1</clus>
<clus scale="   91.648">  5  6 -1 -1</clus>
<clus scale="   99.971">  7  8 -1 -1</clus>
<clus scale="  107.295">  2  5  1 -1</clus>
<clus scale="   88.441">  1  5  2 -1</clus>
</clustering>
</event>
<event>
 9    1  0.1881049E-005  0.1927873E+03  0.7546771E-02  0.1156521E+00
          2   -1    0    0  502    0 -0.00000000000E+00  0.00000000000E+00  0.44440399404E+03  0.44440399404E+03  0.00000000000E+00 0. -1.
         21   -1    0    0  501  502  0.00000000000E+00 -0.00000000000E+00 -0.19648028638E+03  0.19648028638E+03  0.00000000000E+00 0. -1.
         23    2    1    2    0    0  0.14315524386E+03  0.10160236363E+03  0.35322481228E+03  0.40381278775E+03  0.86490088444E+02 0.  0.
         23    2    1    2    0    0 -0.10147410895E+03 -0.88723560909E+02 -0.10401900348E+03  0.19342719922E+03  0.91789232842E+02 0.  0.
        -11    1    4    4    0    0 -0.77664049068E+02 -0.63806898015E+02 -0.19821887323E+02  0.10244965578E+03  0.00000000000E+00 0.  1.
         11    1    4    4    0    0 -0.23810059881E+02 -0.24916662894E+02 -0.84197116162E+02  0.90977543445E+02  0.00000000000E+00 0. -1.
        -11    1    3    3    0    0  0.70620207605E+02  0.15261340160E+02  0.77679915835E+02  0.10608624581E+03  0.00000000000E+00 0.  1.
         11    1    3    3    0    0  0.72535036254E+02  0.86341023466E+02  0.27554489645E+03  0.29772654194E+03  0.00000000000E+00 0. -1.
          2    1    1    2  501    0 -0.41681134910E+02 -0.12878802717E+02 -0.12821011376E+01  0.43644293443E+02  0.00000000000E+00 0. -1.
<scales pt_clust_5="13000.00000" pt_clust_6="13000.00000" pt_clust_7="13000.00000" pt_clust_8="13000.00000" pt_clust_9="43.62546"></scales>
<clustering>
<clus scale="   43.625">  2  9  1 -1</clus>
<clus scale="   86.490">  7  8 -1 -1</clus>
<clus scale="   91.789">  5  6 -1 -1</clus>
<clus scale="  190.321">  1  7  2 -1</clus>
<clus scale="   43.625">  2  5  1 -1</clus>
</clustering>
</event>
<event>
 9    1  0.1881049E-005  0.1306199E+03  0.7546771E-02  0.1227094E+00
         21   -1    0    0  501  502  0.00000000000E+00  0.00000000000E+00  0.30535280654E+03  0.30535280654E+03  0.00000000000E+00 0. -1.
          4   -1    0    0  502    0 -0.00000000000E+00 -0.00000000000E+00 -0.10915040497E+03  0.10915040497E+03  0.00000000000E+00 0. -1.
         23    2    1    2    0    0 -0.46458251562E+02 -0.77545818757E+02 -0.40149611768E+01  0.12918912852E+03  0.92206224673E+02 0.  0.
         23    2    1    2    0    0  0.17704030382E+02  0.98875238229E+02  0.73505757965E+02  0.15364183779E+03  0.90072040269E+02 0.  0.
        -11    1    3    3    0    0 -0.28304139582E+02 -0.91841836950E+02 -0.23530868420E+02  0.98943160958E+02  0.00000000000E+00 0.  1.
         11    1    3    3    0    0 -0.18154111980E+02  0.14296018193E+02  0.19515907243E+02  0.30245967557E+02  0.00000000000E+00 0. -1.
        -13    1    4    4    0    0  0.37891229433E+02  0.64965751196E+02  0.84057766740E+02  0.11279185363E+03  0.00000000000E+00 0.  1.
         13    1    4    4    0    0 -0.20187199051E+02  0.33909487032E+02 -0.10552008775E+02  0.40849984156E+02  0.00000000000E+00 0. -1.
          4    1    1    2  501    0  0.28754221180E+02 -0.21329419472E+02  0.12671160478E+03  0.13167224521E+03  0.00000000000E+00 0. -1.
<scales pt_clust_5="13000.00000" pt_clust_6="13000.00000" pt_clust_7="13000.00000" pt_clust_8="13000.00000" pt_clust_9="35.80153"></scales>
<clustering>
<clus scale="   35.802">  1  9  2 -1</clus>
<clus scale="   90.072">  7  8 -1 -1</clus>
<clus scale="   92.206">  5  6 -1 -1</clus>
<clus scale="  129.122">  1  7  2 -1</clus>
<clus scale="   35.802">  1  5  2 -1</clus>
</clustering>
</event>
<event>
 9    1  0.1881049E-005  0.9191053E+02  0.7546771E-02  0.1298865E+00
         21   -1    0    0  501  502  0.00000000000E+00  0.00000000000E+00  0.62472765477E+02  0.62472765477E+02  0.00000000000E+00 0.  1.
         -1   -1    0    0    0  501 -0.00000000000E+00 -0.00000000000E+00 -0.33219772548E+03  0.33219772548E+03  0.00000000000E+00 0.  1.
         23    2    1    2    0    0  0.72150199142E+01 -0.38000416124E+01 -0.23031952413E+03  0.24742679416E+03  0.90035762012E+02 0.  0.
         23    2    1    2    0    0 -0.32784710620E+02 -0.22994391263E+02 -0.46104502514E+02  0.10960557504E+03  0.91017457923E+02 0.  0.
        -13    1    3    3    0    0 -0.37690606746E+02  0.34071303028E+01 -0.15401520520E+03  0.15859657565E+03  0.00000000000E+00 0.  1.
         13    1    3    3    0    0  0.44905626661E+02 -0.72071719153E+01 -0.76304318933E+02  0.88830218511E+02  0.00000000000E+00 0. -1.
        -13    1    4    4    0    0 -0.30619365036E+01 -0.49103853850E+02 -0.49634227555E+02  0.69886482692E+02  0.00000000000E+00 0. -1.
         13    1    4    4    0    0 -0.29722774116E+02  0.26109462587E+02  0.35297250405E+01  0.39719092344E+02  0.00000000000E+00 0.  1.
         -1    1    1    2    0  502  0.25569690706E+02  0.26794432875E+02  0.66990666474E+01  0.37638121763E+02  0.00000000000E+00 0.  1.
<scales pt_clust_5="13000.00000" pt_clust_6="13000.00000" pt_clust_7="13000.00000" pt_clust_8="13000.00000" pt_clust_9="37.03715"></scales>
<clustering>
<clus scale="   37.037">  1  9  2 -1</clus>
<clus scale="   90.036">  5  6 -1 -1</clus>
<clus scale="   90.938">  2  5  1 -1</clus>
<clus scale="   91.017">  7  8 -1 -1</clus>
<clus scale="   37.037">  1  5  2 -1</clus>
</clustering>
</event>
<event>
 9    1  0.1881049E-005  0.1584690E+03  0.7546771E-02  0.1190635E+00
          2   -1    0    0  502    0 -0.00000000000E+00  0.00000000000E+00  0.99046179688E+03  0.99046179688E+03  0.00000000000E+00 0. -1.
         21   -1    0    0  501  502  0.00000000000E+00 -0.00000000000E+00 -0.66060343217E+02  0.66060343217E+02  0.00000000000E+00 0. -1.
         23    2    1    2    0    0 -0.44125343851E+02  0.15870224667E+03  0.61920582405E+03  0.64781442152E+03  0.95468440463E+02 0.  0.
         23    2    1    2    0    0  0.76628425277E+02 -0.58144474804E+02  0.26187751136E+03  0.29449399280E+03  0.94308988603E+02 0.  0.
        -11    1    3    3    0    0  0.20571266844E+02  0.16031648288E+02  0.39639249648E+02  0.47449561421E+02  0.00000000000E+00 0.  1.
         11    1    3    3    0    0 -0.64696610695E+02  0.14267059839E+03  0.57956657440E+03  0.60036486010E+03  0.00000000000E+00 0. -1.
        -11    1    4    4    0    0  0.74590267672E+02 -0.94623518002E+00  0.17748347104E+03  0.19252268927E+03  0.00000000000E+00 0. -1.
         11    1    4    4    0    0  0.20381576045E+01 -0.57198239624E+02  0.84394040320E+02  0.10197130353E+03  0.00000000000E+00 0.  1.
          2    1    1    2  501    0 -0.32503081426E+02 -0.10055777187E+03  0.43318118254E+02  0.11421372577E+03  0.00000000000E+00 0. -1.
<scales pt_clust_5="13000.00000" pt_clust_6="13000.00000" pt_clust_7="13000.00000" pt_clust_8="13000.00000" pt_clust_9="105.68025"></scales>
<clustering>
<clus scale="   94.309">  7  8 -1 -1</clus>
<clus scale="   95.468">  5  6 -1 -1</clus>
<clus scale="  105.680">  2  9  1 -1</clus>
<clus scale="  157.773">  2  7  1 -1</clus>
<clus scale="  105.680">  2  5  1 -1</clus>
</clustering>
</event>
<event>
 9    1  0.1881049E-005  0.1342740E+03  0.7546771E-02  0.1221555E+00
         21   -1    0    0  501  502  0.00000000000E+00  0.00000000000E+00  0.92698485316E+03  0.92698485316E+03  0.00000000000E+00 0. -1.
          2   -1    0    0  502    0 -0.00000000000E+00 -0.00000000000E+00 -0.21573376304E+03  0.21573376304E+03  0.00000000000E+00 0. -1.
         23    2    1    2    0    0  0.95225504057E+02 -0.23831171027E+02 -0.17395892742E+03  0.21973719901E+03  0.91580057140E+02 0.  0.
         23    2    1    2    0    0 -0.77022471808E+02  0.98015371555E+02  0.76660541165E+03  0.78190803725E+03  0.90315266252E+02 0.  0.
        -11    1    4    4    0    0 -0.59080825600E+02  0.11491931218E+03  0.65213364433E+03  0.66481221584E+03  0.00000000000E+00 0. -1.
         11    1    4    4    0    0 -0.17941646207E+02 -0.16903940628E+02  0.11447176733E+03  0.11709582141E+03  0.00000000000E+00 0.  1.
        -13    1    3    3    0    0  0.45367363012E+02  0.25285115189E+02 -0.30793059691E+02  0.60380023202E+02  0.00000000000E+00 0.  1.
         13    1    3    3    0    0  0.49858141045E+02 -0.49116286215E+02 -0.14316586773E+03  0.15935717581E+03  0.00000000000E+00 0. -1.
          2    1    1    2  501    0 -0.18203032250E+02 -0.74184200528E+02  0.11860460588E+03  0.14107337994E+03  0.00000000000E+00 0. -1.
<scales pt_clust_5="13000.00000" pt_clust_6="13000.00000" pt_clust_7="13000.00000" pt_clust_8="13000.00000" pt_clust_9="76.38485"></scales>
<clustering>
<clus scale="   76.385">  1  9  2 -1</clus>
<clus scale="   90.315">  5  6 -1 -1</clus>
<clus scale="   91.580">  7  8 -1 -1</clus>
<clus scale="  133.415">  1  5  2 -1</clus>
<clus scale="   76.385">  1  5  2 -1</clus>
</clustering>
</event>
<event>
 9    1  0.1881049E-005  0.9415231E+02  0.7546771E-02  0.1294268E+00
          1   -1    0    0  502    0 -0.00000000000E+00  0.00000000000E+00  0.21631241824E+02  0.21631241824E+02  0.00000000000E+00 0. -1.
         21   -1    0    0  501  502  0.00000000000E+00 -0.00000000000E+00 -0.54885006186E+03  0.54885006186E+03  0.00000000000E+00 0.  1.
         23    2    1    2    0    0 -0.92176130472E+01  0.10568817030E+02 -0.18879985643E+03  0.20986431941E+03  0.90559276108E+02 0.  0.
         23    2    1    2    0    0  0.24785639303E+02  0.42952521293E+01 -0.21662488775E+03  0.23693553495E+03  0.92624665304E+02 0.  0.
        -11    1    4    4    0    0 -0.27010478098E+02 -0.28050468986E+01 -0.20673093497E+02  0.34129327710E+02  0.00000000000E+00 0. -1.
         11    1    4    4    0    0  0.51796117401E+02  0.71002990279E+01 -0.19595179425E+03  0.20280620724E+03  0.00000000000E+00 0.  1.
        -11    1    3    3    0    0 -0.19217883742E+02 -0.36664311518E+02 -0.65918981213E+02  0.77839006152E+02  0.00000000000E+00 0. -1.
         11    1    3    3    0    0  0.10000270695E+02  0.47233128548E+02 -0.12288087522E+03  0.13202531326E+03  0.00000000000E+00 0.  1.
          1    1    1    2  501    0 -0.15568026256E+02 -0.14864069159E+02 -0.12179407585E+03  0.12368144932E+03  0.00000000000E+00 0. -1.
<scales pt_clust_5="13000.00000" pt_clust_6="13000.00000" pt_clust_7="13000.00000" pt_clust_8="13000.00000" pt_clust_9="21.52450"></scales>
<clustering>
<clus scale="   21.524">  2  9  1 -1</clus>
<clus scale="   90.559">  7  8 -1 -1</clus>
<clus scale="   92.121">  1  7  2 -1</clus>
<clus scale="   92.625">  5  6 -1 -1</clus>
<clus scale="   21.524">  2  5  1 -1</clus>
</clustering>
</event>
<event>
 9    1  0.1881049E-005  0.9187702E+02  0.7546771E-02  0.1299496E+00
         21   -1    0    0  501  502  0.00000000000E+00  0.00000000000E+00  0.87432218732E+02  0.87432218732E+02  0.00000000000E+00 0. -1.
          2   -1    0    0  502    0 -0.00000000000E+00 -0.00000000000E+00 -0.48626222079E+03  0.48626222079E+03  0.00000000000E+00 0. -1.
         23    2    1    2    0    0 -0.25543065414E+01 -0.18436089483E+02 -0.25331892268E+03  0.27010517770E+03  0.91869018464E+02 0.  0.
         23    2    1    2    0    0 -0.30559234637E+01 -0.24630153367E+02 -0.20771636105E+03  0.22772310981E+03  0.89976357837E+02 0.  0.
        -11    1    3    3    0    0 -0.35601706042E+02 -0.31262770986E+02 -0.78193678980E+02  0.91428079688E+02  0.00000000000E+00 0.  1.
         11    1    3    3    0    0  0.33047399501E+02  0.12826681503E+02 -0.17512524370E+03  0.17867709801E+03  0.00000000000E+00 0. -1.
        -13    1    4    4    0    0 -0.42721700500E+02 -0.13279412783E+01 -0.13565380641E+03  0.14222820507E+03  0.00000000000E+00 0.  1.
         13    1    4    4    0    0  0.39665777036E+02 -0.23302212089E+02 -0.72062554636E+02  0.85494904742E+02  0.00000000000E+00 0. -1.
          2    1    1    2  501    0  0.56102300051E+01  0.43066242850E+02  0.62205281672E+02  0.75866152017E+02  0.00000000000E+00 0. -1.
<scales pt_clust_5="13000.00000" pt_clust_6="13000.00000" pt_clust_7="13000.00000" pt_clust_8="13000.00000" pt_clust_9="43.43013"></scales>
<clustering>
<clus scale="   43.430">  1  9  2 -1</clus>
<clus scale="   89.976">  7  8 -1 -1</clus>
<clus scale="   89.985">  1  7  2 -1</clus>
<clus scale="   91.869">  5  6 -1 -1</clus>
<clus scale="   43.430">  1  5  2 -1</clus>
</clustering>
</event>
<event>
 9    1  0.1881049E-005  0.9331138E+02  0.7546771E-02  0.1297898E+00
         21   -1    0    0  501  502  0.00000000000E+00  0.00000000000E+00  0.74286964313E+03  0.74286964313E+03  0.00000000000E+00 0. -1.
         -3   -1    0    0    0  501 -0.00000000000E+00 -0.00000000000E+00 -0.26339583419E+02  0.26339583419E+02  0.00000000000E+00 0.  1.
         23    2    1    2    0    0  0.17839359949E+02 -0.75789418495E+01  0.19722809586E+03  0.21651363191E+03  0.87198325004E+02 0.  0.
         23    2    1    2    0    0  0.60342320511E+02  0.10220860873E+02  0.32150044899E+03  0.33998735743E+03  0.92104304291E+02 0.  0.
        -13    1    3    3    0    0  0.33656158540E+02 -0.40405212890E+02  0.10763093190E+03  0.11979038250E+03  0.00000000000E+00 0.  1.
         13    1    3    3    0    0 -0.15816798590E+02  0.32826271041E+02  0.89597163957E+02  0.96723249414E+02  0.00000000000E+00 0. -1.
        -13    1    4    4    0    0  0.29566242213E+02 -0.37664329101E+02  0.20234985278E+03  0.20793803713E+03  0.00000000000E+00 0.  1.
         13    1    4    4    0    0  0.30776078298E+02  0.47885189974E+02  0.11915059621E+03  0.13204932030E+03  0.00000000000E+00 0. -1.
         -3    1    1    2    0  502 -0.78181680460E+02 -0.26419190238E+01  0.19780151486E+03  0.21270823721E+03  0.00000000000E+00 0.  1.
<scales pt_clust_5="13000.00000" pt_clust_6="13000.00000" pt_clust_7="13000.00000" pt_clust_8="13000.00000" pt_clust_9="78.22634"></scales>
<clustering>
<clus scale="   78.226">  1  9  2 -1</clus>
<clus scale="   87.198">  5  6 -1 -1</clus>
<clus scale="   88.472">  2  5  1 -1</clus>
<clus scale="   92.104">  7  8 -1 -1</clus>
<clus scale="   78.226">  1  5  2 -1</clus>
</clustering>
</event>
<event>
 9    1  0.1881049E-005  0.9496874E+02  0.7546771E-02  0.1293339E+00
          1   -1    0    0  502    0 -0.00000000000E+00  0.00000000000E+00  0.37207091434E+03  0.37207091434E+03  0.00000000000E+00 0. -1.
         21   -1    0    0  501  502  0.00000000000E+00 -0.00000000000E+00 -0.12406027233E+03  0.12406027233E+03  0.00000000000E+00 0. -1.
         23    2    1    2    0    0 -0.13544444285E+02 -0.23892967312E+02  0.20851260611E+03  0.22781356907E+03  0.87562489058E+02 0.  0.
         23    2    1    2    0    0  0.31007683732E+02  0.39865340404E+01  0.13682012802E+03  0.16745721688E+03  0.91349894076E+02 0.  0.
        -11    1    3    3    0    0  0.28395977688E+02  0.16621511569E+02  0.63567766737E+02  0.71578398722E+02  0.00000000000E+00 0. -1.
         11    1    3    3    0    0 -0.41940421973E+02 -0.40514478881E+02  0.14494483937E+03  0.15623517035E+03  0.00000000000E+00 0.  1.
        -13    1    4    4    0    0 -0.22444673667E+02  0.34433771739E+01  0.24431441024E+01  0.22838326898E+02  0.00000000000E+00 0.  1.
         13    1    4    4    0    0  0.53452357399E+02  0.54315686643E+00  0.13437698392E+03  0.14461888998E+03  0.00000000000E+00 0. -1.
          1    1    1    2  501    0 -0.17463239447E+02  0.19906433272E+02 -0.97322092120E+02  0.10086040071E+03  0.00000000000E+00 0. -1.
<scales pt_clust_5="13000.00000" pt_clust_6="13000.00000" pt_clust_7="13000.00000" pt_clust_8="13000.00000" pt_clust_9="26.48076"></scales>
<clustering>
<clus scale="   26.481">  2  9  1 -1</clus>
<clus scale="   87.562">  5  6 -1 -1</clus>
<clus scale="   91.332">  1  5  2 -1</clus>
<clus scale="   91.350">  7  8 -1 -1</clus>
<clus scale="   26.481">  2  5  1 -1</clus>
</clustering>
</event>
<event>
 9    1  0.1881049E-005  0.1121211E+03  0.7546771E-02  0.1258578E+00
          2   -1    0    0  502    0 -0.00000000000E+00  0.00000000000E+00  0.57256507759E+03  0.57256507759E+03  0.00000000000E+00 0. -1.
         21   -1    0    0  501  502  0.00000000000E+00 -0.00000000000E+00 -0.62967414288E+02  0.62967414288E+02  0.00000000000E+00 0. -1.
         23    2    1    2    0    0 -0.54220654732E+02  0.46910530975E+02  0.43762370784E+03  0.45390871932E+03  0.96840789416E+02 0.  0.
         23    2    1    2    0    0  0.19225649064E+02 -0.21711530169E+01  0.80959971852E+02  0.12411715683E+03  0.92066346125E+02 0.  0.
        -11    1    3    3    0    0 -0.80142606265E+02  0.28243560069E+02  0.26297625045E+03  0.27636397075E+03  0.00000000000E+00 0.  1.
         11    1    3    3    0    0  0.25921951533E+02  0.18666970906E+02  0.17464745739E+03  0.17754474858E+03  0.00000000000E+00 0. -1.
        -13    1    4    4    0    0  0.36379597568E+02 -0.17722397050E+02  0.90453336215E+02  0.99092706638E+02  0.00000000000E+00 0.  1.
         13    1    4    4    0    0 -0.17153948504E+02  0.15551244033E+02 -0.94933643626E+01  0.25024450188E+02  0.00000000000E+00 0. -1.
          2    1    1    2  501    0  0.34995005668E+02 -0.44739377958E+02 -0.89860163958E+01  0.57506615728E+02  0.00000000000E+00 0. -1.
<scales pt_clust_5="13000.00000" pt_clust_6="13000.00000" pt_clust_7="13000.00000" pt_clust_8="13000.00000" pt_clust_9="56.80020"></scales>
<clustering>
<clus scale="   56.800">  2  9  1 -1</clus>
<clus scale="   92.066">  7  8 -1 -1</clus>
<clus scale="   96.841">  5  6 -1 -1</clus>
<clus scale="  108.024">  2  7  1 -1</clus>
<clus scale="   56.800">  2  5  1 -1</clus>
</clustering>
</event>
<event>
 9    1  0.1881049E-005  0.1157686E+03  0.7546771E-02  0.1251181E+00
         21   -1    0    0  501  502  0.00000000000E+00  0.00000000000E+00  0.61160083240E+02  0.61160083240E+02  0.00000000000E+00 0. -1.
          1   -1    0    0  502    0 -0.00000000000E+00 -0.00000000000E+00 -0.49219116940E+03  0.49219116940E+03  0.00000000000E+00 0. -1.
         23    2    1    2    0    0  0.75380539361E+02 -0.10148669366E+01 -0.37668444317E+03  0.39463304086E+03  0.90337210207E+02 0.  0.
         23    2    1    2    0    0 -0.46903984089E+02 -0.18521171145E+02 -0.62967435690E+02  0.12312482685E+03  0.93015092996E+02 0.  0.
        -11    1    4    4    0    0 -0.10047519616E+02  0.34815177006E+02 -0.58179069540E+01  0.36700098661E+02  0.00000000000E+00 0.  1.
         11    1    4    4    0    0 -0.36856464473E+02 -0.53336348151E+02 -0.57149528736E+02  0.86424728187E+02  0.00000000000E+00 0. -1.
        -13    1    3    3    0    0  0.86013721916E+02  0.21959628231E+02 -0.24620190596E+03  0.26171733632E+03  0.00000000000E+00 0. -1.
         13    1    3    3    0    0 -0.10633182556E+02 -0.22974495167E+02 -0.13048253720E+03  0.13291570454E+03  0.00000000000E+00 0.  1.
          1    1    1    2  501    0 -0.28476555271E+02  0.19536038081E+02  0.86207926949E+01  0.35593384929E+02  0.00000000000E+00 0. -1.
<scales pt_clust_5="13000.00000" pt_clust_6="13000.00000" pt_clust_7="13000.00000" pt_clust_8="13000.00000" pt_clust_9="34.53362"></scales>
<clustering>
<clus scale="   34.534">  1  9  2 -1</clus>
<clus scale="   90.337">  7  8 -1 -1</clus>
<clus scale="   93.015">  5  6 -1 -1</clus>
<clus scale="  113.628">  2  7  1 -1</clus>
<clus scale="   34.534">  1  5  2 -1</clus>
</clustering>
</event>
<event>
 9    1  0.1881049E-005  0.9961285E+02  0.7546771E-02  0.1285135E+00
          2   -1    0    0  502    0 -0.00000000000E+00  0.00000000000E+00  0.60398110834E+02  0.60398110834E+02  0.00000000000E+00 0. -1.
         21   -1    0    0  501  502  0.00000000000E+00 -0.00000000000E+00 -0.32090308230E+03  0.32090308230E+03  0.00000000000E+00 0.  1.
         23    2    1    2    0    0 -0.11162905894E+02  0.27456403548E+00 -0.10910018932E+02  0.99357909663E+02  0.98123798572E+02 0.  0.
         23    2    1    2    0    0  0.34021106822E+02 -0.59710007218E+01 -0.14332376640E+03  0.17309241420E+03  0.90698364244E+02 0.  0.
        -11    1    3    3    0    0 -0.13905126436E+02 -0.45257436010E+02  0.11222809192E+02  0.48657368420E+02  0.00000000000E+00 0. -1.
         11    1    3    3    0    0  0.27422205419E+01  0.45532000045E+02 -0.22132828124E+02  0.50700541243E+02  0.00000000000E+00 0.  1.
        -13    1    4    4    0    0  0.41316010595E+02 -0.42749969357E+02 -0.91782186270E+02  0.10935512026E+03  0.00000000000E+00 0. -1.
         13    1    4    4    0    0 -0.72949037725E+01  0.36778968635E+02 -0.51541580135E+02  0.63737293932E+02  0.00000000000E+00 0.  1.
          2    1    1    2  501    0 -0.22858200928E+02  0.56964366864E+01 -0.10627118613E+03  0.10885086928E+03  0.00000000000E+00 0. -1.
<scales pt_clust_5="13000.00000" pt_clust_6="13000.00000" pt_clust_7="13000.00000" pt_clust_8="13000.00000" pt_clust_9="23.55731"></scales>
<clustering>
<clus scale="   23.557">  2  9  1 -1</clus>
<clus scale="   90.698">  7  8 -1 -1</clus>
<clus scale="   92.307">  2  7  1 -1</clus>
<clus scale="   98.124">  5  6 -1 -1</clus>
<clus scale="   23.557">  2  5  1 -1</clus>
</clustering>
</event>
<event>
 9    1  0.1881049E-005  0.1721639E+03  0.7546771E-02  0.1201933E+00
         21   -1    0    0  501  502  0.00000000000E+00  0.00000000000E+00  0.76125319869E+02  0.76125319869E+02  0.00000000000E+00 0. -1.
          2   -1    0    0  502    0 -0.00000000000E+00 -0.00000000000E+00 -0.61199881209E+03  0.61199881209E+03  0.00000000000E+00 0. -1.
         23    2    1    2    0    0 -0.30899590325E+02 -0.20101464360E+02 -0.13186706138E+03  0.16317869033E+03  0.88766601550E+02 0.  0.
         23    2    1    2    0    0  0.16656241994E+03  0.25924317269E+02 -0.28983467561E+03  0.34753772294E+03  0.91450640901E+02 0.  0.
        -11    1    3    3    0    0  0.21486782056E+02 -0.18085960128E+02 -0.88339369636E+01  0.29441844357E+02  0.00000000000E+00 0.  1.
         11    1    3    3    0    0 -0.52386372381E+02 -0.20155042318E+01 -0.12303312441E+03  0.13373684598E+03  0.00000000000E+00 0. -1.
        -13    1    4    4    0    0  0.42317254545E+02  0.17363969253E+02 -0.19170436576E+02  0.49595998821E+02  0.00000000000E+00 0.  1.
         13    1    4    4    0    0  0.12424516539E+03  0.85603480157E+01 -0.27066423903E+03  0.29794172412E+03  0.00000000000E+00 0. -1.
          2    1    1    2  501    0 -0.13566282961E+03 -0.58228529094E+01 -0.11417175523E+03  0.17740771868E+03  0.00000000000E+00 0. -1.
<scales pt_clust_5="13000.00000" pt_clust_6="13000.00000" pt_clust_7="13000.00000" pt_clust_8="13000.00000" pt_clust_9="145.86701"></scales>
<clustering>
<clus scale="   88.767">  5  6 -1 -1</clus>
<clus scale="   91.451">  7  8 -1 -1</clus>
<clus scale="   96.116">  2  5  1 -1</clus>
<clus scale="  145.867">  1  9  2 -1</clus>
<clus scale="  145.867">  1  5  2 -1</clus>
</clustering>
</event>
<event>
 9    1  0.1881049E-005  0.1073175E+03  0.7546771E-02  0.1271117E+00
         21   -1    0    0  501  502  0.00000000000E+00  0.00000000000E+00  0.17585121436E+03  0.17585121436E+03  0.00000000000E+00 0. -1.
          4   -1    0    0  502    0 -0.00000000000E+00 -0.00000000000E+00 -0.19506213680E+03  0.19506213680E+03  0.00000000000E+00 0. -1.
         23    2    1    2    0    0  0.11577363652E+02 -0.41197562060E+02 -0.11696344976E+03  0.16248373981E+03  0.10435153403E+03 0.  0.
         23    2    1    2    0    0  0.10331265440E+02 -0.84384289175E+01 -0.28272237949E+01  0.94149228247E+02  0.93156544896E+02 0.  0.
        -11    1    4    4    0    0  0.48580901638E+01 -0.50892342757E+02  0.13428517194E+01  0.51141322256E+02  0.00000000000E+00 0.  1.
         11    1    4    4    0    0  0.54731752765E+01  0.42453913840E+02 -0.41700755143E+01  0.43007905991E+02  0.00000000000E+00 0. -1.
        -13    1    3    3    0    0 -0.38757261784E+02  0.73222441529E+01 -0.24019146086E+02  0.46180731687E+02  0.00000000000E+00 0.  1.
         13    1    3    3    0    0  0.50334625435E+02 -0.48519806213E+02 -0.92944303672E+02  0.11630300812E+03  0.00000000000E+00 0. -1.
          4    1    1    2  501    0 -0.21908629092E+02  0.49635990977E+02  0.10057975112E+03  0.11428038311E+03  0.00000000000E+00 0. -1.
<scales pt_clust_5="13000.00000" pt_clust_6="13000.00000" pt_clust_7="13000.00000" pt_clust_8="13000.00000" pt_clust_9="54.25606"></scales>
<clustering>
<clus scale="   54.256">  1  9  2 -1</clus>
<clus scale="   93.157">  5  6 -1 -1</clus>
<clus scale="   96.467">  1  5  2 -1</clus>
<clus scale="  104.352">  7  8 -1 -1</clus>
<clus scale="   54.256">  1  5  2 -1</clus>
</clustering>
</event>
<event>
 9    1  0.1881049E-005  0.9668670E+02  0.7546771E-02  0.1289510E+00
         21   -1    0    0  501  502  0.00000000000E+00  0.00000000000E+00  0.69541442540E+02  0.69541442540E+02  0.00000000000E+00 0. -1.
         -4   -1    0    0    0  501 -0.00000000000E+00 -0.00000000000E+00 -0.32020316111E+03  0.32020316111E+03  0.00000000000E+00 0.  1.
         23    2    1    2    0    0  0.28466486875E+02 -0.14952536157E+02 -0.24448141833E+03  0.26258994468E+03  0.90268465842E+02 0.  0.
         23    2    1    2    0    0 -0.30208307694E+02  0.40696455314E+02 -0.11778520167E+02  0.10075156483E+03  0.86275146772E+02 0.  0.
        -11    1    4    4    0    0 -0.31518362122E+02 -0.10602197990E+02  0.21491985851E+02  0.39594434064E+02  0.00000000000E+00 0.  1.
         11    1    4    4    0    0  0.13100544280E+01  0.51298653304E+02 -0.33270506018E+02  0.61157130770E+02  0.00000000000E+00 0. -1.
        -13    1    3    3    0    0  0.35810764950E+02 -0.48686881262E+02 -0.17191062526E+03  0.18222537246E+03  0.00000000000E+00 0.  1.
         13    1    3    3    0    0 -0.73442780757E+01  0.33734345105E+02 -0.72570793074E+02  0.80364572217E+02  0.00000000000E+00 0. -1.
         -4    1    1    2    0  502  0.17418208190E+01 -0.25743919157E+02  0.55982199318E+01  0.26403094132E+02  0.00000000000E+00 0.  1.
<scales pt_clust_5="13000.00000" pt_clust_6="13000.00000" pt_clust_7="13000.00000" pt_clust_8="13000.00000" pt_clust_9="25.80278"></scales>
<clustering>
<clus scale="   25.803">  1  9  2 -1</clus>
<clus scale="   86.275">  5  6 -1 -1</clus>
<clus scale="   90.268">  7  8 -1 -1</clus>
<clus scale="   92.969">  1  5  2 -1</clus>
<clus scale="   25.803">  1  5  2 -1</clus>
</clustering>
</event>
<event>
 9    1  0.1881049E-005  0.9394047E+02  0.7546771E-02  0.1295594E+00
          1   -1    0    0  502    0 -0.00000000000E+00  0.00000000000E+00  0.21262339394E+03  0.21262339394E+03  0.00000000000E+00 0. -1.
         21   -1    0    0  501  502  0.00000000000E+00 -0.00000000000E+00 -0.61003470205E+02  0.61003470205E+02  0.00000000000E+00 0.  1.
         23    2    1    2    0    0  0.28589917999E+02  0.16464050123E+02  0.84322462843E+02  0.12690434047E+03  0.88915609044E+02 0.  0.
         23    2    1    2    0    0  0.49427534343E+00  0.63140130341E+01  0.55241658178E+02  0.10786286796E+03  0.92426437871E+02 0.  0.
        -11    1    4    4    0    0 -0.38642016072E+01  0.47920454015E+02  0.42400501626E+02  0.64102297191E+02  0.00000000000E+00 0.  1.
         11    1    4    4    0    0  0.43584769506E+01 -0.41606440981E+02  0.12841156552E+02  0.43760570769E+02  0.00000000000E+00 0. -1.
        -13    1    3    3    0    0 -0.20616717303E+02  0.22016433086E+01  0.71004305178E+02  0.73969639849E+02  0.00000000000E+00 0. -1.
         13    1    3    3    0    0  0.49206635302E+02  0.14262406814E+02  0.13318157665E+02  0.52934700617E+02  0.00000000000E+00 0.  1.
          1    1    1    2  501    0 -0.29084193342E+02 -0.22778063157E+02  0.12055802716E+02  0.38859655720E+02  0.00000000000E+00 0. -1.
<scales pt_clust_5="13000.00000" pt_clust_6="13000.00000" pt_clust_7="13000.00000" pt_clust_8="13000.00000" pt_clust_9="36.94226"></scales>
<clustering>
<clus scale="   36.942">  2  9  1 -1</clus>
<clus scale="   88.916">  7  8 -1 -1</clus>
<clus scale="   90.488">  1  7  2 -1</clus>
<clus scale="   92.426">  5  6 -1 -1</clus>
<clus scale="   36.942">  2  5  1 -1</clus>
</clustering>
</event>
<event>
 9    1  0.1881049E-005  0.1232938E+03  0.7546771E-02  0.1238934E+00
          1   -1    0    0  502    0 -0.00000000000E+00  0.00000000000E+00  0.59423004892E+03  0.59423004892E+03  0.00000000000E+00 0. -1.
         21   -1    0    0  501  502  0.00000000000E+00 -0.00000000000E+00 -0.50447700081E+02  0.50447700081E+02  0.00000000000E+00 0. -1.
         23    2    1    2    0    0  0.10006013455E+03 -0.16509103390E+02  0.33953037339E+03  0.36509030447E+03  0.87894680959E+02 0.  0.
         23    2    1    2    0    0 -0.34417670208E+02  0.57312242970E+02  0.12398616640E+03  0.16815841139E+03  0.91844502539E+02 0.  0.
        -11    1    4    4    0    0 -0.56639408048E+02  0.14523465194E+02  0.38487050330E+02  0.70001475901E+02  0.00000000000E+00 0.  1.
         11    1    4    4    0    0  0.22221737840E+02  0.42788777776E+02  0.85499116073E+02  0.98156935494E+02  0.00000000000E+00 0. -1.
        -11    1    3    3    0    0  0.90539926895E+02  0.20877120000E+02  0.27046725835E+03  0.28598229026E+03  0.00000000000E+00 0. -1.
         11    1    3    3    0    0  0.95202076556E+01 -0.37386223390E+02  0.69063115038E+02  0.79108014208E+02  0.00000000000E+00 0.  1.
          1    1    1    2  501    0 -0.65642464342E+02 -0.40803139580E+02  0.80265809044E+02  0.11142903314E+03  0.00000000000E+00 0. -1.
<scales pt_clust_5="13000.00000" pt_clust_6="13000.00000" pt_clust_7="13000.00000" pt_clust_8="13000.00000" pt_clust_9="77.29055"></scales>
<clustering>
<clus scale="   77.291">  2  9  1 -1</clus>
<clus scale="   87.895">  7  8 -1 -1</clus>
<clus scale="   91.845">  5  6 -1 -1</clus>
<clus scale="  120.380">  1  7  2 -1</clus>
<clus scale="   77.291">  2  5  1 -1</clus>
</clustering>
</event>
<event>
 9    1  0.1881049E-005  0.9779774E+02  0.7546771E-02  0.1288170E+00
         21   -1    0    0  501  502  0.00000000000E+00  0.00000000000E+00  0.23385704250E+03  0.23385704250E+03  0.00000000000E+00 0. -1.
          2   -1    0    0  502    0 -0.00000000000E+00 -0.00000000000E+00 -0.86437901334E+02  0.86437901334E+02  0.00000000000E+00 0. -1.
         23    2    1    2    0    0  0.82371406885E+01  0.39881439858E+02  0.56284101224E+01  0.10173178274E+03  0.93055343141E+02 0.  0.
         23    2    1    2    0    0  0.11237774826E+01 -0.19940454925E+02  0.15873796771E+02  0.90733806071E+02  0.87073311190E+02 0.  0.
        -11    1    4    4    0    0 -0.17590993083E+02  0.17805342746E+02 -0.22567541648E+02  0.33701145440E+02  0.00000000000E+00 0. -1.
         11    1    4    4    0    0  0.18714770565E+02 -0.37745797672E+02  0.38441338419E+02  0.57032660631E+02  0.00000000000E+00 0.  1.
        -13    1    3    3    0    0 -0.21983921918E+02 -0.22670422606E+02  0.65714544730E+01  0.32255618083E+02  0.00000000000E+00 0.  1.
         13    1    3    3    0    0  0.30221062607E+02  0.62551862464E+02 -0.94304435052E+00  0.69476164657E+02  0.00000000000E+00 0. -1.
          2    1    1    2  501    0 -0.93609181712E+01 -0.19940984932E+02  0.12591693427E+03  0.12782935502E+03  0.00000000000E+00 0. -1.
<scales pt_clust_5="13000.00000" pt_clust_6="13000.00000" pt_clust_7="13000.00000" pt_clust_8="13000.00000" pt_clust_9="22.02884"></scales>
<clustering>
<clus scale="   22.029">  1  9  2 -1</clus>
<clus scale="   87.073">  5  6 -1 -1</clus>
<clus scale="   92.124">  1  5  2 -1</clus>
<clus scale="   93.055">  7  8 -1 -1</clus>
<clus scale="   22.029">  1  5  2 -1</clus>
</clustering>
</event>
<event>
 9    1  0.1881049E-005  0.1333187E+03  0.7546771E-02  0.1222821E+00
         21   -1    0    0  501  502  0.00000000000E+00  0.00000000000E+00  0.32031303110E+03  0.32031303110E+03  0.00000000000E+00 0.  1.
          2   -1    0    0  502    0 -0.00000000000E+00 -0.00000000000E+00 -0.90383495376E+02  0.90383495376E+02  0.00000000000E+00 0. -1.
         23    2    1    2    0    0 -0.84115977839E+02  0.50777893289E+01  0.47929841382E+02  0.13280878505E+03  0.90772363735E+02 0.  0.
         23    2    1    2    0    0  0.11259427472E+03 -0.60686490044E+01  0.68058170431E+02  0.16043704511E+03  0.91617856770E+02 0.  0.
        -11    1    3    3    0    0 -0.37199948684E+02 -0.41005911604E+02  0.35812786202E+02  0.65938430555E+02  0.00000000000E+00 0.  1.
         11    1    3    3    0    0 -0.46916029155E+02  0.46083700933E+02  0.12117055180E+02  0.66870354490E+02  0.00000000000E+00 0. -1.
        -13    1    4    4    0    0  0.33704391238E+02  0.22529040514E+02  0.64829315839E+02  0.76461649520E+02  0.00000000000E+00 0.  1.
         13    1    4    4    0    0  0.78889883483E+02 -0.28597689518E+02  0.32288545923E+01  0.83975395585E+02  0.00000000000E+00 0. -1.
          2    1    1    2  501    0 -0.28478296883E+02  0.99085967550E+00  0.11394152391E+03  0.11745069633E+03  0.00000000000E+00 0. -1.
<scales pt_clust_5="13000.00000" pt_clust_6="13000.00000" pt_clust_7="13000.00000" pt_clust_8="13000.00000" pt_clust_9="28.49553"></scales>
<clustering>
<clus scale="   28.496">  1  9  2 -1</clus>
<clus scale="   90.772">  5  6 -1 -1</clus>
<clus scale="   91.618">  7  8 -1 -1</clus>
<clus scale="  132.739">  2  5  1 -1</clus>
<clus scale="   28.496">  1  5  2 -1</clus>
</clustering>
</event>
<event>
 9    1  0.1881049E-005  0.9513908E+02  0.7546771E-02  0.1294100E+00
          3   -1    0    0  502    0 -0.00000000000E+00  0.00000000000E+00  0.97257876770E+02  0.97257876770E+02  0.00000000000E+00 0. -1.
         21   -1    0    0  501  502  0.00000000000E+00 -0.00000000000E+00 -0.27187267054E+03  0.27187267054E+03  0.00000000000E+00 0. -1.
         23    2    1    2    0    0 -0.10576679676E+02 -0.65961542458E+02 -0.52935929938E+01  0.10755322062E+03  0.84124205216E+02 0.  0.
         23    2    1    2    0    0  0.17591454162E+02 -0.13622831240E+02 -0.24091213065E+02  0.95822601479E+02  0.90036346087E+02 0.  0.
        -11    1    4    4    0    0  0.61312333532E+01  0.21309164832E+02 -0.47373865935E+02  0.52306363875E+02  0.00000000000E+00 0.  1.
         11    1    4    4    0    0  0.11460220809E+02 -0.34931996072E+02  0.23282652870E+02  0.43516237604E+02  0.00000000000E+00 0. -1.
        -11    1    3    3    0    0 -0.21026853971E+02 -0.12459408000E+02  0.32904826107E+02  0.40988937737E+02  0.00000000000E+00 0.  1.
         11    1    3    3    0    0  0.10450174295E+02 -0.53502134458E+02 -0.38198419101E+02  0.66564282886E+02  0.00000000000E+00 0. -1.
          3    1    1    2  501    0 -0.70147744867E+01  0.79584373698E+02 -0.14522998771E+03  0.16575472521E+03  0.00000000000E+00 0. -1.
<scales pt_clust_5="13000.00000" pt_clust_6="13000.00000" pt_clust_7="13000.00000" pt_clust_8="13000.00000" pt_clust_9="79.89293"></scales>
<clustering>
<clus scale="   79.893">  2  9  1 -1</clus>
<clus scale="   84.124">  7  8 -1 -1</clus>
<clus scale="   89.564">  1  7  2 -1</clus>
<clus scale="   90.036">  5  6 -1 -1</clus>
<clus scale="   79.893">  2  5  1 -1</clus>
</clustering>
</event>
<event>
 9    1  0.1881049E-005  0.1077076E+03  0.7546771E-02  0.1265081E+00
         -3   -1    0    0    0  501 -0.00000000000E+00  0.00000000000E+00  0.25317040001E+03  0.25317040001E+03  0.00000000000E+00 0.  1.
         21   -1    0    0  501  502  0.00000000000E+00 -0.00000000000E+00 -0.21725634966E+03  0.21725634966E+03  0.00000000000E+00 0. -1.
         23    2    1    2    0    0 -0.27838158704E+02 -0.34220802249E+02  0.13617579254E+03  0.16960381837E+03  0.90970227795E+02 0.  0.
         23    2    1    2    0    0  0.11011107009E+03  0.33987915107E+02  0.26697952874E+02  0.14953628166E+03  0.91480559226E+02 0.  0.
        -11    1    3    3    0    0  0.25898769802E+01 -0.32887116427E+02  0.13516214356E+03  0.13912970546E+03  0.00000000000E+00 0.  1.
         11    1    3    3    0    0 -0.30428035684E+02 -0.13336858225E+01  0.10136489820E+01  0.30474112911E+02  0.00000000000E+00 0. -1.
        -13    1    4    4    0    0  0.17396520950E+02  0.49316246897E+02  0.18218812070E+01  0.52326383406E+02  0.00000000000E+00 0.  1.
         13    1    4    4    0    0  0.92714549138E+02 -0.15328331790E+02  0.24876071667E+02  0.97209898256E+02  0.00000000000E+00 0. -1.
         -3    1    1    2    0  502 -0.82272911384E+02  0.23288714170E+00 -0.12695969507E+03  0.15128664963E+03  0.00000000000E+00 0.  1.
<scales pt_clust_5="13000.00000" pt_clust_6="13000.00000" pt_clust_7="13000.00000" pt_clust_8="13000.00000" pt_clust_9="82.27324"></scales>
<clustering>
<clus scale="   82.273">  2  9  1 -1</clus>
<clus scale="   90.970">  5  6 -1 -1</clus>
<clus scale="   91.481">  7  8 -1 -1</clus>
<clus scale="  107.275">  1  5  2 -1</clus>
<clus scale="   82.273">  2  5  1 -1</clus>
</clustering>
</event>
<event>
 9    1  0.1881049E-005  0.2234424E+03  0.7546771E-02  0.1160695E+00
         21   -1    0    0  501  502  0.00000000000E+00  0.00000000000E+00  0.10442798878E+03  0.10442798878E+03  0.00000000000E+00 0. -1.
          1   -1    0    0  502    0 -0.00000000000E+00 -0.00000000000E+00 -0.10404261391E+04  0.10404261391E+04  0.00000000000E+00 0. -1.
         23    2    1    2    0    0 -0.44950006001E+02  0.44685601262E+02 -0.22598728648E+03  0.25173067651E+03  0.90998757372E+02 0.  0.
         23    2    1    2    0    0 -0.15780475735E+03  0.25379373607E+02 -0.64243047891E+03  0.66821079456E+03  0.90787067897E+02 0.  0.
        -13    1    4    4    0    0 -0.22479043298E+02 -0.42635769384E+01 -0.19501191155E+02  0.30062966127E+02  0.00000000000E+00 0.  1.
         13    1    4    4    0    0 -0.13532571406E+03  0.29642950545E+02 -0.62292928775E+03  0.63814782844E+03  0.00000000000E+00 0. -1.
        -13    1    3    3    0    0 -0.72804195662E+02  0.38344825398E+02 -0.16456174243E+03  0.18398734633E+03  0.00000000000E+00 0. -1.
         13    1    3    3    0    0  0.27854189661E+02  0.63407758643E+01 -0.61425544058E+02  0.67743330174E+02  0.00000000000E+00 0.  1.
          1    1    1    2  501    0  0.20275476336E+03 -0.70064974869E+02 -0.67580384935E+02  0.22491265681E+03  0.00000000000E+00 0. -1.
<scales pt_clust_5="13000.00000" pt_clust_6="13000.00000" pt_clust_7="13000.00000" pt_clust_8="13000.00000" pt_clust_9="204.16710"></scales>
<clustering>
<clus scale="   90.787">  5  6 -1 -1</clus>
<clus scale="   90.999">  7  8 -1 -1</clus>
<clus scale="  110.897">  2  7  1 -1</clus>
<clus scale="  204.167">  1  9  2 -1</clus>
<clus scale="  204.167">  1  5  2 -1</clus>
</clustering>
</event>
<event>
 9    1  0.1881049E-005  0.1618904E+03  0.7546771E-02  0.1186654E+00
         21   -1    0    0  501  502  0.00000000000E+00  0.00000000000E+00  0.48715614425E+03  0.48715614425E+03  0.00000000000E+00 0.  1.
         -3   -1    0    0    0  501 -0.00000000000E+00 -0.00000000000E+00 -0.17778408207E+03  0.17778408207E+03  0.00000000000E+00 0.  1.
         23    2    1    2    0    0  0.85677895469E+02  0.93868626913E+02 -0.24013564050E+02  0.15900739189E+03  0.92491505162E+02 0.  0.
         23    2    1    2    0    0 -0.15167797888E+03 -0.36476313220E+02  0.22513071532E+02  0.18299068180E+03  0.92962468407E+02 0.  0.
        -11    1    4    4    0    0 -0.17847261757E+02 -0.14493619468E+02  0.40107701029E+02  0.46230049095E+02  0.00000000000E+00 0. -1.
         11    1    4    4    0    0 -0.13383071713E+03 -0.21982693752E+02 -0.17594629497E+02  0.13676063271E+03  0.00000000000E+00 0.  1.
        -13    1    3    3    0    0  0.77771930115E+02  0.49584502816E+02  0.21827269393E+02  0.94781462969E+02  0.00000000000E+00 0.  1.
         13    1    3    3    0    0  0.79059653541E+01  0.44284124098E+02 -0.45840833443E+02  0.64225928923E+02  0.00000000000E+00 0. -1.
         -3    1    1    2    0  502  0.66000083415E+02 -0.57392313693E+02  0.31087255470E+03  0.32294215263E+03  0.00000000000E+00 0.  1.
<scales pt_clust_5="13000.00000" pt_clust_6="13000.00000" pt_clust_7="13000.00000" pt_clust_8="13000.00000" pt_clust_9="87.46364"></scales>
<clustering>
<clus scale="   87.464">  1  9  2 -1</clus>
<clus scale="   92.492">  7  8 -1 -1</clus>
<clus scale="   92.962">  5  6 -1 -1</clus>
<clus scale="  161.620">  2  7  1 -1</clus>
<clus scale="   87.464">  1  5  2 -1</clus>
</clustering>
</event>
<event>
 9    1  0.1881049E-005  0.1633108E+03  0.7546771E-02  0.1207078E+00
         -3   -1    0    0    0  501 -0.00000000000E+00  0.00000000000E+00  0.45184221963E+03  0.45184221963E+03  0.00000000000E+00 0.  1.
         21   -1    0    0  501  502  0.00000000000E+00 -0.00000000000E+00 -0.10148362027E+03  0.10148362027E+03  0.00000000000E+00 0. -1.
         23    2    1    2    0    0  0.38890525088E+02 -0.16369139905E+02  0.17036352027E+03  0.19794578919E+03  0.91533517019E+02 0.  0.
         23    2    1    2    0    0 -0.92902411074E+02  0.11875678607E+03  0.55688820448E+02  0.18551963785E+03  0.92640482973E+02 0.  0.
        -13    1    4    4    0    0 -0.56357894103E+02  0.81626345994E+02 -0.12205674591E+02  0.99940237544E+02  0.00000000000E+00 0. -1.
         13    1    4    4    0    0 -0.36544516971E+02  0.37130440077E+02  0.67894495039E+02  0.85579400311E+02  0.00000000000E+00 0.  1.
        -13    1    3    3    0    0  0.28365369274E+02  0.14792599047E+02  0.16042821222E+03  0.16358675508E+03  0.00000000000E+00 0.  1.
         13    1    3    3    0    0  0.10525155814E+02 -0.31161738951E+02  0.99353080504E+01  0.34359034117E+02  0.00000000000E+00 0. -1.
         -3    1    1    2    0  502  0.54011885986E+02 -0.10238764617E+03  0.12430625865E+03  0.16986041285E+03  0.00000000000E+00 0.  1.
<scales pt_clust_5="13000.00000" pt_clust_6="13000.00000" pt_clust_7="13000.00000" pt_clust_8="13000.00000" pt_clust_9="134.49226"></scales>
<clustering>
<clus scale="   91.534">  7  8 -1 -1</clus>
<clus scale="   92.640">  5  6 -1 -1</clus>
<clus scale="  100.791">  1  7  2 -1</clus>
<clus scale="  134.492">  2  9  1 -1</clus>
<clus scale="  134.492">  2  5  1 -1</clus>
</clustering>
</event>
<event>
 9    1  0.1881049E-005  0.1964275E+03  0.7546771E-02  0.1153053E+00
         -3   -1    0    0    0  501 -0.00000000000E+00  0.00000000000E+00  0.64418352130E+03  0.64418352130E+03  0.00000000000E+00 0.  1.
         21   -1    0    0  501  502  0.00000000000E+00 -0.00000000000E+00 -0.73989716562E+02  0.73989716562E+02  0.00000000000E+00 0. -1.
         23    2    1    2    0    0 -0.14289271188E+03 -0.83992128514E+02  0.33585419879E+03  0.38595931282E+03  0.93239173910E+02 0.  0.
         23    2    1    2    0    0  0.15090225058E+03  0.10600821099E+03  0.22993753970E+03  0.30837616539E+03  0.90638607607E+02 0.  0.
        -13    1    3    3    0    0 -0.92188107508E+02 -0.10082045693E+03  0.23475322976E+03  0.27161091764E+03  0.00000000000E+00 0. -1.
         13    1    3    3    0    0 -0.50704604368E+02  0.16828328414E+02  0.10110096903E+03  0.11434839518E+03  0.00000000000E+00 0.  1.
        -13    1    4    4    0    0  0.14130961745E+03  0.54387517928E+02  0.15322722616E+03  0.21541818151E+03  0.00000000000E+00 0. -1.
         13    1    4    4    0    0  0.95926331328E+01  0.51620693065E+02  0.76710313540E+02  0.92957983876E+02  0.00000000000E+00 0.  1.
         -3    1    1    2    0  502 -0.80095387066E+01 -0.22016082479E+02  0.44020662550E+01  0.23837759654E+02  0.00000000000E+00 0.  1.
<scales pt_clust_5="13000.00000" pt_clust_6="13000.00000" pt_clust_7="13000.00000" pt_clust_8="13000.00000" pt_clust_9="23.42777"></scales>
<clustering>
<clus scale="   23.428">  2  9  1 -1</clus>
<clus scale="   90.639">  7  8 -1 -1</clus>
<clus scale="   93.239">  5  6 -1 -1</clus>
<clus scale="  195.206">  2  7  1 -1</clus>
<clus scale="   23.428">  2  5  1 -1</clus>
</clustering>
</event>
<event>
 9    1  0.1881049E-005  0.9818347E+02  0.7546771E-02  0.1287491E+00
          1   -1    0    0  502    0 -0.00000000000E+00  0.00000000000E+00  0.12420625207E+03  0.12420625207E+03  0.00000000000E+00 0. -1.
         21   -1    0    0  501  502  0.00000000000E+00 -0.00000000000E+00 -0.19770711005E+03  0.19770711005E+03  0.00000000000E+00 0.  1.
         23    2    1    2    0    0 -0.10613205575E+02  0.41327660702E+02  0.33280379130E+02  0.10805790364E+03  0.93532407391E+02 0.  0.
         23    2    1    2    0    0  0.28692704210E+02 -0.20963424290E+01  0.70205641377E+01  0.92131120027E+02  0.87242128757E+02 0.  0.
        -11    1    4    4    0    0 -0.11844490863E+02 -0.32688325207E+02 -0.13580955254E+02  0.37326410412E+02  0.00000000000E+00 0. -1.
         11    1    4    4    0    0  0.40537195073E+02  0.30591982778E+02  0.20601519392E+02  0.54804709614E+02  0.00000000000E+00 0.  1.
        -13    1    3    3    0    0 -0.47625265393E+02  0.44859403049E+02  0.17969724343E+02  0.67848676764E+02  0.00000000000E+00 0.  1.
         13    1    3    3    0    0  0.37012059818E+02 -0.35317423472E+01  0.15310654786E+02  0.40209226876E+02  0.00000000000E+00 0. -1.
          1    1    1    2  501    0 -0.18079498635E+02 -0.39231318273E+02 -0.11380180124E+03  0.12172433845E+03  0.00000000000E+00 0. -1.
<scales pt_clust_5="13000.00000" pt_clust_6="13000.00000" pt_clust_7="13000.00000" pt_clust_8="13000.00000" pt_clust_9="43.19681"></scales>
<clustering>
<clus scale="   43.197">  2  9  1 -1</clus>
<clus scale="   87.242">  5  6 -1 -1</clus>
<clus scale="   92.211">  2  5  1 -1</clus>
<clus scale="   93.532">  7  8 -1 -1</clus>
<clus scale="   43.197">  2  5  1 -1</clus>
</clustering>
</event>
<event>
 9    1  0.1881049E-005  0.2106945E+03  0.7546771E-02  0.1141132E+00
         21   -1    0    0  501  502  0.00000000000E+00  0.00000000000E+00  0.11630915840E+03  0.11630915840E+03  0.00000000000E+00 0.  1.
          1   -1    0    0  502    0 -0.00000000000E+00 -0.00000000000E+00 -0.57540294511E+03  0.57540294511E+03  0.00000000000E+00 0. -1.
         23    2    1    2    0    0 -0.14141704959E+03 -0.16926986841E+03 -0.29236652375E+03  0.37750412601E+03  0.91542944415E+02 0.  0.
         23    2    1    2    0    0  0.75830069697E+02  0.14018840410E+03 -0.15615716866E+03  0.24168825336E+03  0.92871752271E+02 0.  0.
        -11    1    4    4    0    0  0.36774831048E+02  0.10229106818E+03 -0.44464331504E+02  0.11744329527E+03  0.00000000000E+00 0.  1.
         11    1    4    4    0    0  0.39055238649E+02  0.37897335919E+02 -0.11169283716E+03  0.12424495808E+03  0.00000000000E+00 0. -1.
        -13    1    3    3    0    0 -0.12355743350E+03 -0.14142460335E+03 -0.28844540828E+03  0.34419196877E+03  0.00000000000E+00 0.  1.
         13    1    3    3    0    0 -0.17859616089E+02 -0.27845265063E+02 -0.39211154730E+01  0.33312157238E+02  0.00000000000E+00 0. -1.
          1    1    1    2  501    0  0.65586979896E+02  0.29081464308E+02 -0.10570094295E+02  0.72519724156E+02  0.00000000000E+00 0. -1.
<scales pt_clust_5="13000.00000" pt_clust_6="13000.00000" pt_clust_7="13000.00000" pt_clust_8="13000.00000" pt_clust_9="71.74527"></scales>
<clustering>
<clus scale="   71.745">  1  9  2 -1</clus>
<clus scale="   91.543">  7  8 -1 -1</clus>
<clus scale="   92.872">  5  6 -1 -1</clus>
<clus scale="  210.112">  2  7  1 -1</clus>
<clus scale="   71.745">  1  5  2 -1</clus>
</clustering>
</event>
<event>
 9    1  0.1881049E-005  0.1019573E+03  0.7546771E-02  0.1279260E+00
         -3   -1    0    0    0  501 -0.00000000000E+00  0.00000000000E+00  0.21653476585E+03  0.21653476585E+03  0.00000000000E+00 0.  1.
         21   -1    0    0  501  502  0.00000000000E+00 -0.00000000000E+00 -0.81868033159E+02  0.81868033159E+02  0.00000000000E+00 0. -1.
         23    2    1    2    0    0  0.53703052287E+02 -0.11255976006E+02  0.97159555474E+02  0.14043901745E+03  0.85278505972E+02 0.  0.
         23    2    1    2    0    0 -0.23244342799E+02  0.28853975566E+02  0.60505492136E+02  0.11593587344E+03  0.91691661528E+02 0.  0.
        -11    1    4    4    0    0 -0.56425587647E+02  0.33140020774E+02  0.39919556306E+02  0.76652977071E+02  0.00000000000E+00 0. -1.
         11    1    4    4    0    0  0.33181244848E+02 -0.42860452079E+01  0.20585935830E+02  0.39282896370E+02  0.00000000000E+00 0.  1.
        -13    1    3    3    0    0  0.53984749487E+02 -0.40913990513E+02  0.84219503701E+02  0.10807975111E+03  0.00000000000E+00 0.  1.
         13    1    3    3    0    0 -0.28169720044E+00  0.29658014507E+02  0.12940051772E+02  0.32359266334E+02  0.00000000000E+00 0. -1.
         -3    1    1    2    0  502 -0.30458709488E+02 -0.17597999560E+02 -0.22998314917E+02  0.42027908123E+02  0.00000000000E+00 0.  1.
<scales pt_clust_5="13000.00000" pt_clust_6="13000.00000" pt_clust_7="13000.00000" pt_clust_8="13000.00000" pt_clust_9="35.17702"></scales>
<clustering>
<clus scale="   35.177">  2  9  1 -1</clus>
<clus scale="   85.279">  7  8 -1 -1</clus>
<clus scale="   91.692">  5  6 -1 -1</clus>
<clus scale="   96.231">  1  7  2 -1</clus>
<clus scale="   35.177">  2  5  1 -1</clus>
</clustering>
</event>
<event>
 9    1  0.1881049E-005  0.1151278E+03  0.7546771E-02  0.1251412E+00
         21   -1    0    0  501  502  0.00000000000E+00  0.00000000000E+00  0.46853028787E+03  0.46853028787E+03  0.00000000000E+00 0. -1.
         -1   -1    0    0    0  501 -0.00000000000E+00 -0.00000000000E+00 -0.51967394005E+02  0.51967394005E+02  0.00000000000E+00 0.  1.
         23    2    1    2    0    0 -0.77886775595E+02  0.35559024484E+02  0.85409425245E+02  0.15133848766E+03  0.90982272412E+02 0.  0.
         23    2    1    2    0    0  0.51433784650E+02  0.14843099952E+02  0.19719776732E+03  0.22361104140E+03  0.90825032771E+02 0.  0.
        -11    1    3    3    0    0 -0.64908992118E+01  0.48941007116E+02  0.50931526075E+02  0.70932180979E+02  0.00000000000E+00 0. -1.
         11    1    3    3    0    0 -0.71395876383E+02 -0.13381982632E+02  0.34477899170E+02  0.80406306686E+02  0.00000000000E+00 0.  1.
        -13    1    4    4    0    0 -0.72534822641E+00  0.20925988654E+02  0.15022195340E+01  0.20992374681E+02  0.00000000000E+00 0.  1.
         13    1    4    4    0    0  0.52159132876E+02 -0.60828887026E+01  0.19569554779E+03  0.20261866672E+03  0.00000000000E+00 0. -1.
         -1    1    1    2    0  502  0.26452990946E+02 -0.50402124435E+02  0.13395570130E+03  0.14554815281E+03  0.00000000000E+00 0.  1.
<scales pt_clust_5="13000.00000" pt_clust_6="13000.00000" pt_clust_7="13000.00000" pt_clust_8="13000.00000" pt_clust_9="56.92218"></scales>
<clustering>
<clus scale="   56.922">  1  9  2 -1</clus>
<clus scale="   90.825">  7  8 -1 -1</clus>
<clus scale="   90.982">  5  6 -1 -1</clus>
<clus scale="  115.004">  1  7  2 -1</clus>
<clus scale="   56.922">  1  5  2 -1</clus>
</clustering>
</event>
<event>
 9    1  0.1881049E-005  0.1818211E+03  0.7546771E-02  0.1166290E+00
         21   -1    0    0  501  502  0.00000000000E+00  0.00000000000E+00  0.66004491813E+02  0.66004491813E+02  0.00000000000E+00 0.  1.
          1   -1    0    0  502    0 -0.00000000000E+00 -0.00000000000E+00 -0.77560215742E+03  0.77560215742E+03  0.00000000000E+00 0. -1.
         23    2    1    2    0    0  0.11485555031E+03 -0.10180918852E+03 -0.50983504382E+03  0.54049896406E+03  0.93007795070E+02 0.  0.
         23    2    1    2    0    0 -0.99097275800E+02  0.13341366873E+03 -0.17529229148E+03  0.25814300840E+03  0.91054644362E+02 0.  0.
        -11    1    4    4    0    0 -0.44317458015E+02  0.11564769311E+03 -0.82089098160E+02  0.14858346490E+03  0.00000000000E+00 0.  1.
         11    1    4    4    0    0 -0.54779817786E+02  0.17765975617E+02 -0.93203193317E+02  0.10955954349E+03  0.00000000000E+00 0. -1.
        -11    1    3    3    0    0  0.58046356930E+02 -0.17534416922E+02 -0.89887587949E+02  0.10842791982E+03  0.00000000000E+00 0.  1.
         11    1    3    3    0    0  0.56809193379E+02 -0.84274771600E+02 -0.41994745587E+03  0.43207104424E+03  0.00000000000E+00 0. -1.
          1    1    1    2  501    0 -0.15758274509E+02 -0.31604480203E+02 -0.24470330307E+02  0.42964676768E+02  0.00000000000E+00 0. -1.
<scales pt_clust_5="13000.00000" pt_clust_6="13000.00000" pt_clust_7="13000.00000" pt_clust_8="13000.00000" pt_clust_9="35.31524"></scales>
<clustering>
<clus scale="   35.315">  1  9  2 -1</clus>
<clus scale="   91.055">  5  6 -1 -1</clus>
<clus scale="   93.008">  7  8 -1 -1</clus>
<clus scale="  180.830">  1  5  2 -1</clus>
<clus scale="   35.315">  1  5  2 -1</clus>
</clustering>
</event>
<event>
 9    1  0.1881049E-005  0.9671016E+02  0.7546771E-02  0.1294553E+00
          3   -1    0    0  502    0 -0.00000000000E+00  0.00000000000E+00  0.10310802694E+03  0.10310802694E+03  0.00000000000E+00 0. -1.
         21   -1    0    0  501  502  0.00000000000E+00 -0.00000000000E+00 -0.13588957681E+03  0.13588957681E+03  0.00000000000E+00 0. -1.
         23    2    1    2    0    0  0.44830358839E+02 -0.87613823982E+01  0.28772409461E+02  0.10409135468E+03  0.88997953217E+02 0.  0.
         23    2    1    2    0    0 -0.18074519642E+02  0.27797747828E+02 -0.26119214705E+02  0.86596009307E+02  0.75612514880E+02 0.  0.
        -13    1    3    3    0    0  0.71691064149E+02 -0.12780254086E+02  0.19416906834E+02  0.75365508320E+02  0.00000000000E+00 0. -1.
         13    1    3    3    0    0 -0.26860705311E+02  0.40188716881E+01  0.93555026267E+01  0.28725846355E+02  0.00000000000E+00 0.  1.
        -13    1    4    4    0    0  0.27621534738E+02 -0.22944663587E+01 -0.11108162901E+02  0.29859756198E+02  0.00000000000E+00 0.  1.
         13    1    4    4    0    0 -0.45696054380E+02  0.30092214187E+02 -0.15011051805E+02  0.56736253109E+02  0.00000000000E+00 0. -1.
          3    1    1    2  501    0 -0.26755839197E+02 -0.19036365430E+02 -0.35434744626E+02  0.48310239770E+02  0.00000000000E+00 0. -1.
<scales pt_clust_5="13000.00000" pt_clust_6="13000.00000" pt_clust_7="13000.00000" pt_clust_8="13000.00000" pt_clust_9="32.83684"></scales>
<clustering>
<clus scale="   32.837">  2  9  1 -1</clus>
<clus scale="   75.613">  7  8 -1 -1</clus>
<clus scale="   84.555">  2  7  1 -1</clus>
<clus scale="   88.998">  5  6 -1 -1</clus>
<clus scale="   32.837">  2  5  1 -1</clus>
</clustering>
</event>
<event>
 9    1  0.1881049E-005  0.1914895E+03  0.7546771E-02  0.1157247E+00
          3   -1    0    0  502    0 -0.00000000000E+00  0.00000000000E+00  0.23220539818E+03  0.23220539818E+03  0.00000000000E+00 0. -1.
         21   -1    0    0  501  502  0.00000000000E+00 -0.00000000000E+00 -0.44037905932E+03  0.44037905932E+03  0.00000000000E+00 0.  1.
         23    2    1    2    0    0 -0.58634033859E+02 -0.16525631698E+03  0.13359922245E+03  0.23874949650E+03  0.91678621338E+02 0.  0.
         23    2    1    2    0    0  0.41432668298E+02  0.13720229109E+03 -0.11776468240E+03  0.20742252860E+03  0.92814062873E+02 0.  0.
        -11    1    4    4    0    0  0.59107897989E+02  0.40194987639E+02 -0.40532056955E+02  0.82171943369E+02  0.00000000000E+00 0. -1.
         11    1    4    4    0    0 -0.17675229691E+02  0.97007303450E+02 -0.77232625443E+02  0.12525058523E+03  0.00000000000E+00 0.  1.
        -13    1    3    3    0    0 -0.18976280122E+02 -0.12160468196E+02 -0.10438673449E+02  0.24838319134E+02  0.00000000000E+00 0.  1.
         13    1    3    3    0    0 -0.39657753737E+02 -0.15309584878E+03  0.14403789590E+03  0.21391117736E+03  0.00000000000E+00 0. -1.
          3    1    1    2  501    0  0.17201365561E+02  0.28054025892E+02 -0.22400820120E+03  0.22641243241E+03  0.00000000000E+00 0. -1.
<scales pt_clust_5="13000.00000" pt_clust_6="13000.00000" pt_clust_7="13000.00000" pt_clust_8="13000.00000" pt_clust_9="32.90768"></scales>
<clustering>
<clus scale="   32.908">  2  9  1 -1</clus>
<clus scale="   91.679">  7  8 -1 -1</clus>
<clus scale="   92.814">  5  6 -1 -1</clus>
<clus scale="  190.942">  1  7  2 -1</clus>
<clus scale="   32.908">  2  5  1 -1</clus>
</clustering>
</event>
<event>
 9    1  0.1881049E-005  0.2483881E+03  0.7546771E-02  0.1114645E+00
         21   -1    0    0  501  502  0.00000000000E+00  0.00000000000E+00  0.38340712257E+03  0.38340712257E+03  0.00000000000E+00 0.  1.
          2   -1    0    0  502    0 -0.00000000000E+00 -0.00000000000E+00 -0.56009925794E+03  0.56009925794E+03  0.00000000000E+00 0.  1.
         23    2    1    2    0    0  0.21912502618E+03 -0.76165829185E+02 -0.39163341709E+03  0.46408623438E+03  0.90456005449E+02 0.  0.
         23    2    1    2    0    0 -0.23713402924E+03 -0.33660392230E+02  0.24827208191E+02  0.25912606075E+03  0.95730639110E+02 0.  0.
        -11    1    4    4    0    0 -0.79575943195E+02  0.28051599121E+02  0.30764936492E+02  0.89809266036E+02  0.00000000000E+00 0. -1.
         11    1    4    4    0    0 -0.15755808605E+03 -0.61711991351E+02 -0.59377283009E+01  0.16931679472E+03  0.00000000000E+00 0.  1.
        -13    1    3    3    0    0  0.91387106702E+02 -0.47690382785E+02 -0.25421145715E+03  0.27431631528E+03  0.00000000000E+00 0.  1.
         13    1    3    3    0    0  0.12773791948E+03 -0.28475446400E+02 -0.13742195994E+03  0.18976991910E+03  0.00000000000E+00 0. -1.
          2    1    1    2  501    0  0.18009003061E+02  0.10982622142E+03  0.19011407352E+03  0.22029408538E+03  0.00000000000E+00 0.  1.
<scales pt_clust_5="13000.00000" pt_clust_6="13000.00000" pt_clust_7="13000.00000" pt_clust_8="13000.00000" pt_clust_9="111.29296"></scales>
<clustering>
<clus scale="   90.456">  7  8 -1 -1</clus>
<clus scale="   95.731">  5  6 -1 -1</clus>
<clus scale="  111.293">  1  9  2 -1</clus>
<clus scale="  246.403">  2  7  1 -1</clus>
<clus scale="  111.293">  1  5  2 -1</clus>
</clustering>
</event>
<event>
 9    1  0.1881049E-005  0.1704429E+03  0.7546771E-02  0.1178446E+00
         21   -1    0    0  501  502  0.00000000000E+00  0.00000000000E+00  0.14600137680E+03  0.14600137680E+03  0.00000000000E+00 0.  1.
          1   -1    0    0  502    0 -0.00000000000E+00 -0.00000000000E+00 -0.37996957321E+03  0.37996957321E+03  0.00000000000E+00 0. -1.
         23    2    1    2    0    0  0.15076527960E+03 -0.82840871005E+01 -0.27716383442E+03  0.32669375023E+03  0.84322118675E+02 0.  0.
         23    2    1    2    0    0 -0.11895852674E+03 -0.11765995635E+02  0.13665270614E+02  0.15146801715E+03  0.92012232134E+02 0.  0.
        -11    1    4    4    0    0 -0.27665035052E+02 -0.40212627362E+02  0.25578538392E+02  0.55105999583E+02  0.00000000000E+00 0.  1.
         11    1    4    4    0    0 -0.91293491685E+02  0.28446631727E+02 -0.11913267778E+02  0.96362017568E+02  0.00000000000E+00 0. -1.
        -13    1    3    3    0    0  0.90315702041E+02  0.34455580554E+02 -0.18248889163E+03  0.20650982697E+03  0.00000000000E+00 0. -1.
         13    1    3    3    0    0  0.60449577560E+02 -0.42739667654E+02 -0.94674942784E+02  0.12018392326E+03  0.00000000000E+00 0.  1.
          1    1    1    2  501    0 -0.31806752865E+02  0.20050082736E+02  0.29530367398E+02  0.47809182634E+02  0.00000000000E+00 0. -1.
<scales pt_clust_5="13000.00000" pt_clust_6="13000.00000" pt_clust_7="13000.00000" pt_clust_8="13000.00000" pt_clust_9="37.59887"></scales>
<clustering>
<clus scale="   37.599">  1  9  2 -1</clus>
<clus scale="   84.322">  7  8 -1 -1</clus>
<clus scale="   92.012">  5  6 -1 -1</clus>
<clus scale="  166.417">  2  7  1 -1</clus>
<clus scale="   37.599">  1  5  2 -1</clus>
</clustering>
</event>
<event>
 9    1  0.1881049E-005  0.1285065E+03  0.7546771E-02  0.1229941E+00
         -1   -1    0    0    0  501 -0.00000000000E+00  0.00000000000E+00  0.13706376079E+03  0.13706376079E+03  0.00000000000E+00 0.  1.
         21   -1    0    0  501  502  0.00000000000E+00 -0.00000000000E+00 -0.65476989872E+03  0.65476989872E+03  0.00000000000E+00 0.  1.
         23    2    1    2    0    0  0.66185873849E+02  0.28445168534E+02 -0.32557401448E+01  0.11529668264E+03  0.89961256515E+02 0.  0.
         23    2    1    2    0    0 -0.13232596057E+03  0.65885270473E+02 -0.26961785431E+02  0.17561992788E+03  0.90908704141E+02 0.  0.
        -11    1    3    3    0    0  0.39602320424E+01  0.47817448972E+02  0.94378887355E+01  0.48900568583E+02  0.00000000000E+00 0.  1.
         11    1    3    3    0    0  0.62225641807E+02 -0.19372280438E+02 -0.12693628880E+02  0.66396114056E+02  0.00000000000E+00 0. -1.
        -11    1    4    4    0    0 -0.10261643051E+03  0.15204379995E+01 -0.14649107857E+02  0.10366793093E+03  0.00000000000E+00 0.  1.
         11    1    4    4    0    0 -0.29709530059E+02  0.64364832473E+02 -0.12312677574E+02  0.71951996947E+02  0.00000000000E+00 0. -1.
         -1    1    1    2    0  502  0.66140086722E+02 -0.94330439007E+02 -0.48748861236E+03  0.50091704900E+03  0.00000000000E+00 0.  1.
<scales pt_clust_5="13000.00000" pt_clust_6="13000.00000" pt_clust_7="13000.00000" pt_clust_8="13000.00000" pt_clust_9="115.20739"></scales>
<clustering>
<clus scale="   89.961">  5  6 -1 -1</clus>
<clus scale="   90.909">  7  8 -1 -1</clus>
<clus scale="  115.207">  2  9  1 -1</clus>
<clus scale="  127.838">  1  5  2 -1</clus>
<clus scale="  115.207">  2  5  1 -1</clus>
</clustering>
</event>
<event>
 9    1  0.1881049E-005  0.2339849E+03  0.7546771E-02  0.1123871E+00
         21   -1    0    0  501  502  0.00000000000E+00  0.00000000000E+00  0.59730981887E+02  0.59730981887E+02  0.00000000000E+00 0. -1.
          2   -1    0    0  502    0 -0.00000000000E+00 -0.00000000000E+00 -0.10827601432E+04  0.10827601432E+04  0.00000000000E+00 0.  1.
         23    2    1    2    0    0  0.20986968588E+03 -0.34589383738E+02 -0.59817812836E+03  0.64145947253E+03  0.91714072655E+02 0.  0.
         23    2    1    2    0    0 -0.21251764895E+03  0.55069049861E+02 -0.41453744748E+03  0.47794922464E+03  0.91639590784E+02 0.  0.
        -13    1    4    4    0    0 -0.59384833301E+02 -0.10603837449E+02 -0.18303522044E+03  0.19271972321E+03  0.00000000000E+00 0.  1.
         13    1    4    4    0    0 -0.15313281565E+03  0.65672887309E+02 -0.23150222705E+03  0.28522950143E+03  0.00000000000E+00 0. -1.
        -13    1    3    3    0    0  0.18483439697E+03 -0.61468945245E+02 -0.51035060690E+03  0.54625994499E+03  0.00000000000E+00 0.  1.
         13    1    3    3    0    0  0.25035288918E+02  0.26879561508E+02 -0.87827521460E+02  0.95199527541E+02  0.00000000000E+00 0. -1.
          2    1    1    2  501    0  0.26479630693E+01 -0.20479666123E+02 -0.10313585447E+02  0.23082427899E+02  0.00000000000E+00 0.  1.
<scales pt_clust_5="13000.00000" pt_clust_6="13000.00000" pt_clust_7="13000.00000" pt_clust_8="13000.00000" pt_clust_9="20.65014"></scales>
<clustering>
<clus scale="   20.650">  1  9  2 -1</clus>
<clus scale="   91.640">  5  6 -1 -1</clus>
<clus scale="   91.714">  7  8 -1 -1</clus>
<clus scale="  233.956">  1  5  2 -1</clus>
<clus scale="   20.650">  1  5  2 -1</clus>
</clustering>
</event>
<event>
 9    1  0.1881049E-005  0.2130955E+03  0.7546771E-02  0.1153389E+00
          1   -1    0    0  502    0 -0.00000000000E+00  0.00000000000E+00  0.12777716371E+04  0.12777716371E+04  0.00000000000E+00 0. -1.
         21   -1    0    0  501  502  0.00000000000E+00 -0.00000000000E+00 -0.76142283154E+02  0.76142283154E+02  0.00000000000E+00 0. -1.
         23    2    1    2    0    0 -0.10536368755E+02  0.12079422331E+03  0.59587469575E+03  0.61487798427E+03  0.91137385599E+02 0.  0.
         23    2    1    2    0    0 -0.42268066758E+02  0.12384767267E+03  0.33037464695E+03  0.36691751898E+03  0.91412378230E+02 0.  0.
        -11    1    3    3    0    0 -0.36301756150E+02  0.16106542476E+02  0.10396262437E+03  0.11129000618E+03  0.00000000000E+00 0.  1.
         11    1    3    3    0    0  0.25765387394E+02  0.10468768083E+03  0.49191207138E+03  0.50358797809E+03  0.00000000000E+00 0. -1.
        -11    1    4    4    0    0  0.19133515068E+02  0.26632737305E+02  0.26980334349E+02  0.42465663033E+02  0.00000000000E+00 0.  1.
         11    1    4    4    0    0 -0.61401581826E+02  0.97214935360E+02  0.30339431260E+03  0.32445185594E+03  0.00000000000E+00 0. -1.
          1    1    1    2  501    0  0.52804435513E+02 -0.24464189597E+03  0.27538001122E+03  0.37211841698E+03  0.00000000000E+00 0. -1.
<scales pt_clust_5="13000.00000" pt_clust_6="13000.00000" pt_clust_7="13000.00000" pt_clust_8="13000.00000" pt_clust_9="192.49292"></scales>
<clustering>
<clus scale="   91.137">  5  6 -1 -1</clus>
<clus scale="   91.412">  7  8 -1 -1</clus>
<clus scale="  151.685">  1  5  2 -1</clus>
<clus scale="  192.493">  2  9  1 -1</clus>
<clus scale="  192.493">  2  5  1 -1</clus>
</clustering>
</event>
<event>
 9    1  0.1881049E-005  0.1058363E+03  0.7546771E-02  0.1270199E+00
         21   -1    0    0  501  502  0.00000000000E+00  0.00000000000E+00  0.15407576730E+03  0.15407576730E+03  0.00000000000E+00 0. -1.
         -4   -1    0    0    0  501 -0.00000000000E+00 -0.00000000000E+00 -0.11342085682E+03  0.11342085682E+03  0.00000000000E+00 0. -1.
         23    2    1    2    0    0  0.35040786432E+02 -0.21337752717E+02 -0.29840785365E+01  0.10183270376E+03  0.93154916276E+02 0.  0.
         23    2    1    2    0    0 -0.32475278983E+02  0.54360585316E+02 -0.18326447107E+01  0.10940773158E+03  0.89201884290E+02 0.  0.
        -11    1    3    3    0    0 -0.18609736153E+02 -0.34824843178E+02 -0.19585056791E+02  0.44075689802E+02  0.00000000000E+00 0.  1.
         11    1    3    3    0    0  0.53650522585E+02  0.13487090461E+02  0.16600978255E+02  0.57757013962E+02  0.00000000000E+00 0. -1.
        -11    1    4    4    0    0 -0.42197459050E+02  0.10645959251E+02  0.31379985994E+02  0.53653196732E+02  0.00000000000E+00 0.  1.
         11    1    4    4    0    0  0.97221800667E+01  0.43714626065E+02 -0.33212630705E+02  0.55754534843E+02  0.00000000000E+00 0. -1.
         -4    1    1    2    0  502 -0.25655074492E+01 -0.33022832599E+02  0.45471633727E+02  0.56256188772E+02  0.00000000000E+00 0. -1.
<scales pt_clust_5="13000.00000" pt_clust_6="13000.00000" pt_clust_7="13000.00000" pt_clust_8="13000.00000" pt_clust_9="33.12234"></scales>
<clustering>
<clus scale="   33.122">  1  9  2 -1</clus>
<clus scale="   89.202">  7  8 -1 -1</clus>
<clus scale="   93.155">  5  6 -1 -1</clus>
<clus scale="  102.374">  1  7  2 -1</clus>
<clus scale="   33.122">  1  5  2 -1</clus>
</clustering>
</event>
<event>
 9    1  0.1881049E-005  0.1017632E+03  0.7546771E-02  0.1276801E+00
         21   -1    0    0  501  502  0.00000000000E+00  0.00000000000E+00  0.84866643118E+02  0.84866643118E+02  0.00000000000E+00 0. -1.
         -3   -1    0    0    0  501 -0.00000000000E+00 -0.00000000000E+00 -0.20925331106E+03  0.20925331106E+03  0.00000000000E+00 0.  1.
         23    2    1    2    0    0  0.13586772800E+02 -0.39478494897E+02 -0.11703814168E+03  0.15515004139E+03  0.92900251787E+02 0.  0.
         23    2    1    2    0    0  0.80166745191E+01  0.41691988506E+02 -0.30808695884E+02  0.10700136498E+03  0.93261071140E+02 0.  0.
        -11    1    3    3    0    0  0.49743972429E+02 -0.20349038782E+01 -0.58492620352E+02  0.76811394093E+02  0.00000000000E+00 0.  1.
         11    1    3    3    0    0 -0.36157199629E+02 -0.37443591018E+02 -0.58545521328E+02  0.78338647301E+02  0.00000000000E+00 0. -1.
        -13    1    4    4    0    0  0.32742377611E+02  0.48439405000E+02 -0.48411693904E+02  0.75908704080E+02  0.00000000000E+00 0.  1.
         13    1    4    4    0    0 -0.24725703092E+02 -0.67474164936E+01  0.17602998020E+02  0.31092660903E+02  0.00000000000E+00 0. -1.
         -3    1    1    2    0  502 -0.21603447319E+02 -0.22134936098E+01  0.23460169620E+02  0.31968547803E+02  0.00000000000E+00 0.  1.
<scales pt_clust_5="13000.00000" pt_clust_6="13000.00000" pt_clust_7="13000.00000" pt_clust_8="13000.00000" pt_clust_9="21.71655"></scales>
<clustering>
<clus scale="   21.717">  1  9  2 -1</clus>
<clus scale="   92.900">  5  6 -1 -1</clus>
<clus scale="   93.261">  7  8 -1 -1</clus>
<clus scale="  101.433">  2  5  1 -1</clus>
<clus scale="   21.717">  1  5  2 -1</clus>
</clustering>
</event>
<event>
 9    1  0.1881049E-005  0.9663469E+02  0.7546771E-02  0.1287888E+00
         -3   -1    0    0    0  501 -0.00000000000E+00  0.00000000000E+00  0.16689471367E+03  0.16689471367E+03  0.00000000000E+00 0.  1.
         21   -1    0    0  501  502  0.00000000000E+00 -0.00000000000E+00 -0.41862397456E+03  0.41862397456E+03  0.00000000000E+00 0.  1.
         23    2    1    2    0    0 -0.19684119231E+02  0.23021033836E+02  0.13804344797E+03  0.16837143409E+03  0.91517832908E+02 0.  0.
         23    2    1    2    0    0  0.26939560202E+02  0.22108343817E+02 -0.30902511877E+03  0.32435999502E+03  0.92186569330E+02 0.  0.
        -11    1    3    3    0    0  0.87402862992E+01 -0.25563890273E+02  0.10547538589E+02  0.29002683682E+02  0.00000000000E+00 0. -1.
         11    1    3    3    0    0 -0.28424405531E+02  0.48584924109E+02  0.12749590938E+03  0.13936875041E+03  0.00000000000E+00 0.  1.
        -13    1    4    4    0    0 -0.31862547974E+02  0.48331577100E+01 -0.16020382334E+03  0.16341311572E+03  0.00000000000E+00 0. -1.
         13    1    4    4    0    0  0.58802108176E+02  0.17275186107E+02 -0.14882129543E+03  0.16094687930E+03  0.00000000000E+00 0.  1.
         -3    1    1    2    0  502 -0.72554409706E+01 -0.45129377653E+02 -0.80747590083E+02  0.92787259121E+02  0.00000000000E+00 0.  1.
<scales pt_clust_5="13000.00000" pt_clust_6="13000.00000" pt_clust_7="13000.00000" pt_clust_8="13000.00000" pt_clust_9="45.70888"></scales>
<clustering>
<clus scale="   45.709">  2  9  1 -1</clus>
<clus scale="   91.518">  5  6 -1 -1</clus>
<clus scale="   92.187">  7  8 -1 -1</clus>
<clus scale="   95.997">  1  5  2 -1</clus>
<clus scale="   45.709">  2  5  1 -1</clus>
</clustering>
</event>
<event>
 9    1  0.1881049E-005  0.9381478E+02  0.7546771E-02  0.1296322E+00
          2   -1    0    0  502    0 -0.00000000000E+00  0.00000000000E+00  0.74349329224E+03  0.74349329224E+03  0.00000000000E+00 0. -1.
         21   -1    0    0  501  502  0.00000000000E+00 -0.00000000000E+00 -0.22324992663E+02  0.22324992663E+02  0.00000000000E+00 0. -1.
         23    2    1    2    0    0 -0.19901180095E+02 -0.16443195452E+02  0.42718261338E+03  0.43740807443E+03  0.90412403785E+02 0.  0.
         23    2    1    2    0    0  0.31308432402E+02 -0.11887843036E+02  0.27996568025E+03  0.29480464972E+03  0.86066605747E+02 0.  0.
        -11    1    3    3    0    0  0.33437561120E+02 -0.80570720115E+00  0.97620775124E+02  0.10319174092E+03  0.00000000000E+00 0.  1.
         11    1    3    3    0    0 -0.53338741215E+02 -0.15637488251E+02  0.32956183825E+03  0.33421633351E+03  0.00000000000E+00 0. -1.
        -13    1    4    4    0    0 -0.23632297891E+02  0.17536027599E+02  0.74757706127E+02  0.80341224742E+02  0.00000000000E+00 0.  1.
         13    1    4    4    0    0  0.54940730293E+02 -0.29423870635E+02  0.20520797412E+03  0.21446342497E+03  0.00000000000E+00 0. -1.
          2    1    1    2  501    0 -0.11407252307E+02  0.28331038488E+02  0.14020005948E+02  0.33605560757E+02  0.00000000000E+00 0. -1.
<scales pt_clust_5="13000.00000" pt_clust_6="13000.00000" pt_clust_7="13000.00000" pt_clust_8="13000.00000" pt_clust_9="30.54134"></scales>
<clustering>
<clus scale="   30.541">  2  9  1 -1</clus>
<clus scale="   86.067">  7  8 -1 -1</clus>
<clus scale="   89.634">  2  7  1 -1</clus>
<clus scale="   90.412">  5  6 -1 -1</clus>
<clus scale="   30.541">  2  5  1 -1</clus>
</clustering>
</event>
<event>
 9    1  0.1881049E-005  0.1073042E+03  0.7546771E-02  0.1265852E+00
         21   -1    0    0  501  502  0.00000000000E+00  0.00000000000E+00  0.15371707858E+03  0.15371707858E+03  0.00000000000E+00 0. -1.
          1   -1    0    0  502    0 -0.00000000000E+00 -0.00000000000E+00 -0.37102214738E+03  0.37102214738E+03  0.00000000000E+00 0. -1.
         23    2    1    2    0    0  0.38725653759E+02  0.51888804194E+02 -0.30150412191E+03  0.32174287068E+03  0.91769357858E+02 0.  0.
         23    2    1    2    0    0 -0.12472400038E+02 -0.15033049335E+02 -0.14469591787E+02  0.94446452088E+02  0.91264505097E+02 0.  0.
        -11    1    3    3    0    0  0.59650992310E+02  0.28558786134E+02 -0.26726711014E+03  0.27532808304E+03  0.00000000000E+00 0. -1.
         11    1    3    3    0    0 -0.20925338551E+02  0.23330018060E+02 -0.34237011774E+02  0.46414787636E+02  0.00000000000E+00 0.  1.
        -13    1    4    4    0    0 -0.17709150012E+02 -0.50450433665E+02  0.49841826682E+01  0.53700114786E+02  0.00000000000E+00 0.  1.
         13    1    4    4    0    0  0.52367499738E+01  0.35417384330E+02 -0.19453774455E+02  0.40746337303E+02  0.00000000000E+00 0. -1.
          1    1    1    2  501    0 -0.26253253721E+02 -0.36855754859E+02  0.98668644895E+02  0.10854990319E+03  0.00000000000E+00 0. -1.
<scales pt_clust_5="13000.00000" pt_clust_6="13000.00000" pt_clust_7="13000.00000" pt_clust_8="13000.00000" pt_clust_9="45.25019"></scales>
<clustering>
<clus scale="   45.250">  1  9  2 -1</clus>
<clus scale="   91.265">  7  8 -1 -1</clus>
<clus scale="   91.769">  5  6 -1 -1</clus>
<clus scale="  106.873">  1  7  2 -1</clus>
<clus scale="   45.250">  1  5  2 -1</clus>
</clustering>
</event>
<event>
 9    1  0.1881049E-005  0.1014428E+03  0.7546771E-02  0.1278741E+00
          1   -1    0    0  502    0 -0.00000000000E+00  0.00000000000E+00  0.40834326736E+03  0.40834326736E+03  0.00000000000E+00 0. -1.
         21   -1    0    0  501  502  0.00000000000E+00 -0.00000000000E+00 -0.61253664986E+02  0.61253664986E+02  0.00000000000E+00 0. -1.
         23    2    1    2    0    0  0.50399211943E+02  0.75700591322E+01  0.20319319046E+03  0.22929458942E+03  0.93226336026E+02 0.  0.
         23    2    1    2    0    0 -0.10702482906E+02  0.23787886545E+02  0.15888761959E+03  0.18753978649E+03  0.96153466765E+02 0.  0.
        -11    1    4    4    0    0 -0.17819762394E+02 -0.35407072188E+02  0.55668626939E+02  0.68338866818E+02  0.00000000000E+00 0.  1.
         11    1    4    4    0    0  0.71172794880E+01  0.59194958732E+02  0.10321899265E+03  0.11920091967E+03  0.00000000000E+00 0. -1.
        -13    1    3    3    0    0  0.40473302287E+02  0.39701559231E+02  0.61416745328E+02  0.83584200720E+02  0.00000000000E+00 0. -1.
         13    1    3    3    0    0  0.99259096562E+01 -0.32131500098E+02  0.14177644513E+03  0.14571038870E+03  0.00000000000E+00 0.  1.
          1    1    1    2  501    0 -0.39696729038E+02 -0.31357945677E+02 -0.14991207682E+02  0.52762556431E+02  0.00000000000E+00 0. -1.
<scales pt_clust_5="13000.00000" pt_clust_6="13000.00000" pt_clust_7="13000.00000" pt_clust_8="13000.00000" pt_clust_9="50.58805"></scales>
<clustering>
<clus scale="   50.588">  2  9  1 -1</clus>
<clus scale="   93.226">  7  8 -1 -1</clus>
<clus scale="   96.153">  5  6 -1 -1</clus>
<clus scale="   98.673">  1  7  2 -1</clus>
<clus scale="   50.588">  2  5  1 -1</clus>
</clustering>
</event>
<event>
 9    1  0.1881049E-005  0.1340794E+03  0.7546771E-02  0.1222495E+00
          2   -1    0    0  502    0 -0.00000000000E+00  0.00000000000E+00  0.39495532300E+03  0.39495532300E+03  0.00000000000E+00 0.  1.
         21   -1    0    0  501  502  0.00000000000E+00 -0.00000000000E+00 -0.87779906598E+02  0.87779906598E+02  0.00000000000E+00 0. -1.
         23    2    1    2    0    0 -0.11655064886E+03  0.19396593896E+02  0.23004551953E+03  0.27275899918E+03  0.86696303105E+02 0.  0.
         23    2    1    2    0    0  0.73958573981E+02 -0.11603899742E+02  0.10566796416E+03  0.15811842283E+03  0.90725938040E+02 0.  0.
        -11    1    3    3    0    0 -0.11558869828E+03 -0.68437772278E+01  0.15658870013E+03  0.19475011031E+03  0.00000000000E+00 0. -1.
         11    1    3    3    0    0 -0.96195057355E+00  0.26240371123E+02  0.73456819403E+02  0.78008888868E+02  0.00000000000E+00 0.  1.
        -13    1    4    4    0    0  0.30184651851E+02  0.32557470714E+02  0.78663373981E+02  0.90327340893E+02  0.00000000000E+00 0.  1.
         13    1    4    4    0    0  0.43773922130E+02 -0.44161370456E+02  0.27004590179E+02  0.67791081935E+02  0.00000000000E+00 0. -1.
          2    1    1    2  501    0  0.42592074876E+02 -0.77926941536E+01 -0.28538067284E+02  0.51857807597E+02  0.00000000000E+00 0.  1.
<scales pt_clust_5="13000.00000" pt_clust_6="13000.00000" pt_clust_7="13000.00000" pt_clust_8="13000.00000" pt_clust_9="43.29909"></scales>
<clustering>
<clus scale="   43.299">  2  9  1 -1</clus>
<clus scale="   86.696">  5  6 -1 -1</clus>
<clus scale="   90.726">  7  8 -1 -1</clus>
<clus scale="  131.386">  1  5  2 -1</clus>
<clus scale="   43.299">  2  5  1 -1</clus>
</clustering>
</event>
<event>
 9    1  0.1881049E-005  0.1796854E+03  0.7546771E-02  0.1190878E+00
         21   -1    0    0  501  502  0.00000000000E+00  0.00000000000E+00  0.66501441638E+03  0.66501441638E+03  0.00000000000E+00 0.  1.
          1   -1    0    0  502    0 -0.00000000000E+00 -0.00000000000E+00 -0.10642852108E+03  0.10642852108E+03  0.00000000000E+00 0. -1.
         23    2    1    2    0    0 -0.50485124344E+02 -0.29145460814E+02  0.76397007210E+00  0.10765125185E+03  0.90498633739E+02 0.  0.
         23    2    1    2    0    0  0.15202379903E+02  0.16466492333E+03  0.44606896530E+03  0.48462941048E+03  0.92425615335E+02 0.  0.
        -13    1    3    3    0    0  0.13897676526E+01 -0.51200674772E+02 -0.14348180450E+01  0.51239625819E+02  0.00000000000E+00 0.  1.
         13    1    3    3    0    0 -0.51874891996E+02  0.22055213958E+02  0.21987881171E+01  0.56411626032E+02  0.00000000000E+00 0. -1.
        -13    1    4    4    0    0  0.47612743058E+02  0.14027577641E+03  0.36684511461E+03  0.39562558671E+03  0.00000000000E+00 0.  1.
         13    1    4    4    0    0 -0.32410363155E+02  0.24389146922E+02  0.79223850690E+02  0.89003823769E+02  0.00000000000E+00 0. -1.
          1    1    1    2  501    0  0.35282744441E+02 -0.13551946252E+03  0.11175295993E+03  0.17916227513E+03  0.00000000000E+00 0. -1.
<scales pt_clust_5="13000.00000" pt_clust_6="13000.00000" pt_clust_7="13000.00000" pt_clust_8="13000.00000" pt_clust_9="154.09208"></scales>
<clustering>
<clus scale="   90.499">  5  6 -1 -1</clus>
<clus scale="   92.426">  7  8 -1 -1</clus>
<clus scale="  107.649">  2  5  1 -1</clus>
<clus scale="  154.092">  1  9  2 -1</clus>
<clus scale="  154.092">  1  5  2 -1</clus>
</clustering>
</event>
<event>
 9    1  0.1881049E-005  0.9385207E+02  0.7546771E-02  0.1294568E+00
         -1   -1    0    0    0  501 -0.00000000000E+00  0.00000000000E+00  0.90668602700E+02  0.90668602700E+02  0.00000000000E+00 0.  1.
         21   -1    0    0  501  502  0.00000000000E+00 -0.00000000000E+00 -0.24018125688E+03  0.24018125688E+03  0.00000000000E+00 0. -1.
         23    2    1    2    0    0 -0.21592979687E+02  0.17524775691E+02 -0.79137860771E+02  0.12385101413E+03  0.91120240114E+02 0.  0.
         23    2    1    2    0    0  0.19834421165E+02  0.39743246995E+02 -0.10085120448E+03  0.14210253907E+03  0.89717535745E+02 0.  0.
        -11    1    4    4    0    0  0.20236928099E+02 -0.14613105330E+02  0.27443305729E+01  0.25111898705E+02  0.00000000000E+00 0.  1.
         11    1    4    4    0    0 -0.40250693435E+00  0.54356352325E+02 -0.10359553505E+03  0.11699064036E+03  0.00000000000E+00 0. -1.
        -11    1    3    3    0    0  0.28774708892E+02  0.31825853010E+02 -0.36305542402E+02  0.56204636826E+02  0.00000000000E+00 0.  1.
         11    1    3    3    0    0 -0.50367688579E+02 -0.14301077319E+02 -0.42832318368E+02  0.67646377302E+02  0.00000000000E+00 0. -1.
         -1    1    1    2    0  502  0.17585585218E+01 -0.57268022686E+02  0.30476411070E+02  0.64896306383E+02  0.00000000000E+00 0.  1.
<scales pt_clust_5="13000.00000" pt_clust_6="13000.00000" pt_clust_7="13000.00000" pt_clust_8="13000.00000" pt_clust_9="57.29505"></scales>
<clustering>
<clus scale="   57.295">  2  9  1 -1</clus>
<clus scale="   89.718">  5  6 -1 -1</clus>
<clus scale="   91.120">  7  8 -1 -1</clus>
<clus scale="   92.491">  2  5  1 -1</clus>
<clus scale="   57.295">  2  5  1 -1</clus>
</clustering>
</event>
<event>
 9    1  0.1881049E-005  0.1708076E+03  0.7546771E-02  0.1199087E+00
         21   -1    0    0  501  502  0.00000000000E+00  0.00000000000E+00  0.19917514810E+03  0.19917514810E+03  0.00000000000E+00 0.  1.
          2   -1    0    0  502    0 -0.00000000000E+00 -0.00000000000E+00 -0.32385798120E+03  0.32385798120E+03  0.00000000000E+00 0. -1.
         23    2    1    2    0    0  0.25837788814E+02  0.42048725427E+02 -0.14692043075E+03  0.18040661412E+03  0.92332263090E+02 0.  0.
         23    2    1    2    0    0 -0.13549232136E+03 -0.11024364835E+03 -0.32915919730E+02  0.20221079491E+03  0.96404961791E+02 0.  0.
        -11    1    3    3    0    0  0.50566555881E+02 -0.29066687857E+01 -0.52522055842E+02  0.72965688149E+02  0.00000000000E+00 0.  1.
         11    1    3    3    0    0 -0.24728767067E+02  0.44955394213E+02 -0.94398374906E+02  0.10744092598E+03  0.00000000000E+00 0. -1.
        -11    1    4    4    0    0 -0.10889886254E+03 -0.11269101638E+03 -0.56497264769E+02  0.16658381783E+03  0.00000000000E+00 0.  1.
         11    1    4    4    0    0 -0.26593458814E+02  0.24473680328E+01  0.23581345039E+02  0.35626977080E+02  0.00000000000E+00 0. -1.
          2    1    1    2  501    0  0.10965453254E+03  0.68194922921E+02  0.55153517374E+02  0.14041572027E+03  0.00000000000E+00 0. -1.
<scales pt_clust_5="13000.00000" pt_clust_6="13000.00000" pt_clust_7="13000.00000" pt_clust_8="13000.00000" pt_clust_9="141.00118"></scales>
<clustering>
<clus scale="   92.332">  5  6 -1 -1</clus>
<clus scale="   96.405">  7  8 -1 -1</clus>
<clus scale="  104.694">  2  5  1 -1</clus>
<clus scale="  141.001">  1  9  2 -1</clus>
<clus scale="  141.001">  1  5  2 -1</clus>
</clustering>
</event>
<event>
 9    1  0.1881049E-005  0.1154252E+03  0.7546771E-02  0.1251135E+00
          1   -1    0    0  502    0 -0.00000000000E+00  0.00000000000E+00  0.18837861195E+03  0.18837861195E+03  0.00000000000E+00 0. -1.
         21   -1    0    0  501  502  0.00000000000E+00 -0.00000000000E+00 -0.13419687368E+03  0.13419687368E+03  0.00000000000E+00 0.  1.
         23    2    1    2    0    0  0.61861353113E+02  0.17365125307E+02  0.11298906036E+03  0.15910367554E+03  0.91755529658E+02 0.  0.
         23    2    1    2    0    0 -0.81278072187E+02 -0.32841158948E+02 -0.46187585220E+02  0.13561908391E+03  0.92599007304E+02 0.  0.
        -11    1    3    3    0    0  0.27020398815E+02  0.46300379118E+02  0.97451004205E+02  0.11122286311E+03  0.00000000000E+00 0. -1.
         11    1    3    3    0    0  0.34840954297E+02 -0.28935253811E+02  0.15538056157E+02  0.47880812426E+02  0.00000000000E+00 0.  1.
        -11    1    4    4    0    0 -0.32893267697E+02 -0.38872418613E+02  0.18880243175E+02  0.54309258611E+02  0.00000000000E+00 0.  1.
         11    1    4    4    0    0 -0.48384804490E+02  0.60312596647E+01 -0.65067828395E+02  0.81309825302E+02  0.00000000000E+00 0. -1.
          1    1    1    2  501    0  0.19416719074E+02  0.15476033641E+02 -0.12619736876E+02  0.27852726180E+02  0.00000000000E+00 0. -1.
<scales pt_clust_5="13000.00000" pt_clust_6="13000.00000" pt_clust_7="13000.00000" pt_clust_8="13000.00000" pt_clust_9="24.82975"></scales>
<clustering>
<clus scale="   24.830">  2  9  1 -1</clus>
<clus scale="   91.756">  5  6 -1 -1</clus>
<clus scale="   92.599">  7  8 -1 -1</clus>
<clus scale="  114.750">  1  5  2 -1</clus>
<clus scale="   24.830">  2  5  1 -1</clus>
</clustering>
</event>
<event>
 9    1  0.1881049E-005  0.1927882E+03  0.7546771E-02  0.1156335E+00
         21   -1    0    0  501  502  0.00000000000E+00  0.00000000000E+00  0.79243177766E+02  0.79243177766E+02  0.00000000000E+00 0. -1.
          4   -1    0    0  502    0 -0.00000000000E+00 -0.00000000000E+00 -0.96308448466E+03  0.96308448466E+03  0.00000000000E+00 0. -1.
         23    2    1    2    0    0 -0.13057348365E+03 -0.63428915946E+02 -0.46913921182E+03  0.49911791716E+03  0.89187628877E+02 0.  0.
         23    2    1    2    0    0  0.19480111422E+03  0.11606738773E+03 -0.38235333573E+03  0.45408938019E+03  0.92649766633E+02 0.  0.
        -11    1    4    4    0    0  0.42505689918E+02  0.54636652122E+02 -0.18392848492E+03  0.19652375173E+03  0.00000000000E+00 0.  1.
         11    1    4    4    0    0  0.15229542431E+03  0.61430735611E+02 -0.19842485081E+03  0.25756562846E+03  0.00000000000E+00 0. -1.
        -11    1    3    3    0    0 -0.41245438233E+02  0.13060179700E+02 -0.21189996335E+03  0.21627147047E+03  0.00000000000E+00 0.  1.
         11    1    3    3    0    0 -0.89328045419E+02 -0.76489095645E+02 -0.25723924847E+03  0.28284644669E+03  0.00000000000E+00 0. -1.
          4    1    1    2  501    0 -0.64227630572E+02 -0.52638471787E+02 -0.32348759335E+02  0.89120365077E+02  0.00000000000E+00 0. -1.
<scales pt_clust_5="13000.00000" pt_clust_6="13000.00000" pt_clust_7="13000.00000" pt_clust_8="13000.00000" pt_clust_9="83.04214"></scales>
<clustering>
<clus scale="   83.042">  1  9  2 -1</clus>
<clus scale="   89.188">  7  8 -1 -1</clus>
<clus scale="   92.650">  5  6 -1 -1</clus>
<clus scale="  191.149">  2  7  1 -1</clus>
<clus scale="   83.042">  1  5  2 -1</clus>
</clustering>
</event>
<event>
 9    1  0.1881049E-005  0.1075233E+03  0.7546771E-02  0.1265323E+00
         -3   -1    0    0    0  501 -0.00000000000E+00  0.00000000000E+00  0.16090584169E+03  0.16090584169E+03  0.00000000000E+00 0.  1.
         21   -1    0    0  501  502  0.00000000000E+00 -0.00000000000E+00 -0.30583488667E+03  0.30583488667E+03  0.00000000000E+00 0.  1.
         23    2    1    2    0    0 -0.17897536950E+02 -0.46769882991E+02  0.10306593944E+03  0.14705148656E+03  0.92161857849E+02 0.  0.
         23    2    1    2    0    0  0.44297155161E+02  0.96419400089E+02 -0.20618869447E+03  0.24961941756E+03  0.92396629969E+02 0.  0.
        -11    1    3    3    0    0  0.17259938929E+02  0.18583665183E+02  0.82990592845E+01  0.26685810621E+02  0.00000000000E+00 0. -1.
         11    1    3    3    0    0 -0.35157475879E+02 -0.65353548175E+02  0.94766880157E+02  0.12036567594E+03  0.00000000000E+00 0.  1.
        -13    1    4    4    0    0  0.67305106921E+02  0.37170038353E+02 -0.10541141289E+03  0.13047281378E+03  0.00000000000E+00 0.  1.
         13    1    4    4    0    0 -0.23007951761E+02  0.59249361736E+02 -0.10077728157E+03  0.11914660378E+03  0.00000000000E+00 0. -1.
         -3    1    1    2    0  502 -0.26399618211E+02 -0.49649517098E+02 -0.41806289952E+02  0.70069824242E+02  0.00000000000E+00 0.  1.
<scales pt_clust_5="13000.00000" pt_clust_6="13000.00000" pt_clust_7="13000.00000" pt_clust_8="13000.00000" pt_clust_9="56.23179"></scales>
<clustering>
<clus scale="   56.232">  2  9  1 -1</clus>
<clus scale="   92.162">  5  6 -1 -1</clus>
<clus scale="   92.397">  7  8 -1 -1</clus>
<clus scale="  107.322">  1  5  2 -1</clus>
<clus scale="   56.232">  2  5  1 -1</clus>
</clustering>
</event>
<event>
 9    1  0.1881049E-005  0.3107223E+03  0.7546771E-02  0.1121882E+00
         21   -1    0    0  501  502  0.00000000000E+00  0.00000000000E+00  0.34430679584E+03  0.34430679584E+03  0.00000000000E+00 0.  1.
          2   -1    0    0  502    0 -0.00000000000E+00 -0.00000000000E+00 -0.38655694815E+03  0.38655694815E+03  0.00000000000E+00 0. -1.
         23    2    1    2    0    0  0.51282748398E+02  0.69884514457E+01 -0.20868236125E+02  0.10702535185E+03  0.91324607437E+02 0.  0.
         23    2    1    2    0    0 -0.31468484049E+03  0.42098229157E+02  0.75906040565E+02  0.33878557096E+03  0.90637334290E+02 0.  0.
        -13    1    4    4    0    0 -0.23748205381E+03 -0.68606345008E+01  0.67489376128E+02  0.24698099133E+03  0.00000000000E+00 0.  1.
         13    1    4    4    0    0 -0.77202786676E+02  0.48958863658E+02  0.84166644368E+01  0.91804579632E+02  0.00000000000E+00 0. -1.
        -13    1    3    3    0    0  0.23821074620E+02  0.30332890773E+02  0.27018046086E+02  0.47090367094E+02  0.00000000000E+00 0.  1.
         13    1    3    3    0    0  0.27461673777E+02 -0.23344439327E+02 -0.47886282211E+02  0.59934984760E+02  0.00000000000E+00 0. -1.
          2    1    1    2  501    0  0.26340209209E+03 -0.49086680602E+02 -0.97287956752E+02  0.28505282117E+03  0.00000000000E+00 0. -1.
<scales pt_clust_5="13000.00000" pt_clust_6="13000.00000" pt_clust_7="13000.00000" pt_clust_8="13000.00000" pt_clust_9="297.20917"></scales>
<clustering>
<clus scale="   90.637">  5  6 -1 -1</clus>
<clus scale="   91.325">  7  8 -1 -1</clus>
<clus scale="  104.971">  2  7  1 -1</clus>
<clus scale="  297.209">  1  9  2 -1</clus>
<clus scale="  297.209">  1  5  2 -1</clus>
</clustering>
</event>
<event>
 9    1  0.1881049E-005  0.9935239E+02  0.7546771E-02  0.1282799E+00
         -1   -1    0    0    0  501 -0.00000000000E+00  0.00000000000E+00  0.45393503437E+03  0.45393503437E+03  0.00000000000E+00 0.  1.
         21   -1    0    0  501  502  0.00000000000E+00 -0.00000000000E+00 -0.11090613737E+03  0.11090613737E+03  0.00000000000E+00 0.  1.
         23    2    1    2    0    0 -0.34109296231E+00  0.51951102372E+02  0.28312315039E+03  0.30184267203E+03  0.90836374843E+02 0.  0.
         23    2    1    2    0    0  0.25267962577E+01 -0.23692338793E+02  0.14598159219E+03  0.17237628274E+03  0.88516924791E+02 0.  0.
        -13    1    3    3    0    0  0.11178349566E+02 -0.24574489271E+02  0.64272114416E+02  0.69712019864E+02  0.00000000000E+00 0. -1.
         13    1    3    3    0    0 -0.11519442528E+02  0.76525591643E+02  0.21885103597E+03  0.23213065217E+03  0.00000000000E+00 0.  1.
        -13    1    4    4    0    0 -0.22162697873E+02 -0.37369001623E+02  0.29479416734E+02  0.52503937665E+02  0.00000000000E+00 0. -1.
         13    1    4    4    0    0  0.24689494131E+02  0.13676662830E+02  0.11650217546E+03  0.11987234507E+03  0.00000000000E+00 0.  1.
         -1    1    1    2    0  502 -0.21857032954E+01 -0.28258763580E+02 -0.86075845575E+02  0.90622216975E+02  0.00000000000E+00 0.  1.
<scales pt_clust_5="13000.00000" pt_clust_6="13000.00000" pt_clust_7="13000.00000" pt_clust_8="13000.00000" pt_clust_9="28.34317"></scales>
<clustering>
<clus scale="   28.343">  2  9  1 -1</clus>
<clus scale="   88.517">  7  8 -1 -1</clus>
<clus scale="   90.836">  5  6 -1 -1</clus>
<clus scale="   97.236">  2  7  1 -1</clus>
<clus scale="   28.343">  2  5  1 -1</clus>
</clustering>
</event>
<event>
 9    1  0.1881049E-005  0.1128270E+03  0.7546771E-02  0.1258065E+00
         21   -1    0    0  501  502  0.00000000000E+00  0.00000000000E+00  0.12164361248E+03  0.12164361248E+03  0.00000000000E+00 0. -1.
          1   -1    0    0  502    0 -0.00000000000E+00 -0.00000000000E+00 -0.30624249100E+03  0.30624249100E+03  0.00000000000E+00 0. -1.
         23    2    1    2    0    0  0.62152133080E+02  0.15927341604E+02 -0.23787524838E+03  0.26504355387E+03  0.97708156253E+02 0.  0.
         23    2    1    2    0    0 -0.30237120148E+02 -0.35377567268E+01 -0.40622675249E+01  0.96060896443E+02  0.91018650015E+02 0.  0.
        -13    1    3    3    0    0  0.63132701978E+01  0.33273133276E+02 -0.19723017485E+02  0.39191277057E+02  0.00000000000E+00 0.  1.
         13    1    3    3    0    0  0.55838862882E+02 -0.17345791673E+02 -0.21815223089E+03  0.22585227681E+03  0.00000000000E+00 0. -1.
        -13    1    4    4    0    0 -0.57809944351E+02 -0.17924293802E+02  0.10981527772E+02  0.61513119953E+02  0.00000000000E+00 0.  1.
         13    1    4    4    0    0  0.27572824202E+02  0.14386537075E+02 -0.15043795297E+02  0.34547776490E+02  0.00000000000E+00 0. -1.
          1    1    1    2  501    0 -0.31915012932E+02 -0.12389584877E+02  0.57338637377E+02  0.66781653170E+02  0.00000000000E+00 0. -1.
<scales pt_clust_5="13000.00000" pt_clust_6="13000.00000" pt_clust_7="13000.00000" pt_clust_8="13000.00000" pt_clust_9="34.23551"></scales>
<clustering>
<clus scale="   34.236">  1  9  2 -1</clus>
<clus scale="   91.019">  7  8 -1 -1</clus>
<clus scale="   97.708">  5  6 -1 -1</clus>
<clus scale="  107.086">  1  7  2 -1</clus>
<clus scale="   34.236">  1  5  2 -1</clus>
</clustering>
</event>
<event>
 9    1  0.1881049E-005  0.1067917E+03  0.7546771E-02  0.1268135E+00
          1   -1    0    0  502    0 -0.00000000000E+00  0.00000000000E+00  0.33357289942E+02  0.33357289942E+02  0.00000000000E+00 0. -1.
         21   -1    0    0  501  502  0.00000000000E+00 -0.00000000000E+00 -0.65616475216E+03  0.65616475216E+03  0.00000000000E+00 0.  1.
         23    2    1    2    0    0  0.34647890896E+02 -0.85836074994E+00 -0.13480092760E+03  0.16635816856E+03  0.91118258536E+02 0.  0.
         23    2    1    2    0    0 -0.79200307150E+02  0.39457966608E+02 -0.34147643128E+03  0.36522110368E+03  0.94608042324E+02 0.  0.
        -11    1    3    3    0    0 -0.21618314285E+02 -0.27351259105E+02 -0.56104359226E+02  0.66054083987E+02  0.00000000000E+00 0.  1.
         11    1    3    3    0    0  0.56266205181E+02  0.26492898355E+02 -0.78696568373E+02  0.10030408457E+03  0.00000000000E+00 0. -1.
        -11    1    4    4    0    0 -0.95417508392E+02  0.52157689869E+02 -0.27933816572E+03  0.29975779614E+03  0.00000000000E+00 0.  1.
         11    1    4    4    0    0  0.16217201242E+02 -0.12699723261E+02 -0.62138265564E+02  0.65463307542E+02  0.00000000000E+00 0. -1.
          1    1    1    2  501    0  0.44552416253E+02 -0.38599605858E+02 -0.14653010334E+03  0.15794276986E+03  0.00000000000E+00 0. -1.
<scales pt_clust_5="13000.00000" pt_clust_6="13000.00000" pt_clust_7="13000.00000" pt_clust_8="13000.00000" pt_clust_9="58.94784"></scales>
<clustering>
<clus scale="   58.948">  2  9  1 -1</clus>
<clus scale="   91.118">  5  6 -1 -1</clus>
<clus scale="   94.608">  7  8 -1 -1</clus>
<clus scale="  103.713">  1  5  2 -1</clus>
<clus scale="   58.948">  2  5  1 -1</clus>
</clustering>
</event>
<event>
 9    1  0.1881049E-005  0.1158968E+03  0.7546771E-02  0.1253276E+00
          1   -1    0    0  502    0 -0.00000000000E+00  0.00000000000E+00  0.11422763526E+03  0.11422763526E+03  0.00000000000E+00 0. -1.
         21   -1    0    0  501  502  0.00000000000E+00 -0.00000000000E+00 -0.22674147072E+03  0.22674147072E+03  0.00000000000E+00 0. -1.
         23    2    1    2    0    0  0.34263733248E+02  0.44488171346E+02  0.14103733229E+02  0.11115529501E+03  0.94886160805E+02 0.  0.
         23    2    1    2    0    0 -0.59174290691E+02 -0.57040904015E+02 -0.21150732303E+02  0.12072045395E+03  0.85853439742E+02 0.  0.
        -11    1    3    3    0    0 -0.27569420315E+01  0.33926369835E+02  0.48686664419E+02  0.59405307775E+02  0.00000000000E+00 0. -1.
         11    1    3    3    0    0  0.37020675279E+02  0.10561801511E+02 -0.34582931190E+02  0.51749987236E+02  0.00000000000E+00 0.  1.
        -13    1    4    4    0    0 -0.65900644524E+00  0.21166199703E+02 -0.35152460458E+01  0.21466235210E+02  0.00000000000E+00 0.  1.
         13    1    4    4    0    0 -0.58515284245E+02 -0.78207103717E+02 -0.17635486257E+02  0.99254218740E+02  0.00000000000E+00 0. -1.
          1    1    1    2  501    0  0.24910557443E+02  0.12552732669E+02 -0.10546683638E+03  0.10909335702E+03  0.00000000000E+00 0. -1.
<scales pt_clust_5="13000.00000" pt_clust_6="13000.00000" pt_clust_7="13000.00000" pt_clust_8="13000.00000" pt_clust_9="27.89457"></scales>
<clustering>
<clus scale="   27.895">  2  9  1 -1</clus>
<clus scale="   85.853">  7  8 -1 -1</clus>
<clus scale="   94.886">  5  6 -1 -1</clus>
<clus scale="  108.626">  2  7  1 -1</clus>
<clus scale="   27.895">  2  5  1 -1</clus>
</clustering>
</event>
<event>
 9    1  0.1881049E-005  0.9503314E+02  0.7546771E-02  0.1294138E+00
         -1   -1    0    0    0  501 -0.00000000000E+00  0.00000000000E+00  0.18195391025E+03  0.18195391025E+03  0.00000000000E+00 0.  1.
         21   -1    0    0  501  502  0.00000000000E+00 -0.00000000000E+00 -0.15165224962E+03  0.15165224962E+03  0.00000000000E+00 0.  1.
         23    2    1    2    0    0 -0.29891487738E+02 -0.10327622273E+02  0.71363382690E+02  0.11727803372E+03  0.87528532400E+02 0.  0.
         23    2    1    2    0    0 -0.39917021862E+01  0.18680957326E+02  0.58092336343E+02  0.11121211374E+03  0.92889734886E+02 0.  0.
        -13    1    3    3    0    0 -0.45163759896E+01 -0.27601393765E+02 -0.10479956222E+02  0.29867441676E+02  0.00000000000E+00 0.  1.
         13    1    3    3    0    0 -0.25375111748E+02  0.17273771492E+02  0.81843338912E+02  0.87410592047E+02  0.00000000000E+00 0. -1.
        -13    1    4    4    0    0 -0.18491156530E+02 -0.33536161834E+02  0.12183220803E+02  0.40187409589E+02  0.00000000000E+00 0.  1.
         13    1    4    4    0    0  0.14499454344E+02  0.52217119160E+02  0.45909115540E+02  0.71024704148E+02  0.00000000000E+00 0. -1.
         -1    1    1    2    0  502  0.33883189924E+02 -0.83533350527E+01 -0.99154058403E+02  0.10511601240E+03  0.00000000000E+00 0.  1.
<scales pt_clust_5="13000.00000" pt_clust_6="13000.00000" pt_clust_7="13000.00000" pt_clust_8="13000.00000" pt_clust_9="34.89769"></scales>
<clustering>
<clus scale="   34.898">  2  9  1 -1</clus>
<clus scale="   87.529">  5  6 -1 -1</clus>
<clus scale="   89.800">  1  5  2 -1</clus>
<clus scale="   92.890">  7  8 -1 -1</clus>
<clus scale="   34.898">  2  5  1 -1</clus>
</clustering>
</event>
<event>
 9    1  0.1881049E-005  0.1850675E+03  0.7546771E-02  0.1163099E+00
          1   -1    0    0  502    0 -0.00000000000E+00  0.00000000000E+00  0.39679291788E+03  0.39679291788E+03  0.00000000000E+00 0. -1.
         21   -1    0    0  501  502  0.00000000000E+00 -0.00000000000E+00 -0.19460456044E+03  0.19460456044E+03  0.00000000000E+00 0. -1.
         23    2    1    2    0    0 -0.14961249917E+03  0.32775342109E+02  0.16642618101E+03  0.24413151231E+03  0.91893408996E+02 0.  0.
         23    2    1    2    0    0  0.16261705334E+03 -0.51011578752E+02  0.14133036052E+03  0.23934784775E+03  0.90921032852E+02 0.  0.
        -11    1    3    3    0    0 -0.13435153803E+03 -0.68221226134E+01  0.13990967286E+03  0.19409171463E+03  0.00000000000E+00 0. -1.
         11    1    3    3    0    0 -0.15260961147E+02  0.39597464723E+02  0.26516508156E+02  0.50039797685E+02  0.00000000000E+00 0.  1.
        -13    1    4    4    0    0  0.38878557509E+02 -0.24843371684E+01 -0.76427151296E+01  0.39700444075E+02  0.00000000000E+00 0.  1.
         13    1    4    4    0    0  0.12373849583E+03 -0.48527241584E+02  0.14897307565E+03  0.19964740368E+03  0.00000000000E+00 0. -1.
          1    1    1    2  501    0 -0.13004554163E+02  0.18236236643E+02 -0.10556818410E+03  0.10791811826E+03  0.00000000000E+00 0. -1.
<scales pt_clust_5="13000.00000" pt_clust_6="13000.00000" pt_clust_7="13000.00000" pt_clust_8="13000.00000" pt_clust_9="22.39819"></scales>
<clustering>
<clus scale="   22.398">  2  9  1 -1</clus>
<clus scale="   90.921">  7  8 -1 -1</clus>
<clus scale="   91.893">  5  6 -1 -1</clus>
<clus scale="  184.587">  2  7  1 -1</clus>
<clus scale="   22.398">  2  5  1 -1</clus>
</clustering>
</event>
<event>
 9    1  0.1881049E-005  0.1561686E+03  0.7546771E-02  0.1208444E+00
         21   -1    0    0  501  502  0.00000000000E+00  0.00000000000E+00  0.31536488703E+03  0.31536488703E+03  0.00000000000E+00 0. -1.
          1   -1    0    0  502    0 -0.00000000000E+00 -0.00000000000E+00 -0.20416721318E+03  0.20416721318E+03  0.00000000000E+00 0. -1.
         23    2    1    2    0    0 -0.50374087195E+02 -0.37490778601E+02 -0.16987416028E+02  0.11321714278E+03  0.92663056153E+02 0.  0.
         23    2    1    2    0    0 -0.64480407177E+02  0.98390381047E+02 -0.73637860973E+02  0.16624659227E+03  0.91525979268E+02 0.  0.
        -11    1    4    4    0    0  0.47184499442E+01  0.34206805910E+02  0.14179264989E+02  0.37328553362E+02  0.00000000000E+00 0.  1.
         11    1    4    4    0    0 -0.69198857121E+02  0.64183575136E+02 -0.87817125962E+02  0.12891803891E+03  0.00000000000E+00 0. -1.
        -13    1    3    3    0    0 -0.42540642261E+01  0.22642844050E+02  0.18489584191E+02  0.29540822140E+02  0.00000000000E+00 0.  1.
         13    1    3    3    0    0 -0.46120022968E+02 -0.60133622651E+02 -0.35477000219E+02  0.83676320643E+02  0.00000000000E+00 0. -1.
          1    1    1    2  501    0  0.11485449437E+03 -0.60899602446E+02  0.20182295085E+03  0.24006836515E+03  0.00000000000E+00 0. -1.
<scales pt_clust_5="13000.00000" pt_clust_6="13000.00000" pt_clust_7="13000.00000" pt_clust_8="13000.00000" pt_clust_9="126.53703"></scales>
<clustering>
<clus scale="   91.526">  5  6 -1 -1</clus>
<clus scale="   92.663">  7  8 -1 -1</clus>
<clus scale="  111.935">  2  7  1 -1</clus>
<clus scale="  126.537">  1  9  2 -1</clus>
<clus scale="  126.537">  1  5  2 -1</clus>
</clustering>
</event>
<event>
 9    1  0.1881049E-005  0.2152488E+03  0.7546771E-02  0.1160950E+00
          1   -1    0    0  502    0 -0.00000000000E+00  0.00000000000E+00  0.84476014125E+03  0.84476014125E+03  0.00000000000E+00 0. -1.
         21   -1    0    0  501  502  0.00000000000E+00 -0.00000000000E+00 -0.11958425743E+03  0.11958425743E+03  0.00000000000E+00 0.  1.
         23    2    1    2    0    0 -0.80009066221E+02  0.18096004091E+02  0.29815029346E+03  0.32264561200E+03  0.92074303761E+02 0.  0.
         23    2    1    2    0    0  0.12274241362E+03 -0.17197415540E+03  0.54381961394E+02  0.23627567604E+03  0.90708252876E+02 0.  0.
        -11    1    4    4    0    0  0.29955543369E+02 -0.24272817435E+02 -0.23605192393E+02  0.45207403738E+02  0.00000000000E+00 0. -1.
         11    1    4    4    0    0  0.92786870248E+02 -0.14770133796E+03  0.77987153787E+02  0.19106827231E+03  0.00000000000E+00 0.  1.
        -13    1    3    3    0    0  0.33134566326E+01  0.32136995913E+02  0.42450137748E+02  0.53345849848E+02  0.00000000000E+00 0.  1.
         13    1    3    3    0    0 -0.83322522854E+02 -0.14040991822E+02  0.25570015571E+03  0.26929976215E+03  0.00000000000E+00 0. -1.
          1    1    1    2  501    0 -0.42733347396E+02  0.15387815130E+03  0.37264362897E+03  0.40542311064E+03  0.00000000000E+00 0. -1.
<scales pt_clust_5="13000.00000" pt_clust_6="13000.00000" pt_clust_7="13000.00000" pt_clust_8="13000.00000" pt_clust_9="195.20274"></scales>
<clustering>
<clus scale="   90.708">  5  6 -1 -1</clus>
<clus scale="   92.074">  7  8 -1 -1</clus>
<clus scale="  123.315">  1  7  2 -1</clus>
<clus scale="  195.203">  2  9  1 -1</clus>
<clus scale="  195.203">  2  5  1 -1</clus>
</clustering>
</event>
<event>
 9    1  0.1881049E-005  0.1207929E+03  0.7546771E-02  0.1254311E+00
          1   -1    0    0  502    0 -0.00000000000E+00  0.00000000000E+00  0.43251825248E+03  0.43251825248E+03  0.00000000000E+00 0. -1.
         21   -1    0    0  501  502  0.00000000000E+00 -0.00000000000E+00 -0.19379215329E+03  0.19379215329E+03  0.00000000000E+00 0.  1.
         23    2    1    2    0    0 -0.24456232982E+02  0.84027532144E+00  0.32260582738E+03  0.33601973088E+03  0.90752004327E+02 0.  0.
         23    2    1    2    0    0 -0.58630918880E+02  0.46670539679E+02 -0.13698025070E+03  0.18083557981E+03  0.91226059433E+02 0.  0.
        -13    1    4    4    0    0 -0.48324044599E+02  0.73213589729E+02 -0.11615361770E+03  0.14555791257E+03  0.00000000000E+00 0.  1.
         13    1    4    4    0    0 -0.10306874281E+02 -0.26543050051E+02 -0.20826632999E+02  0.35277667235E+02  0.00000000000E+00 0. -1.
        -13    1    3    3    0    0  0.10030421692E+02 -0.30794036004E+02  0.51018046941E+02  0.60429488881E+02  0.00000000000E+00 0.  1.
         13    1    3    3    0    0 -0.34486654674E+02  0.31634311325E+02  0.27158778044E+03  0.27559024200E+03  0.00000000000E+00 0. -1.
          1    1    1    2  501    0  0.83087151863E+02 -0.47510815000E+02  0.53100522507E+02  0.10945509507E+03  0.00000000000E+00 0. -1.
<scales pt_clust_5="13000.00000" pt_clust_6="13000.00000" pt_clust_7="13000.00000" pt_clust_8="13000.00000" pt_clust_9="79.17533"></scales>
<clustering>
<clus scale="   90.752">  7  8 -1 -1</clus>
<clus scale="   91.226">  5  6 -1 -1</clus>
<clus scale="   93.993">  1  7  2 -1</clus>
<clus scale="   79.175">  2  9  1 -1</clus>
<clus scale="   79.175">  2  5  1 -1</clus>
</clustering>
</event>
<event>
 9    1  0.1881049E-005  0.1160623E+03  0.7546771E-02  0.1250600E+00
         21   -1    0    0  501  502  0.00000000000E+00  0.00000000000E+00  0.55920995410E+02  0.55920995410E+02  0.00000000000E+00 0.  1.
         -1   -1    0    0    0  501 -0.00000000000E+00 -0.00000000000E+00 -0.46871820273E+03  0.46871820273E+03  0.00000000000E+00 0.  1.
         23    2    1    2    0    0  0.39951518975E+02  0.24358864480E+02 -0.15389638057E+03  0.18495497293E+03  0.91294950095E+02 0.  0.
         23    2    1    2    0    0 -0.11274041403E+03 -0.31008715985E+02 -0.17175851951E+03  0.22594669631E+03  0.88763613756E+02 0.  0.
        -13    1    4    4    0    0 -0.68075301814E+02 -0.57164850853E+02 -0.13799341704E+03  0.16414703786E+03  0.00000000000E+00 0.  1.
         13    1    4    4    0    0 -0.44665112214E+02  0.26156134867E+02 -0.33765102466E+02  0.61799658453E+02  0.00000000000E+00 0. -1.
        -13    1    3    3    0    0  0.47564247913E+02 -0.90615905953E+01 -0.31296305432E+02  0.57653524067E+02  0.00000000000E+00 0. -1.
         13    1    3    3    0    0 -0.76127289382E+01  0.33420455075E+02 -0.12260007514E+03  0.12730144887E+03  0.00000000000E+00 0.  1.
         -1    1    1    2    0  502  0.72788895054E+02  0.66498515056E+01 -0.87142307235E+02  0.11373752889E+03  0.00000000000E+00 0.  1.
<scales pt_clust_5="13000.00000" pt_clust_6="13000.00000" pt_clust_7="13000.00000" pt_clust_8="13000.00000" pt_clust_9="73.09202"></scales>
<clustering>
<clus scale="   73.092">  1  9  2 -1</clus>
<clus scale="   88.764">  5  6 -1 -1</clus>
<clus scale="   91.295">  7  8 -1 -1</clus>
<clus scale="  114.082">  1  5  2 -1</clus>
<clus scale="   73.092">  1  5  2 -1</clus>
</clustering>
</event>
<event>
 9    1  0.1881049E-005  0.9296413E+02  0.7546771E-02  0.1296244E+00
         21   -1    0    0  501  502  0.00000000000E+00  0.00000000000E+00  0.45896591614E+03  0.45896591614E+03  0.00000000000E+00 0. -1.
          2   -1    0    0  502    0 -0.00000000000E+00 -0.00000000000E+00 -0.70195925612E+02  0.70195925612E+02  0.00000000000E+00 0. -1.
         23    2    1    2    0    0  0.35418434356E+01  0.23941516399E+02 -0.19056858712E+02  0.94677077689E+02  0.89525662876E+02 0.  0.
         23    2    1    2    0    0  0.24129568231E+02 -0.14014646252E+02  0.16701526099E+03  0.19188536009E+03  0.90262105222E+02 0.  0.
        -11    1    4    4    0    0 -0.11590244093E+02 -0.37771519391E+02  0.34004910647E+02  0.52128258971E+02  0.00000000000E+00 0.  1.
         11    1    4    4    0    0  0.35719812324E+02  0.23756873138E+02  0.13301035034E+03  0.13975710112E+03  0.00000000000E+00 0. -1.
        -13    1    3    3    0    0 -0.10650896436E+02  0.54857545968E+02 -0.23002215218E+02  0.60430901445E+02  0.00000000000E+00 0. -1.
         13    1    3    3    0    0  0.14192739871E+02 -0.30916029569E+02  0.39453565060E+01  0.34246176244E+02  0.00000000000E+00 0.  1.
          2    1    1    2  501    0 -0.27671411667E+02 -0.99268701472E+01  0.24081158825E+03  0.24259940398E+03  0.00000000000E+00 0. -1.
<scales pt_clust_5="13000.00000" pt_clust_6="13000.00000" pt_clust_7="13000.00000" pt_clust_8="13000.00000" pt_clust_9="29.39813"></scales>
<clustering>
<clus scale="   29.398">  1  9  2 -1</clus>
<clus scale="   89.526">  7  8 -1 -1</clus>
<clus scale="   90.262">  5  6 -1 -1</clus>
<clus scale="   92.249">  2  7  1 -1</clus>
<clus scale="   29.398">  1  5  2 -1</clus>
</clustering>
</event>
<event>
 9    1  0.1881049E-005  0.2244128E+03  0.7546771E-02  0.1144233E+00
         21   -1    0    0  501  502  0.00000000000E+00  0.00000000000E+00  0.88890224411E+02  0.88890224411E+02  0.00000000000E+00 0. -1.
          1   -1    0    0  502    0 -0.00000000000E+00 -0.00000000000E+00 -0.12635012797E+04  0.12635012797E+04  0.00000000000E+00 0. -1.
         23    2    1    2    0    0 -0.93655577961E+02  0.93059671155E+02 -0.24313210138E+03  0.29183395761E+03  0.92856719800E+02 0.  0.
         23    2    1    2    0    0  0.16312158144E+03 -0.25460907542E+03 -0.71754401445E+03  0.78362453297E+03  0.88111091201E+02 0.  0.
        -11    1    4    4    0    0 -0.67050859791E+01 -0.37825078155E+02 -0.11194407564E+03  0.11835189388E+03  0.00000000000E+00 0.  1.
         11    1    4    4    0    0  0.16982666742E+03 -0.21678399727E+03 -0.60559993881E+03  0.66527263909E+03  0.00000000000E+00 0. -1.
        -11    1    3    3    0    0 -0.10130280769E+03  0.43966908247E+02 -0.14986259880E+03  0.18615624187E+03  0.00000000000E+00 0. -1.
         11    1    3    3    0    0  0.76472297291E+01  0.49092762908E+02 -0.93269502583E+02  0.10567771574E+03  0.00000000000E+00 0.  1.
          1    1    1    2  501    0 -0.69466003482E+02  0.16154940427E+03 -0.21393493945E+03  0.27693301352E+03  0.00000000000E+00 0. -1.
<scales pt_clust_5="13000.00000" pt_clust_6="13000.00000" pt_clust_7="13000.00000" pt_clust_8="13000.00000" pt_clust_9="206.39175"></scales>
<clustering>
<clus scale="   88.111">  5  6 -1 -1</clus>
<clus scale="   92.857">  7  8 -1 -1</clus>
<clus scale="  161.412">  2  7  1 -1</clus>
<clus scale="  206.392">  1  9  2 -1</clus>
<clus scale="  206.392">  1  5  2 -1</clus>
</clustering>
</event>
<event>
 9    1  0.1881049E-005  0.1355286E+03  0.7546771E-02  0.1222814E+00
         -2   -1    0    0    0  501 -0.00000000000E+00  0.00000000000E+00  0.60214298662E+03  0.60214298662E+03  0.00000000000E+00 0.  1.
         21   -1    0    0  501  502  0.00000000000E+00 -0.00000000000E+00 -0.13642549632E+03  0.13642549632E+03  0.00000000000E+00 0.  1.
         23    2    1    2    0    0 -0.16301170547E+02  0.71750814812E+02  0.22255311224E+03  0.25141493448E+03  0.90915751794E+02 0.  0.
         23    2    1    2    0    0 -0.41986684437E+02 -0.10460942551E+03  0.33807263572E+03  0.37102973649E+03  0.10326637769E+03 0.  0.
        -11    1    4    4    0    0 -0.56625862039E+02 -0.44285884504E+02  0.89352145453E+02  0.11468013653E+03  0.00000000000E+00 0. -1.
         11    1    4    4    0    0  0.14639177602E+02 -0.60323541005E+02  0.24872049026E+03  0.25634959995E+03  0.00000000000E+00 0.  1.
        -13    1    3    3    0    0  0.36835494952E+02  0.36224722281E+02  0.11888628433E+03  0.12962651270E+03  0.00000000000E+00 0.  1.
         13    1    3    3    0    0 -0.53136665499E+02  0.35526092530E+02  0.10366682791E+03  0.12178842178E+03  0.00000000000E+00 0. -1.
         -2    1    1    2    0  502  0.58287854984E+02  0.32858610698E+02 -0.94908257656E+02  0.11612381197E+03  0.00000000000E+00 0.  1.
<scales pt_clust_5="13000.00000" pt_clust_6="13000.00000" pt_clust_7="13000.00000" pt_clust_8="13000.00000" pt_clust_9="66.91160"></scales>
<clustering>
<clus scale="   66.912">  2  9  1 -1</clus>
<clus scale="   90.916">  7  8 -1 -1</clus>
<clus scale="  103.266">  5  6 -1 -1</clus>
<clus scale="  126.371">  1  7  2 -1</clus>
<clus scale="   66.912">  2  5  1 -1</clus>
</clustering>
</event>
<event>
 9    1  0.1881049E-005  0.9664534E+02  0.7546771E-02  0.1287688E+00
          1   -1    0    0  502    0 -0.00000000000E+00  0.00000000000E+00  0.32683403615E+03  0.32683403615E+03  0.00000000000E+00 0. -1.
         21   -1    0    0  501  502  0.00000000000E+00 -0.00000000000E+00 -0.69081981864E+02  0.69081981864E+02  0.00000000000E+00 0. -1.
         23    2    1    2    0    0  0.49608987078E+02 -0.79256012355E+01  0.18403635333E+03  0.21118362556E+03  0.90582987384E+02 0.  0.
         23    2    1    2    0    0  0.18871265857E+02  0.24664745410E+02  0.23821089177E+02  0.98365638005E+02  0.90243449122E+02 0.  0.
        -13    1    3    3    0    0 -0.14504276858E+02 -0.31909872626E+02  0.66231622137E+02  0.74934917022E+02  0.00000000000E+00 0.  1.
         13    1    3    3    0    0  0.64113263936E+02  0.23984271390E+02  0.11780473119E+03  0.13624870854E+03  0.00000000000E+00 0. -1.
        -13    1    4    4    0    0 -0.31102451728E+02  0.26763640959E+02 -0.38349061729E+01  0.41211181568E+02  0.00000000000E+00 0.  1.
         13    1    4    4    0    0  0.49973717586E+02 -0.20988955491E+01  0.27655995350E+02  0.57154456437E+02  0.00000000000E+00 0. -1.
          1    1    1    2  501    0 -0.68480252935E+02 -0.16739144174E+02  0.49894611781E+02  0.86366754452E+02  0.00000000000E+00 0. -1.
<scales pt_clust_5="13000.00000" pt_clust_6="13000.00000" pt_clust_7="13000.00000" pt_clust_8="13000.00000" pt_clust_9="70.49641"></scales>
<clustering>
<clus scale="   70.496">  2  9  1 -1</clus>
<clus scale="   90.243">  7  8 -1 -1</clus>
<clus scale="   90.583">  5  6 -1 -1</clus>
<clus scale="   96.327">  2  7  1 -1</clus>
<clus scale="   70.496">  2  5  1 -1</clus>
</clustering>
</event>
<event>
 9    1  0.1071002E-004  0.3745066E+03  0.7546771E-02  0.1070813E+00
         21   -1    0    0  501  502  0.00000000000E+00  0.00000000000E+00  0.48655977419E+03  0.48655977419E+03  0.00000000000E+00 0. -1.
          1   -1    0    0  502    0 -0.00000000000E+00 -0.00000000000E+00 -0.13753375251E+04  0.13753375251E+04  0.00000000000E+00 0. -1.
         23    2    1    2    0    0 -0.20453493445E+03  0.41745679092E+02  0.18535543119E+03  0.29367458374E+03  0.91164050648E+02 0.  0.
         23    2    1    2    0    0  0.53920986192E+03 -0.50406979998E+02 -0.11017082283E+04  0.12323020279E+04  0.10732720371E+03 0.  0.
        -11    1    4    4    0    0  0.40846669361E+02  0.21819108201E+02 -0.65553264943E+02  0.80260540898E+02  0.00000000000E+00 0.  1.
         11    1    4    4    0    0  0.49836319256E+03 -0.72226088198E+02 -0.10361549634E+04  0.11520414870E+04  0.00000000000E+00 0. -1.
        -13    1    3    3    0    0 -0.15554665059E+03  0.37871650460E+02  0.18484107874E+03  0.24453066640E+03  0.00000000000E+00 0. -1.
         13    1    3    3    0    0 -0.48988283854E+02  0.38740286321E+01  0.51435244475E+00  0.49143917337E+02  0.00000000000E+00 0.  1.
          1    1    1    2  501    0 -0.33467492747E+03  0.86613009059E+01  0.27575046277E+02  0.33592068764E+03  0.00000000000E+00 0. -1.
<scales pt_clust_5="13000.00000" pt_clust_6="13000.00000" pt_clust_7="13000.00000" pt_clust_8="13000.00000" pt_clust_9="358.79811"></scales>
<clustering>
<clus scale="   91.164">  7  8 -1 -1</clus>
<clus scale="  107.327">  5  6 -1 -1</clus>
<clus scale="  227.790">  2  7  1 -1</clus>
<clus scale="  358.798">  1  9  2 -1</clus>
<clus scale="  358.798">  1  5  2 -1</clus>
</clustering>
</event>
<event>
 9    1  0.1881049E-005  0.2711999E+03  0.7546771E-02  0.1100622E+00
          1   -1    0    0  502    0 -0.00000000000E+00  0.00000000000E+00  0.75086460127E+03  0.75086460127E+03  0.00000000000E+00 0. -1.
         21   -1    0    0  501  502  0.00000000000E+00 -0.00000000000E+00 -0.15087193550E+03  0.15087193550E+03  0.00000000000E+00 0. -1.
         23    2    1    2    0    0  0.26638459158E+03 -0.12109703828E+03  0.46597042982E+03  0.55791908257E+03  0.92303943153E+02 0.  0.
         23    2    1    2    0    0 -0.18122870777E+03  0.85107488012E+02  0.11705517458E+03  0.24982461699E+03  0.92861705354E+02 0.  0.
        -11    1    3    3    0    0  0.25933264735E+03 -0.10237402315E+03  0.45839537351E+03  0.53652603017E+03  0.00000000000E+00 0. -1.
         11    1    3    3    0    0  0.70519442271E+01 -0.18723015126E+02  0.75750563082E+01  0.21393052397E+02  0.00000000000E+00 0.  1.
        -11    1    4    4    0    0 -0.11022679745E+03  0.98990132282E+02  0.73542975098E+02  0.16540121630E+03  0.00000000000E+00 0.  1.
         11    1    4    4    0    0 -0.71001910318E+02 -0.13882644269E+02  0.43512199484E+02  0.84423400694E+02  0.00000000000E+00 0. -1.
          1    1    1    2  501    0 -0.85155883803E+02  0.35989550268E+02  0.16967061368E+02  0.93992837207E+02  0.00000000000E+00 0. -1.
<scales pt_clust_5="13000.00000" pt_clust_6="13000.00000" pt_clust_7="13000.00000" pt_clust_8="13000.00000" pt_clust_9="92.44875"></scales>
<clustering>
<clus scale="   92.304">  5  6 -1 -1</clus>
<clus scale="   92.449">  2  9  1 -1</clus>
<clus scale="   92.862">  7  8 -1 -1</clus>
<clus scale="  271.009">  1  5  2 -1</clus>
<clus scale="   92.449">  2  5  1 -1</clus>
</clustering>
</event>
<event>
 9    1  0.1881049E-005  0.9985867E+02  0.7546771E-02  0.1280903E+00
          1   -1    0    0  502    0 -0.00000000000E+00  0.00000000000E+00  0.17654105335E+03  0.17654105335E+03  0.00000000000E+00 0. -1.
         21   -1    0    0  501  502  0.00000000000E+00 -0.00000000000E+00 -0.12445658245E+03  0.12445658245E+03  0.00000000000E+00 0.  1.
         23    2    1    2    0    0 -0.49138723984E+02  0.18542585865E+02  0.72095954685E+02  0.12831607138E+03  0.92242863175E+02 0.  0.
         23    2    1    2    0    0  0.25069774541E+02  0.15811351856E+02  0.35923017366E+02  0.10276607412E+03  0.91607370720E+02 0.  0.
        -13    1    3    3    0    0 -0.22935703699E+02  0.45905705860E+02  0.74376377128E+02  0.90361639036E+02  0.00000000000E+00 0.  1.
         13    1    3    3    0    0 -0.26203020285E+02 -0.27363119995E+02 -0.22804224431E+01  0.37954432342E+02  0.00000000000E+00 0. -1.
        -13    1    4    4    0    0  0.28678345912E+02  0.49985852371E+02  0.73904404529E+01  0.58100357758E+02  0.00000000000E+00 0. -1.
         13    1    4    4    0    0 -0.36085713706E+01 -0.34174500516E+02  0.28532576913E+02  0.44665716362E+02  0.00000000000E+00 0.  1.
          1    1    1    2  501    0  0.24068949443E+02 -0.34353937721E+02 -0.55934501155E+02  0.69915490298E+02  0.00000000000E+00 0. -1.
<scales pt_clust_5="13000.00000" pt_clust_6="13000.00000" pt_clust_7="13000.00000" pt_clust_8="13000.00000" pt_clust_9="41.94648"></scales>
<clustering>
<clus scale="   41.946">  2  9  1 -1</clus>
<clus scale="   91.607">  7  8 -1 -1</clus>
<clus scale="   92.243">  5  6 -1 -1</clus>
<clus scale="   99.272">  2  7  1 -1</clus>
<clus scale="   41.946">  2  5  1 -1</clus>
</clustering>
</event>
<event>
 9    1  0.1881049E-005  0.9055207E+02  0.7546771E-02  0.1302508E+00
         21   -1    0    0  501  502  0.00000000000E+00  0.00000000000E+00  0.13779444267E+03  0.13779444267E+03  0.00000000000E+00 0.  1.
         -3   -1    0    0    0  501 -0.00000000000E+00 -0.00000000000E+00 -0.26008154245E+03  0.26008154245E+03  0.00000000000E+00 0.  1.
         23    2    1    2    0    0  0.19709004624E+02  0.60724746061E+01 -0.16882725585E+03  0.19144359379E+03  0.87878822658E+02 0.  0.
         23    2    1    2    0    0  0.29906137592E+01 -0.17395345341E+01 -0.53100713903E+02  0.10414676177E+03  0.89525931544E+02 0.  0.
        -11    1    4    4    0    0 -0.33106749186E+02  0.24097927569E+02 -0.97365844580E+01  0.42089999188E+02  0.00000000000E+00 0. -1.
         11    1    4    4    0    0  0.36097362945E+02 -0.25837462103E+02 -0.43364129445E+02  0.62056762581E+02  0.00000000000E+00 0.  1.
        -13    1    3    3    0    0 -0.54277603467E+01 -0.35132779462E+02 -0.38192265616E+02  0.52176833250E+02  0.00000000000E+00 0. -1.
         13    1    3    3    0    0  0.25136764971E+02  0.41205254068E+02 -0.13063499024E+03  0.13926676054E+03  0.00000000000E+00 0.  1.
         -3    1    1    2    0  502 -0.22699618383E+02 -0.43329400720E+01  0.99640869975E+02  0.10228562956E+03  0.00000000000E+00 0.  1.
<scales pt_clust_5="13000.00000" pt_clust_6="13000.00000" pt_clust_7="13000.00000" pt_clust_8="13000.00000" pt_clust_9="23.10946"></scales>
<clustering>
<clus scale="   23.109">  1  9  2 -1</clus>
<clus scale="   87.879">  7  8 -1 -1</clus>
<clus scale="   88.924">  2  7  1 -1</clus>
<clus scale="   89.526">  5  6 -1 -1</clus>
<clus scale="   23.109">  1  5  2 -1</clus>
</clustering>
</event>
<event>
 9    1  0.1881049E-005  0.1193992E+03  0.7546771E-02  0.1248201E+00
          3   -1    0    0  502    0 -0.00000000000E+00  0.00000000000E+00  0.42721884318E+03  0.42721884318E+03  0.00000000000E+00 0. -1.
         21   -1    0    0  501  502  0.00000000000E+00 -0.00000000000E+00 -0.23417881239E+03  0.23417881239E+03  0.00000000000E+00 0. -1.
         23    2    1    2    0    0 -0.84569199407E+02  0.18495286150E+02  0.32753017017E+03  0.34850941025E+03  0.81784910325E+02 0.  0.
         23    2    1    2    0    0 -0.21207913914E+01 -0.67208793810E+02  0.31053926796E+02  0.11977429404E+03  0.94127654922E+02 0.  0.
        -13    1    3    3    0    0 -0.35905430679E+02  0.17093533506E+02  0.38302275818E+02  0.55212798995E+02  0.00000000000E+00 0.  1.
         13    1    3    3    0    0 -0.48663768728E+02  0.14017526443E+01  0.28922789436E+03  0.29329661125E+03  0.00000000000E+00 0. -1.
        -13    1    4    4    0    0  0.25112116177E+02  0.12456685149E+02 -0.44864221713E+01  0.28388648571E+02  0.00000000000E+00 0. -1.
         13    1    4    4    0    0 -0.27232907568E+02 -0.79665478960E+02  0.35540348968E+02  0.91385645466E+02  0.00000000000E+00 0.  1.
          3    1    1    2  501    0  0.86689990799E+02  0.48713507660E+02 -0.16554406619E+03  0.19311395129E+03  0.00000000000E+00 0. -1.
<scales pt_clust_5="13000.00000" pt_clust_6="13000.00000" pt_clust_7="13000.00000" pt_clust_8="13000.00000" pt_clust_9="99.43923"></scales>
<clustering>
<clus scale="   81.785">  5  6 -1 -1</clus>
<clus scale="   94.128">  7  8 -1 -1</clus>
<clus scale="   99.439">  2  9  1 -1</clus>
<clus scale="  109.932">  1  5  2 -1</clus>
<clus scale="   99.439">  2  5  1 -1</clus>
</clustering>
</event>
<event>
 9    1  0.1881049E-005  0.1270010E+03  0.7546771E-02  0.1238036E+00
         21   -1    0    0  501  502  0.00000000000E+00  0.00000000000E+00  0.27382605286E+03  0.27382605286E+03  0.00000000000E+00 0. -1.
          2   -1    0    0  502    0 -0.00000000000E+00 -0.00000000000E+00 -0.10240553354E+03  0.10240553354E+03  0.00000000000E+00 0. -1.
         23    2    1    2    0    0 -0.26553862739E+02 -0.69811775310E+02  0.18335584219E+02  0.13314439130E+03  0.10868506654E+03 0.  0.
         23    2    1    2    0    0  0.42869704531E+02  0.42527133454E+02  0.26155529982E+02  0.11223715781E+03  0.90921390219E+02 0.  0.
        -11    1    4    4    0    0 -0.14868144776E+02  0.25656873710E+02  0.40694950841E+02  0.50352913735E+02  0.00000000000E+00 0. -1.
         11    1    4    4    0    0  0.57737849307E+02  0.16870259744E+02 -0.14539420858E+02  0.61884244080E+02  0.00000000000E+00 0.  1.
        -13    1    3    3    0    0  0.15658423683E+02 -0.74312346030E+02  0.39617913913E+02  0.85656815885E+02  0.00000000000E+00 0.  1.
         13    1    3    3    0    0 -0.42212286422E+02  0.45005707194E+01 -0.21282329694E+02  0.47487575417E+02  0.00000000000E+00 0. -1.
          2    1    1    2  501    0 -0.16315841792E+02  0.27284641856E+02  0.12692940512E+03  0.13085003729E+03  0.00000000000E+00 0. -1.
<scales pt_clust_5="13000.00000" pt_clust_6="13000.00000" pt_clust_7="13000.00000" pt_clust_8="13000.00000" pt_clust_9="31.79085"></scales>
<clustering>
<clus scale="   31.791">  1  9  2 -1</clus>
<clus scale="   90.921">  5  6 -1 -1</clus>
<clus scale="  108.685">  7  8 -1 -1</clus>
<clus scale="  112.176">  1  5  2 -1</clus>
<clus scale="   31.791">  1  5  2 -1</clus>
</clustering>
</event>
<event>
 9    1  0.1881049E-005  0.1066376E+03  0.7546771E-02  0.1269578E+00
         21   -1    0    0  501  502  0.00000000000E+00  0.00000000000E+00  0.22982230703E+03  0.22982230703E+03  0.00000000000E+00 0. -1.
          2   -1    0    0  502    0 -0.00000000000E+00 -0.00000000000E+00 -0.12877000536E+03  0.12877000536E+03  0.00000000000E+00 0. -1.
         23    2    1    2    0    0 -0.35750885523E+02  0.21811233038E+02 -0.18948886604E+02  0.97939475756E+02  0.86482512137E+02 0.  0.
         23    2    1    2    0    0  0.59881414611E+02 -0.27159227447E+02 -0.22650275259E+02  0.11587603073E+03  0.92686633760E+02 0.  0.
        -11    1    4    4    0    0  0.39585543628E+01  0.31457014478E+02 -0.13086488518E+02  0.34299709827E+02  0.00000000000E+00 0.  1.
         11    1    4    4    0    0  0.55922860249E+02 -0.58616241925E+02 -0.95637867407E+01  0.81576320906E+02  0.00000000000E+00 0. -1.
        -13    1    3    3    0    0 -0.56564094229E+02  0.27723838632E+02  0.78679521422E+01  0.63482380668E+02  0.00000000000E+00 0.  1.
         13    1    3    3    0    0  0.20813208706E+02 -0.59126055938E+01 -0.26816838747E+02  0.34457095088E+02  0.00000000000E+00 0. -1.
          2    1    1    2  501    0 -0.24130529089E+02  0.53479944093E+01  0.14265146354E+03  0.14477680590E+03  0.00000000000E+00 0. -1.
<scales pt_clust_5="13000.00000" pt_clust_6="13000.00000" pt_clust_7="13000.00000" pt_clust_8="13000.00000" pt_clust_9="24.71606"></scales>
<clustering>
<clus scale="   24.716">  1  9  2 -1</clus>
<clus scale="   86.483">  7  8 -1 -1</clus>
<clus scale="   92.687">  5  6 -1 -1</clus>
<clus scale="  101.292">  2  7  1 -1</clus>
<clus scale="   24.716">  1  5  2 -1</clus>
</clustering>
</event>
<event>
 9    1  0.1881049E-005  0.9606805E+02  0.7546771E-02  0.1289677E+00
         -4   -1    0    0    0  501 -0.00000000000E+00  0.00000000000E+00  0.42644450757E+03  0.42644450757E+03  0.00000000000E+00 0.  1.
         21   -1    0    0  501  502  0.00000000000E+00 -0.00000000000E+00 -0.50591892714E+02  0.50591892714E+02  0.00000000000E+00 0.  1.
         23    2    1    2    0    0 -0.12875476649E+02  0.27211859074E+02  0.23552648405E+03  0.25456860067E+03  0.91794251374E+02 0.  0.
         23    2    1    2    0    0  0.37436276741E+02  0.31641339782E+02  0.10795825729E+03  0.15095128996E+03  0.93427284153E+02 0.  0.
        -11    1    3    3    0    0 -0.24855003783E+02  0.54980316522E+02  0.19420718395E+03  0.20336429558E+03  0.00000000000E+00 0.  1.
         11    1    3    3    0    0  0.11979527134E+02 -0.27768457448E+02  0.41319300103E+02  0.51204305096E+02  0.00000000000E+00 0. -1.
        -13    1    4    4    0    0  0.19781932531E+00  0.59033974320E+02  0.65591082554E+02  0.88245336234E+02  0.00000000000E+00 0.  1.
         13    1    4    4    0    0  0.37238457416E+02 -0.27392634538E+02  0.42367174734E+02  0.62705953725E+02  0.00000000000E+00 0. -1.
         -4    1    1    2    0  502 -0.24560800092E+02 -0.58853198856E+02  0.32367873513E+02  0.71516509650E+02  0.00000000000E+00 0.  1.
<scales pt_clust_5="13000.00000" pt_clust_6="13000.00000" pt_clust_7="13000.00000" pt_clust_8="13000.00000" pt_clust_9="63.77250"></scales>
<clustering>
<clus scale="   63.773">  2  9  1 -1</clus>
<clus scale="   91.794">  5  6 -1 -1</clus>
<clus scale="   93.427">  7  8 -1 -1</clus>
<clus scale="   94.481">  1  5  2 -1</clus>
<clus scale="   63.773">  2  5  1 -1</clus>
</clustering>
</event>
<event>
 9    1  0.1881049E-005  0.9322706E+02  0.7546771E-02  0.1295679E+00
         -1   -1    0    0    0  501 -0.00000000000E+00  0.00000000000E+00  0.59913769648E+02  0.59913769648E+02  0.00000000000E+00 0.  1.
         21   -1    0    0  501  502  0.00000000000E+00 -0.00000000000E+00 -0.32372511252E+03  0.32372511252E+03  0.00000000000E+00 0. -1.
         23    2    1    2    0    0  0.17777328000E+02  0.97635273195E+01 -0.29015118160E+02  0.98167469108E+02  0.91562083051E+02 0.  0.
         23    2    1    2    0    0 -0.50490207179E+01  0.72284972485E+01 -0.62491715224E+02  0.11186385938E+03  0.92361056625E+02 0.  0.
        -11    1    3    3    0    0  0.21139156086E+02  0.46412372438E+02 -0.33610521848E+02  0.61078960488E+02  0.00000000000E+00 0. -1.
         11    1    3    3    0    0 -0.33618280859E+01 -0.36648845119E+02  0.45954036878E+01  0.37088508620E+02  0.00000000000E+00 0.  1.
        -11    1    4    4    0    0  0.29814292835E+02 -0.30474664469E+01  0.93138275720E+01  0.31383538567E+02  0.00000000000E+00 0. -1.
         11    1    4    4    0    0 -0.34863313553E+02  0.10275963695E+02 -0.71805542796E+02  0.80480320812E+02  0.00000000000E+00 0.  1.
         -1    1    1    2    0  502 -0.12728307282E+02 -0.16992024568E+02 -0.17230450949E+03  0.17360755368E+03  0.00000000000E+00 0.  1.
<scales pt_clust_5="13000.00000" pt_clust_6="13000.00000" pt_clust_7="13000.00000" pt_clust_8="13000.00000" pt_clust_9="21.23061"></scales>
<clustering>
<clus scale="   21.231">  2  9  1 -1</clus>
<clus scale="   91.562">  5  6 -1 -1</clus>
<clus scale="   92.361">  7  8 -1 -1</clus>
<clus scale="   92.436">  1  5  2 -1</clus>
<clus scale="   21.231">  2  5  1 -1</clus>
</clustering>
</event>
<event>
 9    1  0.1881049E-005  0.1028135E+03  0.7546771E-02  0.1274669E+00
         21   -1    0    0  501  502  0.00000000000E+00  0.00000000000E+00  0.78396433273E+02  0.78396433273E+02  0.00000000000E+00 0. -1.
          4   -1    0    0  502    0 -0.00000000000E+00 -0.00000000000E+00 -0.28212650108E+03  0.28212650108E+03  0.00000000000E+00 0. -1.
         23    2    1    2    0    0  0.51255834981E+02 -0.96749769645E+01 -0.16245599112E+03  0.19376356091E+03  0.91823758822E+02 0.  0.
         23    2    1    2    0    0 -0.37701980078E+02 -0.20739044435E+02 -0.69885526119E+02  0.12285795298E+03  0.91425065404E+02 0.  0.
        -13    1    3    3    0    0  0.30342165656E+01  0.33323322651E+02 -0.24638318234E+02  0.41553544110E+02  0.00000000000E+00 0.  1.
         13    1    3    3    0    0  0.48221618416E+02 -0.42998299616E+02 -0.13781767289E+03  0.15221001680E+03  0.00000000000E+00 0. -1.
        -13    1    4    4    0    0  0.22446069298E+02  0.18089302420E+02 -0.14065186075E+02  0.32076133625E+02  0.00000000000E+00 0. -1.
         13    1    4    4    0    0 -0.60148049376E+02 -0.38828346855E+02 -0.55820340044E+02  0.90781819358E+02  0.00000000000E+00 0.  1.
          4    1    1    2  501    0 -0.13553854903E+02  0.30414021400E+02  0.28611449432E+02  0.43901420468E+02  0.00000000000E+00 0. -1.
<scales pt_clust_5="13000.00000" pt_clust_6="13000.00000" pt_clust_7="13000.00000" pt_clust_8="13000.00000" pt_clust_9="33.29744"></scales>
<clustering>
<clus scale="   33.297">  1  9  2 -1</clus>
<clus scale="   91.425">  7  8 -1 -1</clus>
<clus scale="   91.824">  5  6 -1 -1</clus>
<clus scale="  102.458">  1  7  2 -1</clus>
<clus scale="   33.297">  1  5  2 -1</clus>
</clustering>
</event>
<event>
 9    1  0.1881049E-005  0.1074705E+03  0.7546771E-02  0.1266475E+00
         21   -1    0    0  501  502  0.00000000000E+00  0.00000000000E+00  0.39832260433E+03  0.39832260433E+03  0.00000000000E+00 0. -1.
          4   -1    0    0  502    0 -0.00000000000E+00 -0.00000000000E+00 -0.52490130223E+02  0.52490130223E+02  0.00000000000E+00 0. -1.
         23    2    1    2    0    0 -0.44888159284E+02  0.17823789887E+02  0.44726930148E+02  0.11111643425E+03  0.89519435604E+02 0.  0.
         23    2    1    2    0    0  0.59714997945E+02 -0.50396090607E+02  0.22000992360E+03  0.25105494674E+03  0.92296115162E+02 0.  0.
        -13    1    3    3    0    0 -0.33437564077E+02  0.41236808640E+02  0.60626759114E+02  0.80586282945E+02  0.00000000000E+00 0.  1.
         13    1    3    3    0    0 -0.11450595208E+02 -0.23413018753E+02 -0.15899828966E+02  0.30530151308E+02  0.00000000000E+00 0. -1.
        -13    1    4    4    0    0 -0.21988016755E+02 -0.29696841680E+01  0.20061717197E+02  0.29912612754E+02  0.00000000000E+00 0.  1.
         13    1    4    4    0    0  0.81703014700E+02 -0.47426406439E+02  0.19994820640E+03  0.22114233399E+03  0.00000000000E+00 0. -1.
          4    1    1    2  501    0 -0.14826838661E+02  0.32572300720E+02  0.81095620354E+02  0.88641353551E+02  0.00000000000E+00 0. -1.
<scales pt_clust_5="13000.00000" pt_clust_6="13000.00000" pt_clust_7="13000.00000" pt_clust_8="13000.00000" pt_clust_9="35.78813"></scales>
<clustering>
<clus scale="   35.788">  1  9  2 -1</clus>
<clus scale="   89.519">  5  6 -1 -1</clus>
<clus scale="   92.296">  7  8 -1 -1</clus>
<clus scale="  105.095">  2  5  1 -1</clus>
<clus scale="   35.788">  1  5  2 -1</clus>
</clustering>
</event>
<event>
 9    1  0.1881049E-005  0.1002185E+03  0.7546771E-02  0.1282489E+00
         21   -1    0    0  501  502  0.00000000000E+00  0.00000000000E+00  0.44593882781E+02  0.44593882781E+02  0.00000000000E+00 0.  1.
          1   -1    0    0  502    0 -0.00000000000E+00 -0.00000000000E+00 -0.31441553659E+03  0.31441553659E+03  0.00000000000E+00 0. -1.
         23    2    1    2    0    0 -0.27222696859E+02  0.29169034031E+02 -0.18579655361E+03  0.21064957673E+03  0.90889917336E+02 0.  0.
         23    2    1    2    0    0  0.15094797563E+02 -0.47306341389E+02 -0.77518465515E+02  0.12559179146E+03  0.85430923772E+02 0.  0.
        -11    1    4    4    0    0  0.37386201918E+02 -0.31063688082E+02 -0.60458507611E+01  0.48981967320E+02  0.00000000000E+00 0.  1.
         11    1    4    4    0    0 -0.22291404355E+02 -0.16242653307E+02 -0.71472614753E+02  0.76609824137E+02  0.00000000000E+00 0. -1.
        -11    1    3    3    0    0  0.20326148199E+02 -0.15246473830E+02 -0.19351921505E+02  0.31939069034E+02  0.00000000000E+00 0.  1.
         11    1    3    3    0    0 -0.47548845058E+02  0.44415507860E+02 -0.16644463211E+03  0.17871050770E+03  0.00000000000E+00 0. -1.
          1    1    1    2  501    0  0.12127899296E+02  0.18137307358E+02 -0.65066346798E+01  0.22768051177E+02  0.00000000000E+00 0. -1.
<scales pt_clust_5="13000.00000" pt_clust_6="13000.00000" pt_clust_7="13000.00000" pt_clust_8="13000.00000" pt_clust_9="21.81852"></scales>
<clustering>
<clus scale="   21.819">  1  9  2 -1</clus>
<clus scale="   85.431">  5  6 -1 -1</clus>
<clus scale="   90.890">  7  8 -1 -1</clus>
<clus scale="   95.295">  1  5  2 -1</clus>
<clus scale="   21.819">  1  5  2 -1</clus>
</clustering>
</event>
<event>
 9    1  0.1881049E-005  0.1068343E+03  0.7546771E-02  0.1268687E+00
          2   -1    0    0  502    0 -0.00000000000E+00  0.00000000000E+00  0.33833648582E+03  0.33833648582E+03  0.00000000000E+00 0. -1.
         21   -1    0    0  501  502  0.00000000000E+00 -0.00000000000E+00 -0.86148921762E+02  0.86148921762E+02  0.00000000000E+00 0.  1.
         23    2    1    2    0    0 -0.43721238478E+02  0.15138885286E+02  0.26770620034E+03  0.28711144612E+03  0.92874325044E+02 0.  0.
         23    2    1    2    0    0  0.23758306016E+02  0.92345478661E+00 -0.33649019588E+02  0.10598561586E+03  0.97649292755E+02 0.  0.
        -11    1    4    4    0    0  0.39967350671E+02 -0.20489007874E+02 -0.55476662136E+02  0.71378208194E+02  0.00000000000E+00 0.  1.
         11    1    4    4    0    0 -0.16209044656E+02  0.21412462661E+02  0.21827642547E+02  0.34607407661E+02  0.00000000000E+00 0. -1.
        -11    1    3    3    0    0  0.23024536036E+02 -0.13566654535E+02  0.11410657000E+03  0.11719425196E+03  0.00000000000E+00 0.  1.
         11    1    3    3    0    0 -0.66745774514E+02  0.28705539821E+02  0.15359963033E+03  0.16991719416E+03  0.00000000000E+00 0. -1.
          2    1    1    2  501    0  0.19962932462E+02 -0.16062340072E+02  0.18130383311E+02  0.31388345610E+02  0.00000000000E+00 0. -1.
<scales pt_clust_5="13000.00000" pt_clust_6="13000.00000" pt_clust_7="13000.00000" pt_clust_8="13000.00000" pt_clust_9="25.62260"></scales>
<clustering>
<clus scale="   25.623">  2  9  1 -1</clus>
<clus scale="   92.874">  7  8 -1 -1</clus>
<clus scale="   97.649">  5  6 -1 -1</clus>
<clus scale="  102.488">  1  7  2 -1</clus>
<clus scale="   25.623">  2  5  1 -1</clus>
</clustering>
</event>
<event>
 9    1  0.1881049E-005  0.9659317E+02  0.7546771E-02  0.1287822E+00
         21   -1    0    0  501  502  0.00000000000E+00  0.00000000000E+00  0.79332291474E+02  0.79332291474E+02  0.00000000000E+00 0. -1.
         -2   -1    0    0    0  501 -0.00000000000E+00 -0.00000000000E+00 -0.24297272725E+03  0.24297272725E+03  0.00000000000E+00 0.  1.
         23    2    1    2    0    0  0.29211434228E+02 -0.51978351814E+01 -0.17068616862E+03  0.19609451142E+03  0.91863833311E+02 0.  0.
         23    2    1    2    0    0 -0.32258276513E+02 -0.19454354515E+02 -0.40010751845E+01  0.99025112836E+02  0.91492601102E+02 0.  0.
        -11    1    4    4    0    0 -0.11826958361E+02 -0.41981793180E+02 -0.34757631752E+02  0.55771326573E+02  0.00000000000E+00 0. -1.
         11    1    4    4    0    0 -0.20431318152E+02  0.22527438665E+02  0.30756556567E+02  0.43253786263E+02  0.00000000000E+00 0.  1.
        -13    1    3    3    0    0 -0.20905960514E+02  0.17037834700E+02 -0.11432890428E+03  0.11746678403E+03  0.00000000000E+00 0.  1.
         13    1    3    3    0    0  0.50117394742E+02 -0.22235669881E+02 -0.56357264339E+02  0.78627727390E+02  0.00000000000E+00 0. -1.
         -2    1    1    2    0  502  0.30468422849E+01  0.24652189697E+02  0.11046808028E+02  0.27185394468E+02  0.00000000000E+00 0.  1.
<scales pt_clust_5="13000.00000" pt_clust_6="13000.00000" pt_clust_7="13000.00000" pt_clust_8="13000.00000" pt_clust_9="24.83976"></scales>
<clustering>
<clus scale="   24.840">  1  9  2 -1</clus>
<clus scale="   91.493">  5  6 -1 -1</clus>
<clus scale="   91.864">  7  8 -1 -1</clus>
<clus scale="   96.240">  1  5  2 -1</clus>
<clus scale="   24.840">  1  5  2 -1</clus>
</clustering>
</event>
<event>
 9    1  0.1881049E-005  0.9524799E+02  0.7546771E-02  0.1294215E+00
          3   -1    0    0  502    0 -0.00000000000E+00  0.00000000000E+00  0.50791326520E+03  0.50791326520E+03  0.00000000000E+00 0. -1.
         21   -1    0    0  501  502  0.00000000000E+00 -0.00000000000E+00 -0.45129460958E+02  0.45129460958E+02  0.00000000000E+00 0.  1.
         23    2    1    2    0    0 -0.47719165138E+02 -0.72280336192E+01  0.23929289123E+03  0.25827544552E+03  0.84354933323E+02 0.  0.
         23    2    1    2    0    0 -0.31927990447E+02  0.42280598291E+02  0.12272845412E+03  0.16163041570E+03  0.90857428219E+02 0.  0.
        -11    1    4    4    0    0 -0.60181387567E+02  0.26284589336E+02  0.10702023544E+03  0.12556277251E+03  0.00000000000E+00 0.  1.
         11    1    4    4    0    0  0.28253397121E+02  0.15996008955E+02  0.15708218680E+02  0.36067643192E+02  0.00000000000E+00 0. -1.
        -13    1    3    3    0    0 -0.16058451705E+02 -0.41267288664E+02  0.16324541715E+03  0.16914469901E+03  0.00000000000E+00 0. -1.
         13    1    3    3    0    0 -0.31660713433E+02  0.34039255045E+02  0.76047474080E+02  0.89130746508E+02  0.00000000000E+00 0.  1.
          3    1    1    2  501    0  0.79647155584E+02 -0.35052564672E+02  0.10076245889E+03  0.13313686494E+03  0.00000000000E+00 0. -1.
<scales pt_clust_5="13000.00000" pt_clust_6="13000.00000" pt_clust_7="13000.00000" pt_clust_8="13000.00000" pt_clust_9="87.01926"></scales>
<clustering>
<clus scale="   84.355">  7  8 -1 -1</clus>
<clus scale="   87.019">  2  9  1 -1</clus>
<clus scale="   89.067">  1  7  2 -1</clus>
<clus scale="   90.857">  5  6 -1 -1</clus>
<clus scale="   87.019">  2  5  1 -1</clus>
</clustering>
</event>
<event>
 9    1  0.1881049E-005  0.9429393E+02  0.7546771E-02  0.1296140E+00
         21   -1    0    0  501  502  0.00000000000E+00  0.00000000000E+00  0.56727471127E+02  0.56727471127E+02  0.00000000000E+00 0. -1.
          1   -1    0    0  502    0 -0.00000000000E+00 -0.00000000000E+00 -0.55071519741E+03  0.55071519741E+03  0.00000000000E+00 0. -1.
         23    2    1    2    0    0 -0.29049227355E+02  0.90677794907E+01 -0.41358841766E+03  0.42453025967E+03  0.90799118490E+02 0.  0.
         23    2    1    2    0    0  0.14426950710E+02  0.82415441856E+01 -0.11357552898E+03  0.14273672893E+03  0.84842872689E+02 0.  0.
        -11    1    4    4    0    0 -0.15742671416E+02  0.39796694261E+02 -0.56360568382E+02  0.70768087764E+02  0.00000000000E+00 0.  1.
         11    1    4    4    0    0  0.30169622125E+02 -0.31555150076E+02 -0.57214960599E+02  0.71968641170E+02  0.00000000000E+00 0. -1.
        -13    1    3    3    0    0 -0.38226626726E+02  0.44781610735E+02 -0.25736427026E+03  0.26401332402E+03  0.00000000000E+00 0. -1.
         13    1    3    3    0    0  0.91773993709E+01 -0.35713831245E+02 -0.15622414740E+03  0.16051693566E+03  0.00000000000E+00 0.  1.
          1    1    1    2  501    0  0.14622276646E+02 -0.17309323676E+02  0.33176220361E+02  0.40175679930E+02  0.00000000000E+00 0. -1.
<scales pt_clust_5="13000.00000" pt_clust_6="13000.00000" pt_clust_7="13000.00000" pt_clust_8="13000.00000" pt_clust_9="22.65885"></scales>
<clustering>
<clus scale="   22.659">  1  9  2 -1</clus>
<clus scale="   84.843">  5  6 -1 -1</clus>
<clus scale="   88.573">  1  5  2 -1</clus>
<clus scale="   90.799">  7  8 -1 -1</clus>
<clus scale="   22.659">  1  5  2 -1</clus>
</clustering>
</event>
<event>
 9    1  0.1881049E-005  0.1330278E+03  0.7546771E-02  0.1223934E+00
         21   -1    0    0  501  502  0.00000000000E+00  0.00000000000E+00  0.13258554362E+03  0.13258554362E+03  0.00000000000E+00 0.  1.
         -2   -1    0    0    0  501 -0.00000000000E+00 -0.00000000000E+00 -0.28676980982E+03  0.28676980982E+03  0.00000000000E+00 0.  1.
         23    2    1    2    0    0  0.12015440360E+03  0.37171417222E+02 -0.15302716877E+03  0.21895395692E+03  0.93299120610E+02 0.  0.
         23    2    1    2    0    0 -0.62695277565E+02  0.52848796834E+01 -0.42871754091E+02  0.11767171084E+03  0.89721883899E+02 0.  0.
        -11    1    3    3    0    0  0.74116015974E+02  0.65751279709E+02 -0.76452431901E+02  0.12514547116E+03  0.00000000000E+00 0. -1.
         11    1    3    3    0    0  0.46038387626E+02 -0.28579862487E+02 -0.76574736868E+02  0.93808485764E+02  0.00000000000E+00 0.  1.
        -13    1    4    4    0    0 -0.80192829985E+02 -0.13286299591E+02 -0.43408155782E+02  0.92150332209E+02  0.00000000000E+00 0. -1.
         13    1    4    4    0    0  0.17497552420E+02  0.18571179275E+02  0.53640169092E+00  0.25521378629E+02  0.00000000000E+00 0.  1.
         -2    1    1    2    0  502 -0.57459126035E+02 -0.42456296906E+02  0.41714656660E+02  0.82729685675E+02  0.00000000000E+00 0.  1.
<scales pt_clust_5="13000.00000" pt_clust_6="13000.00000" pt_clust_7="13000.00000" pt_clust_8="13000.00000" pt_clust_9="71.44290"></scales>
<clustering>
<clus scale="   71.443">  1  9  2 -1</clus>
<clus scale="   89.722">  7  8 -1 -1</clus>
<clus scale="   93.299">  5  6 -1 -1</clus>
<clus scale="  130.544">  1  7  2 -1</clus>
<clus scale="   71.443">  1  5  2 -1</clus>
</clustering>
</event>
<event>
 9    1  0.1881049E-005  0.1487473E+03  0.7546771E-02  0.1225892E+00
         21   -1    0    0  501  502  0.00000000000E+00  0.00000000000E+00  0.94912242793E+02  0.94912242793E+02  0.00000000000E+00 0. -1.
          2   -1    0    0  502    0 -0.00000000000E+00 -0.00000000000E+00 -0.48761007803E+03  0.48761007803E+03  0.00000000000E+00 0. -1.
         23    2    1    2    0    0  0.44414633068E+01  0.14782044663E+01 -0.16330113757E+03  0.18628890188E+03  0.89523079422E+02 0.  0.
         23    2    1    2    0    0 -0.11424442931E+03  0.53786881591E+02 -0.22780226406E+03  0.27329659248E+03  0.82778848101E+02 0.  0.
        -13    1    4    4    0    0 -0.40357098355E+02  0.34319993530E+02 -0.16833310629E+03  0.17647263815E+03  0.00000000000E+00 0.  1.
         13    1    4    4    0    0 -0.73887330954E+02  0.19466888061E+02 -0.59469157770E+02  0.96823954330E+02  0.00000000000E+00 0. -1.
        -13    1    3    3    0    0 -0.94298862883E+01 -0.41212800814E+02 -0.10108493209E+03  0.10956998312E+03  0.00000000000E+00 0.  1.
         13    1    3    3    0    0  0.13871349595E+02  0.42691005280E+02 -0.62216205479E+02  0.76718918760E+02  0.00000000000E+00 0. -1.
          2    1    1    2  501    0  0.10980296600E+03 -0.55265086057E+02 -0.15944336075E+01  0.12293682645E+03  0.00000000000E+00 0. -1.
<scales pt_clust_5="13000.00000" pt_clust_6="13000.00000" pt_clust_7="13000.00000" pt_clust_8="13000.00000" pt_clust_9="123.58566"></scales>
<clustering>
<clus scale="   82.779">  5  6 -1 -1</clus>
<clus scale="   89.523">  7  8 -1 -1</clus>
<clus scale="   89.645">  2  7  1 -1</clus>
<clus scale="  123.586">  1  9  2 -1</clus>
<clus scale="  123.586">  1  5  2 -1</clus>
</clustering>
</event>
<event>
 9    1  0.1881049E-005  0.1531127E+03  0.7546771E-02  0.1199932E+00
         -1   -1    0    0    0  501 -0.00000000000E+00  0.00000000000E+00  0.22026346722E+03  0.22026346722E+03  0.00000000000E+00 0.  1.
         21   -1    0    0  501  502  0.00000000000E+00 -0.00000000000E+00 -0.19859551435E+03  0.19859551435E+03  0.00000000000E+00 0.  1.
         23    2    1    2    0    0  0.66388553934E+02 -0.85402086548E+02  0.10508859437E+03  0.17566383247E+03  0.90073375035E+02 0.  0.
         23    2    1    2    0    0 -0.47282626040E+02  0.10934459438E+03 -0.54450350897E+01  0.15941880784E+03  0.10579612866E+03 0.  0.
        -13    1    3    3    0    0 -0.19819758475E+02 -0.10368077061E+02  0.32836677027E+01  0.22607572217E+02  0.00000000000E+00 0. -1.
         13    1    3    3    0    0  0.86208312409E+02 -0.75034009487E+02  0.10180492666E+03  0.15305626025E+03  0.00000000000E+00 0.  1.
        -13    1    4    4    0    0 -0.15775760599E+02  0.11291703770E+03  0.23585751930E+02  0.11642774462E+03  0.00000000000E+00 0.  1.
         13    1    4    4    0    0 -0.31506865441E+02 -0.35724433153E+01 -0.29030787020E+02  0.42991063213E+02  0.00000000000E+00 0. -1.
         -1    1    1    2    0  502 -0.19105927894E+02 -0.23942507832E+02 -0.77975606409E+02  0.83776341272E+02  0.00000000000E+00 0.  1.
<scales pt_clust_5="13000.00000" pt_clust_6="13000.00000" pt_clust_7="13000.00000" pt_clust_8="13000.00000" pt_clust_9="30.63136"></scales>
<clustering>
<clus scale="   30.631">  2  9  1 -1</clus>
<clus scale="   90.073">  5  6 -1 -1</clus>
<clus scale="  105.796">  7  8 -1 -1</clus>
<clus scale="  142.702">  1  5  2 -1</clus>
<clus scale="   30.631">  2  5  1 -1</clus>
</clustering>
</event>
<event>
 9    1  0.1881049E-005  0.9705009E+02  0.7546771E-02  0.1288403E+00
         21   -1    0    0  501  502  0.00000000000E+00  0.00000000000E+00  0.32421729796E+02  0.32421729796E+02  0.00000000000E+00 0. -1.
         -1   -1    0    0    0  501 -0.00000000000E+00 -0.00000000000E+00 -0.51898653264E+03  0.51898653264E+03  0.00000000000E+00 0.  1.
         23    2    1    2    0    0  0.18204267407E+02  0.10396487274E+02 -0.26248262321E+03  0.27799371933E+03  0.89128548745E+02 0.  0.
         23    2    1    2    0    0 -0.19550634691E+02 -0.40807262291E+02 -0.21974057128E+03  0.24266592517E+03  0.92484445164E+02 0.  0.
        -11    1    4    4    0    0 -0.26455737352E+02  0.24855712680E+02 -0.91227973624E+02  0.98184803626E+02  0.00000000000E+00 0. -1.
         11    1    4    4    0    0  0.69051026612E+01 -0.65662974970E+02 -0.12851259766E+03  0.14448112154E+03  0.00000000000E+00 0.  1.
        -13    1    3    3    0    0 -0.23494269077E+02 -0.19833418219E+01 -0.17977672795E+02  0.29649806802E+02  0.00000000000E+00 0. -1.
         13    1    3    3    0    0  0.41698536484E+02  0.12379829096E+02 -0.24450495041E+03  0.24834391253E+03  0.00000000000E+00 0.  1.
         -1    1    1    2    0  502  0.13463672847E+01  0.30410775017E+02 -0.43416083529E+01  0.30748617938E+02  0.00000000000E+00 0.  1.
<scales pt_clust_5="13000.00000" pt_clust_6="13000.00000" pt_clust_7="13000.00000" pt_clust_8="13000.00000" pt_clust_9="30.44056"></scales>
<clustering>
<clus scale="   30.441">  1  9  2 -1</clus>
<clus scale="   89.129">  7  8 -1 -1</clus>
<clus scale="   92.484">  5  6 -1 -1</clus>
<clus scale="   93.858">  2  7  1 -1</clus>
<clus scale="   30.441">  1  5  2 -1</clus>
</clustering>
</event>
<event>
 9    1  0.1881049E-005  0.2123047E+03  0.7546771E-02  0.1140569E+00
         21   -1    0    0  501  502  0.00000000000E+00  0.00000000000E+00  0.75708063450E+02  0.75708063450E+02  0.00000000000E+00 0.  1.
          1   -1    0    0  502    0 -0.00000000000E+00 -0.00000000000E+00 -0.93115664154E+03  0.93115664154E+03  0.00000000000E+00 0. -1.
         23    2    1    2    0    0  0.57317403606E+02 -0.17612237883E+03 -0.56240597073E+03  0.59936765274E+03  0.92934009678E+02 0.  0.
         23    2    1    2    0    0 -0.36877872806E+02  0.18541357562E+03 -0.31156020407E+03  0.37839375098E+03  0.10185233671E+03 0.  0.
        -11    1    4    4    0    0 -0.31351175496E+02  0.82081263550E+02 -0.23133064016E+03  0.24745523859E+03  0.00000000000E+00 0. -1.
         11    1    4    4    0    0 -0.55266973100E+01  0.10333231207E+03 -0.80229563911E+02  0.13093851238E+03  0.00000000000E+00 0.  1.
        -11    1    3    3    0    0  0.72115093259E+01 -0.13840830531E+03 -0.31509589441E+03  0.34422999218E+03  0.00000000000E+00 0. -1.
         11    1    3    3    0    0  0.50105894280E+02 -0.37714073519E+02 -0.24731007632E+03  0.25513766056E+03  0.00000000000E+00 0.  1.
          1    1    1    2  501    0 -0.20439530800E+02 -0.92911967896E+01  0.18517596712E+02  0.29103301275E+02  0.00000000000E+00 0. -1.
<scales pt_clust_5="13000.00000" pt_clust_6="13000.00000" pt_clust_7="13000.00000" pt_clust_8="13000.00000" pt_clust_9="22.45219"></scales>
<clustering>
<clus scale="   22.452">  1  9  2 -1</clus>
<clus scale="   92.934">  7  8 -1 -1</clus>
<clus scale="  101.852">  5  6 -1 -1</clus>
<clus scale="  208.173">  2  7  1 -1</clus>
<clus scale="   22.452">  1  5  2 -1</clus>
</clustering>
</event>
<event>
 9    1  0.1881049E-005  0.1228891E+03  0.7546771E-02  0.1239061E+00
         21   -1    0    0  501  502  0.00000000000E+00  0.00000000000E+00  0.11456826686E+03  0.11456826686E+03  0.00000000000E+00 0.  1.
          2   -1    0    0  502    0 -0.00000000000E+00 -0.00000000000E+00 -0.24839337176E+03  0.24839337176E+03  0.00000000000E+00 0. -1.
         23    2    1    2    0    0 -0.96669195868E+01  0.72325651113E+02 -0.11809427499E+03  0.16618485414E+03  0.91360269352E+02 0.  0.
         23    2    1    2    0    0  0.76971425796E+01 -0.98523922204E+02 -0.59449468475E+02  0.14577140450E+03  0.89156344797E+02 0.  0.
        -11    1    4    4    0    0 -0.30816386958E+02 -0.26993092016E+02  0.60558268848E+01  0.41411951910E+02  0.00000000000E+00 0.  1.
         11    1    4    4    0    0  0.38513529537E+02 -0.71530830188E+02 -0.65505295359E+02  0.10435945259E+03  0.00000000000E+00 0. -1.
        -11    1    3    3    0    0  0.40016089074E+02  0.45009595208E+02 -0.61114028280E+02  0.85802537831E+02  0.00000000000E+00 0.  1.
         11    1    3    3    0    0 -0.49683008661E+02  0.27316055905E+02 -0.56980246710E+02  0.80382316307E+02  0.00000000000E+00 0. -1.
          2    1    1    2  501    0  0.19697770071E+01  0.26198271091E+02  0.43718638567E+02  0.51005379988E+02  0.00000000000E+00 0. -1.
<scales pt_clust_5="13000.00000" pt_clust_6="13000.00000" pt_clust_7="13000.00000" pt_clust_8="13000.00000" pt_clust_9="26.27222"></scales>
<clustering>
<clus scale="   26.272">  1  9  2 -1</clus>
<clus scale="   89.156">  5  6 -1 -1</clus>
<clus scale="   91.360">  7  8 -1 -1</clus>
<clus scale="  121.260">  1  5  2 -1</clus>
<clus scale="   26.272">  1  5  2 -1</clus>
</clustering>
</event>
<event>
 9    1  0.1881049E-005  0.1884157E+03  0.7546771E-02  0.1160358E+00
          1   -1    0    0  502    0 -0.00000000000E+00  0.00000000000E+00  0.67062725179E+03  0.67062725179E+03  0.00000000000E+00 0. -1.
         21   -1    0    0  501  502  0.00000000000E+00 -0.00000000000E+00 -0.11364040324E+03  0.11364040324E+03  0.00000000000E+00 0. -1.
         23    2    1    2    0    0  0.70507182287E+02 -0.16277190518E+03  0.21199556622E+03  0.29110727503E+03  0.91298245350E+02 0.  0.
         23    2    1    2    0    0  0.77708251318E+02  0.16222584900E+03  0.18521575845E+03  0.27522385033E+03  0.95328338948E+02 0.  0.
        -13    1    4    4    0    0  0.57278741473E+02  0.16865033351E+03  0.17990520363E+03  0.25315937966E+03  0.00000000000E+00 0. -1.
         13    1    4    4    0    0  0.20429509844E+02 -0.64244845046E+01  0.53105548220E+01  0.22064470675E+02  0.00000000000E+00 0.  1.
        -13    1    3    3    0    0 -0.15395276314E+02 -0.68058255427E+02  0.94382608408E+02  0.11737554019E+03  0.00000000000E+00 0.  1.
         13    1    3    3    0    0  0.85902458601E+02 -0.94713649757E+02  0.11761295781E+03  0.17373173484E+03  0.00000000000E+00 0. -1.
          1    1    1    2  501    0 -0.14821543360E+03  0.54605618326E+00  0.15977552387E+03  0.21793652967E+03  0.00000000000E+00 0. -1.
<scales pt_clust_5="13000.00000" pt_clust_6="13000.00000" pt_clust_7="13000.00000" pt_clust_8="13000.00000" pt_clust_9="148.21651"></scales>
<clustering>
<clus scale="   91.298">  7  8 -1 -1</clus>
<clus scale="   95.328">  5  6 -1 -1</clus>
<clus scale="  148.217">  2  9  1 -1</clus>
<clus scale="  186.409">  1  7  2 -1</clus>
<clus scale="  148.217">  2  5  1 -1</clus>
</clustering>
</event>
<event>
 9    1  0.1881049E-005  0.1122335E+03  0.7546771E-02  0.1257668E+00
         21   -1    0    0  501  502  0.00000000000E+00  0.00000000000E+00  0.23835787867E+03  0.23835787867E+03  0.00000000000E+00 0. -1.
          2   -1    0    0  502    0 -0.00000000000E+00 -0.00000000000E+00 -0.39579312001E+03  0.39579312001E+03  0.00000000000E+00 0. -1.
         23    2    1    2    0    0 -0.28094647604E+02  0.72053942001E+02 -0.28763165710E+03  0.31151652338E+03  0.91266063739E+02 0.  0.
         23    2    1    2    0    0  0.95534410444E+01 -0.39436445159E+02 -0.69590921121E+02  0.11935472368E+03  0.88069020200E+02 0.  0.
        -13    1    3    3    0    0 -0.11708330182E+02 -0.20630505663E+02 -0.82106954147E+02  0.85464932451E+02  0.00000000000E+00 0.  1.
         13    1    3    3    0    0 -0.16386317422E+02  0.92684447663E+02 -0.20552470295E+03  0.22605159093E+03  0.00000000000E+00 0. -1.
        -13    1    4    4    0    0  0.16113628912E+02  0.17111154518E+02  0.64432730632E+01  0.24371221008E+02  0.00000000000E+00 0. -1.
         13    1    4    4    0    0 -0.65601878673E+01 -0.56547599677E+02 -0.76034194184E+02  0.94983502669E+02  0.00000000000E+00 0.  1.
          2    1    1    2  501    0  0.18541206560E+02 -0.32617496842E+02  0.19978733688E+03  0.20327975162E+03  0.00000000000E+00 0. -1.
<scales pt_clust_5="13000.00000" pt_clust_6="13000.00000" pt_clust_7="13000.00000" pt_clust_8="13000.00000" pt_clust_9="37.51903"></scales>
<clustering>
<clus scale="   37.519">  1  9  2 -1</clus>
<clus scale="   88.069">  7  8 -1 -1</clus>
<clus scale="   91.266">  5  6 -1 -1</clus>
<clus scale="  109.650">  1  7  2 -1</clus>
<clus scale="   37.519">  1  5  2 -1</clus>
</clustering>
</event>
<event>
 9    1  0.1881049E-005  0.1078105E+03  0.7546771E-02  0.1273339E+00
         21   -1    0    0  501  502  0.00000000000E+00  0.00000000000E+00  0.15166884241E+03  0.15166884241E+03  0.00000000000E+00 0.  1.
          1   -1    0    0  502    0 -0.00000000000E+00 -0.00000000000E+00 -0.38916655962E+03  0.38916655962E+03  0.00000000000E+00 0. -1.
         23    2    1    2    0    0 -0.18858038349E+02  0.87954472682E-02 -0.34639171100E+03  0.36262765928E+03  0.10562185445E+03 0.  0.
         23    2    1    2    0    0  0.51190840133E+02 -0.11348099432E+01  0.57144954241E+02  0.11717790518E+03  0.88562552809E+02 0.  0.
        -11    1    3    3    0    0 -0.14265583041E+02  0.44150527611E+02 -0.79319472137E+02  0.91893169539E+02  0.00000000000E+00 0.  1.
         11    1    3    3    0    0 -0.45924553085E+01 -0.44141732164E+02 -0.26707223886E+03  0.27073448974E+03  0.00000000000E+00 0. -1.
        -13    1    4    4    0    0  0.69146621830E+02  0.20874844593E+02  0.50127181713E+02  0.87918989950E+02  0.00000000000E+00 0.  1.
         13    1    4    4    0    0 -0.17955781698E+02 -0.22009654536E+02  0.70177725274E+01  0.29258915230E+02  0.00000000000E+00 0. -1.
          1    1    1    2  501    0 -0.32332801784E+02  0.11260144959E+01  0.51749039553E+02  0.61029837575E+02  0.00000000000E+00 0. -1.
<scales pt_clust_5="13000.00000" pt_clust_6="13000.00000" pt_clust_7="13000.00000" pt_clust_8="13000.00000" pt_clust_9="32.35240"></scales>
<clustering>
<clus scale="   32.352">  1  9  2 -1</clus>
<clus scale="   88.563">  7  8 -1 -1</clus>
<clus scale="   91.162">  1  7  2 -1</clus>
<clus scale="  105.622">  5  6 -1 -1</clus>
<clus scale="   32.352">  1  5  2 -1</clus>
</clustering>
</event>
<event>
 9    1  0.1881049E-005  0.1139356E+03  0.7546771E-02  0.1254240E+00
          1   -1    0    0  502    0 -0.00000000000E+00  0.00000000000E+00  0.47076953355E+03  0.47076953355E+03  0.00000000000E+00 0. -1.
         21   -1    0    0  501  502  0.00000000000E+00 -0.00000000000E+00 -0.45339870641E+02  0.45339870641E+02  0.00000000000E+00 0.  1.
         23    2    1    2    0    0 -0.64836087061E+02 -0.15073133630E+02  0.31601220240E+03  0.33563687947E+03  0.91419282682E+02 0.  0.
         23    2    1    2    0    0  0.74356432877E+02 -0.77354737368E+01  0.10175616177E+03  0.15459656962E+03  0.89202389070E+02 0.  0.
        -11    1    4    4    0    0  0.59184292343E+01  0.34153598727E+02  0.42528863623E+02  0.54865292778E+02  0.00000000000E+00 0. -1.
         11    1    4    4    0    0  0.68438003643E+02 -0.41889072464E+02  0.59227298144E+02  0.99731276839E+02  0.00000000000E+00 0.  1.
        -11    1    3    3    0    0 -0.22605937082E+02 -0.51165002286E+02  0.18664401231E+03  0.19484576768E+03  0.00000000000E+00 0.  1.
         11    1    3    3    0    0 -0.42230149979E+02  0.36091868657E+02  0.12936819009E+03  0.14079111178E+03  0.00000000000E+00 0. -1.
          1    1    1    2  501    0 -0.95203458164E+01  0.22808607366E+02  0.76612987394E+01  0.25875955110E+02  0.00000000000E+00 0. -1.
<scales pt_clust_5="13000.00000" pt_clust_6="13000.00000" pt_clust_7="13000.00000" pt_clust_8="13000.00000" pt_clust_9="24.71578"></scales>
<clustering>
<clus scale="   24.716">  2  9  1 -1</clus>
<clus scale="   89.202">  5  6 -1 -1</clus>
<clus scale="   91.419">  7  8 -1 -1</clus>
<clus scale="  112.165">  2  5  1 -1</clus>
<clus scale="   24.716">  2  5  1 -1</clus>
</clustering>
</event>
<event>
 9    1  0.1881049E-005  0.9444725E+02  0.7546771E-02  0.1292574E+00
          2   -1    0    0  502    0 -0.00000000000E+00  0.00000000000E+00  0.56177153286E+02  0.56177153286E+02  0.00000000000E+00 0. -1.
         21   -1    0    0  501  502  0.00000000000E+00 -0.00000000000E+00 -0.81197601110E+03  0.81197601110E+03  0.00000000000E+00 0. -1.
         23    2    1    2    0    0  0.15035282077E+02 -0.19277075634E+02 -0.22408807129E+02  0.97774219871E+02  0.91978139155E+02 0.  0.
         23    2    1    2    0    0 -0.42032165418E+02 -0.68284654498E+02 -0.24877885107E+03  0.27718131365E+03  0.92244603798E+02 0.  0.
        -11    1    4    4    0    0 -0.66936233794E+02 -0.26784358132E+02 -0.12538397865E+03  0.14463403243E+03  0.00000000000E+00 0. -1.
         11    1    4    4    0    0  0.24904068377E+02 -0.41500296366E+02 -0.12339487242E+03  0.13254728122E+03  0.00000000000E+00 0.  1.
        -13    1    3    3    0    0  0.37630117399E+02  0.23917668981E+02 -0.11762250855E+01  0.44603409403E+02  0.00000000000E+00 0.  1.
         13    1    3    3    0    0 -0.22594835322E+02 -0.43194744615E+02 -0.21232582043E+02  0.53170810468E+02  0.00000000000E+00 0. -1.
          2    1    1    2  501    0  0.26996883341E+02  0.87561730132E+02 -0.48461119962E+03  0.49319763086E+03  0.00000000000E+00 0. -1.
<scales pt_clust_5="13000.00000" pt_clust_6="13000.00000" pt_clust_7="13000.00000" pt_clust_8="13000.00000" pt_clust_9="91.62908"></scales>
<clustering>
<clus scale="   91.629">  2  9  1 -1</clus>
<clus scale="   91.978">  7  8 -1 -1</clus>
<clus scale="   92.245">  5  6 -1 -1</clus>
<clus scale="   94.187">  1  7  2 -1</clus>
<clus scale="   91.629">  2  5  1 -1</clus>
</clustering>
</event>
<event>
 9    1  0.1881049E-005  0.1085142E+03  0.7546771E-02  0.1268368E+00
         -1   -1    0    0    0  501 -0.00000000000E+00  0.00000000000E+00  0.17903546872E+03  0.17903546872E+03  0.00000000000E+00 0.  1.
         21   -1    0    0  501  502  0.00000000000E+00 -0.00000000000E+00 -0.39354213788E+03  0.39354213788E+03  0.00000000000E+00 0.  1.
         23    2    1    2    0    0  0.16198868400E+02  0.93711776244E+01  0.69234702028E+02  0.11571730985E+03  0.90812056066E+02 0.  0.
         23    2    1    2    0    0 -0.74536794648E+02 -0.27313475856E+02  0.33926298039E+02  0.13338234112E+03  0.10167642551E+03 0.  0.
        -13    1    4    4    0    0 -0.46892180435E+02  0.85317442937E+01  0.63435967799E+02  0.79346009712E+02  0.00000000000E+00 0.  1.
         13    1    4    4    0    0 -0.27644614213E+02 -0.35845220149E+02 -0.29509669761E+02  0.54036331407E+02  0.00000000000E+00 0. -1.
        -13    1    3    3    0    0 -0.27973352321E+02 -0.91522577114E+01  0.60149497942E+02  0.66964426108E+02  0.00000000000E+00 0.  1.
         13    1    3    3    0    0  0.44172220721E+02  0.18523435336E+02  0.90852040860E+01  0.48752883744E+02  0.00000000000E+00 0. -1.
         -1    1    1    2    0  502  0.58337926248E+02  0.17942298231E+02 -0.31766766923E+03  0.32347795563E+03  0.00000000000E+00 0.  1.
<scales pt_clust_5="13000.00000" pt_clust_6="13000.00000" pt_clust_7="13000.00000" pt_clust_8="13000.00000" pt_clust_9="61.03474"></scales>
<clustering>
<clus scale="   61.035">  2  9  1 -1</clus>
<clus scale="   90.812">  7  8 -1 -1</clus>
<clus scale="   98.408">  1  7  2 -1</clus>
<clus scale="  101.676">  5  6 -1 -1</clus>
<clus scale="   61.035">  2  5  1 -1</clus>
</clustering>
</event>
<event>
 9    1  0.1881049E-005  0.1040821E+03  0.7546771E-02  0.1273195E+00
          2   -1    0    0  502    0 -0.00000000000E+00  0.00000000000E+00  0.43868450535E+03  0.43868450535E+03  0.00000000000E+00 0. -1.
         21   -1    0    0  501  502  0.00000000000E+00 -0.00000000000E+00 -0.40371224904E+02  0.40371224904E+02  0.00000000000E+00 0. -1.
         23    2    1    2    0    0 -0.20454744617E+02  0.22995651613E+02  0.15617763717E+03  0.18291936020E+03  0.90115711246E+02 0.  0.
         23    2    1    2    0    0  0.36940605519E+02 -0.68364020984E+02  0.20204839659E+03  0.23339037500E+03  0.87231100391E+02 0.  0.
        -13    1    4    4    0    0 -0.28326257225E+02 -0.16538826109E+02  0.68919174736E+02  0.76326681205E+02  0.00000000000E+00 0.  1.
         13    1    4    4    0    0  0.65266862744E+02 -0.51825194875E+02  0.13312922185E+03  0.15706369379E+03  0.00000000000E+00 0. -1.
        -13    1    3    3    0    0  0.34160831079E+02 -0.37933178947E+01  0.54438001490E+02  0.64380491198E+02  0.00000000000E+00 0.  1.
         13    1    3    3    0    0 -0.54615575696E+02  0.26788969508E+02  0.10173963568E+03  0.11853886900E+03  0.00000000000E+00 0. -1.
          2    1    1    2  501    0 -0.16485860902E+02  0.45368369371E+02  0.40087246690E+02  0.62745995061E+02  0.00000000000E+00 0. -1.
<scales pt_clust_5="13000.00000" pt_clust_6="13000.00000" pt_clust_7="13000.00000" pt_clust_8="13000.00000" pt_clust_9="48.27083"></scales>
<clustering>
<clus scale="   48.271">  2  9  1 -1</clus>
<clus scale="   87.231">  5  6 -1 -1</clus>
<clus scale="   90.116">  7  8 -1 -1</clus>
<clus scale="  101.595">  2  5  1 -1</clus>
<clus scale="   48.271">  2  5  1 -1</clus>
</clustering>
</event>
<event>
 9    1  0.1881049E-005  0.9446393E+02  0.7546771E-02  0.1293456E+00
          2   -1    0    0  502    0 -0.00000000000E+00  0.00000000000E+00  0.10933841354E+03  0.10933841354E+03  0.00000000000E+00 0. -1.
         21   -1    0    0  501  502  0.00000000000E+00 -0.00000000000E+00 -0.19958803673E+03  0.19958803673E+03  0.00000000000E+00 0.  1.
         23    2    1    2    0    0  0.26627562145E+02  0.75302961289E+00  0.22583779823E+02  0.96337614116E+02  0.89784824236E+02 0.  0.
         23    2    1    2    0    0  0.90896885484E+01  0.53447859059E+02 -0.37013612374E+02  0.11277852114E+03  0.91704368784E+02 0.  0.
        -11    1    4    4    0    0  0.19691098405E+02 -0.97226437870E+01 -0.43164698740E+02  0.48429953292E+02  0.00000000000E+00 0.  1.
         11    1    4    4    0    0 -0.10601409857E+02  0.63170502846E+02  0.61510863662E+01  0.64348567850E+02  0.00000000000E+00 0. -1.
        -13    1    3    3    0    0  0.57768229359E+02 -0.13594744310E+02  0.13358545544E+02  0.60831210207E+02  0.00000000000E+00 0.  1.
         13    1    3    3    0    0 -0.31140667214E+02  0.14347773923E+02  0.92252342785E+01  0.35506403909E+02  0.00000000000E+00 0. -1.
          2    1    1    2  501    0 -0.35717250693E+02 -0.54200888672E+02 -0.75819790644E+02  0.99810315014E+02  0.00000000000E+00 0. -1.
<scales pt_clust_5="13000.00000" pt_clust_6="13000.00000" pt_clust_7="13000.00000" pt_clust_8="13000.00000" pt_clust_9="64.91116"></scales>
<clustering>
<clus scale="   64.911">  2  9  1 -1</clus>
<clus scale="   89.785">  7  8 -1 -1</clus>
<clus scale="   91.704">  5  6 -1 -1</clus>
<clus scale="   92.602">  1  7  2 -1</clus>
<clus scale="   64.911">  2  5  1 -1</clus>
</clustering>
</event>
<event>
 9    1  0.1881049E-005  0.1005527E+03  0.7546771E-02  0.1290330E+00
         21   -1    0    0  501  502  0.00000000000E+00  0.00000000000E+00  0.45461016665E+02  0.45461016665E+02  0.00000000000E+00 0. -1.
          1   -1    0    0  502    0 -0.00000000000E+00 -0.00000000000E+00 -0.40717681341E+03  0.40717681341E+03  0.00000000000E+00 0. -1.
         23    2    1    2    0    0 -0.28710394727E+02  0.16649815199E+02 -0.27549846146E+03  0.29443373621E+03  0.98439421148E+02 0.  0.
         23    2    1    2    0    0  0.77230540593E+00 -0.21437244537E+01 -0.96958941576E+02  0.12494231987E+03  0.78767727735E+02 0.  0.
        -11    1    3    3    0    0 -0.54750669581E+02  0.21835720103E+02 -0.25255555005E+03  0.25934290110E+03  0.00000000000E+00 0. -1.
         11    1    3    3    0    0  0.26040274854E+02 -0.51859049035E+01 -0.22942911418E+02  0.35090835106E+02  0.00000000000E+00 0.  1.
        -13    1    4    4    0    0  0.32259814651E+02  0.20331905220E+02 -0.34224320935E+02  0.51238522174E+02  0.00000000000E+00 0.  1.
         13    1    4    4    0    0 -0.31487509245E+02 -0.22475629673E+02 -0.62734620641E+02  0.73703797695E+02  0.00000000000E+00 0. -1.
          1    1    1    2  501    0  0.27938089321E+02 -0.14506090745E+02  0.10741606298E+02  0.33261773998E+02  0.00000000000E+00 0. -1.
<scales pt_clust_5="13000.00000" pt_clust_6="13000.00000" pt_clust_7="13000.00000" pt_clust_8="13000.00000" pt_clust_9="31.47957"></scales>
<clustering>
<clus scale="   31.480">  1  9  2 -1</clus>
<clus scale="   78.768">  7  8 -1 -1</clus>
<clus scale="   81.393">  1  7  2 -1</clus>
<clus scale="   98.439">  5  6 -1 -1</clus>
<clus scale="   31.480">  1  5  2 -1</clus>
</clustering>
</event>
<event>
 9    1  0.1881049E-005  0.1031665E+03  0.7546771E-02  0.1274050E+00
         -2   -1    0    0    0  501 -0.00000000000E+00  0.00000000000E+00  0.27755116109E+03  0.27755116109E+03  0.00000000000E+00 0.  1.
         21   -1    0    0  501  502  0.00000000000E+00 -0.00000000000E+00 -0.13055977721E+03  0.13055977721E+03  0.00000000000E+00 0.  1.
         23    2    1    2    0    0 -0.20775856903E+02 -0.40372887002E+02  0.13465421420E+03  0.16860229904E+03  0.90737928157E+02 0.  0.
         23    2    1    2    0    0 -0.42998379803E+02  0.65446084972E+02  0.79596893775E+02  0.14348942759E+03  0.90119363226E+02 0.  0.
        -13    1    4    4    0    0 -0.45384530732E+02  0.85980028837E+02  0.56317969207E+02  0.11235672941E+03  0.00000000000E+00 0.  1.
         13    1    4    4    0    0  0.23861509296E+01 -0.20533943865E+02  0.23278924569E+02  0.31132698180E+02  0.00000000000E+00 0. -1.
        -13    1    3    3    0    0 -0.25518533259E+02 -0.66407685031E+02  0.11652173581E+03  0.13652285921E+03  0.00000000000E+00 0.  1.
         13    1    3    3    0    0  0.47426763558E+01  0.26034798029E+02  0.18132478387E+02  0.32079439831E+02  0.00000000000E+00 0. -1.
         -2    1    1    2    0  502  0.63774236706E+02 -0.25073197970E+02 -0.67259724097E+02  0.96019211669E+02  0.00000000000E+00 0.  1.
<scales pt_clust_5="13000.00000" pt_clust_6="13000.00000" pt_clust_7="13000.00000" pt_clust_8="13000.00000" pt_clust_9="68.52604"></scales>
<clustering>
<clus scale="   68.526">  2  9  1 -1</clus>
<clus scale="   90.119">  5  6 -1 -1</clus>
<clus scale="   90.738">  7  8 -1 -1</clus>
<clus scale="  102.623">  2  5  1 -1</clus>
<clus scale="   68.526">  2  5  1 -1</clus>
</clustering>
</event>
<event>
 9    1  0.1881049E-005  0.9280202E+02  0.7546771E-02  0.1296968E+00
         21   -1    0    0  501  502  0.00000000000E+00  0.00000000000E+00  0.13931631497E+02  0.13931631497E+02  0.00000000000E+00 0. -1.
         -1   -1    0    0    0  501 -0.00000000000E+00 -0.00000000000E+00 -0.89713429208E+03  0.89713429208E+03  0.00000000000E+00 0.  1.
         23    2    1    2    0    0  0.62873479254E+01  0.15094939254E+02 -0.48224183107E+03  0.49106832278E+03  0.91233360527E+02 0.  0.
         23    2    1    2    0    0  0.45170253993E+01  0.38962622915E+01 -0.37384270358E+03  0.38517242350E+03  0.92541041860E+02 0.  0.
        -11    1    4    4    0    0 -0.26035884642E+02 -0.32325079505E+02 -0.12082151852E+03  0.12775217177E+03  0.00000000000E+00 0. -1.
         11    1    4    4    0    0  0.30552910042E+02  0.36221341797E+02 -0.25302118506E+03  0.25742025173E+03  0.00000000000E+00 0.  1.
        -13    1    3    3    0    0  0.48155970291E+01  0.53712718622E+02 -0.26886263616E+03  0.27421772963E+03  0.00000000000E+00 0. -1.
         13    1    3    3    0    0  0.14717508963E+01 -0.38617779368E+02 -0.21337919491E+03  0.21685059316E+03  0.00000000000E+00 0.  1.
         -1    1    1    2    0  502 -0.10804373325E+02 -0.18991201546E+02 -0.27118125930E+02  0.34825177286E+02  0.00000000000E+00 0.  1.
<scales pt_clust_5="13000.00000" pt_clust_6="13000.00000" pt_clust_7="13000.00000" pt_clust_8="13000.00000" pt_clust_9="21.84949"></scales>
<clustering>
<clus scale="   21.849">  1  9  2 -1</clus>
<clus scale="   91.233">  7  8 -1 -1</clus>
<clus scale="   91.498">  2  7  1 -1</clus>
<clus scale="   92.541">  5  6 -1 -1</clus>
<clus scale="   21.849">  1  5  2 -1</clus>
</clustering>
</event>
<event>
 9    1  0.1881049E-005  0.1131591E+03  0.7546771E-02  0.1258624E+00
         -3   -1    0    0    0  501 -0.00000000000E+00  0.00000000000E+00  0.34164302318E+03  0.34164302318E+03  0.00000000000E+00 0.  1.
         21   -1    0    0  501  502  0.00000000000E+00 -0.00000000000E+00 -0.66183505354E+02  0.66183505354E+02  0.00000000000E+00 0. -1.
         23    2    1    2    0    0  0.28924374044E+01  0.58702395188E+02  0.20112478295E+03  0.22694172420E+03  0.87160945796E+02 0.  0.
         23    2    1    2    0    0 -0.43552102942E+02 -0.52337109155E+02  0.33802081084E+02  0.12312130988E+03  0.96852039710E+02 0.  0.
        -11    1    4    4    0    0  0.11005711604E+02 -0.26874468076E+02  0.52568922393E+02  0.60057092202E+02  0.00000000000E+00 0.  1.
         11    1    4    4    0    0 -0.54557814546E+02 -0.25462641080E+02 -0.18766841309E+02  0.63064217679E+02  0.00000000000E+00 0. -1.
        -13    1    3    3    0    0  0.21237724019E+02  0.48900576619E+02  0.19901861584E+03  0.20603571721E+03  0.00000000000E+00 0.  1.
         13    1    3    3    0    0 -0.18345286614E+02  0.98018185690E+01  0.21061671033E+01  0.20906006986E+02  0.00000000000E+00 0. -1.
         -3    1    1    2    0  502  0.40659665537E+02 -0.63652860323E+01  0.40532653796E+02  0.57763494455E+02  0.00000000000E+00 0.  1.
<scales pt_clust_5="13000.00000" pt_clust_6="13000.00000" pt_clust_7="13000.00000" pt_clust_8="13000.00000" pt_clust_9="41.15491"></scales>
<clustering>
<clus scale="   41.155">  2  9  1 -1</clus>
<clus scale="   87.161">  7  8 -1 -1</clus>
<clus scale="   96.852">  5  6 -1 -1</clus>
<clus scale="  104.984">  1  7  2 -1</clus>
<clus scale="   41.155">  2  5  1 -1</clus>
</clustering>
</event>
<event>
 9    1  0.1881049E-005  0.9719669E+02  0.7546771E-02  0.1286781E+00
         21   -1    0    0  501  502  0.00000000000E+00  0.00000000000E+00  0.49143358080E+02  0.49143358080E+02  0.00000000000E+00 0. -1.
         -1   -1    0    0    0  501 -0.00000000000E+00 -0.00000000000E+00 -0.52731177220E+03  0.52731177220E+03  0.00000000000E+00 0.  1.
         23    2    1    2    0    0 -0.24063511503E+02  0.23800712875E+02 -0.43089034045E+03  0.44198097192E+03  0.92385970430E+02 0.  0.
         23    2    1    2    0    0 -0.22553454369E+01 -0.10280580115E+02 -0.19982106782E+02  0.94218152232E+02  0.91471299915E+02 0.  0.
        -11    1    4    4    0    0  0.34914746465E+02  0.20918108927E+02  0.24106571103E+01  0.40772761367E+02  0.00000000000E+00 0.  1.
         11    1    4    4    0    0 -0.37170091902E+02 -0.31198689043E+02 -0.22392763892E+02  0.53445390865E+02  0.00000000000E+00 0. -1.
        -13    1    3    3    0    0 -0.59010992455E+02  0.19119520982E+02 -0.24170403428E+03  0.24953695819E+03  0.00000000000E+00 0.  1.
         13    1    3    3    0    0  0.34947480952E+02  0.46811918930E+01 -0.18918630617E+03  0.19244401374E+03  0.00000000000E+00 0. -1.
         -1    1    1    2    0  502  0.26318856940E+02 -0.13520132760E+02 -0.27295966885E+02  0.40256006120E+02  0.00000000000E+00 0.  1.
<scales pt_clust_5="13000.00000" pt_clust_6="13000.00000" pt_clust_7="13000.00000" pt_clust_8="13000.00000" pt_clust_9="29.58845"></scales>
<clustering>
<clus scale="   29.588">  1  9  2 -1</clus>
<clus scale="   91.471">  5  6 -1 -1</clus>
<clus scale="   92.386">  7  8 -1 -1</clus>
<clus scale="   96.328">  1  5  2 -1</clus>
<clus scale="   29.588">  1  5  2 -1</clus>
</clustering>
</event>
<event>
 9    1  0.1881049E-005  0.2794381E+03  0.7546771E-02  0.1096217E+00
         -3   -1    0    0    0  501 -0.00000000000E+00  0.00000000000E+00  0.40807290985E+03  0.40807290985E+03  0.00000000000E+00 0.  1.
         21   -1    0    0  501  502  0.00000000000E+00 -0.00000000000E+00 -0.25515128732E+03  0.25515128732E+03  0.00000000000E+00 0. -1.
         23    2    1    2    0    0  0.16268517894E+03 -0.19051400737E+03  0.95259344554E+02  0.28313818549E+03  0.91273407423E+02 0.  0.
         23    2    1    2    0    0 -0.23313538856E+03  0.16186342854E+03  0.45716221309E+02  0.30310032488E+03  0.96062246235E+02 0.  0.
        -13    1    4    4    0    0 -0.10154478286E+03  0.16626486959E+02  0.25970880656E+02  0.10612384104E+03  0.00000000000E+00 0.  1.
         13    1    4    4    0    0 -0.13159060570E+03  0.14523694158E+03  0.19745340653E+02  0.19697648384E+03  0.00000000000E+00 0. -1.
        -13    1    3    3    0    0  0.11813160313E+03 -0.14586834270E+03  0.26055103293E+02  0.18950334421E+03  0.00000000000E+00 0.  1.
         13    1    3    3    0    0  0.44553575810E+02 -0.44645664672E+02  0.69204241261E+02  0.93634841272E+02  0.00000000000E+00 0. -1.
         -3    1    1    2    0  502  0.70450209621E+02  0.28650578837E+02  0.11946056676E+02  0.76985686808E+02  0.00000000000E+00 0.  1.
<scales pt_clust_5="13000.00000" pt_clust_6="13000.00000" pt_clust_7="13000.00000" pt_clust_8="13000.00000" pt_clust_9="76.05319"></scales>
<clustering>
<clus scale="   76.053">  2  9  1 -1</clus>
<clus scale="   91.273">  7  8 -1 -1</clus>
<clus scale="   96.062">  5  6 -1 -1</clus>
<clus scale="  277.828">  1  7  2 -1</clus>
<clus scale="   76.053">  2  5  1 -1</clus>
</clustering>
</event>
<event>
 9    1  0.1881049E-005  0.9341611E+02  0.7546771E-02  0.1296009E+00
         21   -1    0    0  501  502  0.00000000000E+00  0.00000000000E+00  0.43594023153E+02  0.43594023153E+02  0.00000000000E+00 0.  1.
          1   -1    0    0  502    0 -0.00000000000E+00 -0.00000000000E+00 -0.30770943010E+03  0.30770943010E+03  0.00000000000E+00 0. -1.
         23    2    1    2    0    0  0.70881920415E+01 -0.98370120992E+01 -0.13221110715E+03  0.16183625127E+03  0.92542887892E+02 0.  0.
         23    2    1    2    0    0 -0.18002219433E+02 -0.13615311749E+02 -0.13432285607E+03  0.16348688439E+03  0.90420545709E+02 0.  0.
        -13    1    4    4    0    0 -0.34873295746E+02  0.11219380532E+02 -0.12755357995E+03  0.13270997330E+03  0.00000000000E+00 0. -1.
         13    1    4    4    0    0  0.16871076314E+02 -0.24834692281E+02 -0.67692761131E+01  0.30776911082E+02  0.00000000000E+00 0.  1.
        -13    1    3    3    0    0  0.47217125554E+02  0.39366385191E+01 -0.91481803753E+02  0.10302365984E+03  0.00000000000E+00 0.  1.
         13    1    3    3    0    0 -0.40128933513E+02 -0.13773650618E+02 -0.40729303392E+02  0.58812591433E+02  0.00000000000E+00 0. -1.
          1    1    1    2  501    0  0.10914027391E+02  0.23452323848E+02  0.24185562668E+01  0.25980317592E+02  0.00000000000E+00 0. -1.
<scales pt_clust_5="13000.00000" pt_clust_6="13000.00000" pt_clust_7="13000.00000" pt_clust_8="13000.00000" pt_clust_9="25.86750"></scales>
<clustering>
<clus scale="   25.867">  1  9  2 -1</clus>
<clus scale="   90.421">  5  6 -1 -1</clus>
<clus scale="   91.314">  1  5  2 -1</clus>
<clus scale="   92.543">  7  8 -1 -1</clus>
<clus scale="   25.867">  1  5  2 -1</clus>
</clustering>
</event>
<event>
 9    1  0.1881049E-005  0.1021813E+03  0.7546771E-02  0.1276014E+00
         21   -1    0    0  501  502  0.00000000000E+00  0.00000000000E+00  0.63223261228E+02  0.63223261228E+02  0.00000000000E+00 0.  1.
         -2   -1    0    0    0  501 -0.00000000000E+00 -0.00000000000E+00 -0.27817542000E+03  0.27817542000E+03  0.00000000000E+00 0.  1.
         23    2    1    2    0    0  0.14161129554E+02  0.44746115604E+02 -0.18834415861E+03  0.21443857809E+03  0.91146197060E+02 0.  0.
         23    2    1    2    0    0 -0.32973370326E+02 -0.34368729720E+02 -0.25187958891E+02  0.10542856678E+03  0.90621723042E+02 0.  0.
        -11    1    4    4    0    0  0.18495534739E+02 -0.20453972041E+02  0.21178855532E+02  0.34770586696E+02  0.00000000000E+00 0. -1.
         11    1    4    4    0    0 -0.51468905066E+02 -0.13914757679E+02 -0.46366814423E+02  0.70657980085E+02  0.00000000000E+00 0.  1.
        -13    1    3    3    0    0  0.32953590873E+02  0.96869241213E+01 -0.16601554389E+02  0.38149538117E+02  0.00000000000E+00 0. -1.
         13    1    3    3    0    0 -0.18792461319E+02  0.35059191483E+02 -0.17174260422E+03  0.17628903998E+03  0.00000000000E+00 0.  1.
         -2    1    1    2    0  502  0.18812240772E+02 -0.10377385885E+02 -0.14200412702E+01  0.21531536357E+02  0.00000000000E+00 0.  1.
<scales pt_clust_5="13000.00000" pt_clust_6="13000.00000" pt_clust_7="13000.00000" pt_clust_8="13000.00000" pt_clust_9="21.48466"></scales>
<clustering>
<clus scale="   21.485">  1  9  2 -1</clus>
<clus scale="   90.622">  5  6 -1 -1</clus>
<clus scale="   91.146">  7  8 -1 -1</clus>
<clus scale="  101.714">  1  5  2 -1</clus>
<clus scale="   21.485">  1  5  2 -1</clus>
</clustering>
</event>
<event>
 9    1  0.1881049E-005  0.9750025E+02  0.7546771E-02  0.1286338E+00
         21   -1    0    0  501  502  0.00000000000E+00  0.00000000000E+00  0.58913929336E+02  0.58913929336E+02  0.00000000000E+00 0. -1.
         -3   -1    0    0    0  501 -0.00000000000E+00 -0.00000000000E+00 -0.34165219039E+03  0.34165219039E+03  0.00000000000E+00 0.  1.
         23    2    1    2    0    0  0.31216796376E+02  0.18833155407E+02 -0.71283485420E+02  0.12228439026E+03  0.92428137969E+02 0.  0.
         23    2    1    2    0    0 -0.26386684934E+02  0.43091337827E+02 -0.74998305483E+02  0.12835394323E+03  0.91087147178E+02 0.  0.
        -11    1    3    3    0    0  0.43547826707E+02  0.45315518528E+02 -0.68463149662E+02  0.92936065615E+02  0.00000000000E+00 0.  1.
         11    1    3    3    0    0 -0.12331030331E+02 -0.26482363121E+02 -0.28203357588E+01  0.29348324642E+02  0.00000000000E+00 0. -1.
        -13    1    4    4    0    0  0.13893755898E+02  0.33671287387E+02 -0.78800874370E+02  0.86812267847E+02  0.00000000000E+00 0.  1.
         13    1    4    4    0    0 -0.40280440831E+02  0.94200504399E+01  0.38025688870E+01  0.41541675387E+02  0.00000000000E+00 0. -1.
         -3    1    1    2    0  502 -0.48301114420E+01 -0.61924493234E+02 -0.13645647015E+03  0.14992778623E+03  0.00000000000E+00 0.  1.
<scales pt_clust_5="13000.00000" pt_clust_6="13000.00000" pt_clust_7="13000.00000" pt_clust_8="13000.00000" pt_clust_9="62.11261"></scales>
<clustering>
<clus scale="   62.113">  1  9  2 -1</clus>
<clus scale="   91.087">  7  8 -1 -1</clus>
<clus scale="   92.428">  5  6 -1 -1</clus>
<clus scale="   96.230">  1  7  2 -1</clus>
<clus scale="   62.113">  1  5  2 -1</clus>
</clustering>
</event>
<event>
 9    1  0.1881049E-005  0.8887718E+02  0.7546771E-02  0.1306118E+00
          2   -1    0    0  502    0 -0.00000000000E+00  0.00000000000E+00  0.16465788775E+03  0.16465788775E+03  0.00000000000E+00 0. -1.
         21   -1    0    0  501  502  0.00000000000E+00 -0.00000000000E+00 -0.20177182594E+03  0.20177182594E+03  0.00000000000E+00 0. -1.
         23    2    1    2    0    0 -0.98404411600E+01  0.46167511404E+01  0.12783134251E+03  0.15586426215E+03  0.88513656654E+02 0.  0.
         23    2    1    2    0    0 -0.10948869243E+02  0.27572674059E+02 -0.11826334951E+03  0.15017044163E+03  0.87663057273E+02 0.  0.
        -11    1    4    4    0    0 -0.40717327541E+02  0.29670853862E+02 -0.10701009373E+03  0.11827688063E+03  0.00000000000E+00 0. -1.
         11    1    4    4    0    0  0.29768458298E+02 -0.20981798030E+01 -0.11253255779E+02  0.31893561005E+02  0.00000000000E+00 0.  1.
        -13    1    3    3    0    0  0.27950651377E+02 -0.12627960499E+02  0.12218190218E+02  0.33014973435E+02  0.00000000000E+00 0.  1.
         13    1    3    3    0    0 -0.37791092537E+02  0.17244711639E+02  0.11561315229E+03  0.12284928871E+03  0.00000000000E+00 0. -1.
          2    1    1    2  501    0  0.20789310403E+02 -0.32189425200E+02 -0.46681931192E+02  0.60395009906E+02  0.00000000000E+00 0. -1.
<scales pt_clust_5="13000.00000" pt_clust_6="13000.00000" pt_clust_7="13000.00000" pt_clust_8="13000.00000" pt_clust_9="38.31911"></scales>
<clustering>
<clus scale="   38.319">  2  9  1 -1</clus>
<clus scale="   87.663">  5  6 -1 -1</clus>
<clus scale="   88.030">  2  5  1 -1</clus>
<clus scale="   88.514">  7  8 -1 -1</clus>
<clus scale="   38.319">  2  5  1 -1</clus>
</clustering>
</event>
<event>
 9    1  0.1881049E-005  0.1020267E+03  0.7546771E-02  0.1277209E+00
         21   -1    0    0  501  502  0.00000000000E+00  0.00000000000E+00  0.11132364157E+03  0.11132364157E+03  0.00000000000E+00 0. -1.
         -1   -1    0    0    0  501 -0.00000000000E+00 -0.00000000000E+00 -0.37536206364E+03  0.37536206364E+03  0.00000000000E+00 0.  1.
         23    2    1    2    0    0 -0.56765276995E+02  0.27418499547E+02 -0.18301707244E+03  0.21501086482E+03  0.93596754185E+02 0.  0.
         23    2    1    2    0    0  0.23705993349E+02  0.37583835939E+02 -0.14342257282E+03  0.17569498568E+03  0.91236915534E+02 0.  0.
        -11    1    3    3    0    0 -0.11279887991E+02 -0.17885381245E+02 -0.89681901914E-01  0.21145467085E+02  0.00000000000E+00 0.  1.
         11    1    3    3    0    0 -0.45485389003E+02  0.45303880792E+02 -0.18292739054E+03  0.19386539773E+03  0.00000000000E+00 0. -1.
        -13    1    4    4    0    0  0.43421226339E+02  0.25959310368E+02 -0.14417750476E+03  0.15279542392E+03  0.00000000000E+00 0.  1.
         13    1    4    4    0    0 -0.19715232990E+02  0.11624525570E+02  0.75493194706E+00  0.22899561761E+02  0.00000000000E+00 0. -1.
         -1    1    1    2    0  502  0.33059283645E+02 -0.65002335485E+02  0.62401223189E+02  0.95979854705E+02  0.00000000000E+00 0.  1.
<scales pt_clust_5="13000.00000" pt_clust_6="13000.00000" pt_clust_7="13000.00000" pt_clust_8="13000.00000" pt_clust_9="72.92613"></scales>
<clustering>
<clus scale="   72.926">  1  9  2 -1</clus>
<clus scale="   91.237">  7  8 -1 -1</clus>
<clus scale="   93.597">  5  6 -1 -1</clus>
<clus scale="   99.866">  1  7  2 -1</clus>
<clus scale="   72.926">  1  5  2 -1</clus>
</clustering>
</event>
<event>
 9    1  0.1881049E-005  0.1019829E+03  0.7546771E-02  0.1280644E+00
         21   -1    0    0  501  502  0.00000000000E+00  0.00000000000E+00  0.11473467754E+03  0.11473467754E+03  0.00000000000E+00 0.  1.
         -1   -1    0    0    0  501 -0.00000000000E+00 -0.00000000000E+00 -0.18772885088E+03  0.18772885088E+03  0.00000000000E+00 0.  1.
         23    2    1    2    0    0 -0.37528994724E+02 -0.29826361061E+02 -0.12566270892E+03  0.16233466761E+03  0.90903193764E+02 0.  0.
         23    2    1    2    0    0  0.46060473484E+02  0.54702677856E+01  0.15696098716E+02  0.95040431070E+02  0.81454434967E+02 0.  0.
        -11    1    3    3    0    0 -0.67210535399E+02 -0.18199411089E+02 -0.97416467262E+02  0.11974323666E+03  0.00000000000E+00 0.  1.
         11    1    3    3    0    0  0.29681540675E+02 -0.11626949972E+02 -0.28246241657E+02  0.42591430949E+02  0.00000000000E+00 0. -1.
        -11    1    4    4    0    0  0.59791624750E+02  0.28036357891E+02  0.40232487400E+01  0.66160881830E+02  0.00000000000E+00 0.  1.
         11    1    4    4    0    0 -0.13731151266E+02 -0.22566090105E+02  0.11672849977E+02  0.28879549240E+02  0.00000000000E+00 0. -1.
         -1    1    1    2    0  502 -0.85314787601E+01  0.24356093276E+02  0.36972436864E+02  0.45088429748E+02  0.00000000000E+00 0.  1.
<scales pt_clust_5="13000.00000" pt_clust_6="13000.00000" pt_clust_7="13000.00000" pt_clust_8="13000.00000" pt_clust_9="25.80708"></scales>
<clustering>
<clus scale="   25.807">  1  9  2 -1</clus>
<clus scale="   81.454">  7  8 -1 -1</clus>
<clus scale="   90.903">  5  6 -1 -1</clus>
<clus scale="   93.659">  1  7  2 -1</clus>
<clus scale="   25.807">  1  5  2 -1</clus>
</clustering>
</event>
<event>
 9    1  0.1881049E-005  0.1131614E+03  0.7546771E-02  0.1258844E+00
          1   -1    0    0  502    0 -0.00000000000E+00  0.00000000000E+00  0.48391080352E+03  0.48391080352E+03  0.00000000000E+00 0. -1.
         21   -1    0    0  501  502  0.00000000000E+00 -0.00000000000E+00 -0.11772714542E+03  0.11772714542E+03  0.00000000000E+00 0. -1.
         23    2    1    2    0    0  0.20281733135E+02  0.55179030148E+02  0.22947108125E+03  0.25058624508E+03  0.81733805878E+02 0.  0.
         23    2    1    2    0    0 -0.41908067186E+02 -0.62314638802E+02  0.22784026527E+03  0.25712156583E+03  0.92525201045E+02 0.  0.
        -13    1    4    4    0    0 -0.35586145566E+00 -0.30736561480E+02  0.88341963992E+01  0.31982899728E+02  0.00000000000E+00 0.  1.
         13    1    4    4    0    0 -0.41552205731E+02 -0.31578077322E+02  0.21900606887E+03  0.22513866610E+03  0.00000000000E+00 0. -1.
        -13    1    3    3    0    0 -0.18401198545E+02  0.31755346557E+02  0.17940376480E+03  0.18311940631E+03  0.00000000000E+00 0. -1.
         13    1    3    3    0    0  0.38682931681E+02  0.23423683591E+02  0.50067316452E+02  0.67466838766E+02  0.00000000000E+00 0.  1.
          1    1    1    2  501    0  0.21626334051E+02  0.71356086545E+01 -0.91127688424E+02  0.93930138043E+02  0.00000000000E+00 0. -1.
<scales pt_clust_5="13000.00000" pt_clust_6="13000.00000" pt_clust_7="13000.00000" pt_clust_8="13000.00000" pt_clust_9="22.77313"></scales>
<clustering>
<clus scale="   22.773">  2  9  1 -1</clus>
<clus scale="   81.734">  7  8 -1 -1</clus>
<clus scale="   92.525">  5  6 -1 -1</clus>
<clus scale="  104.523">  1  7  2 -1</clus>
<clus scale="   22.773">  2  5  1 -1</clus>
</clustering>
</event>
<event>
 9    1  0.1881049E-005  0.1002855E+03  0.7546771E-02  0.1279698E+00
         21   -1    0    0  501  502  0.00000000000E+00  0.00000000000E+00  0.12662463927E+03  0.12662463927E+03  0.00000000000E+00 0. -1.
          1   -1    0    0  502    0 -0.00000000000E+00 -0.00000000000E+00 -0.25646662153E+03  0.25646662153E+03  0.00000000000E+00 0. -1.
         23    2    1    2    0    0 -0.33449904878E+02  0.70086021664E+01 -0.14586587853E+03  0.17564717493E+03  0.91690015281E+02 0.  0.
         23    2    1    2    0    0  0.55728030184E+02  0.12964551959E+02 -0.61496166224E+02  0.12435015203E+03  0.91692360063E+02 0.  0.
        -11    1    4    4    0    0 -0.14054728324E+02  0.23206131634E+02 -0.43983898960E+02  0.51678267206E+02  0.00000000000E+00 0.  1.
         11    1    4    4    0    0  0.69782758507E+02 -0.10241579675E+02 -0.17512267264E+02  0.72671884824E+02  0.00000000000E+00 0. -1.
        -13    1    3    3    0    0 -0.62397638081E+02 -0.44158367863E+01 -0.71317671781E+02  0.94863982422E+02  0.00000000000E+00 0.  1.
         13    1    3    3    0    0  0.28947733203E+02  0.11424438953E+02 -0.74548206749E+02  0.80783192512E+02  0.00000000000E+00 0. -1.
          1    1    1    2  501    0 -0.22278125305E+02 -0.19973154126E+02  0.77520062491E+02  0.83093933843E+02  0.00000000000E+00 0. -1.
<scales pt_clust_5="13000.00000" pt_clust_6="13000.00000" pt_clust_7="13000.00000" pt_clust_8="13000.00000" pt_clust_9="29.92059"></scales>
<clustering>
<clus scale="   29.921">  1  9  2 -1</clus>
<clus scale="   91.690">  7  8 -1 -1</clus>
<clus scale="   91.692">  5  6 -1 -1</clus>
<clus scale="  100.283">  2  7  1 -1</clus>
<clus scale="   29.921">  1  5  2 -1</clus>
</clustering>
</event>
<event>
 9    1  0.1881049E-005  0.1773974E+03  0.7546771E-02  0.1193799E+00
          2   -1    0    0  502    0 -0.00000000000E+00  0.00000000000E+00  0.74351839781E+03  0.74351839781E+03  0.00000000000E+00 0. -1.
         21   -1    0    0  501  502  0.00000000000E+00 -0.00000000000E+00 -0.68106660798E+02  0.68106660798E+02  0.00000000000E+00 0. -1.
         23    2    1    2    0    0  0.42307915793E+02 -0.17201676241E+02  0.25823755272E+03  0.27873154241E+03  0.94439301655E+02 0.  0.
         23    2    1    2    0    0 -0.10130814690E+03 -0.11821951007E+03  0.20394675350E+03  0.27349833078E+03  0.94698814610E+02 0.  0.
        -11    1    4    4    0    0 -0.69282084203E+01 -0.20438480387E+02 -0.68935518428E+01  0.22655079109E+02  0.00000000000E+00 0.  1.
         11    1    4    4    0    0 -0.94379938476E+02 -0.97781029686E+02  0.21084030534E+03  0.25084325167E+03  0.00000000000E+00 0. -1.
        -13    1    3    3    0    0 -0.64918424316E+01 -0.44024175625E+02  0.15705786450E+03  0.16324045105E+03  0.00000000000E+00 0.  1.
         13    1    3    3    0    0  0.48799758224E+02  0.26822499385E+02  0.10117968822E+03  0.11549109136E+03  0.00000000000E+00 0. -1.
          2    1    1    2  501    0  0.59000231104E+02  0.13542118631E+03  0.21322743080E+03  0.25939518542E+03  0.00000000000E+00 0. -1.
<scales pt_clust_5="13000.00000" pt_clust_6="13000.00000" pt_clust_7="13000.00000" pt_clust_8="13000.00000" pt_clust_9="150.00664"></scales>
<clustering>
<clus scale="   94.439">  7  8 -1 -1</clus>
<clus scale="   94.699">  5  6 -1 -1</clus>
<clus scale="  104.903">  1  7  2 -1</clus>
<clus scale="  150.007">  2  9  1 -1</clus>
<clus scale="  150.007">  2  5  1 -1</clus>
</clustering>
</event>
<event>
 9    1  0.1881049E-005  0.9201287E+02  0.7546771E-02  0.1300915E+00
         -1   -1    0    0    0  501 -0.00000000000E+00  0.00000000000E+00  0.16417217239E+03  0.16417217239E+03  0.00000000000E+00 0.  1.
         21   -1    0    0  501  502  0.00000000000E+00 -0.00000000000E+00 -0.15648318426E+03  0.15648318426E+03  0.00000000000E+00 0.  1.
         23    2    1    2    0    0 -0.52435246832E+02 -0.30130897251E+02  0.69465778865E+02  0.12707246846E+03  0.87547654044E+02 0.  0.
         23    2    1    2    0    0 -0.60335365184E+01 -0.39834437276E+01  0.22130690117E+02  0.85773555425E+02  0.82553400768E+02 0.  0.
        -11    1    4    4    0    0 -0.25766259538E+02 -0.17584856686E+02  0.43591087651E+02  0.53603267044E+02  0.00000000000E+00 0.  1.
         11    1    4    4    0    0  0.19732723020E+02  0.13601412958E+02 -0.21460397533E+02  0.32170288381E+02  0.00000000000E+00 0. -1.
        -13    1    3    3    0    0 -0.58973629125E+02  0.63994185118E+01  0.67568761705E+02  0.89913175051E+02  0.00000000000E+00 0.  1.
         13    1    3    3    0    0  0.65383822934E+01 -0.36530315763E+02  0.18970171596E+01  0.37159293412E+02  0.00000000000E+00 0. -1.
         -1    1    1    2    0  502  0.58468783350E+02  0.34114340979E+02 -0.83907480849E+02  0.10780933276E+03  0.00000000000E+00 0.  1.
<scales pt_clust_5="13000.00000" pt_clust_6="13000.00000" pt_clust_7="13000.00000" pt_clust_8="13000.00000" pt_clust_9="67.69333"></scales>
<clustering>
<clus scale="   67.693">  2  9  1 -1</clus>
<clus scale="   82.553">  5  6 -1 -1</clus>
<clus scale="   87.275">  2  5  1 -1</clus>
<clus scale="   87.548">  7  8 -1 -1</clus>
<clus scale="   67.693">  2  5  1 -1</clus>
</clustering>
</event>
<event>
 9    1  0.1881049E-005  0.1136822E+03  0.7546771E-02  0.1254966E+00
         21   -1    0    0  501  502  0.00000000000E+00  0.00000000000E+00  0.53928002307E+02  0.53928002307E+02  0.00000000000E+00 0.  1.
          1   -1    0    0  502    0 -0.00000000000E+00 -0.00000000000E+00 -0.41208996378E+03  0.41208996378E+03  0.00000000000E+00 0. -1.
         23    2    1    2    0    0 -0.27149241794E+01 -0.59342404699E+02 -0.21729757212E+03  0.24198607389E+03  0.88374958537E+02 0.  0.
         23    2    1    2    0    0  0.39094738851E+02  0.84116796166E+02 -0.10536394394E+03  0.16748507078E+03  0.91354552429E+02 0.  0.
        -13    1    3    3    0    0  0.41331295909E+02 -0.16143798950E+02 -0.10161498758E+03  0.11088058427E+03  0.00000000000E+00 0.  1.
         13    1    3    3    0    0 -0.44046220088E+02 -0.43198605748E+02 -0.11568258454E+03  0.13110548962E+03  0.00000000000E+00 0. -1.
        -13    1    4    4    0    0  0.12126233613E+02  0.97751856915E+02 -0.90685956389E+02  0.13388955806E+03  0.00000000000E+00 0. -1.
         13    1    4    4    0    0  0.26968505238E+02 -0.13635060749E+02 -0.14677987547E+02  0.33595512718E+02  0.00000000000E+00 0.  1.
          1    1    1    2  501    0 -0.36379814672E+02 -0.24774391468E+02 -0.35500445417E+02  0.56546821422E+02  0.00000000000E+00 0. -1.
<scales pt_clust_5="13000.00000" pt_clust_6="13000.00000" pt_clust_7="13000.00000" pt_clust_8="13000.00000" pt_clust_9="44.01433"></scales>
<clustering>
<clus scale="   44.014">  1  9  2 -1</clus>
<clus scale="   88.375">  5  6 -1 -1</clus>
<clus scale="   91.355">  7  8 -1 -1</clus>
<clus scale="  111.302">  2  5  1 -1</clus>
<clus scale="   44.014">  1  5  2 -1</clus>
</clustering>
</event>
<event>
 9    1  0.1881049E-005  0.1323629E+03  0.7546771E-02  0.1224457E+00
         -1   -1    0    0    0  501 -0.00000000000E+00  0.00000000000E+00  0.12125600108E+03  0.12125600108E+03  0.00000000000E+00 0.  1.
         21   -1    0    0  501  502  0.00000000000E+00 -0.00000000000E+00 -0.28766507271E+03  0.28766507271E+03  0.00000000000E+00 0. -1.
         23    2    1    2    0    0  0.27246837038E+02 -0.94683825629E+02  0.47999044260E+02  0.14416305343E+03  0.93657144734E+02 0.  0.
         23    2    1    2    0    0  0.31362928932E+01  0.77905490853E+02 -0.16156634563E+03  0.20153698125E+03  0.91838820395E+02 0.  0.
        -11    1    4    4    0    0 -0.28120728799E+02  0.59303207761E+02 -0.14940267374E+03  0.16318334706E+03  0.00000000000E+00 0. -1.
         11    1    4    4    0    0  0.31257021692E+02  0.18602283092E+02 -0.12163671896E+02  0.38353634186E+02  0.00000000000E+00 0.  1.
        -11    1    3    3    0    0  0.54952850093E+02 -0.62473313284E+02  0.44501147930E+01  0.83321870644E+02  0.00000000000E+00 0.  1.
         11    1    3    3    0    0 -0.27706013055E+02 -0.32210512345E+02  0.43548929467E+02  0.60841182785E+02  0.00000000000E+00 0. -1.
         -1    1    1    2    0  502 -0.30383129931E+02  0.16778334776E+02 -0.52841770254E+02  0.63221039108E+02  0.00000000000E+00 0.  1.
<scales pt_clust_5="13000.00000" pt_clust_6="13000.00000" pt_clust_7="13000.00000" pt_clust_8="13000.00000" pt_clust_9="34.70803"></scales>
<clustering>
<clus scale="   34.708">  2  9  1 -1</clus>
<clus scale="   91.839">  5  6 -1 -1</clus>
<clus scale="   93.657">  7  8 -1 -1</clus>
<clus scale="  131.083">  2  5  1 -1</clus>
<clus scale="   34.708">  2  5  1 -1</clus>
</clustering>
</event>
<event>
 9    1  0.1881049E-005  0.2298065E+03  0.7546771E-02  0.1126819E+00
          1   -1    0    0  502    0 -0.00000000000E+00  0.00000000000E+00  0.66520013676E+03  0.66520013676E+03  0.00000000000E+00 0. -1.
         21   -1    0    0  501  502  0.00000000000E+00 -0.00000000000E+00 -0.20621131042E+03  0.20621131042E+03  0.00000000000E+00 0. -1.
         23    2    1    2    0    0  0.11241588835E+03 -0.15911807467E+03  0.30664978075E+03  0.37474552590E+03  0.91892477957E+02 0.  0.
         23    2    1    2    0    0 -0.21335086239E+02  0.29431894098E+03  0.85699749332E+02  0.32055293887E+03  0.91273844327E+02 0.  0.
        -13    1    3    3    0    0  0.12142220264E+03 -0.12057371210E+03  0.21405757622E+03  0.27404747267E+03  0.00000000000E+00 0.  1.
         13    1    3    3    0    0 -0.90063142831E+01 -0.38544362568E+02  0.92592204530E+02  0.10069805322E+03  0.00000000000E+00 0. -1.
        -13    1    4    4    0    0 -0.36844651834E+01  0.28117824219E+03  0.61508735427E+02  0.28785083585E+03  0.00000000000E+00 0. -1.
         13    1    4    4    0    0 -0.17650621056E+02  0.13140698792E+02  0.24191013905E+02  0.32702103023E+02  0.00000000000E+00 0.  1.
          1    1    1    2  501    0 -0.91080802115E+02 -0.13520086631E+03  0.66639296265E+02  0.17611298241E+03  0.00000000000E+00 0. -1.
<scales pt_clust_5="13000.00000" pt_clust_6="13000.00000" pt_clust_7="13000.00000" pt_clust_8="13000.00000" pt_clust_9="163.01836"></scales>
<clustering>
<clus scale="   91.274">  7  8 -1 -1</clus>
<clus scale="   91.892">  5  6 -1 -1</clus>
<clus scale="  163.018">  2  9  1 -1</clus>
<clus scale="  229.560">  2  7  1 -1</clus>
<clus scale="  163.018">  2  5  1 -1</clus>
</clustering>
</event>
<event>
 9    1  0.1881049E-005  0.1251499E+03  0.7546771E-02  0.1236174E+00
         21   -1    0    0  501  502  0.00000000000E+00  0.00000000000E+00  0.55838861489E+03  0.55838861489E+03  0.00000000000E+00 0.  1.
         -3   -1    0    0    0  501 -0.00000000000E+00 -0.00000000000E+00 -0.77822284256E+02  0.77822284256E+02  0.00000000000E+00 0.  1.
         23    2    1    2    0    0 -0.89429269651E+02  0.29653991222E+02 -0.22407346357E+01  0.12701961178E+03  0.85158718993E+02 0.  0.
         23    2    1    2    0    0  0.44982258449E+02 -0.40320750915E+02  0.25864885498E+03  0.28042017947E+03  0.89928195468E+02 0.  0.
        -13    1    4    4    0    0  0.37207426973E+02  0.10629799404E+01  0.29666963649E+02  0.47598857974E+02  0.00000000000E+00 0. -1.
         13    1    4    4    0    0  0.77748314761E+01 -0.41383730856E+02  0.22898189133E+03  0.23282132149E+03  0.00000000000E+00 0.  1.
        -13    1    3    3    0    0 -0.43854840623E+02  0.56652416335E+02  0.10836579409E+02  0.72458089790E+02  0.00000000000E+00 0. -1.
         13    1    3    3    0    0 -0.45574429028E+02 -0.26998425113E+02 -0.13077314045E+02  0.54561521995E+02  0.00000000000E+00 0.  1.
         -3    1    1    2    0  502  0.44447011202E+02  0.10666759694E+02  0.22415821029E+03  0.22877110790E+03  0.00000000000E+00 0.  1.
<scales pt_clust_5="13000.00000" pt_clust_6="13000.00000" pt_clust_7="13000.00000" pt_clust_8="13000.00000" pt_clust_9="45.70904"></scales>
<clustering>
<clus scale="   45.709">  1  9  2 -1</clus>
<clus scale="   85.159">  7  8 -1 -1</clus>
<clus scale="   89.928">  5  6 -1 -1</clus>
<clus scale="  121.768">  2  7  1 -1</clus>
<clus scale="   45.709">  1  5  2 -1</clus>
</clustering>
</event>
<event>
 9    1  0.1881049E-005  0.9359749E+02  0.7546771E-02  0.1294922E+00
         21   -1    0    0  501  502  0.00000000000E+00  0.00000000000E+00  0.82584765536E+02  0.82584765536E+02  0.00000000000E+00 0.  1.
          1   -1    0    0  502    0 -0.00000000000E+00 -0.00000000000E+00 -0.15781080019E+03  0.15781080019E+03  0.00000000000E+00 0. -1.
         23    2    1    2    0    0  0.11585987145E+02  0.19840252888E+01 -0.82316071536E+02  0.12504342412E+03  0.93390314422E+02 0.  0.
         23    2    1    2    0    0  0.71217348189E+01  0.87119696874E+01  0.98389516091E+01  0.93627968391E+02  0.92427127910E+02 0.  0.
        -11    1    4    4    0    0  0.40947015492E+02  0.12575342712E+02  0.31593820785E+02  0.53225621967E+02  0.00000000000E+00 0.  1.
         11    1    4    4    0    0 -0.33825280673E+02 -0.38633730243E+01 -0.21754869176E+02  0.40402346424E+02  0.00000000000E+00 0. -1.
        -13    1    3    3    0    0 -0.27786107063E+02  0.31530954756E+02 -0.53394066510E+02  0.67949946225E+02  0.00000000000E+00 0.  1.
         13    1    3    3    0    0  0.39372094208E+02 -0.29546929467E+02 -0.28922005026E+02  0.57093477894E+02  0.00000000000E+00 0. -1.
          1    1    1    2  501    0 -0.18707721964E+02 -0.10695994976E+02 -0.27489147248E+01  0.21724173213E+02  0.00000000000E+00 0. -1.
<scales pt_clust_5="13000.00000" pt_clust_6="13000.00000" pt_clust_7="13000.00000" pt_clust_8="13000.00000" pt_clust_9="21.54955"></scales>
<clustering>
<clus scale="   21.550">  1  9  2 -1</clus>
<clus scale="   92.427">  5  6 -1 -1</clus>
<clus scale="   92.636">  1  5  2 -1</clus>
<clus scale="   93.390">  7  8 -1 -1</clus>
<clus scale="   21.550">  1  5  2 -1</clus>
</clustering>
</event>
<event>
 9    1  0.1881049E-005  0.9891501E+02  0.7546771E-02  0.1285329E+00
         -2   -1    0    0    0  501 -0.00000000000E+00  0.00000000000E+00  0.34522111128E+03  0.34522111128E+03  0.00000000000E+00 0.  1.
         21   -1    0    0  501  502  0.00000000000E+00 -0.00000000000E+00 -0.77073563625E+02  0.77073563625E+02  0.00000000000E+00 0. -1.
         23    2    1    2    0    0 -0.12849117852E+01  0.22561188368E+02  0.27089525934E+03  0.28804259120E+03  0.95255627638E+02 0.  0.
         23    2    1    2    0    0  0.14413827034E+02 -0.47832597844E+02  0.91235459410E+01  0.10339856996E+03  0.90068359333E+02 0.  0.
        -11    1    4    4    0    0  0.98250159017E+01  0.26207279443E+02  0.83686594442E+01  0.29212786484E+02  0.00000000000E+00 0.  1.
         11    1    4    4    0    0  0.45888111322E+01 -0.74039877287E+02  0.75488649685E+00  0.74185783476E+02  0.00000000000E+00 0. -1.
        -13    1    3    3    0    0 -0.35256214595E+02  0.35389983020E+02  0.21950393565E+03  0.22511647948E+03  0.00000000000E+00 0.  1.
         13    1    3    3    0    0  0.33971302809E+02 -0.12828794651E+02  0.51391323687E+02  0.62926111727E+02  0.00000000000E+00 0. -1.
         -2    1    1    2    0  502 -0.13128915249E+02  0.25271409475E+02 -0.11871257626E+02  0.30853513740E+02  0.00000000000E+00 0.  1.
<scales pt_clust_5="13000.00000" pt_clust_6="13000.00000" pt_clust_7="13000.00000" pt_clust_8="13000.00000" pt_clust_9="28.47828"></scales>
<clustering>
<clus scale="   28.478">  2  9  1 -1</clus>
<clus scale="   90.068">  5  6 -1 -1</clus>
<clus scale="   93.930">  2  5  1 -1</clus>
<clus scale="   95.256">  7  8 -1 -1</clus>
<clus scale="   28.478">  2  5  1 -1</clus>
</clustering>
</event>
<event>
 9    1  0.1881049E-005  0.9410915E+02  0.7546771E-02  0.1293415E+00
         21   -1    0    0  501  502  0.00000000000E+00  0.00000000000E+00  0.91362970546E+02  0.91362970546E+02  0.00000000000E+00 0. -1.
          1   -1    0    0  502    0 -0.00000000000E+00 -0.00000000000E+00 -0.16370919793E+03  0.16370919793E+03  0.00000000000E+00 0. -1.
         23    2    1    2    0    0 -0.30723239008E+02  0.29570823908E+02 -0.50581543597E+02  0.11174370999E+03  0.90054500873E+02 0.  0.
         23    2    1    2    0    0  0.56646861533E+01  0.35088863107E+01  0.10842124324E+02  0.90551548439E+02  0.89652832149E+02 0.  0.
        -13    1    3    3    0    0  0.66442303391E+01 -0.29111418408E+02 -0.11903574130E+02  0.32145226016E+02  0.00000000000E+00 0.  1.
         13    1    3    3    0    0 -0.37367469347E+02  0.58682242316E+02 -0.38677969467E+02  0.79598483972E+02  0.00000000000E+00 0. -1.
        -13    1    4    4    0    0  0.34378363827E+02  0.33143160129E+02  0.12125119409E+02  0.49268240109E+02  0.00000000000E+00 0. -1.
         13    1    4    4    0    0 -0.28713677674E+02 -0.29634273818E+02 -0.12829950850E+01  0.41283308330E+02  0.00000000000E+00 0.  1.
          1    1    1    2  501    0  0.25058552855E+02 -0.33079710218E+02 -0.32606808111E+02  0.52776910050E+02  0.00000000000E+00 0. -1.
<scales pt_clust_5="13000.00000" pt_clust_6="13000.00000" pt_clust_7="13000.00000" pt_clust_8="13000.00000" pt_clust_9="41.49940"></scales>
<clustering>
<clus scale="   41.499">  1  9  2 -1</clus>
<clus scale="   89.653">  7  8 -1 -1</clus>
<clus scale="   90.055">  5  6 -1 -1</clus>
<clus scale="   93.725">  1  7  2 -1</clus>
<clus scale="   41.499">  1  5  2 -1</clus>
</clustering>
</event>
<event>
 9    1  0.1881049E-005  0.1116395E+03  0.7546771E-02  0.1258186E+00
         21   -1    0    0  501  502  0.00000000000E+00  0.00000000000E+00  0.16583769646E+03  0.16583769646E+03  0.00000000000E+00 0.  1.
         -1   -1    0    0    0  501 -0.00000000000E+00 -0.00000000000E+00 -0.28184216615E+03  0.28184216615E+03  0.00000000000E+00 0.  1.
         23    2    1    2    0    0  0.13902860054E+02 -0.55707753193E+02 -0.16781961038E+03  0.19881924075E+03  0.89827755073E+02 0.  0.
         23    2    1    2    0    0 -0.35997021063E+02  0.73186496646E+02 -0.57921183426E+02  0.13556578856E+03  0.91494102109E+02 0.  0.
        -11    1    4    4    0    0 -0.30119462505E+02  0.93409418730E+02 -0.58936681968E+02  0.11448158809E+03  0.00000000000E+00 0.  1.
         11    1    4    4    0    0 -0.58775585582E+01 -0.20222922084E+02  0.10154985416E+01  0.21084200471E+02  0.00000000000E+00 0. -1.
        -13    1    3    3    0    0  0.35664139300E+02 -0.59054312440E+02 -0.16195227884E+03  0.17603375606E+03  0.00000000000E+00 0. -1.
         13    1    3    3    0    0 -0.21761279246E+02  0.33465592469E+01 -0.58673315329E+01  0.22785484689E+02  0.00000000000E+00 0.  1.
         -1    1    1    2    0  502  0.22094161009E+02 -0.17478743453E+02  0.10973632411E+03  0.11329483330E+03  0.00000000000E+00 0.  1.
<scales pt_clust_5="13000.00000" pt_clust_6="13000.00000" pt_clust_7="13000.00000" pt_clust_8="13000.00000" pt_clust_9="28.17194"></scales>
<clustering>
<clus scale="   28.172">  1  9  2 -1</clus>
<clus scale="   89.828">  7  8 -1 -1</clus>
<clus scale="   91.494">  5  6 -1 -1</clus>
<clus scale="  110.278">  2  7  1 -1</clus>
<clus scale="   28.172">  1  5  2 -1</clus>
</clustering>
</event>
<event>
 9    1  0.1881049E-005  0.1194077E+03  0.7546771E-02  0.1244094E+00
         21   -1    0    0  501  502  0.00000000000E+00  0.00000000000E+00  0.21303701477E+03  0.21303701477E+03  0.00000000000E+00 0.  1.
         -3   -1    0    0    0  501 -0.00000000000E+00 -0.00000000000E+00 -0.13348170279E+03  0.13348170279E+03  0.00000000000E+00 0.  1.
         23    2    1    2    0    0  0.81847062295E+02  0.26865423548E+01 -0.31867344470E+02  0.12671879910E+03  0.91301518527E+02 0.  0.
         23    2    1    2    0    0 -0.64298996576E+02 -0.40282656649E+02  0.21386032877E+02  0.12066366875E+03  0.91352641821E+02 0.  0.
        -11    1    3    3    0    0  0.36059269928E+02 -0.20014749697E+02 -0.56528159015E+02  0.69973522955E+02  0.00000000000E+00 0.  1.
         11    1    3    3    0    0  0.45787792367E+02  0.22701292051E+02  0.24660814545E+02  0.56745276144E+02  0.00000000000E+00 0. -1.
        -13    1    4    4    0    0 -0.38182501907E+02 -0.47437950814E+02  0.51796288932E+02  0.79944469330E+02  0.00000000000E+00 0.  1.
         13    1    4    4    0    0 -0.26116494669E+02  0.71552941650E+01 -0.30410256056E+02  0.40719199424E+02  0.00000000000E+00 0. -1.
         -3    1    1    2    0  502 -0.17548065719E+02  0.37596114295E+02  0.90036623574E+02  0.99136249703E+02  0.00000000000E+00 0.  1.
<scales pt_clust_5="13000.00000" pt_clust_6="13000.00000" pt_clust_7="13000.00000" pt_clust_8="13000.00000" pt_clust_9="41.48979"></scales>
<clustering>
<clus scale="   41.490">  1  9  2 -1</clus>
<clus scale="   91.302">  5  6 -1 -1</clus>
<clus scale="   91.353">  7  8 -1 -1</clus>
<clus scale="  119.369">  2  5  1 -1</clus>
<clus scale="   41.490">  1  5  2 -1</clus>
</clustering>
</event>
<event>
 9    1  0.1881049E-005  0.1875724E+03  0.7546771E-02  0.1187357E+00
         21   -1    0    0  501  502  0.00000000000E+00  0.00000000000E+00  0.10690308713E+03  0.10690308713E+03  0.00000000000E+00 0. -1.
          2   -1    0    0  502    0 -0.00000000000E+00 -0.00000000000E+00 -0.69169317698E+03  0.69169317698E+03  0.00000000000E+00 0. -1.
         23    2    1    2    0    0 -0.34018560706E+02  0.22591061720E+02 -0.93964880329E+02  0.13890504401E+03  0.93795490156E+02 0.  0.
         23    2    1    2    0    0  0.13041814461E+03  0.12703003257E+03 -0.43158687824E+03  0.47210515578E+03  0.58911145180E+02 0.  0.
        -11    1    3    3    0    0  0.23841936278E+02  0.34393581037E+02 -0.27908311022E+02  0.50301393283E+02  0.00000000000E+00 0.  1.
         11    1    3    3    0    0 -0.57860496984E+02 -0.11802519317E+02 -0.66056569306E+02  0.88603650726E+02  0.00000000000E+00 0. -1.
        -13    1    4    4    0    0  0.28066936878E+02  0.10134260507E+02 -0.33999708397E+02  0.45237554673E+02  0.00000000000E+00 0.  1.
         13    1    4    4    0    0  0.10235120773E+03  0.11689577207E+03 -0.39758716984E+03  0.42686760111E+03  0.00000000000E+00 0. -1.
          2    1    1    2  501    0 -0.96399583906E+02 -0.14962109430E+03 -0.59238331284E+02  0.18758606432E+03  0.00000000000E+00 0. -1.
<scales pt_clust_5="13000.00000" pt_clust_6="13000.00000" pt_clust_7="13000.00000" pt_clust_8="13000.00000" pt_clust_9="178.08112"></scales>
<clustering>
<clus scale="   58.911">  7  8 -1 -1</clus>
<clus scale="   93.795">  5  6 -1 -1</clus>
<clus scale="  102.300">  2  5  1 -1</clus>
<clus scale="  178.081">  1  9  2 -1</clus>
<clus scale="  178.081">  1  5  2 -1</clus>
</clustering>
</event>
<event>
 9    1  0.1881049E-005  0.1029934E+03  0.7546771E-02  0.1276360E+00
         21   -1    0    0  501  502  0.00000000000E+00  0.00000000000E+00  0.21727788069E+03  0.21727788069E+03  0.00000000000E+00 0.  1.
          1   -1    0    0  502    0 -0.00000000000E+00 -0.00000000000E+00 -0.10285621687E+03  0.10285621687E+03  0.00000000000E+00 0. -1.
         23    2    1    2    0    0 -0.37862480956E+02  0.21793903918E+02 -0.44733184648E+02  0.10936364197E+03  0.89726287478E+02 0.  0.
         23    2    1    2    0    0  0.16539179063E+02 -0.33475067249E+02  0.84077090564E+02  0.13185402820E+03  0.94458472477E+02 0.  0.
        -11    1    3    3    0    0 -0.24054880910E+02 -0.21159826600E+02 -0.54482606137E+02  0.63203875900E+02  0.00000000000E+00 0.  1.
         11    1    3    3    0    0 -0.13807600046E+02  0.42953730519E+02  0.97494214890E+01  0.46159766073E+02  0.00000000000E+00 0. -1.
        -11    1    4    4    0    0 -0.18204270540E+02 -0.37539934181E+02  0.10224472889E+01  0.41733529957E+02  0.00000000000E+00 0. -1.
         11    1    4    4    0    0  0.34743449603E+02  0.40648669322E+01  0.83054643275E+02  0.90120498240E+02  0.00000000000E+00 0.  1.
          1    1    1    2  501    0  0.21323301893E+02  0.11681163331E+02  0.75077757907E+02  0.78916427395E+02  0.00000000000E+00 0. -1.
<scales pt_clust_5="13000.00000" pt_clust_6="13000.00000" pt_clust_7="13000.00000" pt_clust_8="13000.00000" pt_clust_9="24.31322"></scales>
<clustering>
<clus scale="   24.313">  1  9  2 -1</clus>
<clus scale="   89.726">  5  6 -1 -1</clus>
<clus scale="   94.458">  7  8 -1 -1</clus>
<clus scale="   98.671">  2  5  1 -1</clus>
<clus scale="   24.313">  1  5  2 -1</clus>
</clustering>
</event>
<event>
 9    1  0.1881049E-005  0.3132250E+03  0.7546771E-02  0.1078857E+00
          1   -1    0    0  502    0 -0.00000000000E+00  0.00000000000E+00  0.69423586291E+03  0.69423586291E+03  0.00000000000E+00 0. -1.
         21   -1    0    0  501  502  0.00000000000E+00 -0.00000000000E+00 -0.11152578480E+04  0.11152578480E+04  0.00000000000E+00 0. -1.
         23    2    1    2    0    0 -0.11870695332E+03  0.26745233533E+03  0.44902083411E+03  0.54396477443E+03  0.93036949176E+02 0.  0.
         23    2    1    2    0    0  0.32853035613E+03 -0.19653001716E+03 -0.27785719288E+02  0.39463694666E+03  0.91706220749E+02 0.  0.
        -11    1    4    4    0    0  0.28652229670E+03 -0.13337124036E+03 -0.75577323215E+01  0.31613293656E+03  0.00000000000E+00 0.  1.
         11    1    4    4    0    0  0.42008059431E+02 -0.63158776799E+02 -0.20227986966E+02  0.78504010092E+02  0.00000000000E+00 0. -1.
        -13    1    3    3    0    0  0.13545982553E+02  0.43273259371E+02  0.86737765402E+02  0.97874963943E+02  0.00000000000E+00 0.  1.
         13    1    3    3    0    0 -0.13225293587E+03  0.22417907596E+03  0.36228306871E+03  0.44608981048E+03  0.00000000000E+00 0. -1.
          1    1    1    2  501    0 -0.20982340281E+03 -0.70922318166E+02 -0.84225709991E+03  0.87089198982E+03  0.00000000000E+00 0. -1.
<scales pt_clust_5="13000.00000" pt_clust_6="13000.00000" pt_clust_7="13000.00000" pt_clust_8="13000.00000" pt_clust_9="221.48552"></scales>
<clustering>
<clus scale="   91.706">  5  6 -1 -1</clus>
<clus scale="   93.037">  7  8 -1 -1</clus>
<clus scale="  221.486">  2  9  1 -1</clus>
<clus scale="  312.832">  2  5  1 -1</clus>
<clus scale="  221.486">  2  5  1 -1</clus>
</clustering>
</event>
<event>
 9    1  0.1881049E-005  0.1960408E+03  0.7546771E-02  0.1153579E+00
         21   -1    0    0  501  502  0.00000000000E+00  0.00000000000E+00  0.69332996402E+03  0.69332996402E+03  0.00000000000E+00 0.  1.
          1   -1    0    0  502    0 -0.00000000000E+00 -0.00000000000E+00 -0.17297977461E+03  0.17297977461E+03  0.00000000000E+00 0. -1.
         23    2    1    2    0    0  0.15302281258E+03 -0.76454091006E+01  0.76238017753E+01  0.17786724956E+03  0.90023345088E+02 0.  0.
         23    2    1    2    0    0 -0.25003421707E+03  0.12615613779E+03  0.40422381931E+03  0.50074908816E+03  0.94447193592E+02 0.  0.
        -11    1    4    4    0    0 -0.38008143958E+02  0.26764305986E+02  0.19597982279E+02  0.50448270450E+02  0.00000000000E+00 0. -1.
         11    1    4    4    0    0 -0.21202607311E+03  0.99391831808E+02  0.38462583704E+03  0.45030081771E+03  0.00000000000E+00 0.  1.
        -13    1    3    3    0    0  0.12768304820E+03  0.25234867001E+02  0.25572787759E+02  0.13264134644E+03  0.00000000000E+00 0.  1.
         13    1    3    3    0    0  0.25339764382E+02 -0.32880276101E+02 -0.17948985983E+02  0.45225903123E+02  0.00000000000E+00 0. -1.
          1    1    1    2  501    0  0.97011404490E+02 -0.11851072869E+03  0.10850256832E+03  0.18769340092E+03  0.00000000000E+00 0. -1.
<scales pt_clust_5="13000.00000" pt_clust_6="13000.00000" pt_clust_7="13000.00000" pt_clust_8="13000.00000" pt_clust_9="153.15361"></scales>
<clustering>
<clus scale="   90.023">  7  8 -1 -1</clus>
<clus scale="   94.447">  5  6 -1 -1</clus>
<clus scale="  153.154">  1  9  2 -1</clus>
<clus scale="  193.948">  2  7  1 -1</clus>
<clus scale="  153.154">  1  5  2 -1</clus>
</clustering>
</event>
<event>
 9    1  0.1881049E-005  0.9570593E+02  0.7546771E-02  0.1290929E+00
         21   -1    0    0  501  502  0.00000000000E+00  0.00000000000E+00  0.10952415370E+03  0.10952415370E+03  0.00000000000E+00 0.  1.
         -3   -1    0    0    0  501 -0.00000000000E+00 -0.00000000000E+00 -0.13549232775E+03  0.13549232775E+03  0.00000000000E+00 0.  1.
         23    2    1    2    0    0  0.12805230295E+02 -0.23198546169E+02 -0.38454626761E+02  0.10455263040E+03  0.93543293383E+02 0.  0.
         23    2    1    2    0    0  0.73136716261E+01  0.16584828910E+02 -0.26048984008E+02  0.96492367631E+02  0.91124536216E+02 0.  0.
        -11    1    4    4    0    0 -0.22811062986E+02  0.42710118531E+02  0.78944132311E+00  0.48426460093E+02  0.00000000000E+00 0.  1.
         11    1    4    4    0    0  0.30124734612E+02 -0.26125289621E+02 -0.26838425331E+02  0.48065907538E+02  0.00000000000E+00 0. -1.
        -13    1    3    3    0    0 -0.29294203535E+02 -0.33065132097E+02  0.34874417342E+01  0.44312702143E+02  0.00000000000E+00 0. -1.
         13    1    3    3    0    0  0.42099433830E+02  0.98665859286E+01 -0.41942068495E+02  0.60239928257E+02  0.00000000000E+00 0.  1.
         -3    1    1    2    0  502 -0.20118901921E+02  0.66137172586E+01  0.38535436727E+02  0.43971483421E+02  0.00000000000E+00 0.  1.
<scales pt_clust_5="13000.00000" pt_clust_6="13000.00000" pt_clust_7="13000.00000" pt_clust_8="13000.00000" pt_clust_9="21.17809"></scales>
<clustering>
<clus scale="   21.178">  1  9  2 -1</clus>
<clus scale="   91.125">  5  6 -1 -1</clus>
<clus scale="   93.343">  1  5  2 -1</clus>
<clus scale="   93.543">  7  8 -1 -1</clus>
<clus scale="   21.178">  1  5  2 -1</clus>
</clustering>
</event>
<event>
 9    1  0.1881049E-005  0.9663207E+02  0.7546771E-02  0.1287834E+00
         21   -1    0    0  501  502  0.00000000000E+00  0.00000000000E+00  0.17484647930E+03  0.17484647930E+03  0.00000000000E+00 0.  1.
          2   -1    0    0  502    0 -0.00000000000E+00 -0.00000000000E+00 -0.11850647720E+03  0.11850647720E+03  0.00000000000E+00 0. -1.
         23    2    1    2    0    0  0.24125838041E+01 -0.30569497764E+02 -0.65808415368E+02  0.11647136889E+03  0.91074241600E+02 0.  0.
         23    2    1    2    0    0  0.23166016419E+02  0.30578109027E+02  0.79856706313E+02  0.12745635423E+03  0.91631564549E+02 0.  0.
        -11    1    4    4    0    0  0.53656889857E+02  0.38649993348E+02  0.64501471290E+02  0.92375990461E+02  0.00000000000E+00 0. -1.
         11    1    4    4    0    0 -0.30490873438E+02 -0.80718843208E+01  0.15355235023E+02  0.35080363768E+02  0.00000000000E+00 0.  1.
        -13    1    3    3    0    0 -0.14342794367E+02 -0.43996172992E+02  0.10118949134E+01  0.46286098555E+02  0.00000000000E+00 0.  1.
         13    1    3    3    0    0  0.16755378171E+02  0.13426675228E+02 -0.66820310282E+02  0.70185270331E+02  0.00000000000E+00 0. -1.
          2    1    1    2  501    0 -0.25578600223E+02 -0.86112638444E-02  0.42291711153E+02  0.49425233392E+02  0.00000000000E+00 0. -1.
<scales pt_clust_5="13000.00000" pt_clust_6="13000.00000" pt_clust_7="13000.00000" pt_clust_8="13000.00000" pt_clust_9="25.57860"></scales>
<clustering>
<clus scale="   25.579">  1  9  2 -1</clus>
<clus scale="   91.074">  7  8 -1 -1</clus>
<clus scale="   91.632">  5  6 -1 -1</clus>
<clus scale="   96.104">  2  7  1 -1</clus>
<clus scale="   25.579">  1  5  2 -1</clus>
</clustering>
</event>
<event>
 9    1  0.1881049E-005  0.2811076E+03  0.7546771E-02  0.1095319E+00
          1   -1    0    0  502    0 -0.00000000000E+00  0.00000000000E+00  0.15532593982E+03  0.15532593982E+03  0.00000000000E+00 0. -1.
         21   -1    0    0  501  502  0.00000000000E+00 -0.00000000000E+00 -0.95604192693E+03  0.95604192693E+03  0.00000000000E+00 0.  1.
         23    2    1    2    0    0  0.27851717339E+03 -0.36390370001E+02 -0.10058396046E+03  0.31234899476E+03  0.92459107322E+02 0.  0.
         23    2    1    2    0    0 -0.21685136596E+03  0.10217691288E+03 -0.33724298078E+03  0.42509508211E+03  0.97510841975E+02 0.  0.
        -11    1    4    4    0    0 -0.86965667498E+02  0.72099324718E+02 -0.22106207592E+03  0.24825346193E+03  0.00000000000E+00 0. -1.
         11    1    4    4    0    0 -0.12988569846E+03  0.30077588165E+02 -0.11618090486E+03  0.17684162018E+03  0.00000000000E+00 0.  1.
        -11    1    3    3    0    0  0.14877485232E+03 -0.76869955518E+01 -0.10007956874E+03  0.17946856734E+03  0.00000000000E+00 0.  1.
         11    1    3    3    0    0  0.12974232106E+03 -0.28703374449E+02 -0.50439171468E+00  0.13288042742E+03  0.00000000000E+00 0. -1.
          1    1    1    2  501    0 -0.61665807432E+02 -0.65786542882E+02 -0.36288904587E+03  0.37392378989E+03  0.00000000000E+00 0. -1.
<scales pt_clust_5="13000.00000" pt_clust_6="13000.00000" pt_clust_7="13000.00000" pt_clust_8="13000.00000" pt_clust_9="90.16951"></scales>
<clustering>
<clus scale="   90.170">  2  9  1 -1</clus>
<clus scale="   92.459">  7  8 -1 -1</clus>
<clus scale="   97.511">  5  6 -1 -1</clus>
<clus scale="  279.395">  1  7  2 -1</clus>
<clus scale="   90.170">  2  5  1 -1</clus>
</clustering>
</event>
<event>
 9    1  0.1881049E-005  0.3311816E+03  0.7546771E-02  0.1070637E+00
         21   -1    0    0  501  502  0.00000000000E+00  0.00000000000E+00  0.95272561323E+03  0.95272561323E+03  0.00000000000E+00 0. -1.
          1   -1    0    0  502    0 -0.00000000000E+00 -0.00000000000E+00 -0.30239003042E+03  0.30239003042E+03  0.00000000000E+00 0. -1.
         23    2    1    2    0    0 -0.14671683284E+03 -0.29737088820E+03 -0.15404986019E+03  0.37671603866E+03  0.90710198864E+02 0.  0.
         23    2    1    2    0    0  0.11689669566E+03  0.20886845461E+03  0.63916931498E+03  0.68861475234E+03  0.91443945357E+02 0.  0.
        -11    1    4    4    0    0  0.24262405686E+02  0.10393376268E+03  0.18743223624E+03  0.21568897640E+03  0.00000000000E+00 0.  1.
         11    1    4    4    0    0  0.92634289970E+02  0.10493469193E+03  0.45173707874E+03  0.47292577595E+03  0.00000000000E+00 0. -1.
        -11    1    3    3    0    0 -0.95235009328E+02 -0.10963881191E+03 -0.38111369077E+02  0.15014277382E+03  0.00000000000E+00 0.  1.
         11    1    3    3    0    0 -0.51481823510E+02 -0.18773207629E+03 -0.11593849111E+03  0.22657326484E+03  0.00000000000E+00 0. -1.
          1    1    1    2  501    0  0.29820137183E+02  0.88502433587E+02  0.16521612802E+03  0.18978485264E+03  0.00000000000E+00 0. -1.
<scales pt_clust_5="13000.00000" pt_clust_6="13000.00000" pt_clust_7="13000.00000" pt_clust_8="13000.00000" pt_clust_9="93.39123"></scales>
<clustering>
<clus scale="   90.710">  7  8 -1 -1</clus>
<clus scale="   91.444">  5  6 -1 -1</clus>
<clus scale="   93.391">  1  9  2 -1</clus>
<clus scale="  330.980">  2  7  1 -1</clus>
<clus scale="   93.391">  1  5  2 -1</clus>
</clustering>
</event>
<event>
 9    1  0.1881049E-005  0.9708990E+02  0.7546771E-02  0.1287470E+00
         21   -1    0    0  501  502  0.00000000000E+00  0.00000000000E+00  0.30183171513E+03  0.30183171513E+03  0.00000000000E+00 0.  1.
         -1   -1    0    0    0  501 -0.00000000000E+00 -0.00000000000E+00 -0.95477604617E+02  0.95477604617E+02  0.00000000000E+00 0.  1.
         23    2    1    2    0    0 -0.15389824807E+02 -0.11939090694E+02  0.51160278775E+01  0.92998287988E+02  0.90791625348E+02 0.  0.
         23    2    1    2    0    0  0.47910472979E+02  0.17612469649E+02  0.22566320932E+01  0.10260977384E+03  0.88983486057E+02 0.  0.
        -11    1    4    4    0    0  0.16497562068E+02 -0.36006546277E+02 -0.54934317283E+01  0.39985231287E+02  0.00000000000E+00 0. -1.
         11    1    4    4    0    0  0.31412910910E+02  0.53619015926E+02  0.77500638214E+01  0.62624542553E+02  0.00000000000E+00 0.  1.
        -13    1    3    3    0    0  0.36435076788E+02 -0.13422419569E+02 -0.77154208353E+01  0.39587926016E+02  0.00000000000E+00 0.  1.
         13    1    3    3    0    0 -0.51824901595E+02  0.14833288753E+01  0.12831448713E+02  0.53410361972E+02  0.00000000000E+00 0. -1.
         -1    1    1    2    0  502 -0.32520648171E+02 -0.56733789552E+01  0.19898145054E+03  0.20170125792E+03  0.00000000000E+00 0.  1.
<scales pt_clust_5="13000.00000" pt_clust_6="13000.00000" pt_clust_7="13000.00000" pt_clust_8="13000.00000" pt_clust_9="33.01181"></scales>
<clustering>
<clus scale="   33.012">  1  9  2 -1</clus>
<clus scale="   88.983">  5  6 -1 -1</clus>
<clus scale="   90.792">  7  8 -1 -1</clus>
<clus scale="   95.401">  1  5  2 -1</clus>
<clus scale="   33.012">  1  5  2 -1</clus>
</clustering>
</event>
<event>
 9    1  0.1881049E-005  0.9860367E+02  0.7546771E-02  0.1285650E+00
         21   -1    0    0  501  502  0.00000000000E+00  0.00000000000E+00  0.13329653624E+03  0.13329653624E+03  0.00000000000E+00 0. -1.
         -3   -1    0    0    0  501 -0.00000000000E+00 -0.00000000000E+00 -0.12255494280E+03  0.12255494280E+03  0.00000000000E+00 0.  1.
         23    2    1    2    0    0  0.32645887394E+01 -0.21714463844E+02 -0.51275433246E+02  0.10705072321E+03  0.91370191015E+02 0.  0.
         23    2    1    2    0    0 -0.32827056253E+02  0.15704841586E+02  0.35103545868E+02  0.10837316011E+03  0.95855230577E+02 0.  0.
        -11    1    3    3    0    0 -0.68264345013E+00 -0.53155760177E+02 -0.85291652432E+01  0.53840017662E+02  0.00000000000E+00 0. -1.
         11    1    3    3    0    0  0.39472321896E+01  0.31441296333E+02 -0.42746268002E+02  0.53210705551E+02  0.00000000000E+00 0.  1.
        -13    1    4    4    0    0 -0.11583010410E+02  0.54703570357E+02  0.83740409985E+01  0.56539997370E+02  0.00000000000E+00 0.  1.
         13    1    4    4    0    0 -0.21244045843E+02 -0.38998728770E+02  0.26729504870E+02  0.51833162744E+02  0.00000000000E+00 0. -1.
         -3    1    1    2    0  502  0.29562467513E+02  0.60096222577E+01  0.26913480816E+02  0.40427595708E+02  0.00000000000E+00 0.  1.
<scales pt_clust_5="13000.00000" pt_clust_6="13000.00000" pt_clust_7="13000.00000" pt_clust_8="13000.00000" pt_clust_9="30.16712"></scales>
<clustering>
<clus scale="   30.167">  1  9  2 -1</clus>
<clus scale="   91.370">  5  6 -1 -1</clus>
<clus scale="   94.250">  2  5  1 -1</clus>
<clus scale="   95.855">  7  8 -1 -1</clus>
<clus scale="   30.167">  1  5  2 -1</clus>
</clustering>
</event>
<event>
 9    1  0.1881049E-005  0.9462537E+02  0.7546771E-02  0.1293803E+00
         -1   -1    0    0    0  501 -0.00000000000E+00  0.00000000000E+00  0.23061589114E+03  0.23061589114E+03  0.00000000000E+00 0.  1.
         21   -1    0    0  501  502  0.00000000000E+00 -0.00000000000E+00 -0.16116125709E+03  0.16116125709E+03  0.00000000000E+00 0.  1.
         23    2    1    2    0    0 -0.18658945654E+02  0.13022260812E+02  0.16615395786E+03  0.19090500630E+03  0.91213201823E+02 0.  0.
         23    2    1    2    0    0  0.11111441945E+02 -0.39226167855E+02  0.34762249129E+01  0.97051382359E+02  0.88004149285E+02 0.  0.
        -11    1    4    4    0    0  0.45815438508E+02 -0.11130789285E+02 -0.13875181535E+02  0.49147426570E+02  0.00000000000E+00 0. -1.
         11    1    4    4    0    0 -0.34703996564E+02 -0.28095378571E+02  0.17351406448E+02  0.47903955789E+02  0.00000000000E+00 0.  1.
        -11    1    3    3    0    0  0.36173414262E+02  0.69125378277E+01  0.47963107912E+02  0.60471140218E+02  0.00000000000E+00 0. -1.
         11    1    3    3    0    0 -0.54832359916E+02  0.61097229846E+01  0.11819084995E+03  0.13043386608E+03  0.00000000000E+00 0.  1.
         -1    1    1    2    0  502  0.75475037090E+01  0.26203907043E+02 -0.10017554873E+03  0.10382075958E+03  0.00000000000E+00 0.  1.
<scales pt_clust_5="13000.00000" pt_clust_6="13000.00000" pt_clust_7="13000.00000" pt_clust_8="13000.00000" pt_clust_9="27.26921"></scales>
<clustering>
<clus scale="   27.269">  2  9  1 -1</clus>
<clus scale="   88.004">  5  6 -1 -1</clus>
<clus scale="   91.213">  7  8 -1 -1</clus>
<clus scale="   91.536">  2  5  1 -1</clus>
<clus scale="   27.269">  2  5  1 -1</clus>
</clustering>
</event>
<event>
 9    1  0.1881049E-005  0.1625225E+03  0.7546771E-02  0.1205619E+00
         21   -1    0    0  501  502  0.00000000000E+00  0.00000000000E+00  0.61852889095E+03  0.61852889095E+03  0.00000000000E+00 0. -1.
          1   -1    0    0  502    0 -0.00000000000E+00 -0.00000000000E+00 -0.26954108213E+03  0.26954108213E+03  0.00000000000E+00 0. -1.
         23    2    1    2    0    0 -0.54263074092E+02  0.26560308507E+01  0.14015460570E+03  0.17543622374E+03  0.90460043070E+02 0.  0.
         23    2    1    2    0    0  0.48652598655E+02  0.13068463998E+03 -0.21250907399E+03  0.27066030398E+03  0.93012596678E+02 0.  0.
        -11    1    4    4    0    0  0.19221940686E+02  0.13381930444E+03 -0.19129646312E+03  0.23424650701E+03  0.00000000000E+00 0. -1.
         11    1    4    4    0    0  0.29430657969E+02 -0.31346644643E+01 -0.21212610871E+02  0.36413796969E+02  0.00000000000E+00 0.  1.
        -13    1    3    3    0    0 -0.49770984794E+02 -0.26072484465E+02  0.34681303251E+02  0.66028161937E+02  0.00000000000E+00 0.  1.
         13    1    3    3    0    0 -0.44920892977E+01  0.28728515316E+02  0.10547330245E+03  0.10940806181E+03  0.00000000000E+00 0. -1.
          1    1    1    2  501    0  0.56104754370E+01 -0.13334067083E+03  0.42134227710E+03  0.44197344536E+03  0.00000000000E+00 0. -1.
<scales pt_clust_5="13000.00000" pt_clust_6="13000.00000" pt_clust_7="13000.00000" pt_clust_8="13000.00000" pt_clust_9="133.27498"></scales>
<clustering>
<clus scale="   90.460">  7  8 -1 -1</clus>
<clus scale="   93.013">  5  6 -1 -1</clus>
<clus scale="  105.520">  2  7  1 -1</clus>
<clus scale="  133.275">  1  9  2 -1</clus>
<clus scale="  133.275">  1  5  2 -1</clus>
</clustering>
</event>
<event>
 9    1  0.1881049E-005  0.1121700E+03  0.7546771E-02  0.1260063E+00
         21   -1    0    0  501  502  0.00000000000E+00  0.00000000000E+00  0.23839402244E+03  0.23839402244E+03  0.00000000000E+00 0. -1.
          1   -1    0    0  502    0 -0.00000000000E+00 -0.00000000000E+00 -0.75624702781E+02  0.75624702781E+02  0.00000000000E+00 0. -1.
         23    2    1    2    0    0  0.58818222179E+02  0.31506929103E+02  0.42796448284E+02  0.12140506362E+03  0.91953160056E+02 0.  0.
         23    2    1    2    0    0 -0.34208643581E+02  0.39970062711E+01  0.72676608773E+02  0.12855823840E+03  0.10029518355E+03 0.  0.
        -11    1    3    3    0    0  0.10032326004E+00  0.48895692074E+02  0.43291713666E+01  0.49087070527E+02  0.00000000000E+00 0.  1.
         11    1    3    3    0    0  0.58717898919E+02 -0.17388762972E+02  0.38467276918E+02  0.72317993090E+02  0.00000000000E+00 0. -1.
        -13    1    4    4    0    0 -0.23335891681E+02  0.37676506263E+02 -0.36072363851E+01  0.44464537770E+02  0.00000000000E+00 0.  1.
         13    1    4    4    0    0 -0.10872751899E+02 -0.33679499992E+02  0.76283845158E+02  0.84093700630E+02  0.00000000000E+00 0. -1.
          1    1    1    2  501    0 -0.24609578598E+02 -0.35503935374E+02  0.47296262599E+02  0.64055423202E+02  0.00000000000E+00 0. -1.
<scales pt_clust_5="13000.00000" pt_clust_6="13000.00000" pt_clust_7="13000.00000" pt_clust_8="13000.00000" pt_clust_9="43.19908"></scales>
<clustering>
<clus scale="   43.199">  1  9  2 -1</clus>
<clus scale="   91.953">  5  6 -1 -1</clus>
<clus scale="  100.295">  7  8 -1 -1</clus>
<clus scale="  104.778">  2  5  1 -1</clus>
<clus scale="   43.199">  1  5  2 -1</clus>
</clustering>
</event>
<event>
 9    1  0.1881049E-005  0.1180052E+03  0.7546771E-02  0.1247606E+00
          1   -1    0    0  502    0 -0.00000000000E+00  0.00000000000E+00  0.17469591652E+03  0.17469591652E+03  0.00000000000E+00 0. -1.
         21   -1    0    0  501  502  0.00000000000E+00 -0.00000000000E+00 -0.19877853705E+03  0.19877853705E+03  0.00000000000E+00 0. -1.
         23    2    1    2    0    0  0.12211712632E+02 -0.68690556302E+02  0.10894109411E+03  0.16023440639E+03  0.94548318615E+02 0.  0.
         23    2    1    2    0    0  0.24430639958E+02  0.77685670662E+02 -0.72934247728E+02  0.14228711827E+03  0.91073047276E+02 0.  0.
        -13    1    3    3    0    0 -0.27981713628E+02  0.76746517955E+01  0.14966707382E+02  0.32647800961E+02  0.00000000000E+00 0.  1.
         13    1    3    3    0    0  0.40193426260E+02 -0.76365208098E+02  0.93974386731E+02  0.12758660542E+03  0.00000000000E+00 0. -1.
        -13    1    4    4    0    0  0.18871093770E+01  0.93145494465E+02 -0.45962865743E+02  0.10388565516E+03  0.00000000000E+00 0. -1.
         13    1    4    4    0    0  0.22543530581E+02 -0.15459823802E+02 -0.26971381985E+02  0.38401463114E+02  0.00000000000E+00 0.  1.
          1    1    1    2  501    0 -0.36642352590E+02 -0.89951143602E+01 -0.60089466924E+02  0.70952928910E+02  0.00000000000E+00 0. -1.
<scales pt_clust_5="13000.00000" pt_clust_6="13000.00000" pt_clust_7="13000.00000" pt_clust_8="13000.00000" pt_clust_9="37.73028"></scales>
<clustering>
<clus scale="   37.730">  2  9  1 -1</clus>
<clus scale="   91.073">  7  8 -1 -1</clus>
<clus scale="   94.548">  5  6 -1 -1</clus>
<clus scale="  115.240">  2  7  1 -1</clus>
<clus scale="   37.730">  2  5  1 -1</clus>
</clustering>
</event>
<event>
 9    1  0.1881049E-005  0.2628063E+03  0.7546771E-02  0.1106066E+00
         21   -1    0    0  501  502  0.00000000000E+00  0.00000000000E+00  0.34134933662E+03  0.34134933662E+03  0.00000000000E+00 0.  1.
          4   -1    0    0  502    0 -0.00000000000E+00 -0.00000000000E+00 -0.61901862070E+03  0.61901862070E+03  0.00000000000E+00 0. -1.
         23    2    1    2    0    0  0.54401199160E+02 -0.22788885398E+03 -0.43305512704E+03  0.49992116785E+03  0.86554091583E+02 0.  0.
         23    2    1    2    0    0 -0.14085569255E+03  0.28195063834E+03  0.10244013351E+03  0.34555421309E+03  0.97863397876E+02 0.  0.
        -13    1    3    3    0    0  0.13213482002E+02 -0.18980363989E+03 -0.29653815204E+03  0.35232782098E+03  0.00000000000E+00 0. -1.
         13    1    3    3    0    0  0.41187717157E+02 -0.38085214094E+02 -0.13651697500E+03  0.14759334687E+03  0.00000000000E+00 0.  1.
        -13    1    4    4    0    0  0.15263979070E+02  0.28045640479E+02  0.85831290210E+01  0.33063833878E+02  0.00000000000E+00 0. -1.
         13    1    4    4    0    0 -0.15611967162E+03  0.25390499786E+03  0.93857004490E+02  0.31249037921E+03  0.00000000000E+00 0.  1.
          4    1    1    2  501    0  0.86454493393E+02 -0.54061784361E+02  0.52945709451E+02  0.11489257637E+03  0.00000000000E+00 0. -1.
<scales pt_clust_5="13000.00000" pt_clust_6="13000.00000" pt_clust_7="13000.00000" pt_clust_8="13000.00000" pt_clust_9="101.96595"></scales>
<clustering>
<clus scale="   86.554">  5  6 -1 -1</clus>
<clus scale="   97.863">  7  8 -1 -1</clus>
<clus scale="  101.966">  1  9  2 -1</clus>
<clus scale="  258.808">  2  5  1 -1</clus>
<clus scale="  101.966">  1  5  2 -1</clus>
</clustering>
</event>
<event>
 9    1  0.5255244E-005  0.1102966E+03  0.7546771E-02  0.1261600E+00
         21   -1    0    0  501  502  0.00000000000E+00  0.00000000000E+00  0.33853870304E+03  0.33853870304E+03  0.00000000000E+00 0. -1.
          2   -1    0    0  502    0 -0.00000000000E+00 -0.00000000000E+00 -0.55185876407E+03  0.55185876407E+03  0.00000000000E+00 0. -1.
         23    2    1    2    0    0 -0.60157215503E+02  0.35508003032E+02 -0.49093257336E+03  0.50355840113E+03  0.87615996855E+02 0.  0.
         23    2    1    2    0    0 -0.43261640096E+02 -0.26765733807E+02  0.16881890607E+02  0.10621058548E+03  0.91693599710E+02 0.  0.
        -13    1    4    4    0    0 -0.65649732475E+02 -0.24573407543E+02 -0.10383827820E+02  0.70862991840E+02  0.00000000000E+00 0. -1.
         13    1    4    4    0    0  0.22388092379E+02 -0.21923262642E+01  0.27265718427E+02  0.35347593641E+02  0.00000000000E+00 0.  1.
        -13    1    3    3    0    0  0.13450743286E+02  0.35393939726E+02 -0.14326000902E+03  0.14817922813E+03  0.00000000000E+00 0. -1.
         13    1    3    3    0    0 -0.73607958789E+02  0.11406330582E+00 -0.34767256434E+03  0.35537917300E+03  0.00000000000E+00 0.  1.
          2    1    1    2  501    0  0.10341885560E+03 -0.87422692244E+01  0.26073062172E+03  0.28062848050E+03  0.00000000000E+00 0. -1.
<scales pt_clust_5="13000.00000" pt_clust_6="13000.00000" pt_clust_7="13000.00000" pt_clust_8="13000.00000" pt_clust_9="103.78770"></scales>
<clustering>
<clus scale="   87.616">  7  8 -1 -1</clus>
<clus scale="   91.694">  5  6 -1 -1</clus>
<clus scale="  103.788">  1  9  2 -1</clus>
<clus scale="  106.931">  2  7  1 -1</clus>
<clus scale="  103.788">  1  5  2 -1</clus>
</clustering>
</event>
<event>
 9    1  0.1881049E-005  0.9412829E+02  0.7546771E-02  0.1294221E+00
         21   -1    0    0  501  502  0.00000000000E+00  0.00000000000E+00  0.27474756115E+03  0.27474756115E+03  0.00000000000E+00 0.  1.
         -3   -1    0    0    0  501 -0.00000000000E+00 -0.00000000000E+00 -0.15920779411E+03  0.15920779411E+03  0.00000000000E+00 0.  1.
         23    2    1    2    0    0 -0.13806751388E+02 -0.36310282449E+02 -0.62374786586E+02  0.11715660375E+03  0.91246878325E+02 0.  0.
         23    2    1    2    0    0 -0.44830832008E+02 -0.16941780779E+01 -0.24279684257E+02  0.10287069109E+03  0.89331977923E+02 0.  0.
        -11    1    3    3    0    0 -0.30175139467E+02 -0.61627424780E+02 -0.48115528214E+02  0.83806817038E+02  0.00000000000E+00 0.  1.
         11    1    3    3    0    0  0.16368388079E+02  0.25317142331E+02 -0.14259258372E+02  0.33349786707E+02  0.00000000000E+00 0. -1.
        -13    1    4    4    0    0  0.12199607435E+01  0.37648674007E+02 -0.18674619370E+02  0.42043458080E+02  0.00000000000E+00 0. -1.
         13    1    4    4    0    0 -0.46050792752E+02 -0.39342852085E+02 -0.56050648871E+01  0.60827233010E+02  0.00000000000E+00 0.  1.
         -3    1    1    2    0  502  0.58637583397E+02  0.38004460527E+02  0.20219423788E+03  0.21392806042E+03  0.00000000000E+00 0.  1.
<scales pt_clust_5="13000.00000" pt_clust_6="13000.00000" pt_clust_7="13000.00000" pt_clust_8="13000.00000" pt_clust_9="69.87636"></scales>
<clustering>
<clus scale="   69.876">  1  9  2 -1</clus>
<clus scale="   89.332">  7  8 -1 -1</clus>
<clus scale="   91.247">  5  6 -1 -1</clus>
<clus scale="   92.273">  1  7  2 -1</clus>
<clus scale="   69.876">  1  5  2 -1</clus>
</clustering>
</event>
<event>
 9    1  0.1881049E-005  0.1034878E+03  0.7546771E-02  0.1273709E+00
         -4   -1    0    0    0  501 -0.00000000000E+00  0.00000000000E+00  0.16385446495E+03  0.16385446495E+03  0.00000000000E+00 0.  1.
         21   -1    0    0  501  502  0.00000000000E+00 -0.00000000000E+00 -0.10764900009E+03  0.10764900009E+03  0.00000000000E+00 0. -1.
         23    2    1    2    0    0  0.43858433742E+02  0.12139660777E+02  0.90290560064E+02  0.13670491372E+03  0.92004970655E+02 0.  0.
         23    2    1    2    0    0 -0.55925123838E+02  0.78066798531E+01 -0.31186552338E+02  0.11130678542E+03  0.90708520588E+02 0.  0.
        -11    1    4    4    0    0 -0.70892764687E+02  0.24006437195E+02 -0.21952074650E+01  0.74879316553E+02  0.00000000000E+00 0. -1.
         11    1    4    4    0    0  0.14967640848E+02 -0.16199757342E+02 -0.28991344873E+02  0.36427468867E+02  0.00000000000E+00 0.  1.
        -13    1    3    3    0    0  0.29945216300E+02  0.28680624290E+02 -0.23940174347E+01  0.41533426398E+02  0.00000000000E+00 0. -1.
         13    1    3    3    0    0  0.13913217442E+02 -0.16540963513E+02  0.92684577498E+02  0.95171487325E+02  0.00000000000E+00 0.  1.
         -4    1    1    2    0  502  0.12066690096E+02 -0.19946340630E+02 -0.28985428629E+01  0.23491765901E+02  0.00000000000E+00 0.  1.
<scales pt_clust_5="13000.00000" pt_clust_6="13000.00000" pt_clust_7="13000.00000" pt_clust_8="13000.00000" pt_clust_9="23.31226"></scales>
<clustering>
<clus scale="   23.312">  2  9  1 -1</clus>
<clus scale="   90.709">  5  6 -1 -1</clus>
<clus scale="   92.005">  7  8 -1 -1</clus>
<clus scale="  102.337">  2  5  1 -1</clus>
<clus scale="   23.312">  2  5  1 -1</clus>
</clustering>
</event>
<event>
 9    1  0.1881049E-005  0.1679222E+03  0.7546771E-02  0.1180741E+00
          3   -1    0    0  502    0 -0.00000000000E+00  0.00000000000E+00  0.19867234086E+03  0.19867234086E+03  0.00000000000E+00 0. -1.
         21   -1    0    0  501  502  0.00000000000E+00 -0.00000000000E+00 -0.51420678207E+03  0.51420678207E+03  0.00000000000E+00 0. -1.
         23    2    1    2    0    0 -0.52735290926E+02  0.11737747149E+03  0.64009005737E+02  0.17036712560E+03  0.91484003778E+02 0.  0.
         23    2    1    2    0    0 -0.23815834346E+02 -0.19547016736E+03 -0.90273003777E+02  0.23326139794E+03  0.86521004762E+02 0.  0.
        -11    1    4    4    0    0 -0.17230853157E+02 -0.16219615668E+03 -0.10737056193E+03  0.19527655545E+03  0.00000000000E+00 0. -1.
         11    1    4    4    0    0 -0.65849811893E+01 -0.33274010681E+02  0.17097558149E+02  0.37984842487E+02  0.00000000000E+00 0.  1.
        -11    1    3    3    0    0 -0.41732933660E+02  0.19157826191E+02 -0.98743359699E+01  0.46969804844E+02  0.00000000000E+00 0.  1.
         11    1    3    3    0    0 -0.11002357266E+02  0.98219645294E+02  0.73883341707E+02  0.12339732075E+03  0.00000000000E+00 0. -1.
          3    1    1    2  501    0  0.76551125272E+02  0.78092695874E+02 -0.28927044317E+03  0.30925059939E+03  0.00000000000E+00 0. -1.
<scales pt_clust_5="13000.00000" pt_clust_6="13000.00000" pt_clust_7="13000.00000" pt_clust_8="13000.00000" pt_clust_9="109.35513"></scales>
<clustering>
<clus scale="   86.521">  5  6 -1 -1</clus>
<clus scale="   91.484">  7  8 -1 -1</clus>
<clus scale="  109.355">  2  9  1 -1</clus>
<clus scale="  165.271">  2  5  1 -1</clus>
<clus scale="  109.355">  2  5  1 -1</clus>
</clustering>
</event>
<event>
 9    1  0.1881049E-005  0.1476194E+03  0.7546771E-02  0.1203774E+00
          1   -1    0    0  502    0 -0.00000000000E+00  0.00000000000E+00  0.42790356996E+03  0.42790356996E+03  0.00000000000E+00 0. -1.
         21   -1    0    0  501  502  0.00000000000E+00 -0.00000000000E+00 -0.14402001697E+03  0.14402001697E+03  0.00000000000E+00 0. -1.
         23    2    1    2    0    0  0.90688832321E+02  0.78275698447E+02  0.35484192692E+03  0.38680973419E+03  0.96733800166E+02 0.  0.
         23    2    1    2    0    0 -0.46444842828E+02 -0.52714049890E+02 -0.37371897309E+02  0.12396665416E+03  0.95053554132E+02 0.  0.
        -11    1    4    4    0    0 -0.72253414335E+02 -0.55179567133E+02 -0.36670940968E+02  0.98031109467E+02  0.00000000000E+00 0.  1.
         11    1    4    4    0    0  0.25808571507E+02  0.24655172430E+01 -0.70095634101E+00  0.25935544689E+02  0.00000000000E+00 0. -1.
        -11    1    3    3    0    0  0.29490655585E+02 -0.21796690987E+02  0.85705879706E+02  0.93221737384E+02  0.00000000000E+00 0.  1.
         11    1    3    3    0    0  0.61198176737E+02  0.10007238943E+03  0.26913604721E+03  0.29358799681E+03  0.00000000000E+00 0. -1.
          1    1    1    2  501    0 -0.44243989494E+02 -0.25561648557E+02 -0.33586476619E+02  0.61147198586E+02  0.00000000000E+00 0. -1.
<scales pt_clust_5="13000.00000" pt_clust_6="13000.00000" pt_clust_7="13000.00000" pt_clust_8="13000.00000" pt_clust_9="51.09725"></scales>
<clustering>
<clus scale="   51.097">  2  9  1 -1</clus>
<clus scale="   95.054">  5  6 -1 -1</clus>
<clus scale="   96.734">  7  8 -1 -1</clus>
<clus scale="  146.524">  2  5  1 -1</clus>
<clus scale="   51.097">  2  5  1 -1</clus>
</clustering>
</event>
<event>
 9    1  0.1881049E-005  0.1046276E+03  0.7546771E-02  0.1271279E+00
          1   -1    0    0  502    0 -0.00000000000E+00  0.00000000000E+00  0.37254032296E+03  0.37254032296E+03  0.00000000000E+00 0. -1.
         21   -1    0    0  501  502  0.00000000000E+00 -0.00000000000E+00 -0.70478833686E+02  0.70478833686E+02  0.00000000000E+00 0.  1.
         23    2    1    2    0    0  0.49318070211E+02 -0.23973430546E+02  0.28894691230E+03  0.30831386034E+03  0.92520921571E+02 0.  0.
         23    2    1    2    0    0 -0.12016175032E+02  0.18744186617E+02 -0.16773079966E+01  0.94238319187E+02  0.91554980459E+02 0.  0.
        -11    1    4    4    0    0  0.31941374511E+02 -0.67498264415E+01  0.20761477276E+02  0.38689152243E+02  0.00000000000E+00 0. -1.
         11    1    4    4    0    0 -0.43957549543E+02  0.25494013058E+02 -0.22438785272E+02  0.55549166944E+02  0.00000000000E+00 0.  1.
        -13    1    3    3    0    0  0.30875400861E+02  0.33724220219E+02  0.10151217164E+03  0.11133433612E+03  0.00000000000E+00 0. -1.
         13    1    3    3    0    0  0.18442669350E+02 -0.57697650765E+02  0.18743474066E+03  0.19697952422E+03  0.00000000000E+00 0.  1.
          1    1    1    2  501    0 -0.37301895179E+02  0.52292439298E+01  0.14791884968E+02  0.40466977116E+02  0.00000000000E+00 0. -1.
<scales pt_clust_5="13000.00000" pt_clust_6="13000.00000" pt_clust_7="13000.00000" pt_clust_8="13000.00000" pt_clust_9="37.66665"></scales>
<clustering>
<clus scale="   37.667">  2  9  1 -1</clus>
<clus scale="   91.555">  5  6 -1 -1</clus>
<clus scale="   92.521">  7  8 -1 -1</clus>
<clus scale="  103.774">  2  5  1 -1</clus>
<clus scale="   37.667">  2  5  1 -1</clus>
</clustering>
</event>
<event>
 9    1  0.1881049E-005  0.1278921E+03  0.7546771E-02  0.1232034E+00
         -1   -1    0    0    0  501 -0.00000000000E+00  0.00000000000E+00  0.58300642495E+02  0.58300642495E+02  0.00000000000E+00 0.  1.
         21   -1    0    0  501  502  0.00000000000E+00 -0.00000000000E+00 -0.42566941581E+03  0.42566941581E+03  0.00000000000E+00 0. -1.
         23    2    1    2    0    0 -0.65615864306E+02  0.71022680702E+02 -0.10462818386E+03  0.16920140503E+03  0.91281957603E+02 0.  0.
         23    2    1    2    0    0  0.36286535310E+02 -0.75723923569E+02 -0.12336768715E+03  0.17226561078E+03  0.86052479211E+02 0.  0.
        -11    1    3    3    0    0 -0.64339081885E+02  0.49073134959E+01 -0.35960948435E+02  0.73870081873E+02  0.00000000000E+00 0.  1.
         11    1    3    3    0    0 -0.12767824211E+01  0.66115367207E+02 -0.68667235423E+02  0.95331323157E+02  0.00000000000E+00 0. -1.
        -13    1    4    4    0    0 -0.17266102647E+02 -0.54589849199E+02 -0.35993403157E+02  0.67629098818E+02  0.00000000000E+00 0. -1.
         13    1    4    4    0    0  0.53552637957E+02 -0.21134074371E+02 -0.87374283995E+02  0.10463651196E+03  0.00000000000E+00 0.  1.
         -1    1    1    2    0  502  0.29329328996E+02  0.47012428667E+01 -0.13937290231E+03  0.14250304250E+03  0.00000000000E+00 0.  1.
<scales pt_clust_5="13000.00000" pt_clust_6="13000.00000" pt_clust_7="13000.00000" pt_clust_8="13000.00000" pt_clust_9="29.70372"></scales>
<clustering>
<clus scale="   29.704">  2  9  1 -1</clus>
<clus scale="   86.052">  7  8 -1 -1</clus>
<clus scale="   91.282">  5  6 -1 -1</clus>
<clus scale="  124.214">  2  7  1 -1</clus>
<clus scale="   29.704">  2  5  1 -1</clus>
</clustering>
</event>
<event>
 9    1  0.1881049E-005  0.9269259E+02  0.7546771E-02  0.1296913E+00
         -1   -1    0    0    0  501 -0.00000000000E+00  0.00000000000E+00  0.92420264548E+02  0.92420264548E+02  0.00000000000E+00 0.  1.
         21   -1    0    0  501  502  0.00000000000E+00 -0.00000000000E+00 -0.35545601922E+03  0.35545601922E+03  0.00000000000E+00 0. -1.
         23    2    1    2    0    0  0.15714343866E+02 -0.53257525055E+01  0.51284496667E+02  0.10645347970E+03  0.91798363271E+02 0.  0.
         23    2    1    2    0    0  0.98279861650E+01 -0.20945216439E+02 -0.19205198632E+03  0.21378228125E+03  0.91014322641E+02 0.  0.
        -11    1    4    4    0    0 -0.40297560779E+02 -0.22514011821E+01 -0.86075222491E+02  0.95067902779E+02  0.00000000000E+00 0.  1.
         11    1    4    4    0    0  0.50125546944E+02 -0.18693815257E+02 -0.10597676382E+03  0.11871437847E+03  0.00000000000E+00 0. -1.
        -13    1    3    3    0    0  0.52965908060E+02 -0.13876983963E+02  0.34450765949E+02  0.64690133521E+02  0.00000000000E+00 0.  1.
         13    1    3    3    0    0 -0.37251564194E+02  0.85512314570E+01  0.16833730718E+02  0.41763346180E+02  0.00000000000E+00 0. -1.
         -1    1    1    2    0  502 -0.25542330031E+02  0.26270968944E+02 -0.12226826503E+03  0.12764052282E+03  0.00000000000E+00 0.  1.
<scales pt_clust_5="13000.00000" pt_clust_6="13000.00000" pt_clust_7="13000.00000" pt_clust_8="13000.00000" pt_clust_9="36.64116"></scales>
<clustering>
<clus scale="   36.641">  2  9  1 -1</clus>
<clus scale="   91.014">  5  6 -1 -1</clus>
<clus scale="   91.798">  7  8 -1 -1</clus>
<clus scale="   91.916">  2  5  1 -1</clus>
<clus scale="   36.641">  2  5  1 -1</clus>
</clustering>
</event>
<event>
 9    1  0.1881049E-005  0.1520560E+03  0.7546771E-02  0.1198255E+00
         21   -1    0    0  501  502  0.00000000000E+00  0.00000000000E+00  0.93750121140E+02  0.93750121140E+02  0.00000000000E+00 0. -1.
          2   -1    0    0  502    0 -0.00000000000E+00 -0.00000000000E+00 -0.43158675533E+03  0.43158675533E+03  0.00000000000E+00 0. -1.
         23    2    1    2    0    0  0.92594061258E+01  0.13703391247E+03 -0.22104319111E+03  0.27562112133E+03  0.90790310170E+02 0.  0.
         23    2    1    2    0    0  0.45161325240E+02 -0.91423288052E+02 -0.32167883336E+02  0.13924661725E+03  0.89202493253E+02 0.  0.
        -11    1    3    3    0    0 -0.25974014404E+02  0.36237962131E+02 -0.21934526777E+02  0.49688658551E+02  0.00000000000E+00 0.  1.
         11    1    3    3    0    0  0.35233420530E+02  0.10079595034E+03 -0.19910866433E+03  0.22593246278E+03  0.00000000000E+00 0. -1.
        -13    1    4    4    0    0  0.17938497259E+02 -0.97575574589E+02 -0.35523799831E+01  0.99274376572E+02  0.00000000000E+00 0. -1.
         13    1    4    4    0    0  0.27222827981E+02  0.61522865370E+01 -0.28615503353E+02  0.39972240681E+02  0.00000000000E+00 0.  1.
          2    1    1    2  501    0 -0.54420731365E+02 -0.45610624419E+02 -0.84625559746E+02  0.11046913788E+03  0.00000000000E+00 0. -1.
<scales pt_clust_5="13000.00000" pt_clust_6="13000.00000" pt_clust_7="13000.00000" pt_clust_8="13000.00000" pt_clust_9="71.00669"></scales>
<clustering>
<clus scale="   71.007">  1  9  2 -1</clus>
<clus scale="   89.202">  7  8 -1 -1</clus>
<clus scale="   90.790">  5  6 -1 -1</clus>
<clus scale="  151.113">  1  7  2 -1</clus>
<clus scale="   71.007">  1  5  2 -1</clus>
</clustering>
</event>
<event>
 9    1  0.1881049E-005  0.1005546E+03  0.7546771E-02  0.1280427E+00
         21   -1    0    0  501  502  0.00000000000E+00  0.00000000000E+00  0.18529468387E+03  0.18529468387E+03  0.00000000000E+00 0. -1.
          1   -1    0    0  502    0 -0.00000000000E+00 -0.00000000000E+00 -0.25994349832E+03  0.25994349832E+03  0.00000000000E+00 0. -1.
         23    2    1    2    0    0 -0.26205923103E+01  0.32609211550E+02 -0.19785869923E+03  0.22065679197E+03  0.92038724440E+02 0.  0.
         23    2    1    2    0    0 -0.44939402023E+02 -0.51884620747E+02  0.12761831506E+03  0.17307480114E+03  0.94640840685E+02 0.  0.
        -11    1    4    4    0    0 -0.54071038842E+01 -0.62007075747E+02  0.11430066247E+03  0.13014897486E+03  0.00000000000E+00 0.  1.
         11    1    4    4    0    0 -0.39532298139E+02  0.10122455000E+02  0.13317652592E+02  0.42925826281E+02  0.00000000000E+00 0. -1.
        -11    1    3    3    0    0  0.27853815240E+02  0.11948305137E+02 -0.17436980276E+03  0.17698425108E+03  0.00000000000E+00 0. -1.
         11    1    3    3    0    0 -0.30474407550E+02  0.20660906413E+02 -0.23488896479E+02  0.43672540883E+02  0.00000000000E+00 0.  1.
          1    1    1    2  501    0  0.47559994334E+02  0.19275409197E+02 -0.44084302766E+01  0.51506589076E+02  0.00000000000E+00 0. -1.
<scales pt_clust_5="13000.00000" pt_clust_6="13000.00000" pt_clust_7="13000.00000" pt_clust_8="13000.00000" pt_clust_9="51.31758"></scales>
<clustering>
<clus scale="   51.318">  1  9  2 -1</clus>
<clus scale="   92.039">  7  8 -1 -1</clus>
<clus scale="   94.641">  5  6 -1 -1</clus>
<clus scale="   98.109">  2  7  1 -1</clus>
<clus scale="   51.318">  1  5  2 -1</clus>
</clustering>
</event>
<event>
 9    1  0.1881049E-005  0.1058070E+03  0.7546771E-02  0.1269503E+00
         -1   -1    0    0    0  501 -0.00000000000E+00  0.00000000000E+00  0.28093815304E+03  0.28093815304E+03  0.00000000000E+00 0.  1.
         21   -1    0    0  501  502  0.00000000000E+00 -0.00000000000E+00 -0.78647789844E+02  0.78647789844E+02  0.00000000000E+00 0. -1.
         23    2    1    2    0    0 -0.46747113213E+01 -0.36453143173E+02  0.19652393401E+03  0.22244826599E+03  0.97523791106E+02 0.  0.
         23    2    1    2    0    0 -0.47835134893E+01  0.58915771985E+02  0.88496188358E+01  0.11257075262E+03  0.95393440035E+02 0.  0.
        -13    1    4    4    0    0  0.33278494520E+02  0.19602264477E+02 -0.27025654967E+02  0.47139081414E+02  0.00000000000E+00 0.  1.
         13    1    4    4    0    0 -0.38062008009E+02  0.39313507508E+02  0.35875273803E+02  0.65431671205E+02  0.00000000000E+00 0. -1.
        -13    1    3    3    0    0  0.15048588891E+02  0.27161735979E+02  0.30334260406E+02  0.43409529868E+02  0.00000000000E+00 0. -1.
         13    1    3    3    0    0 -0.19723300212E+02 -0.63614879151E+02  0.16618967361E+03  0.17903873613E+03  0.00000000000E+00 0.  1.
         -1    1    1    2    0  502  0.94582248106E+01 -0.22462628812E+02 -0.30831896499E+01  0.24566924271E+02  0.00000000000E+00 0.  1.
<scales pt_clust_5="13000.00000" pt_clust_6="13000.00000" pt_clust_7="13000.00000" pt_clust_8="13000.00000" pt_clust_9="24.37268"></scales>
<clustering>
<clus scale="   24.373">  2  9  1 -1</clus>
<clus scale="   95.393">  5  6 -1 -1</clus>
<clus scale="   97.524">  7  8 -1 -1</clus>
<clus scale="  103.847">  2  5  1 -1</clus>
<clus scale="   24.373">  2  5  1 -1</clus>
</clustering>
</event>
<event>
 9    1  0.1881049E-005  0.1026918E+03  0.7546771E-02  0.1275103E+00
         21   -1    0    0  501  502  0.00000000000E+00  0.00000000000E+00  0.29333402309E+03  0.29333402309E+03  0.00000000000E+00 0. -1.
         -1   -1    0    0    0  501 -0.00000000000E+00 -0.00000000000E+00 -0.22702566247E+03  0.22702566247E+03  0.00000000000E+00 0.  1.
         23    2    1    2    0    0  0.15020491025E+02 -0.48248119167E+02 -0.18972276194E+03  0.21565059082E+03  0.89201764395E+02 0.  0.
         23    2    1    2    0    0 -0.41930001197E+02  0.26907667975E+02  0.94954431479E+02  0.14001168430E+03  0.90026552122E+02 0.  0.
        -11    1    3    3    0    0  0.31289746495E+02  0.16767877826E+02 -0.65409758697E+02  0.74422083385E+02  0.00000000000E+00 0. -1.
         11    1    3    3    0    0 -0.16269255470E+02 -0.65015996993E+02 -0.12431300324E+03  0.14122850744E+03  0.00000000000E+00 0.  1.
        -13    1    4    4    0    0  0.19546257056E+02 -0.17551991862E+02  0.17346261745E+02  0.31480492051E+02  0.00000000000E+00 0.  1.
         13    1    4    4    0    0 -0.61476258253E+02  0.44459659837E+02  0.77608169734E+02  0.10853119225E+03  0.00000000000E+00 0. -1.
         -1    1    1    2    0  502  0.26909510172E+02  0.21340451192E+02  0.16107669108E+03  0.16469741043E+03  0.00000000000E+00 0.  1.
<scales pt_clust_5="13000.00000" pt_clust_6="13000.00000" pt_clust_7="13000.00000" pt_clust_8="13000.00000" pt_clust_9="34.34438"></scales>
<clustering>
<clus scale="   34.344">  1  9  2 -1</clus>
<clus scale="   89.202">  5  6 -1 -1</clus>
<clus scale="   90.027">  7  8 -1 -1</clus>
<clus scale="  101.970">  2  5  1 -1</clus>
<clus scale="   34.344">  1  5  2 -1</clus>
</clustering>
</event>
<event>
 9    1  0.3781830E-005  0.9027044E+02  0.7546771E-02  0.1302711E+00
         21   -1    0    0  501  502  0.00000000000E+00  0.00000000000E+00  0.22669739597E+03  0.22669739597E+03  0.00000000000E+00 0.  1.
         -3   -1    0    0    0  501 -0.00000000000E+00 -0.00000000000E+00 -0.34487234245E+03  0.34487234245E+03  0.00000000000E+00 0.  1.
         23    2    1    2    0    0 -0.58981939114E+01 -0.10884818900E+02 -0.25904763403E+03  0.27454935129E+03  0.90102173264E+02 0.  0.
         23    2    1    2    0    0 -0.27639235988E+02 -0.15540037720E+02 -0.46023675241E+02  0.10530893031E+03  0.89254534799E+02 0.  0.
        -11    1    3    3    0    0 -0.15945111303E+02  0.35883813819E+02 -0.78514235564E+02  0.87785988944E+02  0.00000000000E+00 0. -1.
         11    1    3    3    0    0  0.10046917391E+02 -0.46768632720E+02 -0.18053339846E+03  0.18676336235E+03  0.00000000000E+00 0.  1.
        -13    1    4    4    0    0 -0.60235756415E+02 -0.12316352170E+02 -0.35010585400E+02  0.70751536886E+02  0.00000000000E+00 0.  1.
         13    1    4    4    0    0  0.32596520427E+02 -0.32236855501E+01 -0.11013089841E+02  0.34557393425E+02  0.00000000000E+00 0. -1.
         -3    1    1    2    0  502  0.33537429899E+02  0.26424856620E+02  0.18689636279E+03  0.19171145682E+03  0.00000000000E+00 0.  1.
<scales pt_clust_5="13000.00000" pt_clust_6="13000.00000" pt_clust_7="13000.00000" pt_clust_8="13000.00000" pt_clust_9="42.69698"></scales>
<clustering>
<clus scale="   42.697">  1  9  2 -1</clus>
<clus scale="   89.255">  7  8 -1 -1</clus>
<clus scale="   89.424">  1  7  2 -1</clus>
<clus scale="   90.102">  5  6 -1 -1</clus>
<clus scale="   42.697">  1  5  2 -1</clus>
</clustering>
</event>
<event>
 9    1  0.1881049E-005  0.1034278E+03  0.7546771E-02  0.1275383E+00
          2   -1    0    0  502    0 -0.00000000000E+00  0.00000000000E+00  0.13423742780E+03  0.13423742780E+03  0.00000000000E+00 0. -1.
         21   -1    0    0  501  502  0.00000000000E+00 -0.00000000000E+00 -0.14718394441E+03  0.14718394441E+03  0.00000000000E+00 0.  1.
         23    2    1    2    0    0  0.29153699149E+02 -0.35554686868E+02  0.28796522402E+02  0.10647013085E+03  0.91610998946E+02 0.  0.
         23    2    1    2    0    0  0.87205089249E+01  0.59896982800E+02  0.99938581186E+01  0.10636764614E+03  0.86893631072E+02 0.  0.
        -13    1    4    4    0    0  0.11250435551E+02 -0.16984291058E+02 -0.15206602865E+02  0.25422022216E+02  0.00000000000E+00 0. -1.
         13    1    4    4    0    0 -0.25299266262E+01  0.76881273858E+02  0.25200460983E+02  0.80945623925E+02  0.00000000000E+00 0.  1.
        -13    1    3    3    0    0 -0.11600650361E+02 -0.24611207262E+02 -0.25780482364E+02  0.37482260906E+02  0.00000000000E+00 0.  1.
         13    1    3    3    0    0  0.40754349510E+02 -0.10943479605E+02  0.54577004766E+02  0.68987869941E+02  0.00000000000E+00 0. -1.
          2    1    1    2  501    0 -0.37874208074E+02 -0.24342295932E+02 -0.51736897133E+02  0.68583595221E+02  0.00000000000E+00 0. -1.
<scales pt_clust_5="13000.00000" pt_clust_6="13000.00000" pt_clust_7="13000.00000" pt_clust_8="13000.00000" pt_clust_9="45.02225"></scales>
<clustering>
<clus scale="   45.022">  2  9  1 -1</clus>
<clus scale="   86.894">  5  6 -1 -1</clus>
<clus scale="   91.611">  7  8 -1 -1</clus>
<clus scale="   99.274">  2  5  1 -1</clus>
<clus scale="   45.022">  2  5  1 -1</clus>
</clustering>
</event>
<event>
 9    1  0.1881049E-005  0.1237456E+03  0.7546771E-02  0.1237197E+00
          2   -1    0    0  502    0 -0.00000000000E+00  0.00000000000E+00  0.47321351254E+03  0.47321351254E+03  0.00000000000E+00 0. -1.
         21   -1    0    0  501  502  0.00000000000E+00 -0.00000000000E+00 -0.21953673995E+03  0.21953673995E+03  0.00000000000E+00 0. -1.
         23    2    1    2    0    0 -0.49009718831E+02 -0.63018091006E+02  0.28191254210E+03  0.30700848719E+03  0.91685863030E+02 0.  0.
         23    2    1    2    0    0  0.80763826699E+02  0.47272151768E+02  0.15293367242E+03  0.20113779823E+03  0.91160592806E+02 0.  0.
        -11    1    3    3    0    0  0.22432635798E+02  0.42779698735E+01  0.65892601629E+02  0.69737788354E+02  0.00000000000E+00 0. -1.
         11    1    3    3    0    0 -0.71442354630E+02 -0.67296060880E+02  0.21601994047E+03  0.23727069884E+03  0.00000000000E+00 0.  1.
        -13    1    4    4    0    0  0.37202673208E+02  0.10661266212E+02  0.79758439767E+00  0.38708366433E+02  0.00000000000E+00 0.  1.
         13    1    4    4    0    0  0.43561153491E+02  0.36610885556E+02  0.15213608802E+03  0.16242943180E+03  0.00000000000E+00 0. -1.
          2    1    1    2  501    0 -0.31754107867E+02  0.15745939238E+02 -0.18116944193E+03  0.18460396707E+03  0.00000000000E+00 0. -1.
<scales pt_clust_5="13000.00000" pt_clust_6="13000.00000" pt_clust_7="13000.00000" pt_clust_8="13000.00000" pt_clust_9="35.44373"></scales>
<clustering>
<clus scale="   35.444">  2  9  1 -1</clus>
<clus scale="   91.161">  7  8 -1 -1</clus>
<clus scale="   91.686">  5  6 -1 -1</clus>
<clus scale="  123.357">  2  7  1 -1</clus>
<clus scale="   35.444">  2  5  1 -1</clus>
</clustering>
</event>
<event>
 9    1  0.1881049E-005  0.1536095E+03  0.7546771E-02  0.1217980E+00
         21   -1    0    0  501  502  0.00000000000E+00  0.00000000000E+00  0.13950969613E+03  0.13950969613E+03  0.00000000000E+00 0.  1.
         -1   -1    0    0    0  501 -0.00000000000E+00 -0.00000000000E+00 -0.43840064438E+03  0.43840064438E+03  0.00000000000E+00 0.  1.
         23    2    1    2    0    0 -0.19791495273E+02 -0.29668952252E+01 -0.75237218941E+02  0.12201528443E+03  0.93949905634E+02 0.  0.
         23    2    1    2    0    0  0.18612187644E+02 -0.12362174491E+03 -0.27878086988E+03  0.31781871413E+03  0.87528351364E+02 0.  0.
        -11    1    4    4    0    0  0.35898625392E+02 -0.87838533544E+02 -0.25360243962E+03  0.27077392168E+03  0.00000000000E+00 0. -1.
         11    1    4    4    0    0 -0.17286437749E+02 -0.35783211369E+02 -0.25178430262E+02  0.47044792447E+02  0.00000000000E+00 0.  1.
        -11    1    3    3    0    0 -0.28913362541E+02  0.35046638463E+02 -0.68722579448E+02  0.82383507615E+02  0.00000000000E+00 0. -1.
         11    1    3    3    0    0  0.91218672682E+01 -0.38013533689E+02 -0.65146394936E+01  0.39631776817E+02  0.00000000000E+00 0.  1.
         -1    1    1    2    0  502  0.11793076296E+01  0.12658864014E+03  0.55127140576E+02  0.13807634195E+03  0.00000000000E+00 0.  1.
<scales pt_clust_5="13000.00000" pt_clust_6="13000.00000" pt_clust_7="13000.00000" pt_clust_8="13000.00000" pt_clust_9="126.23254"></scales>
<clustering>
<clus scale="   87.528">  5  6 -1 -1</clus>
<clus scale="   93.950">  7  8 -1 -1</clus>
<clus scale="   96.058">  2  7  1 -1</clus>
<clus scale="  126.233">  1  9  2 -1</clus>
<clus scale="  126.233">  1  5  2 -1</clus>
</clustering>
</event>
<event>
 9    1  0.1881049E-005  0.3267191E+03  0.7546771E-02  0.1112752E+00
          2   -1    0    0  502    0 -0.00000000000E+00  0.00000000000E+00  0.13665072547E+04  0.13665072547E+04  0.00000000000E+00 0. -1.
         21   -1    0    0  501  502  0.00000000000E+00 -0.00000000000E+00 -0.29075428455E+03  0.29075428455E+03  0.00000000000E+00 0. -1.
         23    2    1    2    0    0  0.62289566632E+02 -0.30790269015E+02  0.10630871477E+03  0.15557180980E+03  0.89849954873E+02 0.  0.
         23    2    1    2    0    0 -0.19908888151E+03  0.30842945246E+03  0.11019781311E+04  0.11649958077E+04  0.89968441887E+02 0.  0.
        -11    1    4    4    0    0 -0.10888571504E+03  0.89366824964E+02  0.42922743839E+03  0.45175073017E+03  0.00000000000E+00 0.  1.
         11    1    4    4    0    0 -0.90203166475E+02  0.21906262750E+03  0.67275069275E+03  0.71324507752E+03  0.00000000000E+00 0. -1.
        -13    1    3    3    0    0  0.39073560388E+01  0.29412184755E+02  0.29838998578E+02  0.42079803700E+02  0.00000000000E+00 0.  1.
         13    1    3    3    0    0  0.58382210593E+02 -0.60202453770E+02  0.76469716195E+02  0.11349200610E+03  0.00000000000E+00 0. -1.
          2    1    1    2  501    0  0.13679931488E+03 -0.27763918345E+03 -0.13253387575E+03  0.33669392177E+03  0.00000000000E+00 0. -1.
<scales pt_clust_5="13000.00000" pt_clust_6="13000.00000" pt_clust_7="13000.00000" pt_clust_8="13000.00000" pt_clust_9="314.08766"></scales>
<clustering>
<clus scale="   89.850">  7  8 -1 -1</clus>
<clus scale="   89.968">  5  6 -1 -1</clus>
<clus scale="  113.583">  1  7  2 -1</clus>
<clus scale="  314.088">  2  9  1 -1</clus>
<clus scale="  314.088">  2  5  1 -1</clus>
</clustering>
</event>
<event>
 9    1  0.1881049E-005  0.1078717E+03  0.7546771E-02  0.1265343E+00
          2   -1    0    0  502    0 -0.00000000000E+00  0.00000000000E+00  0.75737978875E+03  0.75737978875E+03  0.00000000000E+00 0. -1.
         21   -1    0    0  501  502  0.00000000000E+00 -0.00000000000E+00 -0.39255526883E+02  0.39255526883E+02  0.00000000000E+00 0.  1.
         23    2    1    2    0    0  0.52859268394E+02 -0.33934342815E+01  0.50219117725E+03  0.51346188580E+03  0.92959733259E+02 0.  0.
         23    2    1    2    0    0 -0.43060733674E+02 -0.40949508760E+02  0.74005154584E+02  0.13415717165E+03  0.94817164837E+02 0.  0.
        -11    1    4    4    0    0 -0.57258675514E+02 -0.63340842385E+02  0.56657580031E+02  0.10247292135E+03  0.00000000000E+00 0.  1.
         11    1    4    4    0    0  0.14197941840E+02  0.22391333625E+02  0.17347574553E+02  0.31684250297E+02  0.00000000000E+00 0. -1.
        -13    1    3    3    0    0  0.78251500252E+02  0.77015221546E+01  0.34499295991E+03  0.35384001063E+03  0.00000000000E+00 0. -1.
         13    1    3    3    0    0 -0.25392231858E+02 -0.11094956436E+02  0.15719821735E+03  0.15962187517E+03  0.00000000000E+00 0.  1.
          2    1    1    2  501    0 -0.97985347198E+01  0.44342943041E+02  0.14192793003E+03  0.14901625819E+03  0.00000000000E+00 0. -1.
<scales pt_clust_5="13000.00000" pt_clust_6="13000.00000" pt_clust_7="13000.00000" pt_clust_8="13000.00000" pt_clust_9="45.41266"></scales>
<clustering>
<clus scale="   45.413">  2  9  1 -1</clus>
<clus scale="   92.960">  7  8 -1 -1</clus>
<clus scale="   94.817">  5  6 -1 -1</clus>
<clus scale="  106.243">  1  7  2 -1</clus>
<clus scale="   45.413">  2  5  1 -1</clus>
</clustering>
</event>
<event>
 9    1  0.1881049E-005  0.3257787E+03  0.7546771E-02  0.1073786E+00
          1   -1    0    0  502    0 -0.00000000000E+00  0.00000000000E+00  0.15682692392E+04  0.15682692392E+04  0.00000000000E+00 0. -1.
         21   -1    0    0  501  502  0.00000000000E+00 -0.00000000000E+00 -0.12669123738E+03  0.12669123738E+03  0.00000000000E+00 0.  1.
         23    2    1    2    0    0  0.25459807298E+03  0.20338559439E+03  0.11995801295E+04  0.12481792268E+04  0.11301777001E+03 0.  0.
         23    2    1    2    0    0 -0.18921247909E+03 -0.17336735569E+03  0.25549025808E+03  0.37358005427E+03  0.91810580595E+02 0.  0.
        -11    1    3    3    0    0  0.56612642884E+02  0.25503692230E+02  0.10759922274E+03  0.12422971620E+03  0.00000000000E+00 0.  1.
         11    1    3    3    0    0  0.19798543010E+03  0.17788190216E+03  0.10919809068E+04  0.11239495106E+04  0.00000000000E+00 0. -1.
        -13    1    4    4    0    0 -0.16465093274E+03 -0.17980607083E+03  0.21135733104E+03  0.32266402672E+03  0.00000000000E+00 0.  1.
         13    1    4    4    0    0 -0.24561546355E+02  0.64387151320E+01  0.44132927039E+02  0.50916027544E+02  0.00000000000E+00 0. -1.
          1    1    1    2  501    0 -0.65385593889E+02 -0.30018238700E+02 -0.13492385810E+02  0.73201195467E+02  0.00000000000E+00 0. -1.
<scales pt_clust_5="13000.00000" pt_clust_6="13000.00000" pt_clust_7="13000.00000" pt_clust_8="13000.00000" pt_clust_9="71.94700"></scales>
<clustering>
<clus scale="   71.947">  2  9  1 -1</clus>
<clus scale="   91.811">  7  8 -1 -1</clus>
<clus scale="  113.018">  5  6 -1 -1</clus>
<clus scale="  319.042">  2  7  1 -1</clus>
<clus scale="   71.947">  2  5  1 -1</clus>
</clustering>
</event>
<event>
 9    1  0.1881049E-005  0.1083941E+03  0.7546771E-02  0.1264218E+00
         21   -1    0    0  501  502  0.00000000000E+00  0.00000000000E+00  0.68977397650E+02  0.68977397650E+02  0.00000000000E+00 0. -1.
          2   -1    0    0  502    0 -0.00000000000E+00 -0.00000000000E+00 -0.42874103176E+03  0.42874103176E+03  0.00000000000E+00 0. -1.
         23    2    1    2    0    0 -0.76191942048E+01  0.48246067605E+02 -0.18508948119E+03  0.21243400702E+03  0.92110564717E+02 0.  0.
         23    2    1    2    0    0  0.35535231556E+02 -0.52174483848E+02 -0.21097881165E+03  0.23931958974E+03  0.93684991426E+02 0.  0.
        -11    1    3    3    0    0  0.15838479513E+02  0.63763296094E+02 -0.16576210540E+03  0.17830785442E+03  0.00000000000E+00 0. -1.
         11    1    3    3    0    0 -0.23457673718E+02 -0.15517228489E+02 -0.19327375788E+02  0.34126152598E+02  0.00000000000E+00 0.  1.
        -13    1    4    4    0    0  0.49614728969E+02  0.46943369652E+01 -0.64145031079E+02  0.81229570615E+02  0.00000000000E+00 0. -1.
         13    1    4    4    0    0 -0.14079497412E+02 -0.56868820813E+02 -0.14683378058E+03  0.15809001912E+03  0.00000000000E+00 0.  1.
          2    1    1    2  501    0 -0.27916037352E+02  0.39284162430E+01  0.36304658730E+02  0.45964832656E+02  0.00000000000E+00 0. -1.
<scales pt_clust_5="13000.00000" pt_clust_6="13000.00000" pt_clust_7="13000.00000" pt_clust_8="13000.00000" pt_clust_9="28.19109"></scales>
<clustering>
<clus scale="   28.191">  1  9  2 -1</clus>
<clus scale="   92.111">  5  6 -1 -1</clus>
<clus scale="   93.685">  7  8 -1 -1</clus>
<clus scale="  107.036">  2  5  1 -1</clus>
<clus scale="   28.191">  1  5  2 -1</clus>
</clustering>
</event>
<event>
 9    1  0.1881049E-005  0.1315177E+03  0.7546771E-02  0.1225269E+00
         21   -1    0    0  501  502  0.00000000000E+00  0.00000000000E+00  0.22272904800E+03  0.22272904800E+03  0.00000000000E+00 0.  1.
         -4   -1    0    0    0  501 -0.00000000000E+00 -0.00000000000E+00 -0.26114539836E+03  0.26114539836E+03  0.00000000000E+00 0.  1.
         23    2    1    2    0    0 -0.80803235799E+02 -0.33515972852E+02 -0.12686923227E+03  0.17973074618E+03  0.92492462796E+02 0.  0.
         23    2    1    2    0    0  0.88147212446E+02  0.55654077155E+02 -0.61460155016E+02  0.15242702907E+03  0.92678698584E+02 0.  0.
        -13    1    4    4    0    0  0.80281771482E+02  0.30820944679E+02 -0.82327819103E+02  0.11905025519E+03  0.00000000000E+00 0.  1.
         13    1    4    4    0    0  0.78654409644E+01  0.24833132477E+02  0.20867664087E+02  0.33376773880E+02  0.00000000000E+00 0. -1.
        -13    1    3    3    0    0 -0.41971855719E+02  0.20911484872E+02 -0.14692852308E+02  0.49140683563E+02  0.00000000000E+00 0.  1.
         13    1    3    3    0    0 -0.38831380079E+02 -0.54427457724E+02 -0.11217637996E+03  0.13059006262E+03  0.00000000000E+00 0. -1.
         -4    1    1    2    0  502 -0.73439766473E+01 -0.22138104303E+02  0.14991303692E+03  0.15171667112E+03  0.00000000000E+00 0.  1.
<scales pt_clust_5="13000.00000" pt_clust_6="13000.00000" pt_clust_7="13000.00000" pt_clust_8="13000.00000" pt_clust_9="23.32444"></scales>
<clustering>
<clus scale="   23.324">  1  9  2 -1</clus>
<clus scale="   92.492">  7  8 -1 -1</clus>
<clus scale="   92.679">  5  6 -1 -1</clus>
<clus scale="  131.387">  2  7  1 -1</clus>
<clus scale="   23.324">  1  5  2 -1</clus>
</clustering>
</event>
<event>
 9    1  0.1881049E-005  0.1370546E+03  0.7546771E-02  0.1217674E+00
         21   -1    0    0  501  502  0.00000000000E+00  0.00000000000E+00  0.56027926210E+02  0.56027926210E+02  0.00000000000E+00 0.  1.
          2   -1    0    0  502    0 -0.00000000000E+00 -0.00000000000E+00 -0.42289288344E+03  0.42289288344E+03  0.00000000000E+00 0. -1.
         23    2    1    2    0    0 -0.92958501737E+02  0.18165196228E+02 -0.16918727370E+03  0.21339769717E+03  0.89123432245E+02 0.  0.
         23    2    1    2    0    0  0.11435401801E+03  0.42865640789E+01 -0.16897851787E+03  0.22326803270E+03  0.90551967722E+02 0.  0.
        -11    1    3    3    0    0  0.12425771910E+02  0.21099511385E+02 -0.28087961005E+02  0.37262886921E+02  0.00000000000E+00 0.  1.
         11    1    3    3    0    0 -0.10538427365E+03 -0.29343151567E+01 -0.14109931270E+03  0.17613481025E+03  0.00000000000E+00 0. -1.
        -13    1    4    4    0    0  0.52804616737E+02 -0.30967308936E+02 -0.12664805360E+03  0.14066638281E+03  0.00000000000E+00 0. -1.
         13    1    4    4    0    0  0.61549401276E+02  0.35253873015E+02 -0.42330464268E+02  0.82601649893E+02  0.00000000000E+00 0.  1.
          2    1    1    2  501    0 -0.21395516276E+02 -0.22451760307E+02 -0.28699165659E+02  0.42255079779E+02  0.00000000000E+00 0. -1.
<scales pt_clust_5="13000.00000" pt_clust_6="13000.00000" pt_clust_7="13000.00000" pt_clust_8="13000.00000" pt_clust_9="31.01370"></scales>
<clustering>
<clus scale="   31.014">  1  9  2 -1</clus>
<clus scale="   89.123">  5  6 -1 -1</clus>
<clus scale="   90.552">  7  8 -1 -1</clus>
<clus scale="  136.115">  2  5  1 -1</clus>
<clus scale="   31.014">  1  5  2 -1</clus>
</clustering>
</event>
<event>
 9    1  0.1881049E-005  0.1069285E+03  0.7546771E-02  0.1266473E+00
         21   -1    0    0  501  502  0.00000000000E+00  0.00000000000E+00  0.13742518803E+03  0.13742518803E+03  0.00000000000E+00 0.  1.
         -1   -1    0    0    0  501 -0.00000000000E+00 -0.00000000000E+00 -0.12629237855E+03  0.12629237855E+03  0.00000000000E+00 0.  1.
         23    2    1    2    0    0 -0.19363557832E+01  0.48302524838E+02 -0.34979695475E+02  0.10903240519E+03  0.91255700685E+02 0.  0.
         23    2    1    2    0    0 -0.65640262870E+01 -0.68498728608E+02  0.12783530451E+02  0.11479827527E+03  0.90994852011E+02 0.  0.
        -11    1    3    3    0    0 -0.34581441349E+02  0.13238934642E+02  0.14861422637E+02  0.39899966906E+02  0.00000000000E+00 0.  1.
         11    1    3    3    0    0  0.32645085566E+02  0.35063590196E+02 -0.49841118112E+02  0.69132438289E+02  0.00000000000E+00 0. -1.
        -13    1    4    4    0    0 -0.38869762171E+02 -0.68183164495E+01  0.20972270450E+02  0.44689864379E+02  0.00000000000E+00 0. -1.
         13    1    4    4    0    0  0.32305735884E+02 -0.61680412159E+02 -0.81887399991E+01  0.70108410892E+02  0.00000000000E+00 0.  1.
         -1    1    1    2    0  502  0.85003820702E+01  0.20196203770E+02  0.33328974510E+02  0.39886886116E+02  0.00000000000E+00 0.  1.
<scales pt_clust_5="13000.00000" pt_clust_6="13000.00000" pt_clust_7="13000.00000" pt_clust_8="13000.00000" pt_clust_9="21.91217"></scales>
<clustering>
<clus scale="   21.912">  1  9  2 -1</clus>
<clus scale="   90.995">  7  8 -1 -1</clus>
<clus scale="   91.256">  5  6 -1 -1</clus>
<clus scale="  106.706">  1  7  2 -1</clus>
<clus scale="   21.912">  1  5  2 -1</clus>
</clustering>
</event>
<event>
 9    1  0.1881049E-005  0.9434363E+02  0.7546771E-02  0.1293658E+00
          1   -1    0    0  502    0 -0.00000000000E+00  0.00000000000E+00  0.30110642127E+03  0.30110642127E+03  0.00000000000E+00 0. -1.
         21   -1    0    0  501  502  0.00000000000E+00 -0.00000000000E+00 -0.71542949467E+02  0.71542949467E+02  0.00000000000E+00 0.  1.
         23    2    1    2    0    0  0.18240517170E+02 -0.19229707745E+02  0.19398903866E+03  0.21626485959E+03  0.91849029630E+02 0.  0.
         23    2    1    2    0    0 -0.18527978542E+02 -0.50103182223E+01  0.69016911825E+02  0.11508002140E+03  0.90064909531E+02 0.  0.
        -11    1    3    3    0    0  0.28860743876E+01  0.19800406169E+02  0.24167337297E+01  0.20155051768E+02  0.00000000000E+00 0.  1.
         11    1    3    3    0    0  0.15354442782E+02 -0.39030113914E+02  0.19157230493E+03  0.19610980782E+03  0.00000000000E+00 0. -1.
        -13    1    4    4    0    0 -0.76516778677E+01  0.18482891684E+02 -0.16373959823E+02  0.25850957806E+02  0.00000000000E+00 0.  1.
         13    1    4    4    0    0 -0.10876300674E+02 -0.23493209907E+02  0.85390871648E+02  0.89229063589E+02  0.00000000000E+00 0. -1.
          1    1    1    2  501    0  0.28746137246E+00  0.24240025967E+02 -0.33442478688E+02  0.41304489752E+02  0.00000000000E+00 0. -1.
<scales pt_clust_5="13000.00000" pt_clust_6="13000.00000" pt_clust_7="13000.00000" pt_clust_8="13000.00000" pt_clust_9="24.24173"></scales>
<clustering>
<clus scale="   24.242">  2  9  1 -1</clus>
<clus scale="   90.065">  7  8 -1 -1</clus>
<clus scale="   91.849">  5  6 -1 -1</clus>
<clus scale="   92.608">  2  7  1 -1</clus>
<clus scale="   24.242">  2  5  1 -1</clus>
</clustering>
</event>
<event>
 9    1  0.1881049E-005  0.9979086E+02  0.7546771E-02  0.1281695E+00
          1   -1    0    0  502    0 -0.00000000000E+00  0.00000000000E+00  0.49766650222E+03  0.49766650222E+03  0.00000000000E+00 0. -1.
         21   -1    0    0  501  502  0.00000000000E+00 -0.00000000000E+00 -0.32332940405E+02  0.32332940405E+02  0.00000000000E+00 0. -1.
         23    2    1    2    0    0  0.46722105235E+02  0.56063155023E+01  0.33581909718E+03  0.35077223672E+03  0.89734665189E+02 0.  0.
         23    2    1    2    0    0 -0.21175335929E+02 -0.88627160046E+01  0.11751493300E+03  0.15081540684E+03  0.91698336278E+02 0.  0.
        -13    1    3    3    0    0  0.67711647263E+02  0.25152038463E+02  0.25404559949E+03  0.26411485917E+03  0.00000000000E+00 0. -1.
         13    1    3    3    0    0 -0.20989542029E+02 -0.19545722961E+02  0.81773497685E+02  0.86657377553E+02  0.00000000000E+00 0.  1.
        -13    1    4    4    0    0  0.23546691693E+02 -0.33861903303E+02  0.37154287702E+02  0.55511406753E+02  0.00000000000E+00 0. -1.
         13    1    4    4    0    0 -0.44722027622E+02  0.24999187299E+02  0.80360645301E+02  0.95304000091E+02  0.00000000000E+00 0.  1.
          1    1    1    2  501    0 -0.25546769306E+02  0.32564005023E+01  0.11999531636E+02  0.28411799058E+02  0.00000000000E+00 0. -1.
<scales pt_clust_5="13000.00000" pt_clust_6="13000.00000" pt_clust_7="13000.00000" pt_clust_8="13000.00000" pt_clust_9="25.75348"></scales>
<clustering>
<clus scale="   25.753">  2  9  1 -1</clus>
<clus scale="   89.735">  5  6 -1 -1</clus>
<clus scale="   91.698">  7  8 -1 -1</clus>
<clus scale="   97.989">  1  5  2 -1</clus>
<clus scale="   25.753">  2  5  1 -1</clus>
</clustering>
</event>
<event>
 9    1  0.1881049E-005  0.1398229E+03  0.7546771E-02  0.1215598E+00
         21   -1    0    0  501  502  0.00000000000E+00  0.00000000000E+00  0.71289098101E+02  0.71289098101E+02  0.00000000000E+00 0.  1.
          2   -1    0    0  502    0 -0.00000000000E+00 -0.00000000000E+00 -0.35720775079E+03  0.35720775079E+03  0.00000000000E+00 0. -1.
         23    2    1    2    0    0  0.99860541034E+02 -0.50507786029E+02 -0.20298729056E+03  0.24701211021E+03  0.85369657119E+02 0.  0.
         23    2    1    2    0    0 -0.86137515087E+02  0.25231472148E+02 -0.79382390375E+02  0.15250528587E+03  0.94339809333E+02 0.  0.
        -11    1    3    3    0    0  0.85767822855E+02 -0.23755936816E+00 -0.10151312130E+03  0.13289503252E+03  0.00000000000E+00 0.  1.
         11    1    3    3    0    0  0.14092718179E+02 -0.50270226661E+02 -0.10147416926E+03  0.11411707769E+03  0.00000000000E+00 0. -1.
        -13    1    4    4    0    0 -0.83984036375E+02 -0.18269913357E+02 -0.60079094634E+02  0.10486470193E+03  0.00000000000E+00 0. -1.
         13    1    4    4    0    0 -0.21534787125E+01  0.43501385504E+02 -0.19303295741E+02  0.47640583937E+02  0.00000000000E+00 0.  1.
          2    1    1    2  501    0 -0.13723025947E+02  0.25276313881E+02 -0.35489717530E+01  0.28979452808E+02  0.00000000000E+00 0. -1.
<scales pt_clust_5="13000.00000" pt_clust_6="13000.00000" pt_clust_7="13000.00000" pt_clust_8="13000.00000" pt_clust_9="28.76132"></scales>
<clustering>
<clus scale="   28.761">  1  9  2 -1</clus>
<clus scale="   85.370">  5  6 -1 -1</clus>
<clus scale="   94.340">  7  8 -1 -1</clus>
<clus scale="  133.934">  2  5  1 -1</clus>
<clus scale="   28.761">  1  5  2 -1</clus>
</clustering>
</event>
<event>
 9    1  0.1881049E-005  0.1456394E+03  0.7546771E-02  0.1214875E+00
         21   -1    0    0  501  502  0.00000000000E+00  0.00000000000E+00  0.39081208297E+03  0.39081208297E+03  0.00000000000E+00 0. -1.
         -2   -1    0    0    0  501 -0.00000000000E+00 -0.00000000000E+00 -0.91466571294E+02  0.91466571294E+02  0.00000000000E+00 0.  1.
         23    2    1    2    0    0  0.29010702602E+02  0.64205690110E+02  0.13348542891E+02  0.11686564215E+03  0.92278942394E+02 0.  0.
         23    2    1    2    0    0  0.10020351745E+02 -0.10885394453E+03  0.18120850402E+03  0.24500739691E+03  0.12346057639E+03 0.  0.
        -11    1    4    4    0    0 -0.46716948686E+01 -0.13468643246E+03  0.15487030938E+03  0.20529752202E+03  0.00000000000E+00 0. -1.
         11    1    4    4    0    0  0.14692046614E+02  0.25832487932E+02  0.26338194639E+02  0.39709874884E+02  0.00000000000E+00 0.  1.
        -13    1    3    3    0    0  0.53329511657E+01 -0.22071329769E+02 -0.93625366844E+01  0.24560966168E+02  0.00000000000E+00 0. -1.
         13    1    3    3    0    0  0.23677751437E+02  0.86277019879E+02  0.22711079575E+02  0.92304675980E+02  0.00000000000E+00 0.  1.
         -2    1    1    2    0  502 -0.39031054347E+02  0.44648254415E+02  0.10478846476E+03  0.12040561520E+03  0.00000000000E+00 0.  1.
<scales pt_clust_5="13000.00000" pt_clust_6="13000.00000" pt_clust_7="13000.00000" pt_clust_8="13000.00000" pt_clust_9="59.30337"></scales>
<clustering>
<clus scale="   59.303">  1  9  2 -1</clus>
<clus scale="   92.279">  7  8 -1 -1</clus>
<clus scale="  120.348">  2  7  1 -1</clus>
<clus scale="  123.461">  5  6 -1 -1</clus>
<clus scale="   59.303">  1  5  2 -1</clus>
</clustering>
</event>
<event>
 9    1  0.1881049E-005  0.1083348E+03  0.7546771E-02  0.1265172E+00
          3   -1    0    0  502    0 -0.00000000000E+00  0.00000000000E+00  0.73764162434E+03  0.73764162434E+03  0.00000000000E+00 0. -1.
         21   -1    0    0  501  502  0.00000000000E+00 -0.00000000000E+00 -0.21641751911E+02  0.21641751911E+02  0.00000000000E+00 0.  1.
         23    2    1    2    0    0  0.19941552918E+02 -0.61802095741E+02  0.43648900651E+03  0.44994533634E+03  0.87812233341E+02 0.  0.
         23    2    1    2    0    0 -0.44218325418E+01  0.44486572943E+02  0.17684936885E+03  0.20407611882E+03  0.91502760804E+02 0.  0.
        -11    1    3    3    0    0  0.42766972582E+02 -0.22019496351E+01  0.22489428679E+03  0.22893514968E+03  0.00000000000E+00 0. -1.
         11    1    3    3    0    0 -0.22825419664E+02 -0.59600146106E+02  0.21159471971E+03  0.22101018666E+03  0.00000000000E+00 0.  1.
        -13    1    4    4    0    0  0.16183202375E+02  0.13997161614E+02 -0.19909406102E+01  0.21489076687E+02  0.00000000000E+00 0. -1.
         13    1    4    4    0    0 -0.20605034916E+02  0.30489411329E+02  0.17884030946E+03  0.18258704213E+03  0.00000000000E+00 0.  1.
          3    1    1    2  501    0 -0.15519720377E+02  0.17315522798E+02  0.10266149708E+03  0.10526192110E+03  0.00000000000E+00 0. -1.
<scales pt_clust_5="13000.00000" pt_clust_6="13000.00000" pt_clust_7="13000.00000" pt_clust_8="13000.00000" pt_clust_9="23.25273"></scales>
<clustering>
<clus scale="   23.253">  2  9  1 -1</clus>
<clus scale="   87.812">  5  6 -1 -1</clus>
<clus scale="   91.503">  7  8 -1 -1</clus>
<clus scale="  105.236">  1  5  2 -1</clus>
<clus scale="   23.253">  2  5  1 -1</clus>
</clustering>
</event>
<event>
 9    1  0.1881049E-005  0.1407998E+03  0.7546771E-02  0.1215378E+00
         21   -1    0    0  501  502  0.00000000000E+00  0.00000000000E+00  0.80050791342E+03  0.80050791342E+03  0.00000000000E+00 0. -1.
          3   -1    0    0  502    0 -0.00000000000E+00 -0.00000000000E+00 -0.52772372421E+02  0.52772372421E+02  0.00000000000E+00 0. -1.
         23    2    1    2    0    0 -0.10899182301E+03 -0.14125893276E+02  0.32107582154E+03  0.35553006964E+03  0.10598673927E+03 0.  0.
         23    2    1    2    0    0  0.71376385131E+02 -0.36475340184E+02  0.41590057194E+03  0.43378799884E+03  0.93668048974E+02 0.  0.
        -11    1    4    4    0    0 -0.18085467890E+02 -0.97093668009E+01  0.27479344897E+02  0.34299713533E+02  0.00000000000E+00 0.  1.
         11    1    4    4    0    0  0.89461853022E+02 -0.26765973383E+02  0.38842122704E+03  0.39948828530E+03  0.00000000000E+00 0. -1.
        -11    1    3    3    0    0 -0.92144033925E+02  0.16343555515E+02  0.12372025826E+03  0.15512684197E+03  0.00000000000E+00 0. -1.
         11    1    3    3    0    0 -0.16847789083E+02 -0.30469448790E+02  0.19735556327E+03  0.20040322767E+03  0.00000000000E+00 0.  1.
          3    1    1    2  501    0  0.37615437876E+02  0.50601233460E+02  0.10759147520E+02  0.63962217360E+02  0.00000000000E+00 0. -1.
<scales pt_clust_5="13000.00000" pt_clust_6="13000.00000" pt_clust_7="13000.00000" pt_clust_8="13000.00000" pt_clust_9="63.05085"></scales>
<clustering>
<clus scale="   63.051">  1  9  2 -1</clus>
<clus scale="   93.668">  5  6 -1 -1</clus>
<clus scale="  105.987">  7  8 -1 -1</clus>
<clus scale="  131.777">  1  5  2 -1</clus>
<clus scale="   63.051">  1  5  2 -1</clus>
</clustering>
</event>
<event>
 9    1  0.1881049E-005  0.2466398E+03  0.7546771E-02  0.1115502E+00
         21   -1    0    0  501  502  0.00000000000E+00  0.00000000000E+00  0.29343919727E+03  0.29343919727E+03  0.00000000000E+00 0.  1.
          2   -1    0    0  502    0 -0.00000000000E+00 -0.00000000000E+00 -0.46985685500E+03  0.46985685500E+03  0.00000000000E+00 0. -1.
         23    2    1    2    0    0  0.22620002923E+03 -0.68170634320E+02 -0.34547990208E+03  0.42841859452E+03  0.91501042526E+02 0.  0.
         23    2    1    2    0    0 -0.20069167102E+03  0.47278356611E+01  0.13687174940E+03  0.25930039109E+03  0.90572168950E+02 0.  0.
        -11    1    3    3    0    0  0.54809769755E+02 -0.57537871278E+02 -0.13640092975E+03  0.15786047995E+03  0.00000000000E+00 0. -1.
         11    1    3    3    0    0  0.17139025947E+03 -0.10632763042E+02 -0.20907897233E+03  0.27055811458E+03  0.00000000000E+00 0.  1.
        -13    1    4    4    0    0 -0.14831161398E+03  0.27969888344E+02  0.13415470107E+03  0.20193101128E+03  0.00000000000E+00 0. -1.
         13    1    4    4    0    0 -0.52380057041E+02 -0.23242052683E+02  0.27170483288E+01  0.57369379814E+02  0.00000000000E+00 0.  1.
          2    1    1    2  501    0 -0.25508358206E+02  0.63442798659E+02  0.32190494952E+02  0.75577066663E+02  0.00000000000E+00 0. -1.
<scales pt_clust_5="13000.00000" pt_clust_6="13000.00000" pt_clust_7="13000.00000" pt_clust_8="13000.00000" pt_clust_9="68.37883"></scales>
<clustering>
<clus scale="   68.379">  1  9  2 -1</clus>
<clus scale="   90.572">  7  8 -1 -1</clus>
<clus scale="   91.501">  5  6 -1 -1</clus>
<clus scale="  246.297">  1  7  2 -1</clus>
<clus scale="   68.379">  1  5  2 -1</clus>
</clustering>
</event>
<event>
 9    1  0.1881049E-005  0.1043473E+03  0.7546771E-02  0.1274402E+00
          3   -1    0    0  502    0 -0.00000000000E+00  0.00000000000E+00  0.85653630503E+03  0.85653630503E+03  0.00000000000E+00 0. -1.
         21   -1    0    0  501  502  0.00000000000E+00 -0.00000000000E+00 -0.18999934299E+02  0.18999934299E+02  0.00000000000E+00 0.  1.
         23    2    1    2    0    0  0.41612401946E+02  0.71064885597E+01  0.45252139308E+03  0.46368423416E+03  0.91898659605E+02 0.  0.
         23    2    1    2    0    0 -0.60939020244E+02  0.22466185403E+02  0.32506899448E+03  0.34227052690E+03  0.85211318117E+02 0.  0.
        -11    1    3    3    0    0 -0.31732327606E+01 -0.33516360997E+02  0.88729015221E+02  0.94901285569E+02  0.00000000000E+00 0.  1.
         11    1    3    3    0    0  0.44785634707E+02  0.40622849557E+02  0.36379237786E+03  0.36878294859E+03  0.00000000000E+00 0. -1.
        -13    1    4    4    0    0 -0.82828057975E+02  0.18948889704E+02  0.25892846242E+03  0.27251329556E+03  0.00000000000E+00 0.  1.
         13    1    4    4    0    0  0.21889037731E+02  0.35172956993E+01  0.66140532065E+02  0.69757231336E+02  0.00000000000E+00 0. -1.
          3    1    1    2  501    0  0.19326618298E+02 -0.29572673963E+02  0.59945983164E+02  0.69581478266E+02  0.00000000000E+00 0. -1.
<scales pt_clust_5="13000.00000" pt_clust_6="13000.00000" pt_clust_7="13000.00000" pt_clust_8="13000.00000" pt_clust_9="35.32791"></scales>
<clustering>
<clus scale="   35.328">  2  9  1 -1</clus>
<clus scale="   85.211">  7  8 -1 -1</clus>
<clus scale="   91.899">  5  6 -1 -1</clus>
<clus scale="   98.509">  2  7  1 -1</clus>
<clus scale="   35.328">  2  5  1 -1</clus>
</clustering>
</event>
<event>
 9    1  0.1881049E-005  0.1187797E+03  0.7546771E-02  0.1247043E+00
         -2   -1    0    0    0  501 -0.00000000000E+00  0.00000000000E+00  0.59663469591E+03  0.59663469591E+03  0.00000000000E+00 0.  1.
         21   -1    0    0  501  502  0.00000000000E+00 -0.00000000000E+00 -0.32500183893E+02  0.32500183893E+02  0.00000000000E+00 0. -1.
         23    2    1    2    0    0  0.14341884241E+02  0.70640203177E+02  0.39531548588E+03  0.41322834612E+03  0.96372219621E+02 0.  0.
         23    2    1    2    0    0 -0.32151219048E+02 -0.57631916298E+02  0.14630275831E+03  0.18438875694E+03  0.90772120911E+02 0.  0.
        -11    1    3    3    0    0  0.16156693235E+02  0.94239580548E+02  0.29281050939E+03  0.30802618669E+03  0.00000000000E+00 0.  1.
         11    1    3    3    0    0 -0.18148089947E+01 -0.23599377371E+02  0.10250497649E+03  0.10520215943E+03  0.00000000000E+00 0. -1.
        -11    1    4    4    0    0  0.25149656027E+02 -0.47751228520E+02  0.66346387451E+02  0.85525014769E+02  0.00000000000E+00 0. -1.
         11    1    4    4    0    0 -0.57300875075E+02 -0.98806877784E+01  0.79956370860E+02  0.98863742173E+02  0.00000000000E+00 0.  1.
         -2    1    1    2    0  502  0.17809334808E+02 -0.13008286879E+02  0.22516267831E+02  0.31517776744E+02  0.00000000000E+00 0.  1.
<scales pt_clust_5="13000.00000" pt_clust_6="13000.00000" pt_clust_7="13000.00000" pt_clust_8="13000.00000" pt_clust_9="22.05420"></scales>
<clustering>
<clus scale="   22.054">  2  9  1 -1</clus>
<clus scale="   90.772">  7  8 -1 -1</clus>
<clus scale="   96.372">  5  6 -1 -1</clus>
<clus scale="  114.283">  2  7  1 -1</clus>
<clus scale="   22.054">  2  5  1 -1</clus>
</clustering>
</event>
<event>
 9    1  0.1881049E-005  0.3179157E+03  0.7546771E-02  0.1114149E+00
         21   -1    0    0  501  502  0.00000000000E+00  0.00000000000E+00  0.73645535694E+03  0.73645535694E+03  0.00000000000E+00 0.  1.
         -4   -1    0    0    0  501 -0.00000000000E+00 -0.00000000000E+00 -0.22043512962E+03  0.22043512962E+03  0.00000000000E+00 0.  1.
         23    2    1    2    0    0  0.71572092532E+02 -0.28586333216E+02  0.64675117631E+02  0.13544048952E+03  0.90672556404E+02 0.  0.
         23    2    1    2    0    0 -0.28203969767E+03  0.20531430446E+03  0.11386131624E+03  0.38622051794E+03  0.12042231714E+03 0.  0.
        -11    1    4    4    0    0 -0.65109798470E+02  0.55765271009E+02  0.85732512796E+02  0.12123990704E+03  0.00000000000E+00 0. -1.
         11    1    4    4    0    0 -0.21692989920E+03  0.14954903345E+03  0.28128803448E+02  0.26498061090E+03  0.00000000000E+00 0.  1.
        -13    1    3    3    0    0  0.84456076576E+02  0.30408347796E+01  0.41351961910E+02  0.94085388348E+02  0.00000000000E+00 0.  1.
         13    1    3    3    0    0 -0.12883984044E+02 -0.31627167995E+02  0.23323155720E+02  0.41355101173E+02  0.00000000000E+00 0. -1.
         -4    1    1    2    0  502  0.21046760514E+03 -0.17672797124E+03  0.33748379345E+03  0.43522947910E+03  0.00000000000E+00 0.  1.
<scales pt_clust_5="13000.00000" pt_clust_6="13000.00000" pt_clust_7="13000.00000" pt_clust_8="13000.00000" pt_clust_9="294.22587"></scales>
<clustering>
<clus scale="   90.673">  7  8 -1 -1</clus>
<clus scale="  119.001">  2  7  1 -1</clus>
<clus scale="  120.422">  5  6 -1 -1</clus>
<clus scale="  294.226">  1  9  2 -1</clus>
<clus scale="  294.226">  1  5  2 -1</clus>
</clustering>
</event>
<event>
 9    1  0.1881049E-005  0.1175851E+03  0.7546771E-02  0.1247964E+00
         -1   -1    0    0    0  501 -0.00000000000E+00  0.00000000000E+00  0.61066143755E+02  0.61066143755E+02  0.00000000000E+00 0.  1.
         21   -1    0    0  501  502  0.00000000000E+00 -0.00000000000E+00 -0.34339661104E+03  0.34339661104E+03  0.00000000000E+00 0.  1.
         23    2    1    2    0    0  0.87324660758E+02  0.21878312058E+02 -0.90839955562E+02  0.15804211299E+03  0.92850175214E+02 0.  0.
         23    2    1    2    0    0 -0.46240521060E+02 -0.32413617485E+02 -0.10261918096E+03  0.14794723105E+03  0.90381737571E+02 0.  0.
        -11    1    3    3    0    0  0.10330860811E+03  0.34461715284E+02 -0.74490746472E+02  0.13194373665E+03  0.00000000000E+00 0.  1.
         11    1    3    3    0    0 -0.15983947357E+02 -0.12583403226E+02 -0.16349209090E+02  0.26098376343E+02  0.00000000000E+00 0. -1.
        -13    1    4    4    0    0  0.19515043186E+00 -0.42695427564E+02 -0.88620747813E+02  0.98369581485E+02  0.00000000000E+00 0. -1.
         13    1    4    4    0    0 -0.46435671492E+02  0.10281810080E+02 -0.13998433152E+02  0.49577649563E+02  0.00000000000E+00 0.  1.
         -1    1    1    2    0  502 -0.41084139698E+02  0.10535305427E+02 -0.88871330757E+02  0.98473410755E+02  0.00000000000E+00 0.  1.
<scales pt_clust_5="13000.00000" pt_clust_6="13000.00000" pt_clust_7="13000.00000" pt_clust_8="13000.00000" pt_clust_9="42.41343"></scales>
<clustering>
<clus scale="   42.413">  2  9  1 -1</clus>
<clus scale="   90.382">  7  8 -1 -1</clus>
<clus scale="   92.850">  5  6 -1 -1</clus>
<clus scale="  115.646">  2  7  1 -1</clus>
<clus scale="   42.413">  2  5  1 -1</clus>
</clustering>
</event>
<event>
 9    1  0.1881049E-005  0.1192913E+03  0.7546771E-02  0.1250865E+00
          1   -1    0    0  502    0 -0.00000000000E+00  0.00000000000E+00  0.35697976814E+03  0.35697976814E+03  0.00000000000E+00 0. -1.
         21   -1    0    0  501  502  0.00000000000E+00 -0.00000000000E+00 -0.72706095417E+02  0.72706095417E+02  0.00000000000E+00 0.  1.
         23    2    1    2    0    0 -0.45197902567E+02  0.20214542518E+02  0.14129349620E+03  0.17804159556E+03  0.96350815020E+02 0.  0.
         23    2    1    2    0    0  0.89523755699E+02 -0.72096065935E+02  0.89153013396E+02  0.16473145411E+03  0.77303600286E+02 0.  0.
        -11    1    4    4    0    0  0.41157186448E+02 -0.17393347341E+02  0.79339978974E+02  0.91056437398E+02  0.00000000000E+00 0. -1.
         11    1    4    4    0    0  0.48366569251E+02 -0.54702718594E+02  0.98130344226E+01  0.73675016710E+02  0.00000000000E+00 0.  1.
        -13    1    3    3    0    0 -0.39938211535E+02 -0.30257886620E+02  0.37760883375E+02  0.62741411816E+02  0.00000000000E+00 0.  1.
         13    1    3    3    0    0 -0.52596910313E+01  0.50472429138E+02  0.10353261283E+03  0.11530018374E+03  0.00000000000E+00 0. -1.
          1    1    1    2  501    0 -0.44325853133E+02  0.51881523417E+02  0.53827163124E+02  0.86912813888E+02  0.00000000000E+00 0. -1.
<scales pt_clust_5="13000.00000" pt_clust_6="13000.00000" pt_clust_7="13000.00000" pt_clust_8="13000.00000" pt_clust_9="68.23836"></scales>
<clustering>
<clus scale="   68.238">  2  9  1 -1</clus>
<clus scale="   77.304">  5  6 -1 -1</clus>
<clus scale="   96.351">  7  8 -1 -1</clus>
<clus scale="  104.512">  2  5  1 -1</clus>
<clus scale="   68.238">  2  5  1 -1</clus>
</clustering>
</event>
<event>
 9    1  0.1881049E-005  0.1677791E+03  0.7546771E-02  0.1208548E+00
         21   -1    0    0  501  502  0.00000000000E+00  0.00000000000E+00  0.12898487972E+03  0.12898487972E+03  0.00000000000E+00 0. -1.
          1   -1    0    0  502    0 -0.00000000000E+00 -0.00000000000E+00 -0.41607166900E+03  0.41607166900E+03  0.00000000000E+00 0. -1.
         23    2    1    2    0    0  0.84769969176E+01 -0.19484996189E+01 -0.20793501417E+03  0.22660311964E+03  0.89645678023E+02 0.  0.
         23    2    1    2    0    0 -0.12066803662E+03 -0.78018773902E+02 -0.37782505986E+02  0.17460277509E+03  0.91710998083E+02 0.  0.
        -11    1    4    4    0    0 -0.21023246494E+02 -0.29302900135E+02 -0.51468061727E+02  0.62845829037E+02  0.00000000000E+00 0.  1.
         11    1    4    4    0    0 -0.99644790125E+02 -0.48715873767E+02  0.13685555741E+02  0.11175694606E+03  0.00000000000E+00 0. -1.
        -13    1    3    3    0    0 -0.31461932575E+02  0.20964954602E+02 -0.53930911685E+02  0.65862931593E+02  0.00000000000E+00 0.  1.
         13    1    3    3    0    0  0.39938929493E+02 -0.22913454221E+02 -0.15400410248E+03  0.16074018805E+03  0.00000000000E+00 0. -1.
          1    1    1    2  501    0  0.11219103970E+03  0.79967273521E+02 -0.41369269123E+02  0.14385065398E+03  0.00000000000E+00 0. -1.
<scales pt_clust_5="13000.00000" pt_clust_6="13000.00000" pt_clust_7="13000.00000" pt_clust_8="13000.00000" pt_clust_9="140.49529"></scales>
<clustering>
<clus scale="   89.646">  7  8 -1 -1</clus>
<clus scale="   90.067">  2  7  1 -1</clus>
<clus scale="   91.711">  5  6 -1 -1</clus>
<clus scale="  140.495">  1  9  2 -1</clus>
<clus scale="  140.495">  1  5  2 -1</clus>
</clustering>
</event>
<event>
 9    1  0.1881049E-005  0.9651631E+02  0.7546771E-02  0.1288796E+00
         -1   -1    0    0    0  501 -0.00000000000E+00  0.00000000000E+00  0.36684715277E+03  0.36684715277E+03  0.00000000000E+00 0.  1.
         21   -1    0    0  501  502  0.00000000000E+00 -0.00000000000E+00 -0.59157181003E+02  0.59157181003E+02  0.00000000000E+00 0. -1.
         23    2    1    2    0    0 -0.13408498444E+02  0.28669433969E+02  0.27335336345E+03  0.28982442071E+03  0.90963779895E+02 0.  0.
         23    2    1    2    0    0  0.16208471880E+02  0.25652610816E-02  0.46289050355E+02  0.10499042346E+03  0.92831019967E+02 0.  0.
        -11    1    3    3    0    0  0.19286809078E+02 -0.23968251991E+02  0.57001507369E+02  0.64773682544E+02  0.00000000000E+00 0.  1.
         11    1    3    3    0    0 -0.32695307522E+02  0.52637685960E+02  0.21635185609E+03  0.22505073817E+03  0.00000000000E+00 0. -1.
        -13    1    4    4    0    0 -0.99093274295E+01  0.40917797994E+02  0.72970534088E+01  0.42728303866E+02  0.00000000000E+00 0. -1.
         13    1    4    4    0    0  0.26117799309E+02 -0.40915232733E+02  0.38991996947E+02  0.62262119593E+02  0.00000000000E+00 0.  1.
         -1    1    1    2    0  502 -0.27999734352E+01 -0.28671999230E+02 -0.11952442042E+02  0.31189489605E+02  0.00000000000E+00 0.  1.
<scales pt_clust_5="13000.00000" pt_clust_6="13000.00000" pt_clust_7="13000.00000" pt_clust_8="13000.00000" pt_clust_9="28.80839"></scales>
<clustering>
<clus scale="   28.808">  2  9  1 -1</clus>
<clus scale="   90.964">  5  6 -1 -1</clus>
<clus scale="   92.831">  7  8 -1 -1</clus>
<clus scale="   94.722">  1  5  2 -1</clus>
<clus scale="   28.808">  2  5  1 -1</clus>
</clustering>
</event>
<event>
 9    1  0.1881049E-005  0.1545689E+03  0.7546771E-02  0.1196316E+00
         -1   -1    0    0    0  501 -0.00000000000E+00  0.00000000000E+00  0.74012535696E+02  0.74012535696E+02  0.00000000000E+00 0.  1.
         21   -1    0    0  501  502  0.00000000000E+00 -0.00000000000E+00 -0.52937885323E+03  0.52937885323E+03  0.00000000000E+00 0.  1.
         23    2    1    2    0    0  0.65360300462E+02  0.10736560233E+03 -0.91401860500E+02  0.18372725546E+03  0.97990116117E+02 0.  0.
         23    2    1    2    0    0 -0.11157085553E+02 -0.11604221156E+03 -0.21460764517E+03  0.26053924759E+03  0.90741295718E+02 0.  0.
        -13    1    4    4    0    0  0.28286969486E+02 -0.67366332593E+02 -0.16558410722E+03  0.18098749121E+03  0.00000000000E+00 0.  1.
         13    1    4    4    0    0 -0.39444055039E+02 -0.48675878963E+02 -0.49023537957E+02  0.79551756389E+02  0.00000000000E+00 0. -1.
        -13    1    3    3    0    0  0.22535767735E+02  0.11385572675E+03 -0.66489589900E+02  0.13376043102E+03  0.00000000000E+00 0.  1.
         13    1    3    3    0    0  0.42824532727E+02 -0.64901244227E+01 -0.24912270600E+02  0.49966824441E+02  0.00000000000E+00 0. -1.
         -1    1    1    2    0  502 -0.54203214909E+02  0.86766092251E+01 -0.14935681186E+03  0.15912488587E+03  0.00000000000E+00 0.  1.
<scales pt_clust_5="13000.00000" pt_clust_6="13000.00000" pt_clust_7="13000.00000" pt_clust_8="13000.00000" pt_clust_9="54.89328"></scales>
<clustering>
<clus scale="   54.893">  2  9  1 -1</clus>
<clus scale="   90.741">  5  6 -1 -1</clus>
<clus scale="   97.990">  7  8 -1 -1</clus>
<clus scale="  150.078">  2  5  1 -1</clus>
<clus scale="   54.893">  2  5  1 -1</clus>
</clustering>
</event>
<event>
 9    1  0.1881049E-005  0.9809662E+02  0.7546771E-02  0.1285440E+00
          1   -1    0    0  502    0 -0.00000000000E+00  0.00000000000E+00  0.53491971375E+03  0.53491971375E+03  0.00000000000E+00 0. -1.
         21   -1    0    0  501  502  0.00000000000E+00 -0.00000000000E+00 -0.77480834064E+02  0.77480834064E+02  0.00000000000E+00 0. -1.
         23    2    1    2    0    0  0.21175065072E+02 -0.15758873176E+02  0.29827359419E+03  0.31347233686E+03  0.92741811084E+02 0.  0.
         23    2    1    2    0    0 -0.48445008946E+02 -0.14130852652E+02  0.20984268990E+03  0.23408035157E+03  0.90625915700E+02 0.  0.
        -11    1    3    3    0    0  0.20788588515E+02  0.28196496435E+02  0.48318504240E+02  0.59681535466E+02  0.00000000000E+00 0.  1.
         11    1    3    3    0    0  0.38647655686E+00 -0.43955369611E+02  0.24995508995E+03  0.25379080140E+03  0.00000000000E+00 0. -1.
        -13    1    4    4    0    0  0.11829146475E+02 -0.29084434772E+02  0.28517697243E+02  0.42415705916E+02  0.00000000000E+00 0.  1.
         13    1    4    4    0    0 -0.60274155421E+02  0.14953582121E+02  0.18132499266E+03  0.19166464565E+03  0.00000000000E+00 0. -1.
          1    1    1    2  501    0  0.27269943875E+02  0.29889725827E+02 -0.50677404407E+02  0.64847859382E+02  0.00000000000E+00 0. -1.
<scales pt_clust_5="13000.00000" pt_clust_6="13000.00000" pt_clust_7="13000.00000" pt_clust_8="13000.00000" pt_clust_9="40.46042"></scales>
<clustering>
<clus scale="   40.460">  2  9  1 -1</clus>
<clus scale="   90.626">  7  8 -1 -1</clus>
<clus scale="   92.742">  5  6 -1 -1</clus>
<clus scale="   96.099">  2  7  1 -1</clus>
<clus scale="   40.460">  2  5  1 -1</clus>
</clustering>
</event>
<event>
 9    1  0.1881049E-005  0.9613168E+02  0.7546771E-02  0.1288909E+00
         21   -1    0    0  501  502  0.00000000000E+00  0.00000000000E+00  0.54526507162E+02  0.54526507162E+02  0.00000000000E+00 0.  1.
         -1   -1    0    0    0  501 -0.00000000000E+00 -0.00000000000E+00 -0.58862347867E+03  0.58862347867E+03  0.00000000000E+00 0.  1.
         23    2    1    2    0    0  0.21989111509E+00 -0.58120279811E+02 -0.35082127044E+03  0.36683294966E+03  0.90071271138E+02 0.  0.
         23    2    1    2    0    0  0.45163543651E+01  0.40542057778E+01 -0.20024894794E+03  0.21945172608E+03  0.89568883484E+02 0.  0.
        -11    1    4    4    0    0  0.20960440965E+02  0.32851429273E+02 -0.40139043961E+02  0.55943715830E+02  0.00000000000E+00 0. -1.
         11    1    4    4    0    0 -0.16444086600E+02 -0.28797223495E+02 -0.16010990398E+03  0.16350801025E+03  0.00000000000E+00 0.  1.
        -13    1    3    3    0    0 -0.39738910123E+02 -0.89770609717E+01 -0.96587054495E+02  0.10482760942E+03  0.00000000000E+00 0. -1.
         13    1    3    3    0    0  0.39958801238E+02 -0.49143218839E+02 -0.25423421595E+03  0.26200534024E+03  0.00000000000E+00 0.  1.
         -1    1    1    2    0  502 -0.47362454802E+01  0.54066074033E+02  0.16973246870E+02  0.56865310092E+02  0.00000000000E+00 0.  1.
<scales pt_clust_5="13000.00000" pt_clust_6="13000.00000" pt_clust_7="13000.00000" pt_clust_8="13000.00000" pt_clust_9="54.27313"></scales>
<clustering>
<clus scale="   54.273">  1  9  2 -1</clus>
<clus scale="   89.569">  5  6 -1 -1</clus>
<clus scale="   90.071">  7  8 -1 -1</clus>
<clus scale="   95.661">  1  5  2 -1</clus>
<clus scale="   54.273">  1  5  2 -1</clus>
</clustering>
</event>
<event>
 9    1  0.1881049E-005  0.9344054E+02  0.7546771E-02  0.1295260E+00
         -3   -1    0    0    0  501 -0.00000000000E+00  0.00000000000E+00  0.16851123089E+03  0.16851123089E+03  0.00000000000E+00 0.  1.
         21   -1    0    0  501  502  0.00000000000E+00 -0.00000000000E+00 -0.69339815305E+02  0.69339815305E+02  0.00000000000E+00 0. -1.
         23    2    1    2    0    0  0.15163695382E+02  0.45169775501E+01  0.49384358681E+02  0.10471350964E+03  0.90971223331E+02 0.  0.
         23    2    1    2    0    0 -0.14415230162E+02  0.21377278489E+02  0.48819443904E+02  0.10721440074E+03  0.91906489033E+02 0.  0.
        -13    1    4    4    0    0  0.29832868816E+02 -0.18859484705E+02  0.13710821780E+02  0.37863793510E+02  0.00000000000E+00 0. -1.
         13    1    4    4    0    0 -0.44248098978E+02  0.40236763194E+02  0.35108622124E+02  0.69350607228E+02  0.00000000000E+00 0.  1.
        -13    1    3    3    0    0 -0.22074978696E+02 -0.21079079179E+02  0.51068795426E+02  0.59494992476E+02  0.00000000000E+00 0.  1.
         13    1    3    3    0    0  0.37238674077E+02  0.25596056729E+02 -0.16844367446E+01  0.45218517161E+02  0.00000000000E+00 0. -1.
         -3    1    1    2    0  502 -0.74846521961E+00 -0.25894256039E+02  0.96761300273E+00  0.25923135824E+02  0.00000000000E+00 0.  1.
<scales pt_clust_5="13000.00000" pt_clust_6="13000.00000" pt_clust_7="13000.00000" pt_clust_8="13000.00000" pt_clust_9="25.90507"></scales>
<clustering>
<clus scale="   25.905">  2  9  1 -1</clus>
<clus scale="   90.971">  7  8 -1 -1</clus>
<clus scale="   91.906">  5  6 -1 -1</clus>
<clus scale="   92.521">  1  7  2 -1</clus>
<clus scale="   25.905">  2  5  1 -1</clus>
</clustering>
</event>
<event>
 9    1  0.1881049E-005  0.9615358E+02  0.7546771E-02  0.1291015E+00
         21   -1    0    0  501  502  0.00000000000E+00  0.00000000000E+00  0.14598969958E+03  0.14598969958E+03  0.00000000000E+00 0. -1.
          1   -1    0    0  502    0 -0.00000000000E+00 -0.00000000000E+00 -0.34202257202E+03  0.34202257202E+03  0.00000000000E+00 0. -1.
         23    2    1    2    0    0 -0.18852220214E+01 -0.24038079072E+02 -0.25400279206E+03  0.26980781331E+03  0.87735137994E+02 0.  0.
         23    2    1    2    0    0  0.30136118713E+02  0.36714177440E+02 -0.43247147445E+02  0.11235696753E+03  0.92182731108E+02 0.  0.
        -11    1    3    3    0    0  0.36729111274E+02 -0.22695650726E+02 -0.73734122082E+02  0.85444958518E+02  0.00000000000E+00 0.  1.
         11    1    3    3    0    0 -0.38614333296E+02 -0.13424283454E+01 -0.18026866998E+03  0.18436285479E+03  0.00000000000E+00 0. -1.
        -13    1    4    4    0    0  0.49036439535E+02  0.53657808949E+02 -0.14707164056E+02  0.74162210984E+02  0.00000000000E+00 0.  1.
         13    1    4    4    0    0 -0.18900320822E+02 -0.16943631509E+02 -0.28539983389E+02  0.38194756547E+02  0.00000000000E+00 0. -1.
          1    1    1    2  501    0 -0.28250896692E+02 -0.12676098368E+02  0.10121706707E+03  0.10584749076E+03  0.00000000000E+00 0. -1.
<scales pt_clust_5="13000.00000" pt_clust_6="13000.00000" pt_clust_7="13000.00000" pt_clust_8="13000.00000" pt_clust_9="30.96444"></scales>
<clustering>
<clus scale="   30.964">  1  9  2 -1</clus>
<clus scale="   87.735">  5  6 -1 -1</clus>
<clus scale="   91.898">  2  5  1 -1</clus>
<clus scale="   92.183">  7  8 -1 -1</clus>
<clus scale="   30.964">  1  5  2 -1</clus>
</clustering>
</event>
<event>
 9    1  0.1881049E-005  0.1108135E+03  0.7546771E-02  0.1259164E+00
          1   -1    0    0  502    0 -0.00000000000E+00  0.00000000000E+00  0.43748310823E+03  0.43748310823E+03  0.00000000000E+00 0. -1.
         21   -1    0    0  501  502  0.00000000000E+00 -0.00000000000E+00 -0.49892520332E+02  0.49892520332E+02  0.00000000000E+00 0.  1.
         23    2    1    2    0    0 -0.38575335808E+02 -0.68593784004E+02  0.17883449199E+03  0.21558323087E+03  0.91110867470E+02 0.  0.
         23    2    1    2    0    0  0.36596377375E+02  0.21948778125E+02  0.63363199756E+02  0.11908756115E+03  0.91355943651E+02 0.  0.
        -11    1    3    3    0    0 -0.39997396858E+02 -0.30718109717E+02  0.23403790855E+02  0.55597944624E+02  0.00000000000E+00 0.  1.
         11    1    3    3    0    0  0.14220610499E+01 -0.37875674287E+02  0.15543070114E+03  0.15998528625E+03  0.00000000000E+00 0. -1.
        -13    1    4    4    0    0  0.64537690655E+01 -0.35103115010E+02  0.28967841713E+02  0.45967550207E+02  0.00000000000E+00 0.  1.
         13    1    4    4    0    0  0.30142608310E+02  0.57051893135E+02  0.34395358043E+02  0.73120010947E+02  0.00000000000E+00 0. -1.
          1    1    1    2  501    0  0.19789584323E+01  0.46645005880E+02  0.14539289614E+03  0.15270483653E+03  0.00000000000E+00 0. -1.
<scales pt_clust_5="13000.00000" pt_clust_6="13000.00000" pt_clust_7="13000.00000" pt_clust_8="13000.00000" pt_clust_9="46.68699"></scales>
<clustering>
<clus scale="   46.687">  2  9  1 -1</clus>
<clus scale="   91.111">  5  6 -1 -1</clus>
<clus scale="   91.356">  7  8 -1 -1</clus>
<clus scale="  110.611">  1  5  2 -1</clus>
<clus scale="   46.687">  2  5  1 -1</clus>
</clustering>
</event>
<event>
 9    1  0.1881049E-005  0.1601539E+03  0.7546771E-02  0.1189076E+00
          1   -1    0    0  502    0 -0.00000000000E+00  0.00000000000E+00  0.85670029700E+03  0.85670029700E+03  0.00000000000E+00 0. -1.
         21   -1    0    0  501  502  0.00000000000E+00 -0.00000000000E+00 -0.57953397110E+02  0.57953397110E+02  0.00000000000E+00 0. -1.
         23    2    1    2    0    0  0.94409046874E+02  0.48995373152E+02  0.30784867969E+03  0.33905616526E+03  0.94205407973E+02 0.  0.
         23    2    1    2    0    0 -0.12662445156E+03 -0.85693922716E+02  0.49559357331E+03  0.52653978553E+03  0.90851283547E+02 0.  0.
        -11    1    3    3    0    0  0.80038523982E+01  0.53751576831E+02  0.97885017606E+02  0.11195878856E+03  0.00000000000E+00 0.  1.
         11    1    3    3    0    0  0.86405194476E+02 -0.47562036793E+01  0.20996366209E+03  0.22709737670E+03  0.00000000000E+00 0. -1.
        -13    1    4    4    0    0  0.14277567928E+01 -0.26401653058E+02  0.29793579836E+02  0.39833944986E+02  0.00000000000E+00 0.  1.
         13    1    4    4    0    0 -0.12805220835E+03 -0.59292269658E+02  0.46579999347E+03  0.48670584054E+03  0.00000000000E+00 0. -1.
          1    1    1    2  501    0  0.32215404683E+02  0.36698549564E+02 -0.46953531064E+01  0.49057743321E+02  0.00000000000E+00 0. -1.
<scales pt_clust_5="13000.00000" pt_clust_6="13000.00000" pt_clust_7="13000.00000" pt_clust_8="13000.00000" pt_clust_9="48.83253"></scales>
<clustering>
<clus scale="   48.833">  2  9  1 -1</clus>
<clus scale="   90.851">  7  8 -1 -1</clus>
<clus scale="   94.205">  5  6 -1 -1</clus>
<clus scale="  158.204">  2  7  1 -1</clus>
<clus scale="   48.833">  2  5  1 -1</clus>
</clustering>
</event>
<event>
 9    1  0.1881049E-005  0.9835483E+02  0.7546771E-02  0.1284422E+00
         -1   -1    0    0    0  501 -0.00000000000E+00  0.00000000000E+00  0.24534940585E+03  0.24534940585E+03  0.00000000000E+00 0.  1.
         21   -1    0    0  501  502  0.00000000000E+00 -0.00000000000E+00 -0.13809082309E+03  0.13809082309E+03  0.00000000000E+00 0. -1.
         23    2    1    2    0    0 -0.10916707732E+01  0.29918065933E+02  0.19232154934E+03  0.21552139290E+03  0.92550581004E+02 0.  0.
         23    2    1    2    0    0  0.12077113744E+02 -0.54531925432E+02 -0.37819274723E+02  0.11352684714E+03  0.91315168035E+02 0.  0.
        -11    1    4    4    0    0 -0.11695445713E+02 -0.17084772089E+02  0.27591130588E+02  0.34495555871E+02  0.00000000000E+00 0.  1.
         11    1    4    4    0    0  0.23772559457E+02 -0.37447153343E+02 -0.65410405311E+02  0.79031291268E+02  0.00000000000E+00 0. -1.
        -11    1    3    3    0    0  0.28553517913E+02 -0.21760189147E+02  0.93170908543E+02  0.99848021591E+02  0.00000000000E+00 0. -1.
         11    1    3    3    0    0 -0.29645188686E+02  0.51678255080E+02  0.99150640796E+02  0.11567337131E+03  0.00000000000E+00 0.  1.
         -1    1    1    2    0  502 -0.10985442971E+02  0.24613859499E+02 -0.47243691850E+02  0.54391988899E+02  0.00000000000E+00 0.  1.
<scales pt_clust_5="13000.00000" pt_clust_6="13000.00000" pt_clust_7="13000.00000" pt_clust_8="13000.00000" pt_clust_9="26.95407"></scales>
<clustering>
<clus scale="   26.954">  2  9  1 -1</clus>
<clus scale="   91.315">  5  6 -1 -1</clus>
<clus scale="   92.551">  7  8 -1 -1</clus>
<clus scale="   97.193">  2  5  1 -1</clus>
<clus scale="   26.954">  2  5  1 -1</clus>
</clustering>
</event>
<event>
 9    1  0.1881049E-005  0.1058097E+03  0.7546771E-02  0.1269675E+00
         21   -1    0    0  501  502  0.00000000000E+00  0.00000000000E+00  0.71878496933E+02  0.71878496933E+02  0.00000000000E+00 0. -1.
         -4   -1    0    0    0  501 -0.00000000000E+00 -0.00000000000E+00 -0.36122701878E+03  0.36122701878E+03  0.00000000000E+00 0.  1.
         23    2    1    2    0    0 -0.56572641692E+02 -0.14253675401E+02 -0.21530116938E+03  0.24123834633E+03  0.91857036511E+02 0.  0.
         23    2    1    2    0    0  0.44871815340E+02 -0.33321410232E+02 -0.91900031840E+02  0.13972298206E+03  0.89180152897E+02 0.  0.
        -11    1    3    3    0    0 -0.23401555764E+02 -0.52213162791E+02 -0.96558603954E+02  0.11223818948E+03  0.00000000000E+00 0. -1.
         11    1    3    3    0    0 -0.33171085929E+02  0.37959487390E+02 -0.11874256542E+03  0.12900015685E+03  0.00000000000E+00 0.  1.
        -13    1    4    4    0    0  0.40499196396E+02 -0.10125605735E+02  0.30747778056E+01  0.41858894619E+02  0.00000000000E+00 0. -1.
         13    1    4    4    0    0  0.43726189444E+01 -0.23195804497E+02 -0.94974809645E+02  0.97864087437E+02  0.00000000000E+00 0.  1.
         -4    1    1    2    0  502  0.11700826352E+02  0.47575085633E+02  0.17852679374E+02  0.52144187319E+02  0.00000000000E+00 0.  1.
<scales pt_clust_5="13000.00000" pt_clust_6="13000.00000" pt_clust_7="13000.00000" pt_clust_8="13000.00000" pt_clust_9="48.99284"></scales>
<clustering>
<clus scale="   48.993">  1  9  2 -1</clus>
<clus scale="   89.180">  7  8 -1 -1</clus>
<clus scale="   91.857">  5  6 -1 -1</clus>
<clus scale="  103.494">  1  7  2 -1</clus>
<clus scale="   48.993">  1  5  2 -1</clus>
</clustering>
</event>
<event>
 9    1  0.1881049E-005  0.9429683E+02  0.7546771E-02  0.1296366E+00
          2   -1    0    0  502    0 -0.00000000000E+00  0.00000000000E+00  0.89624668910E+02  0.89624668910E+02  0.00000000000E+00 0. -1.
         21   -1    0    0  501  502  0.00000000000E+00 -0.00000000000E+00 -0.37426027118E+03  0.37426027118E+03  0.00000000000E+00 0. -1.
         23    2    1    2    0    0 -0.18854411017E+02 -0.19313997240E+01  0.40131751989E+02  0.96281228245E+02  0.85441782957E+02 0.  0.
         23    2    1    2    0    0  0.40428282131E+02 -0.52110076480E+02 -0.19451255844E+03  0.22494248762E+03  0.91728301395E+02 0.  0.
        -11    1    3    3    0    0 -0.44702576451E+02  0.24138778006E+02  0.22905274539E+02  0.55728381878E+02  0.00000000000E+00 0.  1.
         11    1    3    3    0    0  0.25848165433E+02 -0.26070177730E+02  0.17226477450E+02  0.40552846367E+02  0.00000000000E+00 0. -1.
        -13    1    4    4    0    0  0.48646658775E+02 -0.73649237183E+02 -0.16825048222E+03  0.18999719028E+03  0.00000000000E+00 0. -1.
         13    1    4    4    0    0 -0.82183766439E+01  0.21539160702E+02 -0.26262076226E+02  0.34945297339E+02  0.00000000000E+00 0.  1.
          2    1    1    2  501    0 -0.21573871114E+02  0.54041476204E+02 -0.13025479581E+03  0.14266122422E+03  0.00000000000E+00 0. -1.
<scales pt_clust_5="13000.00000" pt_clust_6="13000.00000" pt_clust_7="13000.00000" pt_clust_8="13000.00000" pt_clust_9="58.18860"></scales>
<clustering>
<clus scale="   58.189">  2  9  1 -1</clus>
<clus scale="   85.442">  5  6 -1 -1</clus>
<clus scale="   88.194">  1  5  2 -1</clus>
<clus scale="   91.728">  7  8 -1 -1</clus>
<clus scale="   58.189">  2  5  1 -1</clus>
</clustering>
</event>
<event>
 9    1  0.1881049E-005  0.1156505E+03  0.7546771E-02  0.1251045E+00
         21   -1    0    0  501  502  0.00000000000E+00  0.00000000000E+00  0.63182548930E+02  0.63182548930E+02  0.00000000000E+00 0.  1.
          1   -1    0    0  502    0 -0.00000000000E+00 -0.00000000000E+00 -0.40208396684E+03  0.40208396684E+03  0.00000000000E+00 0. -1.
         23    2    1    2    0    0 -0.43686420158E+02 -0.64762844845E+02 -0.27049370309E+03  0.29657269014E+03  0.93197573726E+02 0.  0.
         23    2    1    2    0    0  0.10354140714E+02  0.50913043588E+02 -0.78428458935E+02  0.13123353786E+03  0.91497934682E+02 0.  0.
        -13    1    3    3    0    0 -0.40685761442E+02  0.13760837059E+02 -0.90594371382E+02  0.10025982220E+03  0.00000000000E+00 0.  1.
         13    1    3    3    0    0 -0.30006587159E+01 -0.78523681904E+02 -0.17989933170E+03  0.19631286794E+03  0.00000000000E+00 0. -1.
        -13    1    4    4    0    0 -0.15974500812E+02  0.70010322815E+02 -0.61609236932E+02  0.94616742981E+02  0.00000000000E+00 0.  1.
         13    1    4    4    0    0  0.26328641525E+02 -0.19097279227E+02 -0.16819222002E+02  0.36616794879E+02  0.00000000000E+00 0. -1.
          1    1    1    2  501    0  0.33332279444E+02  0.13849801257E+02  0.10020744106E+02  0.37460287776E+02  0.00000000000E+00 0. -1.
<scales pt_clust_5="13000.00000" pt_clust_6="13000.00000" pt_clust_7="13000.00000" pt_clust_8="13000.00000" pt_clust_9="36.09512"></scales>
<clustering>
<clus scale="   36.095">  1  9  2 -1</clus>
<clus scale="   91.498">  7  8 -1 -1</clus>
<clus scale="   93.198">  5  6 -1 -1</clus>
<clus scale="  114.285">  1  7  2 -1</clus>
<clus scale="   36.095">  1  5  2 -1</clus>
</clustering>
</event>
<event>
 9    1  0.1881049E-005  0.1058306E+03  0.7546771E-02  0.1275441E+00
         -4   -1    0    0    0  501 -0.00000000000E+00  0.00000000000E+00  0.29285545804E+03  0.29285545804E+03  0.00000000000E+00 0.  1.
         21   -1    0    0  501  502  0.00000000000E+00 -0.00000000000E+00 -0.11892943660E+03  0.11892943660E+03  0.00000000000E+00 0. -1.
         23    2    1    2    0    0  0.19194520697E+02 -0.46627783110E+02  0.20896687801E+03  0.22760044938E+03  0.74781205320E+02 0.  0.
         23    2    1    2    0    0 -0.36734298217E+02  0.67375803712E+02  0.22169071738E+02  0.12085119924E+03  0.90689784568E+02 0.  0.
        -11    1    4    4    0    0 -0.17702922853E+02 -0.21057934968E+02  0.11304918151E+02  0.29742751673E+02  0.00000000000E+00 0.  1.
         11    1    4    4    0    0 -0.19031375363E+02  0.88433738680E+02  0.10864153588E+02  0.91108447568E+02  0.00000000000E+00 0. -1.
        -11    1    3    3    0    0 -0.14191243844E+02 -0.43044183847E+02  0.61721078256E+02  0.76574699908E+02  0.00000000000E+00 0.  1.
         11    1    3    3    0    0  0.33385764542E+02 -0.35835992630E+01  0.14724579975E+03  0.15102574947E+03  0.00000000000E+00 0. -1.
         -4    1    1    2    0  502  0.17539777519E+02 -0.20748020602E+02 -0.57209928306E+02  0.63333246017E+02  0.00000000000E+00 0.  1.
<scales pt_clust_5="13000.00000" pt_clust_6="13000.00000" pt_clust_7="13000.00000" pt_clust_8="13000.00000" pt_clust_9="27.16844"></scales>
<clustering>
<clus scale="   27.168">  2  9  1 -1</clus>
<clus scale="   74.781">  7  8 -1 -1</clus>
<clus scale="   90.690">  5  6 -1 -1</clus>
<clus scale="   92.562">  1  7  2 -1</clus>
<clus scale="   27.168">  2  5  1 -1</clus>
</clustering>
</event>
<event>
 9    1  0.1881049E-005  0.9607788E+02  0.7546771E-02  0.1289518E+00
          2   -1    0    0  502    0 -0.00000000000E+00  0.00000000000E+00  0.31196322005E+03  0.31196322005E+03  0.00000000000E+00 0. -1.
         21   -1    0    0  501  502  0.00000000000E+00 -0.00000000000E+00 -0.11663773544E+03  0.11663773544E+03  0.00000000000E+00 0. -1.
         23    2    1    2    0    0  0.18104319982E+02 -0.30288410179E+02  0.21844917247E+03  0.23947486592E+03  0.91558813121E+02 0.  0.
         23    2    1    2    0    0 -0.60951548618E+01  0.12834078554E+02  0.56096243366E+02  0.10712199672E+03  0.90146931040E+02 0.  0.
        -11    1    3    3    0    0 -0.21571197647E+01  0.31125422843E+02  0.96806886957E+02  0.10171046394E+03  0.00000000000E+00 0.  1.
         11    1    3    3    0    0  0.20261439747E+02 -0.61413833022E+02  0.12164228552E+03  0.13776440198E+03  0.00000000000E+00 0. -1.
        -11    1    4    4    0    0  0.22516780322E+02  0.48689403955E+01  0.70460420012E+02  0.74130848942E+02  0.00000000000E+00 0. -1.
         11    1    4    4    0    0 -0.28611935184E+02  0.79651381581E+01 -0.14364176646E+02  0.32991147776E+02  0.00000000000E+00 0.  1.
          2    1    1    2  501    0 -0.12009165121E+02  0.17454331625E+02 -0.79219931236E+02  0.82004092852E+02  0.00000000000E+00 0. -1.
<scales pt_clust_5="13000.00000" pt_clust_6="13000.00000" pt_clust_7="13000.00000" pt_clust_8="13000.00000" pt_clust_9="21.18664"></scales>
<clustering>
<clus scale="   21.187">  2  9  1 -1</clus>
<clus scale="   90.147">  7  8 -1 -1</clus>
<clus scale="   91.559">  5  6 -1 -1</clus>
<clus scale="   94.733">  2  7  1 -1</clus>
<clus scale="   21.187">  2  5  1 -1</clus>
</clustering>
</event>
<event>
 9    1  0.1881049E-005  0.1421883E+03  0.7546771E-02  0.1217565E+00
          1   -1    0    0  502    0 -0.00000000000E+00  0.00000000000E+00  0.46845983562E+03  0.46845983562E+03  0.00000000000E+00 0. -1.
         21   -1    0    0  501  502  0.00000000000E+00 -0.00000000000E+00 -0.88911060202E+02  0.88911060202E+02  0.00000000000E+00 0.  1.
         23    2    1    2    0    0 -0.21001489500E+02 -0.85687975347E+02  0.39845439709E+03  0.42377271425E+03  0.11416617317E+03 0.  0.
         23    2    1    2    0    0  0.12174348361E+02  0.66635865637E+02 -0.13166087565E+02  0.11183023365E+03  0.88000579260E+02 0.  0.
        -13    1    3    3    0    0 -0.38328071196E+02 -0.10194616043E+03  0.37456961727E+03  0.39008263080E+03  0.00000000000E+00 0. -1.
         13    1    3    3    0    0  0.17326581696E+02  0.16258185083E+02  0.23884779822E+02  0.33690083446E+02  0.00000000000E+00 0.  1.
        -13    1    4    4    0    0 -0.12521728861E+01  0.83735965133E+02  0.44271604981E+01  0.83862265315E+02  0.00000000000E+00 0.  1.
         13    1    4    4    0    0  0.13426521247E+02 -0.17100099496E+02 -0.17593248064E+02  0.27967968339E+02  0.00000000000E+00 0. -1.
          1    1    1    2  501    0  0.88271411394E+01  0.19052109710E+02 -0.57395341074E+01  0.21767947925E+02  0.00000000000E+00 0. -1.
<scales pt_clust_5="13000.00000" pt_clust_6="13000.00000" pt_clust_7="13000.00000" pt_clust_8="13000.00000" pt_clust_9="20.99765"></scales>
<clustering>
<clus scale="   20.998">  2  9  1 -1</clus>
<clus scale="   88.001">  7  8 -1 -1</clus>
<clus scale="  114.166">  5  6 -1 -1</clus>
<clus scale="  122.179">  2  7  1 -1</clus>
<clus scale="   20.998">  2  5  1 -1</clus>
</clustering>
</event>
<event>
 9    1  0.1881049E-005  0.1130835E+03  0.7546771E-02  0.1255767E+00
         21   -1    0    0  501  502  0.00000000000E+00  0.00000000000E+00  0.10065175793E+03  0.10065175793E+03  0.00000000000E+00 0. -1.
          1   -1    0    0  502    0 -0.00000000000E+00 -0.00000000000E+00 -0.75703933138E+03  0.75703933138E+03  0.00000000000E+00 0. -1.
         23    2    1    2    0    0 -0.61904380288E+02 -0.45028186135E+02 -0.51552965654E+03  0.52881426879E+03  0.89521026917E+02 0.  0.
         23    2    1    2    0    0  0.88505935869E+01  0.57775553062E+02 -0.21256091604E+03  0.23877399187E+03  0.91730739825E+02 0.  0.
        -11    1    4    4    0    0  0.29370692992E+02 -0.13109970930E+02 -0.91561497929E+02  0.97046467467E+02  0.00000000000E+00 0.  1.
         11    1    4    4    0    0 -0.20520099406E+02  0.70885523993E+02 -0.12099941811E+03  0.14172752441E+03  0.00000000000E+00 0. -1.
        -13    1    3    3    0    0 -0.23708099084E+02 -0.67302618031E+02 -0.26639132388E+03  0.27578262054E+03  0.00000000000E+00 0.  1.
         13    1    3    3    0    0 -0.38196281204E+02  0.22274431896E+02 -0.24913833266E+03  0.25303164825E+03  0.00000000000E+00 0. -1.
          1    1    1    2  501    0  0.53053786701E+02 -0.12747366928E+02  0.71702999122E+02  0.90102828646E+02  0.00000000000E+00 0. -1.
<scales pt_clust_5="13000.00000" pt_clust_6="13000.00000" pt_clust_7="13000.00000" pt_clust_8="13000.00000" pt_clust_9="54.56372"></scales>
<clustering>
<clus scale="   54.564">  1  9  2 -1</clus>
<clus scale="   89.521">  7  8 -1 -1</clus>
<clus scale="   91.731">  5  6 -1 -1</clus>
<clus scale="  111.299">  2  7  1 -1</clus>
<clus scale="   54.564">  1  5  2 -1</clus>
</clustering>
</event>
<event>
 9    1  0.1881049E-005  0.1316551E+03  0.7546771E-02  0.1240966E+00
         21   -1    0    0  501  502  0.00000000000E+00  0.00000000000E+00  0.31111895882E+03  0.31111895882E+03  0.00000000000E+00 0. -1.
          1   -1    0    0  502    0 -0.00000000000E+00 -0.00000000000E+00 -0.18541101545E+03  0.18541101545E+03  0.00000000000E+00 0. -1.
         23    2    1    2    0    0 -0.27796223665E+01  0.31329088562E+02 -0.50476291734E+02  0.10746544858E+03  0.89508259516E+02 0.  0.
         23    2    1    2    0    0 -0.31151440715E+02  0.58818938602E+02 -0.63703446209E+02  0.13056097930E+03  0.92509245268E+02 0.  0.
        -11    1    3    3    0    0  0.35001085544E+02  0.65585280133E+00 -0.47098803874E+02  0.58683928452E+02  0.00000000000E+00 0.  1.
         11    1    3    3    0    0 -0.37780707910E+02  0.30673235761E+02 -0.33774878603E+01  0.48781520133E+02  0.00000000000E+00 0. -1.
        -13    1    4    4    0    0  0.10242503969E+02 -0.21362968735E+02 -0.14614885479E+02  0.27836670029E+02  0.00000000000E+00 0.  1.
         13    1    4    4    0    0 -0.41393944684E+02  0.80181907338E+02 -0.49088560729E+02  0.10272430927E+03  0.00000000000E+00 0. -1.
          1    1    1    2  501    0  0.33931063081E+02 -0.90148027165E+02  0.23988768132E+03  0.25850354638E+03  0.00000000000E+00 0. -1.
<scales pt_clust_5="13000.00000" pt_clust_6="13000.00000" pt_clust_7="13000.00000" pt_clust_8="13000.00000" pt_clust_9="93.67553"></scales>
<clustering>
<clus scale="   89.508">  5  6 -1 -1</clus>
<clus scale="   92.509">  7  8 -1 -1</clus>
<clus scale="   94.873">  2  5  1 -1</clus>
<clus scale="   93.676">  1  9  2 -1</clus>
<clus scale="   93.676">  1  5  2 -1</clus>
</clustering>
</event>
<event>
 9    1  0.1881049E-005  0.1071601E+03  0.7546771E-02  0.1266309E+00
         21   -1    0    0  501  502  0.00000000000E+00  0.00000000000E+00  0.30800793076E+03  0.30800793076E+03  0.00000000000E+00 0. -1.
          2   -1    0    0  502    0 -0.00000000000E+00 -0.00000000000E+00 -0.20062498960E+03  0.20062498960E+03  0.00000000000E+00 0. -1.
         23    2    1    2    0    0  0.60074104794E-02  0.64622264529E+02 -0.11163068436E+03  0.15795369060E+03  0.91169740449E+02 0.  0.
         23    2    1    2    0    0 -0.26284834628E+02 -0.35209888568E+02 -0.23712180965E+02  0.10476973064E+03  0.92107546637E+02 0.  0.
        -11    1    3    3    0    0  0.94343865510E+01  0.18516623515E+02  0.13150865472E+02  0.24593053057E+02  0.00000000000E+00 0.  1.
         11    1    3    3    0    0 -0.94283791405E+01  0.46105641013E+02 -0.12478154983E+03  0.13336063754E+03  0.00000000000E+00 0. -1.
        -13    1    4    4    0    0 -0.58706102612E+02 -0.23451156298E+02 -0.53784401846E+00  0.63219083288E+02  0.00000000000E+00 0.  1.
         13    1    4    4    0    0  0.32421267984E+02 -0.11758732270E+02 -0.23174336947E+02  0.41550647350E+02  0.00000000000E+00 0. -1.
          2    1    1    2  501    0  0.26278827217E+02 -0.29412375961E+02  0.24272580650E+03  0.24590949912E+03  0.00000000000E+00 0. -1.
<scales pt_clust_5="13000.00000" pt_clust_6="13000.00000" pt_clust_7="13000.00000" pt_clust_8="13000.00000" pt_clust_9="39.44191"></scales>
<clustering>
<clus scale="   39.442">  1  9  2 -1</clus>
<clus scale="   91.170">  5  6 -1 -1</clus>
<clus scale="   92.108">  7  8 -1 -1</clus>
<clus scale="  106.355">  2  5  1 -1</clus>
<clus scale="   39.442">  1  5  2 -1</clus>
</clustering>
</event>
<event>
 9    1  0.1881049E-005  0.1510240E+03  0.7546771E-02  0.1216257E+00
         21   -1    0    0  501  502  0.00000000000E+00  0.00000000000E+00  0.57399538456E+02  0.57399538456E+02  0.00000000000E+00 0. -1.
          3   -1    0    0  502    0 -0.00000000000E+00 -0.00000000000E+00 -0.96436650100E+03  0.96436650100E+03  0.00000000000E+00 0. -1.
         23    2    1    2    0    0  0.44386030582E+02  0.29993020561E+01 -0.55079337293E+03  0.56067854640E+03  0.94910364043E+02 0.  0.
         23    2    1    2    0    0 -0.91514500197E+01 -0.12216539280E+03 -0.11798553333E+03  0.19243235537E+03  0.90008294515E+02 0.  0.
        -11    1    3    3    0    0  0.30145687225E+02 -0.44724532134E+02 -0.32626171718E+03  0.33068981589E+03  0.00000000000E+00 0. -1.
         11    1    3    3    0    0  0.14240343356E+02  0.47723834190E+02 -0.22453165575E+03  0.22998873051E+03  0.00000000000E+00 0.  1.
        -11    1    4    4    0    0  0.23053901923E+02 -0.25173063020E+02 -0.73364534420E+02  0.80916749851E+02  0.00000000000E+00 0.  1.
         11    1    4    4    0    0 -0.32205351943E+02 -0.96992329783E+02 -0.44620998912E+02  0.11151560552E+03  0.00000000000E+00 0. -1.
          3    1    1    2  501    0 -0.35234580562E+02  0.11916609075E+03 -0.23818805628E+03  0.26865513769E+03  0.00000000000E+00 0. -1.
<scales pt_clust_5="13000.00000" pt_clust_6="13000.00000" pt_clust_7="13000.00000" pt_clust_8="13000.00000" pt_clust_9="121.27142"></scales>
<clustering>
<clus scale="   90.008">  7  8 -1 -1</clus>
<clus scale="   94.910">  5  6 -1 -1</clus>
<clus scale="  104.819">  2  5  1 -1</clus>
<clus scale="  121.271">  1  9  2 -1</clus>
<clus scale="  121.271">  1  5  2 -1</clus>
</clustering>
</event>
<event>
 9    1  0.1881049E-005  0.9898975E+02  0.7546771E-02  0.1283507E+00
         21   -1    0    0  501  502  0.00000000000E+00  0.00000000000E+00  0.56449563896E+02  0.56449563896E+02  0.00000000000E+00 0.  1.
         -1   -1    0    0    0  501 -0.00000000000E+00 -0.00000000000E+00 -0.77028264239E+03  0.77028264239E+03  0.00000000000E+00 0.  1.
         23    2    1    2    0    0 -0.35772531403E+02  0.35935732259E+02 -0.46328708936E+03  0.47432264886E+03  0.88181614857E+02 0.  0.
         23    2    1    2    0    0  0.43191266606E+02 -0.38487761448E+01 -0.28733630964E+03  0.30303205173E+03  0.85941671768E+02 0.  0.
        -11    1    3    3    0    0  0.25797382876E+01  0.56672851289E+02 -0.29987607827E+03  0.30519523168E+03  0.00000000000E+00 0.  1.
         11    1    3    3    0    0 -0.38352269691E+02 -0.20737119031E+02 -0.16341101110E+03  0.16912741719E+03  0.00000000000E+00 0. -1.
        -13    1    4    4    0    0  0.62738028316E+02 -0.24361669199E+02 -0.21720861088E+03  0.22739641986E+03  0.00000000000E+00 0.  1.
         13    1    4    4    0    0 -0.19546761710E+02  0.20512893054E+02 -0.70127698765E+02  0.75635631873E+02  0.00000000000E+00 0. -1.
         -1    1    1    2    0  502 -0.74187352024E+01 -0.32086956114E+02  0.36790320515E+02  0.49377505691E+02  0.00000000000E+00 0.  1.
<scales pt_clust_5="13000.00000" pt_clust_6="13000.00000" pt_clust_7="13000.00000" pt_clust_8="13000.00000" pt_clust_9="32.93342"></scales>
<clustering>
<clus scale="   32.933">  1  9  2 -1</clus>
<clus scale="   85.942">  7  8 -1 -1</clus>
<clus scale="   88.182">  5  6 -1 -1</clus>
<clus scale="   97.000">  1  7  2 -1</clus>
<clus scale="   32.933">  1  5  2 -1</clus>
</clustering>
</event>
<event>
 9    1  0.1881049E-005  0.1264982E+03  0.7546771E-02  0.1233693E+00
          1   -1    0    0  502    0 -0.00000000000E+00  0.00000000000E+00  0.37581994767E+03  0.37581994767E+03  0.00000000000E+00 0. -1.
         21   -1    0    0  501  502  0.00000000000E+00 -0.00000000000E+00 -0.23213775861E+03  0.23213775861E+03  0.00000000000E+00 0. -1.
         23    2    1    2    0    0  0.45145200577E-01 -0.88228546828E+02  0.31558073853E+03  0.33972332457E+03  0.89646283850E+02 0.  0.
         23    2    1    2    0    0  0.38662760537E+02  0.45492297179E+02 -0.17876922231E+03  0.21016636001E+03  0.92989815982E+02 0.  0.
        -11    1    4    4    0    0  0.45966903850E+02  0.67830633654E+02 -0.16117718695E+03  0.18080939330E+03  0.00000000000E+00 0. -1.
         11    1    4    4    0    0 -0.73041433130E+01 -0.22338336475E+02 -0.17592035361E+02  0.29356966705E+02  0.00000000000E+00 0.  1.
        -13    1    3    3    0    0 -0.35294824592E+02 -0.67032624122E+02  0.25815903996E+03  0.26904495396E+03  0.00000000000E+00 0.  1.
         13    1    3    3    0    0  0.35339969792E+02 -0.21195922706E+02  0.57421698574E+02  0.70678370605E+02  0.00000000000E+00 0. -1.
          1    1    1    2  501    0 -0.38707905738E+02  0.42736249649E+02  0.68706728382E+01  0.58068021715E+02  0.00000000000E+00 0. -1.
<scales pt_clust_5="13000.00000" pt_clust_6="13000.00000" pt_clust_7="13000.00000" pt_clust_8="13000.00000" pt_clust_9="57.66012"></scales>
<clustering>
<clus scale="   57.660">  2  9  1 -1</clus>
<clus scale="   89.646">  7  8 -1 -1</clus>
<clus scale="   92.990">  5  6 -1 -1</clus>
<clus scale="  124.061">  1  7  2 -1</clus>
<clus scale="   57.660">  2  5  1 -1</clus>
</clustering>
</event>
<event>
 9    1  0.1881049E-005  0.1033313E+03  0.7546771E-02  0.1273835E+00
         21   -1    0    0  501  502  0.00000000000E+00  0.00000000000E+00  0.55613723055E+03  0.55613723055E+03  0.00000000000E+00 0.  1.
         -2   -1    0    0    0  501 -0.00000000000E+00 -0.00000000000E+00 -0.40983492003E+02  0.40983492003E+02  0.00000000000E+00 0.  1.
         23    2    1    2    0    0  0.55348318193E+02 -0.13449059151E+02  0.66159601672E+02  0.12666186511E+03  0.91770483609E+02 0.  0.
         23    2    1    2    0    0 -0.85446954894E+01  0.85019572793E+01  0.29776791356E+03  0.31207822879E+03  0.92637980528E+02 0.  0.
        -13    1    4    4    0    0 -0.55553650678E+01 -0.37328403967E+02  0.68052350247E+02  0.77816413422E+02  0.00000000000E+00 0.  1.
         13    1    4    4    0    0 -0.29893304216E+01  0.45830361246E+02  0.22971556332E+03  0.23426181537E+03  0.00000000000E+00 0. -1.
        -13    1    3    3    0    0 -0.26283098872E+01  0.29874366146E+02  0.39361535054E+02  0.49484504719E+02  0.00000000000E+00 0. -1.
         13    1    3    3    0    0  0.57976628080E+02 -0.43323425297E+02  0.26798066618E+02  0.77177360394E+02  0.00000000000E+00 0.  1.
         -2    1    1    2    0  502 -0.46803622703E+02  0.49471018715E+01  0.15122622331E+03  0.15838062865E+03  0.00000000000E+00 0.  1.
<scales pt_clust_5="13000.00000" pt_clust_6="13000.00000" pt_clust_7="13000.00000" pt_clust_8="13000.00000" pt_clust_9="47.06435"></scales>
<clustering>
<clus scale="   47.064">  1  9  2 -1</clus>
<clus scale="   91.770">  7  8 -1 -1</clus>
<clus scale="   92.638">  5  6 -1 -1</clus>
<clus scale="  102.554">  2  7  1 -1</clus>
<clus scale="   47.064">  1  5  2 -1</clus>
</clustering>
</event>
<event>
 9    1  0.1881049E-005  0.1370522E+03  0.7546771E-02  0.1217839E+00
         21   -1    0    0  501  502  0.00000000000E+00  0.00000000000E+00  0.21975736320E+02  0.21975736320E+02  0.00000000000E+00 0. -1.
          1   -1    0    0  502    0 -0.00000000000E+00 -0.00000000000E+00 -0.13953384637E+04  0.13953384637E+04  0.00000000000E+00 0. -1.
         23    2    1    2    0    0  0.87086842187E+02 -0.18532950215E+02 -0.61466467204E+03  0.62758906763E+03  0.90154259093E+02 0.  0.
         23    2    1    2    0    0 -0.11942844840E+03  0.49460890599E+02 -0.43762292071E+03  0.46554654107E+03  0.92250892609E+02 0.  0.
        -11    1    3    3    0    0 -0.84450740303E+01 -0.27095403001E+02 -0.95071109117E+02  0.99216913517E+02  0.00000000000E+00 0.  1.
         11    1    3    3    0    0  0.95531916218E+02  0.85624527855E+01 -0.51959356292E+03  0.52837215411E+03  0.00000000000E+00 0. -1.
        -11    1    4    4    0    0 -0.39271130913E+02 -0.19489112208E+02 -0.21052608551E+03  0.21504250719E+03  0.00000000000E+00 0.  1.
         11    1    4    4    0    0 -0.80157317488E+02  0.68950002807E+02 -0.22709683520E+03  0.25050403388E+03  0.00000000000E+00 0. -1.
          1    1    1    2  501    0  0.32341606213E+02 -0.30927940384E+02 -0.32107513464E+03  0.32417859133E+03  0.00000000000E+00 0. -1.
<scales pt_clust_5="13000.00000" pt_clust_6="13000.00000" pt_clust_7="13000.00000" pt_clust_8="13000.00000" pt_clust_9="44.74951"></scales>
<clustering>
<clus scale="   44.750">  1  9  2 -1</clus>
<clus scale="   90.154">  5  6 -1 -1</clus>
<clus scale="   92.251">  7  8 -1 -1</clus>
<clus scale="  135.650">  2  5  1 -1</clus>
<clus scale="   44.750">  1  5  2 -1</clus>
</clustering>
</event>
<event>
 9    1  0.1881049E-005  0.1997047E+03  0.7546771E-02  0.1161926E+00
          1   -1    0    0  502    0 -0.00000000000E+00  0.00000000000E+00  0.64319941383E+03  0.64319941383E+03  0.00000000000E+00 0. -1.
         21   -1    0    0  501  502  0.00000000000E+00 -0.00000000000E+00 -0.11727101217E+03  0.11727101217E+03  0.00000000000E+00 0. -1.
         23    2    1    2    0    0 -0.43694605837E+02  0.11148491890E+03  0.16146510081E+03  0.22103607163E+03  0.91912243260E+02 0.  0.
         23    2    1    2    0    0  0.12770163189E+03  0.76479435215E+02  0.24320316670E+03  0.30049545218E+03  0.94831037586E+02 0.  0.
        -11    1    3    3    0    0 -0.15438144228E+02 -0.13557361396E+02  0.37207109117E+02  0.42503027116E+02  0.00000000000E+00 0.  1.
         11    1    3    3    0    0 -0.28256461609E+02  0.12504228029E+03  0.12425799169E+03  0.17853304451E+03  0.00000000000E+00 0. -1.
        -13    1    4    4    0    0  0.46977149339E+02 -0.44716232507E+00  0.14321317469E+03  0.15072181633E+03  0.00000000000E+00 0. -1.
         13    1    4    4    0    0  0.80724482555E+02  0.76926597540E+02  0.99989992011E+02  0.14977363585E+03  0.00000000000E+00 0.  1.
          1    1    1    2  501    0 -0.84007026057E+02 -0.18796435411E+03  0.12126013415E+03  0.23893890218E+03  0.00000000000E+00 0. -1.
<scales pt_clust_5="13000.00000" pt_clust_6="13000.00000" pt_clust_7="13000.00000" pt_clust_8="13000.00000" pt_clust_9="175.75276"></scales>
<clustering>
<clus scale="   91.912">  5  6 -1 -1</clus>
<clus scale="   94.831">  7  8 -1 -1</clus>
<clus scale="  150.950">  1  5  2 -1</clus>
<clus scale="  175.753">  2  9  1 -1</clus>
<clus scale="  175.753">  2  5  1 -1</clus>
</clustering>
</event>
<event>
 9    1  0.1881049E-005  0.9861871E+02  0.7546771E-02  0.1284405E+00
          1   -1    0    0  502    0 -0.00000000000E+00  0.00000000000E+00  0.18560243906E+03  0.18560243906E+03  0.00000000000E+00 0. -1.
         21   -1    0    0  501  502  0.00000000000E+00 -0.00000000000E+00 -0.16119623723E+03  0.16119623723E+03  0.00000000000E+00 0. -1.
         23    2    1    2    0    0 -0.26346549118E+02 -0.23614988184E+02  0.11063519131E+03  0.14639299547E+03  0.89100815090E+02 0.  0.
         23    2    1    2    0    0  0.25147090584E+02  0.65885192957E+02 -0.86959529625E+01  0.11209044621E+03  0.86691485846E+02 0.  0.
        -13    1    4    4    0    0  0.42130178271E+02  0.78260850700E+02 -0.15031192299E+02  0.90142384123E+02  0.00000000000E+00 0. -1.
         13    1    4    4    0    0 -0.16983087688E+02 -0.12375657743E+02  0.63352393366E+01  0.21948062088E+02  0.00000000000E+00 0.  1.
        -13    1    3    3    0    0 -0.35314407108E+02  0.26817338061E+02  0.57153046320E+02  0.72337733402E+02  0.00000000000E+00 0.  1.
         13    1    3    3    0    0  0.89678579897E+01 -0.50432326246E+02  0.53482144987E+02  0.74055262067E+02  0.00000000000E+00 0. -1.
          1    1    1    2  501    0  0.11994585346E+01 -0.42270204772E+02 -0.77533036515E+02  0.88315234606E+02  0.00000000000E+00 0. -1.
<scales pt_clust_5="13000.00000" pt_clust_6="13000.00000" pt_clust_7="13000.00000" pt_clust_8="13000.00000" pt_clust_9="42.28722"></scales>
<clustering>
<clus scale="   42.287">  2  9  1 -1</clus>
<clus scale="   86.691">  5  6 -1 -1</clus>
<clus scale="   89.101">  7  8 -1 -1</clus>
<clus scale="   96.447">  2  5  1 -1</clus>
<clus scale="   42.287">  2  5  1 -1</clus>
</clustering>
</event>
<event>
 9    1  0.1881049E-005  0.1029292E+03  0.7546771E-02  0.1278608E+00
          2   -1    0    0  502    0 -0.00000000000E+00  0.00000000000E+00  0.61359018131E+03  0.61359018131E+03  0.00000000000E+00 0. -1.
         21   -1    0    0  501  502  0.00000000000E+00 -0.00000000000E+00 -0.78214743793E+02  0.78214743793E+02  0.00000000000E+00 0.  1.
         23    2    1    2    0    0  0.20315904314E+02 -0.37159117201E+02  0.52928401233E+03  0.53910256623E+03  0.93254893952E+02 0.  0.
         23    2    1    2    0    0  0.10922559493E+02  0.66908685164E+02  0.13780312428E+02  0.10888458391E+03  0.84082585276E+02 0.  0.
        -13    1    3    3    0    0  0.57175264549E+02 -0.16657129989E+02  0.27842834665E+03  0.28472585952E+03  0.00000000000E+00 0. -1.
         13    1    3    3    0    0 -0.36859360235E+02 -0.20501987212E+02  0.25085566568E+03  0.25437670672E+03  0.00000000000E+00 0.  1.
        -13    1    4    4    0    0  0.73176573697E+01  0.38347534683E+02  0.49478275032E+02  0.63025242767E+02  0.00000000000E+00 0. -1.
         13    1    4    4    0    0  0.36049021236E+01  0.28561150481E+02 -0.35697962604E+02  0.45859341145E+02  0.00000000000E+00 0.  1.
          2    1    1    2  501    0 -0.31238463807E+02 -0.29749567963E+02 -0.76888872486E+01  0.43817774956E+02  0.00000000000E+00 0. -1.
<scales pt_clust_5="13000.00000" pt_clust_6="13000.00000" pt_clust_7="13000.00000" pt_clust_8="13000.00000" pt_clust_9="43.13790"></scales>
<clustering>
<clus scale="   43.138">  2  9  1 -1</clus>
<clus scale="   84.083">  7  8 -1 -1</clus>
<clus scale="   93.255">  5  6 -1 -1</clus>
<clus scale="   94.699">  2  7  1 -1</clus>
<clus scale="   43.138">  2  5  1 -1</clus>
</clustering>
</event>
<event>
 9    1  0.1881049E-005  0.1056255E+03  0.7546771E-02  0.1269031E+00
          2   -1    0    0  502    0 -0.00000000000E+00  0.00000000000E+00  0.36037216312E+03  0.36037216312E+03  0.00000000000E+00 0. -1.
         21   -1    0    0  501  502  0.00000000000E+00 -0.00000000000E+00 -0.61271003524E+02  0.61271003524E+02  0.00000000000E+00 0. -1.
         23    2    1    2    0    0  0.54195404074E+02 -0.18154842915E+02  0.23786824700E+03  0.26127062134E+03  0.91729463649E+02 0.  0.
         23    2    1    2    0    0 -0.33123913640E+02  0.30695236521E+02  0.79921246405E+02  0.12954199226E+03  0.91402029145E+02 0.  0.
        -13    1    4    4    0    0 -0.23155540689E+02 -0.31413041926E+02  0.31891999045E+02  0.50398986803E+02  0.00000000000E+00 0.  1.
         13    1    4    4    0    0 -0.99683729503E+01  0.62108278446E+02  0.48029247360E+02  0.79143005457E+02  0.00000000000E+00 0. -1.
        -13    1    3    3    0    0 -0.84625530403E+01 -0.40577300099E+02  0.96202935615E+02  0.10475274177E+03  0.00000000000E+00 0.  1.
         13    1    3    3    0    0  0.62657957114E+02  0.22422457184E+02  0.14166531138E+03  0.15651787957E+03  0.00000000000E+00 0. -1.
          2    1    1    2  501    0 -0.21071490434E+02 -0.12540393605E+02 -0.18688333803E+02  0.30830553048E+02  0.00000000000E+00 0. -1.
<scales pt_clust_5="13000.00000" pt_clust_6="13000.00000" pt_clust_7="13000.00000" pt_clust_8="13000.00000" pt_clust_9="24.52079"></scales>
<clustering>
<clus scale="   24.521">  2  9  1 -1</clus>
<clus scale="   91.402">  5  6 -1 -1</clus>
<clus scale="   91.729">  7  8 -1 -1</clus>
<clus scale="  105.341">  2  5  1 -1</clus>
<clus scale="   24.521">  2  5  1 -1</clus>
</clustering>
</event>
<event>
 9    1  0.1881049E-005  0.9984258E+02  0.7546771E-02  0.1281719E+00
         21   -1    0    0  501  502  0.00000000000E+00  0.00000000000E+00  0.59906035035E+02  0.59906035035E+02  0.00000000000E+00 0. -1.
          1   -1    0    0  502    0 -0.00000000000E+00 -0.00000000000E+00 -0.42867729388E+03  0.42867729388E+03  0.00000000000E+00 0. -1.
         23    2    1    2    0    0 -0.29746646061E+02 -0.61506598298E+01 -0.20554785427E+03  0.22742242541E+03  0.92457263727E+02 0.  0.
         23    2    1    2    0    0  0.10541976609E+02  0.46241114783E+02 -0.18386196460E+03  0.21215055697E+03  0.94621682665E+02 0.  0.
        -13    1    4    4    0    0 -0.29281808073E+02  0.15601055617E+02 -0.15820049041E+02  0.36757192113E+02  0.00000000000E+00 0.  1.
         13    1    4    4    0    0  0.39823784682E+02  0.30640059166E+02 -0.16804191556E+03  0.17539336486E+03  0.00000000000E+00 0. -1.
        -13    1    3    3    0    0 -0.93578424130E+01 -0.32421024876E+02 -0.20657690695E+02  0.39565543766E+02  0.00000000000E+00 0.  1.
         13    1    3    3    0    0 -0.20388803648E+02  0.26270365046E+02 -0.18489016358E+03  0.18785688165E+03  0.00000000000E+00 0. -1.
          1    1    1    2  501    0  0.19204669452E+02 -0.40090454953E+02  0.20638560026E+02  0.49010346531E+02  0.00000000000E+00 0. -1.
<scales pt_clust_5="13000.00000" pt_clust_6="13000.00000" pt_clust_7="13000.00000" pt_clust_8="13000.00000" pt_clust_9="44.45294"></scales>
<clustering>
<clus scale="   44.453">  1  9  2 -1</clus>
<clus scale="   92.457">  7  8 -1 -1</clus>
<clus scale="   94.622">  5  6 -1 -1</clus>
<clus scale="   97.794">  2  7  1 -1</clus>
<clus scale="   44.453">  1  5  2 -1</clus>
</clustering>
</event>
<event>
 9    1  0.1881049E-005  0.1012230E+03  0.7546771E-02  0.1279797E+00
         21   -1    0    0  501  502  0.00000000000E+00  0.00000000000E+00  0.15217769330E+03  0.15217769330E+03  0.00000000000E+00 0.  1.
         -1   -1    0    0    0  501 -0.00000000000E+00 -0.00000000000E+00 -0.26868068388E+03  0.26868068388E+03  0.00000000000E+00 0.  1.
         23    2    1    2    0    0 -0.95005137832E+01  0.30885787045E+02 -0.13271411304E+03  0.16587140748E+03  0.94106835120E+02 0.  0.
         23    2    1    2    0    0 -0.14862108193E+02 -0.45788548971E+02 -0.95476091302E+02  0.13970616740E+03  0.89914713601E+02 0.  0.
        -11    1    3    3    0    0 -0.42458474411E+02 -0.12779275394E+02 -0.67337889418E+02  0.80625202512E+02  0.00000000000E+00 0.  1.
         11    1    3    3    0    0  0.32957960627E+02  0.43665062439E+02 -0.65376223619E+02  0.85246204967E+02  0.00000000000E+00 0. -1.
        -13    1    4    4    0    0 -0.44130438031E+02 -0.67068374788E+01 -0.18003796216E+02  0.48131215525E+02  0.00000000000E+00 0.  1.
         13    1    4    4    0    0  0.29268329838E+02 -0.39081711492E+02 -0.77472295087E+02  0.91574951874E+02  0.00000000000E+00 0. -1.
         -1    1    1    2    0  502  0.24362621976E+02  0.14902761926E+02  0.11168721376E+03  0.11528080231E+03  0.00000000000E+00 0.  1.
<scales pt_clust_5="13000.00000" pt_clust_6="13000.00000" pt_clust_7="13000.00000" pt_clust_8="13000.00000" pt_clust_9="28.55923"></scales>
<clustering>
<clus scale="   28.559">  1  9  2 -1</clus>
<clus scale="   89.915">  7  8 -1 -1</clus>
<clus scale="   94.107">  5  6 -1 -1</clus>
<clus scale="   97.338">  1  7  2 -1</clus>
<clus scale="   28.559">  1  5  2 -1</clus>
</clustering>
</event>
<event>
 9    1  0.1881049E-005  0.1216524E+03  0.7546771E-02  0.1247269E+00
         21   -1    0    0  501  502  0.00000000000E+00  0.00000000000E+00  0.82871441229E+02  0.82871441229E+02  0.00000000000E+00 0.  1.
          2   -1    0    0  502    0 -0.00000000000E+00 -0.00000000000E+00 -0.20596567700E+03  0.20596567700E+03  0.00000000000E+00 0. -1.
         23    2    1    2    0    0 -0.26204611325E+02  0.37082348487E+02 -0.90652081462E+02  0.14888269455E+03  0.10902511014E+03 0.  0.
         23    2    1    2    0    0  0.32637306454E+02 -0.57690443159E+02 -0.35543953688E+02  0.11814400662E+03  0.91111210350E+02 0.  0.
        -11    1    3    3    0    0 -0.24397537273E+02 -0.20142437011E+02  0.99193723523E+01  0.33156470584E+02  0.00000000000E+00 0.  1.
         11    1    3    3    0    0 -0.18070740519E+01  0.57224785498E+02 -0.10057145381E+03  0.11572622397E+03  0.00000000000E+00 0. -1.
        -11    1    4    4    0    0  0.60854213826E+02 -0.20949543845E+02 -0.96683492394E+01  0.65081454383E+02  0.00000000000E+00 0. -1.
         11    1    4    4    0    0 -0.28216907372E+02 -0.36740899314E+02 -0.25875604448E+02  0.53062552234E+02  0.00000000000E+00 0.  1.
          2    1    1    2  501    0 -0.64326951291E+01  0.20608094672E+02  0.31017993833E+01  0.21810417054E+02  0.00000000000E+00 0. -1.
<scales pt_clust_5="13000.00000" pt_clust_6="13000.00000" pt_clust_7="13000.00000" pt_clust_8="13000.00000" pt_clust_9="21.58873"></scales>
<clustering>
<clus scale="   21.589">  1  9  2 -1</clus>
<clus scale="   91.111">  7  8 -1 -1</clus>
<clus scale="  105.897">  1  7  2 -1</clus>
<clus scale="  109.025">  5  6 -1 -1</clus>
<clus scale="   21.589">  1  5  2 -1</clus>
</clustering>
</event>
<event>
 9    1  0.1881049E-005  0.9353448E+02  0.7546771E-02  0.1295599E+00
          1   -1    0    0  502    0 -0.00000000000E+00  0.00000000000E+00  0.53242303300E+03  0.53242303300E+03  0.00000000000E+00 0. -1.
         21   -1    0    0  501  502  0.00000000000E+00 -0.00000000000E+00 -0.74404046837E+02  0.74404046837E+02  0.00000000000E+00 0. -1.
         23    2    1    2    0    0 -0.28042655495E+02 -0.88572533241E+01  0.38467471675E+03  0.39605495231E+03  0.89554709963E+02 0.  0.
         23    2    1    2    0    0 -0.53818242151E+01 -0.98662255781E+01  0.11942297123E+03  0.15084708046E+03  0.91469607991E+02 0.  0.
        -11    1    4    4    0    0  0.37460281206E+02  0.33363297642E+01  0.21916540531E+02  0.43528594202E+02  0.00000000000E+00 0.  1.
         11    1    4    4    0    0 -0.42842105421E+02 -0.13202555342E+02  0.97506430699E+02  0.10731848626E+03  0.00000000000E+00 0. -1.
        -13    1    3    3    0    0 -0.17672481306E+02 -0.49241426375E+02  0.19967328262E+03  0.20641330979E+03  0.00000000000E+00 0. -1.
         13    1    3    3    0    0 -0.10370174189E+02  0.40384173051E+02  0.18500143413E+03  0.18964164252E+03  0.00000000000E+00 0.  1.
          1    1    1    2  501    0  0.33424479710E+02  0.18723478902E+02 -0.46078701814E+02  0.59925047075E+02  0.00000000000E+00 0. -1.
<scales pt_clust_5="13000.00000" pt_clust_6="13000.00000" pt_clust_7="13000.00000" pt_clust_8="13000.00000" pt_clust_9="38.31141"></scales>
<clustering>
<clus scale="   38.311">  2  9  1 -1</clus>
<clus scale="   89.555">  7  8 -1 -1</clus>
<clus scale="   91.470">  5  6 -1 -1</clus>
<clus scale="   91.663">  1  7  2 -1</clus>
<clus scale="   38.311">  2  5  1 -1</clus>
</clustering>
</event>
<event>
 9    1  0.1881049E-005  0.1451787E+03  0.7546771E-02  0.1206814E+00
         21   -1    0    0  501  502  0.00000000000E+00  0.00000000000E+00  0.89848060481E+03  0.89848060481E+03  0.00000000000E+00 0. -1.
         -1   -1    0    0    0  501 -0.00000000000E+00 -0.00000000000E+00 -0.11206033448E+03  0.11206033448E+03  0.00000000000E+00 0.  1.
         23    2    1    2    0    0 -0.74070934009E+02  0.70948739787E+02 -0.38531335268E+02  0.14807317864E+03  0.99603089775E+02 0.  0.
         23    2    1    2    0    0  0.67421183424E+02 -0.13622807581E+03  0.67375834850E+03  0.69764964307E+03  0.98290425181E+02 0.  0.
        -13    1    4    4    0    0  0.56031966451E+02 -0.94447318565E+02  0.61460447124E+03  0.62433847656E+03  0.00000000000E+00 0. -1.
         13    1    4    4    0    0  0.11389216973E+02 -0.41780757241E+02  0.59153877258E+02  0.73311166500E+02  0.00000000000E+00 0.  1.
        -13    1    3    3    0    0 -0.15696099525E+02  0.46867215625E+02 -0.63240750503E+02  0.80263914464E+02  0.00000000000E+00 0.  1.
         13    1    3    3    0    0 -0.58374834484E+02  0.24081524162E+02  0.24709415235E+02  0.67809264177E+02  0.00000000000E+00 0. -1.
         -1    1    1    2    0  502  0.66497505853E+01  0.65279336019E+02  0.15119325709E+03  0.16481811758E+03  0.00000000000E+00 0.  1.
<scales pt_clust_5="13000.00000" pt_clust_6="13000.00000" pt_clust_7="13000.00000" pt_clust_8="13000.00000" pt_clust_9="65.61715"></scales>
<clustering>
<clus scale="   65.617">  1  9  2 -1</clus>
<clus scale="   98.290">  5  6 -1 -1</clus>
<clus scale="   99.603">  7  8 -1 -1</clus>
<clus scale="  144.281">  1  5  2 -1</clus>
<clus scale="   65.617">  1  5  2 -1</clus>
</clustering>
</event>
<event>
 9    1  0.1881049E-005  0.1783333E+03  0.7546771E-02  0.1196579E+00
         21   -1    0    0  501  502  0.00000000000E+00  0.00000000000E+00  0.88833150179E+02  0.88833150179E+02  0.00000000000E+00 0.  1.
          1   -1    0    0  502    0 -0.00000000000E+00 -0.00000000000E+00 -0.67511421312E+03  0.67511421312E+03  0.00000000000E+00 0. -1.
         23    2    1    2    0    0 -0.16937940745E+02 -0.32655489627E+02 -0.11400227385E+03  0.14978949581E+03  0.89928303522E+02 0.  0.
         23    2    1    2    0    0 -0.13925118673E+03  0.17143490791E+02 -0.41413433854E+03  0.44677673719E+03  0.91746445449E+02 0.  0.
        -11    1    4    4    0    0 -0.14166376502E+03 -0.67459950414E+01 -0.32778975198E+03  0.35715578152E+03  0.00000000000E+00 0.  1.
         11    1    4    4    0    0  0.24125782859E+01  0.23889485832E+02 -0.86344586557E+02  0.89620955669E+02  0.00000000000E+00 0. -1.
        -13    1    3    3    0    0  0.19454542860E+02 -0.50763208743E+02 -0.49359013248E+02  0.73428160732E+02  0.00000000000E+00 0.  1.
         13    1    3    3    0    0 -0.36392483605E+02  0.18107719115E+02 -0.64643260597E+02  0.76361335080E+02  0.00000000000E+00 0. -1.
          1    1    1    2  501    0  0.15618912748E+03  0.15511998836E+02 -0.58144450556E+02  0.16738113030E+03  0.00000000000E+00 0. -1.
<scales pt_clust_5="13000.00000" pt_clust_6="13000.00000" pt_clust_7="13000.00000" pt_clust_8="13000.00000" pt_clust_9="152.92268"></scales>
<clustering>
<clus scale="   89.928">  7  8 -1 -1</clus>
<clus scale="   91.746">  5  6 -1 -1</clus>
<clus scale="   97.162">  2  7  1 -1</clus>
<clus scale="  152.923">  1  9  2 -1</clus>
<clus scale="  152.923">  1  5  2 -1</clus>
</clustering>
</event>
<event>
 9    1  0.1881049E-005  0.1735347E+03  0.7546771E-02  0.1199845E+00
          1   -1    0    0  502    0 -0.00000000000E+00  0.00000000000E+00  0.51869524363E+03  0.51869524363E+03  0.00000000000E+00 0. -1.
         21   -1    0    0  501  502  0.00000000000E+00 -0.00000000000E+00 -0.16463121928E+03  0.16463121928E+03  0.00000000000E+00 0. -1.
         23    2    1    2    0    0 -0.27334099812E+02  0.23998989796E+02  0.34354791189E+03  0.35730813158E+03  0.91218575980E+02 0.  0.
         23    2    1    2    0    0  0.13192043672E+03  0.75669742649E+02  0.27702930432E+02  0.18052762782E+03  0.93240873413E+02 0.  0.
        -11    1    4    4    0    0  0.54567049380E+02 -0.20498359345E+01  0.43405843150E+02  0.69755515373E+02  0.00000000000E+00 0.  1.
         11    1    4    4    0    0  0.77353387345E+02  0.77719578584E+02 -0.15702912718E+02  0.11077211245E+03  0.00000000000E+00 0. -1.
        -11    1    3    3    0    0 -0.52684558420E+02 -0.86732921847E+01  0.14546789814E+03  0.15495740732E+03  0.00000000000E+00 0. -1.
         11    1    3    3    0    0  0.25350458609E+02  0.32672281981E+02  0.19808001375E+03  0.20235072426E+03  0.00000000000E+00 0.  1.
          1    1    1    2  501    0 -0.10458633691E+03 -0.99668732445E+02 -0.17186817972E+02  0.14549070351E+03  0.00000000000E+00 0. -1.
<scales pt_clust_5="13000.00000" pt_clust_6="13000.00000" pt_clust_7="13000.00000" pt_clust_8="13000.00000" pt_clust_9="146.35719"></scales>
<clustering>
<clus scale="   91.219">  7  8 -1 -1</clus>
<clus scale="   93.241">  5  6 -1 -1</clus>
<clus scale="   98.204">  1  7  2 -1</clus>
<clus scale="  146.357">  2  9  1 -1</clus>
<clus scale="  146.357">  2  5  1 -1</clus>
</clustering>
</event>
<event>
 9    1  0.1881049E-005  0.1978277E+03  0.7546771E-02  0.1151813E+00
          2   -1    0    0  502    0 -0.00000000000E+00  0.00000000000E+00  0.23467720466E+03  0.23467720466E+03  0.00000000000E+00 0. -1.
         21   -1    0    0  501  502  0.00000000000E+00 -0.00000000000E+00 -0.27927930908E+03  0.27927930908E+03  0.00000000000E+00 0. -1.
         23    2    1    2    0    0  0.19963713063E+03 -0.26817475246E+02  0.38434357697E+02  0.22437034155E+03  0.91053222962E+02 0.  0.
         23    2    1    2    0    0 -0.12353665984E+03  0.30994361027E+02 -0.12607533817E+03  0.20205861721E+03  0.93331329969E+02 0.  0.
        -13    1    3    3    0    0  0.49707231214E+02  0.16640049732E+02 -0.22174730042E+02  0.56915891827E+02  0.00000000000E+00 0.  1.
         13    1    3    3    0    0  0.14992989942E+03 -0.43457524978E+02  0.60609087739E+02  0.16745444972E+03  0.00000000000E+00 0. -1.
        -13    1    4    4    0    0 -0.93004918565E+02  0.33894339979E+01 -0.30401569483E+02  0.97906376540E+02  0.00000000000E+00 0.  1.
         13    1    4    4    0    0 -0.30531741272E+02  0.27604927029E+02 -0.95673768685E+02  0.10415224067E+03  0.00000000000E+00 0. -1.
          2    1    1    2  501    0 -0.76100470793E+02 -0.41768857812E+01  0.43038876047E+02  0.87527554982E+02  0.00000000000E+00 0. -1.
<scales pt_clust_5="13000.00000" pt_clust_6="13000.00000" pt_clust_7="13000.00000" pt_clust_8="13000.00000" pt_clust_9="76.21505"></scales>
<clustering>
<clus scale="   76.215">  2  9  1 -1</clus>
<clus scale="   91.053">  5  6 -1 -1</clus>
<clus scale="   93.331">  7  8 -1 -1</clus>
<clus scale="  196.763">  1  5  2 -1</clus>
<clus scale="   76.215">  2  5  1 -1</clus>
</clustering>
</event>
<event>
 9    1  0.1881049E-005  0.1044834E+03  0.7546771E-02  0.1272148E+00
         21   -1    0    0  501  502  0.00000000000E+00  0.00000000000E+00  0.43085898378E+02  0.43085898378E+02  0.00000000000E+00 0.  1.
         -2   -1    0    0    0  501 -0.00000000000E+00 -0.00000000000E+00 -0.67535056271E+03  0.67535056271E+03  0.00000000000E+00 0.  1.
         23    2    1    2    0    0 -0.42224677731E+01 -0.45361102301E+02 -0.30362750472E+03  0.32114002869E+03  0.94158364292E+02 0.  0.
         23    2    1    2    0    0 -0.87361815597E+02  0.23696528147E+02 -0.18324274877E+03  0.22410125511E+03  0.91923094450E+02 0.  0.
        -11    1    3    3    0    0 -0.42287085733E+02 -0.39919717465E+01 -0.80254407099E+02  0.90801449973E+02  0.00000000000E+00 0. -1.
         11    1    3    3    0    0  0.38064617960E+02 -0.41369130554E+02 -0.22337309762E+03  0.23033857872E+03  0.00000000000E+00 0.  1.
        -13    1    4    4    0    0 -0.63113633396E+02  0.58731424594E+02 -0.11684309855E+03  0.14520682021E+03  0.00000000000E+00 0. -1.
         13    1    4    4    0    0 -0.24248182201E+02 -0.35034896448E+02 -0.66399650221E+02  0.78894434902E+02  0.00000000000E+00 0.  1.
         -2    1    1    2    0  502  0.91584283370E+02  0.21664574154E+02 -0.14539441084E+03  0.17319517729E+03  0.00000000000E+00 0.  1.
<scales pt_clust_5="13000.00000" pt_clust_6="13000.00000" pt_clust_7="13000.00000" pt_clust_8="13000.00000" pt_clust_9="94.11182"></scales>
<clustering>
<clus scale="   91.923">  7  8 -1 -1</clus>
<clus scale="   94.112">  1  9  2 -1</clus>
<clus scale="   94.158">  5  6 -1 -1</clus>
<clus scale="  102.474">  1  7  2 -1</clus>
<clus scale="   94.112">  1  5  2 -1</clus>
</clustering>
</event>
<event>
 9    1  0.1881049E-005  0.9161425E+02  0.7546771E-02  0.1299406E+00
          1   -1    0    0  502    0 -0.00000000000E+00  0.00000000000E+00  0.46354789665E+03  0.46354789665E+03  0.00000000000E+00 0. -1.
         21   -1    0    0  501  502  0.00000000000E+00 -0.00000000000E+00 -0.16028652065E+03  0.16028652065E+03  0.00000000000E+00 0. -1.
         23    2    1    2    0    0  0.14617623377E+02 -0.49781105110E+01  0.33041430984E+03  0.34318795681E+03  0.91465299727E+02 0.  0.
         23    2    1    2    0    0  0.27998850683E+02  0.41705737615E+00  0.10507728643E+03  0.14164358924E+03  0.90761008550E+02 0.  0.
        -13    1    4    4    0    0  0.61164371901E+02  0.50626725762E+00  0.75826884190E+02  0.97422035816E+02  0.00000000000E+00 0.  1.
         13    1    4    4    0    0 -0.33165521218E+02 -0.89209881474E-01  0.29250402238E+02  0.44221553423E+02  0.00000000000E+00 0. -1.
        -13    1    3    3    0    0  0.45566684671E+02  0.20595903717E+02  0.14210715932E+03  0.15064846077E+03  0.00000000000E+00 0.  1.
         13    1    3    3    0    0 -0.30949061293E+02 -0.25574014228E+02  0.18830715052E+03  0.19253949604E+03  0.00000000000E+00 0. -1.
          1    1    1    2  501    0 -0.42616474060E+02  0.45610531348E+01 -0.13223022027E+03  0.13900287126E+03  0.00000000000E+00 0. -1.
<scales pt_clust_5="13000.00000" pt_clust_6="13000.00000" pt_clust_7="13000.00000" pt_clust_8="13000.00000" pt_clust_9="42.85985"></scales>
<clustering>
<clus scale="   42.860">  2  9  1 -1</clus>
<clus scale="   90.761">  5  6 -1 -1</clus>
<clus scale="   90.911">  2  5  1 -1</clus>
<clus scale="   91.465">  7  8 -1 -1</clus>
<clus scale="   42.860">  2  5  1 -1</clus>
</clustering>
</event>
<event>
 9    1  0.1881049E-005  0.9985387E+02  0.7546771E-02  0.1280809E+00
         21   -1    0    0  501  502  0.00000000000E+00  0.00000000000E+00  0.70599339072E+02  0.70599339072E+02  0.00000000000E+00 0. -1.
         -1   -1    0    0    0  501 -0.00000000000E+00 -0.00000000000E+00 -0.60987492618E+03  0.60987492618E+03  0.00000000000E+00 0.  1.
         23    2    1    2    0    0 -0.97654335634E+01  0.31994621270E+02 -0.38958031897E+03  0.40171936716E+03  0.92122774309E+02 0.  0.
         23    2    1    2    0    0  0.41058216944E+02 -0.36151876452E+02 -0.19571481334E+03  0.22294880879E+03  0.91701405839E+02 0.  0.
        -13    1    4    4    0    0 -0.28901242026E+02 -0.12816705873E+02 -0.43134763125E+02  0.53480440629E+02  0.00000000000E+00 0. -1.
         13    1    4    4    0    0  0.69959458970E+02 -0.23335170580E+02 -0.15258005021E+03  0.16946836816E+03  0.00000000000E+00 0.  1.
        -13    1    3    3    0    0  0.23215274134E+01  0.62509109322E+02 -0.20820979218E+03  0.21740307219E+03  0.00000000000E+00 0.  1.
         13    1    3    3    0    0 -0.12086960977E+02 -0.30514488052E+02 -0.18137052678E+03  0.18431629497E+03  0.00000000000E+00 0. -1.
         -1    1    1    2    0  502 -0.31292783381E+02  0.41572551823E+01  0.46019545195E+02  0.55806089294E+02  0.00000000000E+00 0.  1.
<scales pt_clust_5="13000.00000" pt_clust_6="13000.00000" pt_clust_7="13000.00000" pt_clust_8="13000.00000" pt_clust_9="31.56772"></scales>
<clustering>
<clus scale="   31.568">  1  9  2 -1</clus>
<clus scale="   91.701">  5  6 -1 -1</clus>
<clus scale="   92.123">  7  8 -1 -1</clus>
<clus scale="   99.465">  1  5  2 -1</clus>
<clus scale="   31.568">  1  5  2 -1</clus>
</clustering>
</event>
<event>
 9    1  0.1881049E-005  0.1100014E+03  0.7546771E-02  0.1262220E+00
         21   -1    0    0  501  502  0.00000000000E+00  0.00000000000E+00  0.35454313372E+02  0.35454313372E+02  0.00000000000E+00 0. -1.
          3   -1    0    0  502    0 -0.00000000000E+00 -0.00000000000E+00 -0.61957455501E+03  0.61957455501E+03  0.00000000000E+00 0. -1.
         23    2    1    2    0    0 -0.62631613582E+02 -0.15303013589E+02 -0.46693420324E+03  0.47958191737E+03  0.88398891821E+02 0.  0.
         23    2    1    2    0    0  0.39672264782E+02  0.19266316331E+02 -0.11143622517E+03  0.15144903822E+03  0.92594272817E+02 0.  0.
        -11    1    4    4    0    0  0.60105191892E+02  0.11157110388E+02 -0.31947525299E+02  0.68976514679E+02  0.00000000000E+00 0.  1.
         11    1    4    4    0    0 -0.20432927110E+02  0.81092059436E+01 -0.79488699873E+02  0.82472523539E+02  0.00000000000E+00 0. -1.
        -13    1    3    3    0    0  0.77214804205E+01  0.24990290802E+02 -0.77400485875E+02  0.81700496375E+02  0.00000000000E+00 0.  1.
         13    1    3    3    0    0 -0.70353094003E+02 -0.40293304391E+02 -0.38953371736E+03  0.39788142100E+03  0.00000000000E+00 0. -1.
          3    1    1    2  501    0  0.22959348800E+02 -0.39633027428E+01 -0.57498132239E+01  0.23997912786E+02  0.00000000000E+00 0. -1.
<scales pt_clust_5="13000.00000" pt_clust_6="13000.00000" pt_clust_7="13000.00000" pt_clust_8="13000.00000" pt_clust_9="23.29892"></scales>
<clustering>
<clus scale="   23.299">  1  9  2 -1</clus>
<clus scale="   88.399">  7  8 -1 -1</clus>
<clus scale="   92.594">  5  6 -1 -1</clus>
<clus scale="  106.494">  2  7  1 -1</clus>
<clus scale="   23.299">  1  5  2 -1</clus>
</clustering>
</event>
<event>
 9    1  0.1881049E-005  0.9504502E+02  0.7546771E-02  0.1291380E+00
         21   -1    0    0  501  502  0.00000000000E+00  0.00000000000E+00  0.27554379287E+03  0.27554379287E+03  0.00000000000E+00 0. -1.
         -3   -1    0    0    0  501 -0.00000000000E+00 -0.00000000000E+00 -0.75565917598E+02  0.75565917598E+02  0.00000000000E+00 0.  1.
         23    2    1    2    0    0 -0.25929428654E+02  0.32405133144E+02 -0.17163549953E+02  0.98761031624E+02  0.87958660722E+02 0.  0.
         23    2    1    2    0    0 -0.61294955977E+00 -0.15255732580E+02  0.11812364202E+03  0.14841061473E+03  0.88540401382E+02 0.  0.
        -11    1    3    3    0    0  0.10564931458E+02  0.52675257346E+02 -0.18972703654E+02  0.56975994920E+02  0.00000000000E+00 0.  1.
         11    1    3    3    0    0 -0.36494360112E+02 -0.20270124203E+02  0.18091537011E+01  0.41785036704E+02  0.00000000000E+00 0. -1.
        -13    1    4    4    0    0  0.15846312180E+02 -0.48928229621E+02  0.57577654109E+02  0.77202742932E+02  0.00000000000E+00 0. -1.
         13    1    4    4    0    0 -0.16459261739E+02  0.33672497040E+02  0.60545987915E+02  0.71207871802E+02  0.00000000000E+00 0.  1.
         -3    1    1    2    0  502  0.26542378214E+02 -0.17149400563E+02  0.99017783197E+02  0.10393806411E+03  0.00000000000E+00 0.  1.
<scales pt_clust_5="13000.00000" pt_clust_6="13000.00000" pt_clust_7="13000.00000" pt_clust_8="13000.00000" pt_clust_9="31.60063"></scales>
<clustering>
<clus scale="   31.601">  1  9  2 -1</clus>
<clus scale="   87.959">  5  6 -1 -1</clus>
<clus scale="   88.540">  7  8 -1 -1</clus>
<clus scale="   94.503">  2  5  1 -1</clus>
<clus scale="   31.601">  1  5  2 -1</clus>
</clustering>
</event>
<event>
 9    1  0.1881049E-005  0.1434202E+03  0.7546771E-02  0.1209825E+00
         -1   -1    0    0    0  501 -0.00000000000E+00  0.00000000000E+00  0.99084602501E+02  0.99084602501E+02  0.00000000000E+00 0.  1.
         21   -1    0    0  501  502  0.00000000000E+00 -0.00000000000E+00 -0.29525995731E+03  0.29525995731E+03  0.00000000000E+00 0. -1.
         23    2    1    2    0    0  0.61756018667E+02  0.59036267411E+02 -0.65900654334E+02  0.14157971857E+03  0.91666972001E+02 0.  0.
         23    2    1    2    0    0 -0.10358530896E+03 -0.87111567853E+02 -0.96901222957E+02  0.19233553525E+03  0.96357509439E+02 0.  0.
        -11    1    3    3    0    0 -0.23739287167E+01  0.48564088577E+02 -0.58670580045E+02  0.76199364825E+02  0.00000000000E+00 0.  1.
         11    1    3    3    0    0  0.64129947384E+02  0.10472178834E+02 -0.72300742892E+01  0.65380353740E+02  0.00000000000E+00 0. -1.
        -13    1    4    4    0    0  0.12900348299E+02 -0.19112237946E+02 -0.39522953552E+02  0.45757627594E+02  0.00000000000E+00 0. -1.
         13    1    4    4    0    0 -0.11648565726E+03 -0.67999329906E+02 -0.57378269405E+02  0.14657790766E+03  0.00000000000E+00 0.  1.
         -1    1    1    2    0  502  0.41829290291E+02  0.28075300442E+02 -0.33373477523E+02  0.60429305996E+02  0.00000000000E+00 0.  1.
<scales pt_clust_5="13000.00000" pt_clust_6="13000.00000" pt_clust_7="13000.00000" pt_clust_8="13000.00000" pt_clust_9="50.37769"></scales>
<clustering>
<clus scale="   50.378">  2  9  1 -1</clus>
<clus scale="   91.667">  5  6 -1 -1</clus>
<clus scale="   96.358">  7  8 -1 -1</clus>
<clus scale="  140.312">  1  5  2 -1</clus>
<clus scale="   50.378">  2  5  1 -1</clus>
</clustering>
</event>
<event>
 9    1  0.1881049E-005  0.1045986E+03  0.7546771E-02  0.1273849E+00
         21   -1    0    0  501  502  0.00000000000E+00  0.00000000000E+00  0.27039264350E+03  0.27039264350E+03  0.00000000000E+00 0.  1.
          1   -1    0    0  502    0 -0.00000000000E+00 -0.00000000000E+00 -0.12731147345E+03  0.12731147345E+03  0.00000000000E+00 0. -1.
         23    2    1    2    0    0 -0.37465652717E+02 -0.90349977203E+01 -0.73170231757E+02  0.12927217893E+03  0.99358477805E+02 0.  0.
         23    2    1    2    0    0  0.12293966612E+02  0.87501177391E+01  0.64036032103E+02  0.11414903647E+03  0.93282811616E+02 0.  0.
        -11    1    3    3    0    0  0.76422549551E+01  0.39542802092E+02 -0.27021989308E+02  0.48499743961E+02  0.00000000000E+00 0.  1.
         11    1    3    3    0    0 -0.45107907672E+02 -0.48577799812E+02 -0.46148242449E+02  0.80772434966E+02  0.00000000000E+00 0. -1.
        -11    1    4    4    0    0  0.38233090541E+02  0.37547020984E+02  0.48888665775E+02  0.72537229327E+02  0.00000000000E+00 0.  1.
         11    1    4    4    0    0 -0.25939123929E+02 -0.28796903245E+02  0.15147366328E+02  0.41611807139E+02  0.00000000000E+00 0. -1.
          1    1    1    2  501    0  0.25171686105E+02  0.28487998123E+00  0.15221536970E+03  0.15428290155E+03  0.00000000000E+00 0. -1.
<scales pt_clust_5="13000.00000" pt_clust_6="13000.00000" pt_clust_7="13000.00000" pt_clust_8="13000.00000" pt_clust_9="25.17330"></scales>
<clustering>
<clus scale="   25.173">  1  9  2 -1</clus>
<clus scale="   93.283">  7  8 -1 -1</clus>
<clus scale="   98.846">  1  7  2 -1</clus>
<clus scale="   99.358">  5  6 -1 -1</clus>
<clus scale="   25.173">  1  5  2 -1</clus>
</clustering>
</event>
<event>
 9    1  0.1881049E-005  0.1387612E+03  0.7546771E-02  0.1215624E+00
         21   -1    0    0  501  502  0.00000000000E+00  0.00000000000E+00  0.16122616028E+03  0.16122616028E+03  0.00000000000E+00 0.  1.
         -3   -1    0    0    0  501 -0.00000000000E+00 -0.00000000000E+00 -0.53070544886E+03  0.53070544886E+03  0.00000000000E+00 0.  1.
         23    2    1    2    0    0  0.10642219856E+02  0.85776678227E+02 -0.19288832247E+03  0.22953539799E+03  0.89496919566E+02 0.  0.
         23    2    1    2    0    0 -0.80443513340E+02 -0.10376763753E+03 -0.28801152291E+03  0.32969189446E+03  0.92234627465E+02 0.  0.
        -11    1    3    3    0    0 -0.12205647941E+02  0.49668769714E+02 -0.17651604597E+03  0.18377670966E+03  0.00000000000E+00 0.  1.
         11    1    3    3    0    0  0.22847867796E+02  0.36107908513E+02 -0.16372276501E+02  0.45758688332E+02  0.00000000000E+00 0. -1.
        -13    1    4    4    0    0 -0.55987031991E+02 -0.81978561709E+01 -0.14773775719E+03  0.15820302619E+03  0.00000000000E+00 0.  1.
         13    1    4    4    0    0 -0.24456481348E+02 -0.95569781358E+02 -0.14027376572E+03  0.17148886827E+03  0.00000000000E+00 0. -1.
         -3    1    1    2    0  502  0.69801293484E+02  0.17990959302E+02  0.11142055681E+03  0.13270431669E+03  0.00000000000E+00 0.  1.
<scales pt_clust_5="13000.00000" pt_clust_6="13000.00000" pt_clust_7="13000.00000" pt_clust_8="13000.00000" pt_clust_9="72.08256"></scales>
<clustering>
<clus scale="   72.083">  1  9  2 -1</clus>
<clus scale="   89.497">  5  6 -1 -1</clus>
<clus scale="   92.235">  7  8 -1 -1</clus>
<clus scale="  136.957">  2  5  1 -1</clus>
<clus scale="   72.083">  1  5  2 -1</clus>
</clustering>
</event>
<event>
 9    1  0.1881049E-005  0.9329945E+02  0.7546771E-02  0.1295948E+00
          3   -1    0    0  502    0 -0.00000000000E+00  0.00000000000E+00  0.30664708551E+03  0.30664708551E+03  0.00000000000E+00 0. -1.
         21   -1    0    0  501  502  0.00000000000E+00 -0.00000000000E+00 -0.73994512924E+02  0.73994512924E+02  0.00000000000E+00 0.  1.
         23    2    1    2    0    0 -0.80502919698E+01  0.14658309818E+02  0.24044633738E+03  0.25722722591E+03  0.89842814649E+02 0.  0.
         23    2    1    2    0    0  0.30283539874E+02 -0.18688665870E+02 -0.15965594907E+02  0.99386474370E+02  0.91413412843E+02 0.  0.
        -13    1    3    3    0    0  0.15011503026E+02 -0.28077334815E+02  0.40759961153E+02  0.51720947271E+02  0.00000000000E+00 0.  1.
         13    1    3    3    0    0 -0.23061794996E+02  0.42735644633E+02  0.19968637623E+03  0.20550627864E+03  0.00000000000E+00 0. -1.
        -13    1    4    4    0    0 -0.43732021814E+00 -0.49065957413E+02 -0.25269460018E+02  0.55192436397E+02  0.00000000000E+00 0.  1.
         13    1    4    4    0    0  0.30720860092E+02  0.30377291544E+02  0.93038651107E+01  0.44194037972E+02  0.00000000000E+00 0. -1.
          3    1    1    2  501    0 -0.22233247904E+02  0.40303560520E+01  0.81718301169E+01  0.24027898154E+02  0.00000000000E+00 0. -1.
<scales pt_clust_5="13000.00000" pt_clust_6="13000.00000" pt_clust_7="13000.00000" pt_clust_8="13000.00000" pt_clust_9="22.59560"></scales>
<clustering>
<clus scale="   22.596">  2  9  1 -1</clus>
<clus scale="   89.843">  5  6 -1 -1</clus>
<clus scale="   91.413">  7  8 -1 -1</clus>
<clus scale="   91.761">  1  5  2 -1</clus>
<clus scale="   22.596">  2  5  1 -1</clus>
</clustering>
</event>
<event>
 9    1  0.1881049E-005  0.1093803E+03  0.7546771E-02  0.1262950E+00
         21   -1    0    0  501  502  0.00000000000E+00  0.00000000000E+00  0.13365582589E+03  0.13365582589E+03  0.00000000000E+00 0. -1.
         -1   -1    0    0    0  501 -0.00000000000E+00 -0.00000000000E+00 -0.18735989673E+03  0.18735989673E+03  0.00000000000E+00 0.  1.
         23    2    1    2    0    0 -0.45610003116E+02 -0.17146448712E+02 -0.85472341496E+02  0.13268716698E+03  0.89028591101E+02 0.  0.
         23    2    1    2    0    0  0.72377338760E+02  0.37891337742E+02 -0.21705153630E+02  0.12503362863E+03  0.92130678677E+02 0.  0.
        -11    1    4    4    0    0  0.40087044043E+02  0.55622841841E+02  0.17984669978E+02  0.70882437802E+02  0.00000000000E+00 0.  1.
         11    1    4    4    0    0  0.32290294717E+02 -0.17731504098E+02 -0.39689823608E+02  0.54151190832E+02  0.00000000000E+00 0. -1.
        -13    1    3    3    0    0  0.49130120129E+01  0.21391512521E+02 -0.60595149763E+02  0.64447704923E+02  0.00000000000E+00 0.  1.
         13    1    3    3    0    0 -0.50523015129E+02 -0.38537961233E+02 -0.24877191733E+02  0.68239462061E+02  0.00000000000E+00 0. -1.
         -1    1    1    2    0  502 -0.26767335643E+02 -0.20744889031E+02  0.53473424287E+02  0.63294926995E+02  0.00000000000E+00 0.  1.
<scales pt_clust_5="13000.00000" pt_clust_6="13000.00000" pt_clust_7="13000.00000" pt_clust_8="13000.00000" pt_clust_9="33.86504"></scales>
<clustering>
<clus scale="   33.865">  1  9  2 -1</clus>
<clus scale="   89.029">  7  8 -1 -1</clus>
<clus scale="   92.131">  5  6 -1 -1</clus>
<clus scale="  106.781">  2  7  1 -1</clus>
<clus scale="   33.865">  1  5  2 -1</clus>
</clustering>
</event>
<event>
 9    1  0.1881049E-005  0.1230466E+03  0.7546771E-02  0.1239419E+00
         21   -1    0    0  501  502  0.00000000000E+00  0.00000000000E+00  0.72731276542E+02  0.72731276542E+02  0.00000000000E+00 0. -1.
         -3   -1    0    0    0  501 -0.00000000000E+00 -0.00000000000E+00 -0.56761961105E+03  0.56761961105E+03  0.00000000000E+00 0.  1.
         23    2    1    2    0    0  0.45210493205E+02  0.73591454184E+02 -0.48275493805E+03  0.49835389020E+03  0.88569627067E+02 0.  0.
         23    2    1    2    0    0 -0.57494425566E+02 -0.56124729516E+02  0.20172874004E+01  0.11638014125E+03  0.84170503119E+02 0.  0.
        -13    1    4    4    0    0 -0.22229013195E+02  0.76148680600E+01 -0.28899019797E+02  0.37246054669E+02  0.00000000000E+00 0.  1.
         13    1    4    4    0    0 -0.35265412372E+02 -0.63739597576E+02  0.30916307197E+02  0.79134086585E+02  0.00000000000E+00 0. -1.
        -13    1    3    3    0    0  0.66562191487E+02  0.28240273376E+02 -0.24904356383E+03  0.25932746684E+03  0.00000000000E+00 0. -1.
         13    1    3    3    0    0 -0.21351698282E+02  0.45351180808E+02 -0.23371137422E+03  0.23902642336E+03  0.00000000000E+00 0.  1.
         -3    1    1    2    0  502  0.12283932361E+02 -0.17466724668E+02 -0.14150683863E+02  0.25616856143E+02  0.00000000000E+00 0.  1.
<scales pt_clust_5="13000.00000" pt_clust_6="13000.00000" pt_clust_7="13000.00000" pt_clust_8="13000.00000" pt_clust_9="21.35372"></scales>
<clustering>
<clus scale="   21.354">  1  9  2 -1</clus>
<clus scale="   84.171">  5  6 -1 -1</clus>
<clus scale="   88.570">  7  8 -1 -1</clus>
<clus scale="  119.919">  1  5  2 -1</clus>
<clus scale="   21.354">  1  5  2 -1</clus>
</clustering>
</event>
<event>
 9    1  0.1881049E-005  0.1031486E+03  0.7546771E-02  0.1274817E+00
         21   -1    0    0  501  502  0.00000000000E+00  0.00000000000E+00  0.67290899347E+02  0.67290899347E+02  0.00000000000E+00 0. -1.
          1   -1    0    0  502    0 -0.00000000000E+00 -0.00000000000E+00 -0.52340865967E+03  0.52340865967E+03  0.00000000000E+00 0. -1.
         23    2    1    2    0    0  0.51538839465E+02  0.13773706423E+02 -0.36351211072E+03  0.37868832488E+03  0.91748710083E+02 0.  0.
         23    2    1    2    0    0 -0.30106971731E+02 -0.19136596993E+02 -0.13402117798E+03  0.16507157563E+03  0.89522677801E+02 0.  0.
        -11    1    4    4    0    0 -0.15971772353E+02  0.16442261611E+02 -0.12316250271E+03  0.12527748222E+03  0.00000000000E+00 0.  1.
         11    1    4    4    0    0 -0.14135199378E+02 -0.35578858605E+02 -0.10858675276E+02  0.39794093404E+02  0.00000000000E+00 0. -1.
        -11    1    3    3    0    0  0.49946257208E+02  0.48955742066E+02 -0.26486897247E+03  0.27394683036E+03  0.00000000000E+00 0. -1.
         11    1    3    3    0    0  0.15925822574E+01 -0.35182035643E+02 -0.98643138249E+02  0.10474149452E+03  0.00000000000E+00 0.  1.
          1    1    1    2  501    0 -0.21431867734E+02  0.53628905700E+01  0.41415528379E+02  0.46939658507E+02  0.00000000000E+00 0. -1.
<scales pt_clust_5="13000.00000" pt_clust_6="13000.00000" pt_clust_7="13000.00000" pt_clust_8="13000.00000" pt_clust_9="22.09266"></scales>
<clustering>
<clus scale="   22.093">  1  9  2 -1</clus>
<clus scale="   89.523">  5  6 -1 -1</clus>
<clus scale="   91.749">  7  8 -1 -1</clus>
<clus scale="  101.174">  1  5  2 -1</clus>
<clus scale="   22.093">  1  5  2 -1</clus>
</clustering>
</event>
<event>
 9    1  0.1881049E-005  0.1182880E+03  0.7546771E-02  0.1252201E+00
         21   -1    0    0  501  502  0.00000000000E+00  0.00000000000E+00  0.33293073021E+03  0.33293073021E+03  0.00000000000E+00 0.  1.
          3   -1    0    0  502    0 -0.00000000000E+00 -0.00000000000E+00 -0.95959855739E+02  0.95959855739E+02  0.00000000000E+00 0. -1.
         23    2    1    2    0    0 -0.25707805019E+02 -0.63933555684E+02 -0.39217297327E+02  0.11033413856E+03  0.76728319034E+02 0.  0.
         23    2    1    2    0    0  0.45436022638E+02  0.68658311531E+02  0.17514266233E+03  0.21549471408E+03  0.94787255116E+02 0.  0.
        -11    1    4    4    0    0  0.53298265498E+02  0.42059146186E+01  0.44321060732E+02  0.69446031184E+02  0.00000000000E+00 0.  1.
         11    1    4    4    0    0 -0.78622428593E+01  0.64452396912E+02  0.13082160160E+03  0.14604868289E+03  0.00000000000E+00 0. -1.
        -11    1    3    3    0    0 -0.36811160609E+02 -0.19120136325E+02  0.10189149852E+02  0.42713697254E+02  0.00000000000E+00 0.  1.
         11    1    3    3    0    0  0.11103355590E+02 -0.44813419360E+02 -0.49406447179E+02  0.67620441310E+02  0.00000000000E+00 0. -1.
          3    1    1    2  501    0 -0.19728217620E+02 -0.47247558461E+01  0.10104550947E+03  0.10306173331E+03  0.00000000000E+00 0. -1.
<scales pt_clust_5="13000.00000" pt_clust_6="13000.00000" pt_clust_7="13000.00000" pt_clust_8="13000.00000" pt_clust_9="20.28610"></scales>
<clustering>
<clus scale="   20.286">  1  9  2 -1</clus>
<clus scale="   76.728">  7  8 -1 -1</clus>
<clus scale="   94.787">  5  6 -1 -1</clus>
<clus scale="  104.377">  2  7  1 -1</clus>
<clus scale="   20.286">  1  5  2 -1</clus>
</clustering>
</event>
<event>
 9    1  0.1881049E-005  0.1791911E+03  0.7546771E-02  0.1174559E+00
         21   -1    0    0  501  502  0.00000000000E+00  0.00000000000E+00  0.14660452376E+03  0.14660452376E+03  0.00000000000E+00 0.  1.
          2   -1    0    0  502    0 -0.00000000000E+00 -0.00000000000E+00 -0.42763150939E+03  0.42763150939E+03  0.00000000000E+00 0. -1.
         23    2    1    2    0    0  0.73281017529E+02  0.12256751679E+03 -0.30838076175E+03  0.36222592250E+03  0.12536355534E+03 0.  0.
         23    2    1    2    0    0 -0.34783778642E+02 -0.65023319370E+02  0.65079373583E+02  0.13316473816E+03  0.89775159733E+02 0.  0.
        -11    1    3    3    0    0  0.29120874574E+02 -0.20224556022E+02 -0.97520166788E+02  0.10376531662E+03  0.00000000000E+00 0.  1.
         11    1    3    3    0    0  0.44160142955E+02  0.14279207281E+03 -0.21086059497E+03  0.25846060588E+03  0.00000000000E+00 0. -1.
        -13    1    4    4    0    0  0.20707191688E+02 -0.39943367572E+02  0.55619818757E+02  0.71538972869E+02  0.00000000000E+00 0.  1.
         13    1    4    4    0    0 -0.55490970330E+02 -0.25079951798E+02  0.94595548262E+01  0.61625765292E+02  0.00000000000E+00 0. -1.
          2    1    1    2  501    0 -0.38497238887E+02 -0.57544197420E+02 -0.37725597468E+02  0.78845372489E+02  0.00000000000E+00 0. -1.
<scales pt_clust_5="13000.00000" pt_clust_6="13000.00000" pt_clust_7="13000.00000" pt_clust_8="13000.00000" pt_clust_9="69.23418"></scales>
<clustering>
<clus scale="   69.234">  1  9  2 -1</clus>
<clus scale="   89.775">  7  8 -1 -1</clus>
<clus scale="  125.364">  5  6 -1 -1</clus>
<clus scale="  156.375">  1  7  2 -1</clus>
<clus scale="   69.234">  1  5  2 -1</clus>
</clustering>
</event>
<event>
 9    1  0.2365136E-005  0.1031131E+03  0.7546771E-02  0.1274322E+00
          1   -1    0    0  502    0 -0.00000000000E+00  0.00000000000E+00  0.44577891746E+03  0.44577891746E+03  0.00000000000E+00 0. -1.
         21   -1    0    0  501  502  0.00000000000E+00 -0.00000000000E+00 -0.13311300595E+03  0.13311300595E+03  0.00000000000E+00 0. -1.
         23    2    1    2    0    0 -0.40612141159E+02  0.37680078078E+02  0.36442669078E+03  0.37953103504E+03  0.90376209888E+02 0.  0.
         23    2    1    2    0    0  0.10704231334E+02 -0.26356944412E+02  0.40158194042E+02  0.10203774579E+03  0.89385412294E+02 0.  0.
        -11    1    4    4    0    0 -0.53754994893E+01 -0.55035639181E+02  0.41489693999E+02  0.69131847096E+02  0.00000000000E+00 0. -1.
         11    1    4    4    0    0  0.16079730823E+02  0.28678694769E+02 -0.13314999568E+01  0.32905898698E+02  0.00000000000E+00 0.  1.
        -13    1    3    3    0    0 -0.62961826674E+02  0.49769217827E+02  0.26323182134E+03  0.27519476453E+03  0.00000000000E+00 0. -1.
         13    1    3    3    0    0  0.22349685515E+02 -0.12089139749E+02  0.10119486944E+03  0.10433627051E+03  0.00000000000E+00 0.  1.
          1    1    1    2  501    0  0.29907909826E+02 -0.11323133666E+02 -0.91918973315E+02  0.97323142579E+02  0.00000000000E+00 0. -1.
<scales pt_clust_5="13000.00000" pt_clust_6="13000.00000" pt_clust_7="13000.00000" pt_clust_8="13000.00000" pt_clust_9="31.97963"></scales>
<clustering>
<clus scale="   31.980">  2  9  1 -1</clus>
<clus scale="   89.385">  5  6 -1 -1</clus>
<clus scale="   90.376">  7  8 -1 -1</clus>
<clus scale="  102.246">  2  5  1 -1</clus>
<clus scale="   31.980">  2  5  1 -1</clus>
</clustering>
</event>
<event>
 9    1  0.1881049E-005  0.1540583E+03  0.7546771E-02  0.1195606E+00
          1   -1    0    0  502    0 -0.00000000000E+00  0.00000000000E+00  0.61903035834E+03  0.61903035834E+03  0.00000000000E+00 0. -1.
         21   -1    0    0  501  502  0.00000000000E+00 -0.00000000000E+00 -0.91197766982E+02  0.91197766982E+02  0.00000000000E+00 0.  1.
         23    2    1    2    0    0  0.12917629007E+03  0.28313328016E+01  0.51603603922E+03  0.53961383194E+03  0.90528246852E+02 0.  0.
         23    2    1    2    0    0 -0.10117821734E+03  0.12159230495E+02  0.19795887253E+02  0.13786374488E+03  0.90717453955E+02 0.  0.
        -11    1    3    3    0    0  0.13436693165E+03 -0.16900817450E+02  0.47266564232E+03  0.49168375953E+03  0.00000000000E+00 0. -1.
         11    1    3    3    0    0 -0.51906415856E+01  0.19732150251E+02  0.43370396903E+02  0.47930072409E+02  0.00000000000E+00 0.  1.
        -13    1    4    4    0    0 -0.68943959571E+02 -0.17477154390E+02  0.47975077267E+02  0.85792357035E+02  0.00000000000E+00 0.  1.
         13    1    4    4    0    0 -0.32234257765E+02  0.29636384885E+02 -0.28179190014E+02  0.52071387850E+02  0.00000000000E+00 0. -1.
          1    1    1    2  501    0 -0.27998072731E+02 -0.14990563296E+02 -0.79993351213E+01  0.32750548498E+02  0.00000000000E+00 0. -1.
<scales pt_clust_5="13000.00000" pt_clust_6="13000.00000" pt_clust_7="13000.00000" pt_clust_8="13000.00000" pt_clust_9="31.75861"></scales>
<clustering>
<clus scale="   31.759">  2  9  1 -1</clus>
<clus scale="   90.528">  5  6 -1 -1</clus>
<clus scale="   90.717">  7  8 -1 -1</clus>
<clus scale="  153.947">  1  5  2 -1</clus>
<clus scale="   31.759">  2  5  1 -1</clus>
</clustering>
</event>
<event>
 9    1  0.1881049E-005  0.1104500E+03  0.7546771E-02  0.1261416E+00
         21   -1    0    0  501  502  0.00000000000E+00  0.00000000000E+00  0.22663459906E+03  0.22663459906E+03  0.00000000000E+00 0.  1.
         -2   -1    0    0    0  501 -0.00000000000E+00 -0.00000000000E+00 -0.14831188308E+03  0.14831188308E+03  0.00000000000E+00 0.  1.
         23    2    1    2    0    0  0.42048156689E+02  0.18310872241E+00 -0.19705221464E+02  0.10602543766E+03  0.95315353788E+02 0.  0.
         23    2    1    2    0    0 -0.56597995987E+02 -0.53789087168E+02 -0.34788494973E+02  0.12495749539E+03  0.91145692293E+02 0.  0.
        -13    1    4    4    0    0  0.14310533408E+02  0.15279665968E+02 -0.42014236422E+01  0.21352084656E+02  0.00000000000E+00 0. -1.
         13    1    4    4    0    0 -0.70908529396E+02 -0.69068753136E+02 -0.30587071331E+02  0.10360541073E+03  0.00000000000E+00 0.  1.
        -13    1    3    3    0    0  0.12534086577E+02 -0.23579250047E+02 -0.50548259337E+02  0.57168268131E+02  0.00000000000E+00 0.  1.
         13    1    3    3    0    0  0.29514070113E+02  0.23762358770E+02  0.30843037873E+02  0.48857169527E+02  0.00000000000E+00 0. -1.
         -2    1    1    2    0  502  0.14549839298E+02  0.53605978446E+02  0.13281643241E+03  0.14396354909E+03  0.00000000000E+00 0.  1.
<scales pt_clust_5="13000.00000" pt_clust_6="13000.00000" pt_clust_7="13000.00000" pt_clust_8="13000.00000" pt_clust_9="55.54547"></scales>
<clustering>
<clus scale="   55.545">  1  9  2 -1</clus>
<clus scale="   91.146">  5  6 -1 -1</clus>
<clus scale="   95.315">  7  8 -1 -1</clus>
<clus scale="  106.872">  1  5  2 -1</clus>
<clus scale="   55.545">  1  5  2 -1</clus>
</clustering>
</event>
<event>
 9    1  0.1881049E-005  0.9358009E+02  0.7546771E-02  0.1296155E+00
         21   -1    0    0  501  502  0.00000000000E+00  0.00000000000E+00  0.29190441125E+02  0.29190441125E+02  0.00000000000E+00 0. -1.
          2   -1    0    0  502    0 -0.00000000000E+00 -0.00000000000E+00 -0.83833665758E+03  0.83833665758E+03  0.00000000000E+00 0. -1.
         23    2    1    2    0    0  0.22782646837E+02  0.16679310677E+02 -0.40292296111E+03  0.41379416581E+03  0.89896889089E+02 0.  0.
         23    2    1    2    0    0  0.34819043842E+02 -0.33946799239E+01 -0.37286695324E+03  0.38585746550E+03  0.92910328825E+02 0.  0.
        -11    1    3    3    0    0  0.54394336704E+02  0.24258471656E+01 -0.30710752052E+03  0.31189687039E+03  0.00000000000E+00 0. -1.
         11    1    3    3    0    0 -0.31611689867E+02  0.14253463511E+02 -0.95815440588E+02  0.10189729542E+03  0.00000000000E+00 0.  1.
        -13    1    4    4    0    0  0.60367977467E+02  0.17015399716E+02 -0.18984979832E+03  0.19994189770E+03  0.00000000000E+00 0. -1.
         13    1    4    4    0    0 -0.25548933625E+02 -0.20410079639E+02 -0.18301715491E+03  0.18591556781E+03  0.00000000000E+00 0.  1.
          2    1    1    2  501    0 -0.57601690679E+02 -0.13284630753E+02 -0.33356302107E+02  0.67875467391E+02  0.00000000000E+00 0. -1.
<scales pt_clust_5="13000.00000" pt_clust_6="13000.00000" pt_clust_7="13000.00000" pt_clust_8="13000.00000" pt_clust_9="59.11376"></scales>
<clustering>
<clus scale="   59.114">  1  9  2 -1</clus>
<clus scale="   89.897">  5  6 -1 -1</clus>
<clus scale="   90.589">  2  5  1 -1</clus>
<clus scale="   92.910">  7  8 -1 -1</clus>
<clus scale="   59.114">  1  5  2 -1</clus>
</clustering>
</event>
<event>
 9    1  0.1881049E-005  0.1347805E+03  0.7546771E-02  0.1223240E+00
         21   -1    0    0  501  502  0.00000000000E+00  0.00000000000E+00  0.30386436347E+03  0.30386436347E+03  0.00000000000E+00 0.  1.
          2   -1    0    0  502    0 -0.00000000000E+00 -0.00000000000E+00 -0.38927925227E+03  0.38927925227E+03  0.00000000000E+00 0. -1.
         23    2    1    2    0    0  0.67374175177E+02  0.36561281836E+02 -0.29869213765E+03  0.32470700893E+03  0.10169386286E+03 0.  0.
         23    2    1    2    0    0  0.70821924913E+02 -0.50486210454E+02  0.18798185058E+03  0.22725614467E+03  0.93507094120E+02 0.  0.
        -13    1    4    4    0    0  0.89310170806E+02 -0.35857233569E+02  0.11183741286E+03  0.14754543275E+03  0.00000000000E+00 0.  1.
         13    1    4    4    0    0 -0.18488245893E+02 -0.14628976885E+02  0.76144437715E+02  0.79710711927E+02  0.00000000000E+00 0. -1.
        -13    1    3    3    0    0  0.53962908079E+02  0.67610556800E+02 -0.15932221013E+03  0.18129189027E+03  0.00000000000E+00 0. -1.
         13    1    3    3    0    0  0.13411267098E+02 -0.31049274965E+02 -0.13936992752E+03  0.14341511865E+03  0.00000000000E+00 0.  1.
          2    1    1    2  501    0 -0.13819610009E+03  0.13924928618E+02  0.25295398267E+02  0.14118046214E+03  0.00000000000E+00 0. -1.
<scales pt_clust_5="13000.00000" pt_clust_6="13000.00000" pt_clust_7="13000.00000" pt_clust_8="13000.00000" pt_clust_9="97.06816"></scales>
<clustering>
<clus scale="   93.507">  5  6 -1 -1</clus>
<clus scale="  101.694">  7  8 -1 -1</clus>
<clus scale="  127.349">  2  7  1 -1</clus>
<clus scale="   97.068">  1  9  2 -1</clus>
<clus scale="   97.068">  1  5  2 -1</clus>
</clustering>
</event>
<event>
 9    1  0.1881049E-005  0.1121931E+03  0.7546771E-02  0.1260446E+00
          4   -1    0    0  502    0 -0.00000000000E+00  0.00000000000E+00  0.15645681766E+03  0.15645681766E+03  0.00000000000E+00 0. -1.
         21   -1    0    0  501  502  0.00000000000E+00 -0.00000000000E+00 -0.12513611872E+03  0.12513611872E+03  0.00000000000E+00 0.  1.
         23    2    1    2    0    0 -0.94461272187E+01 -0.51285160433E+02  0.38502719208E+02  0.11897976390E+03  0.99771377815E+02 0.  0.
         23    2    1    2    0    0  0.36477556979E+02  0.40411898331E+02  0.35163268143E+02  0.11121230211E+03  0.90376916435E+02 0.  0.
        -11    1    4    4    0    0 -0.23726164127E+02 -0.70013285982E+01  0.22697635036E+02  0.33572788126E+02  0.00000000000E+00 0. -1.
         11    1    4    4    0    0  0.60203721106E+02  0.47413226929E+02  0.12465633107E+02  0.77639513984E+02  0.00000000000E+00 0.  1.
        -13    1    3    3    0    0 -0.37389087580E+02 -0.44131125597E+02  0.59746053798E+02  0.83157026528E+02  0.00000000000E+00 0. -1.
         13    1    3    3    0    0  0.27942960362E+02 -0.71540348352E+01 -0.21243334590E+02  0.35822737371E+02  0.00000000000E+00 0.  1.
          4    1    1    2  501    0 -0.27031429760E+02  0.10873262102E+02 -0.42345288414E+02  0.51400870367E+02  0.00000000000E+00 0. -1.
<scales pt_clust_5="13000.00000" pt_clust_6="13000.00000" pt_clust_7="13000.00000" pt_clust_8="13000.00000" pt_clust_9="29.13634"></scales>
<clustering>
<clus scale="   29.136">  2  9  1 -1</clus>
<clus scale="   90.377">  5  6 -1 -1</clus>
<clus scale="   99.771">  7  8 -1 -1</clus>
<clus scale="  103.928">  2  5  1 -1</clus>
<clus scale="   29.136">  2  5  1 -1</clus>
</clustering>
</event>
<event>
 9    1  0.1947696E-005  0.1167071E+03  0.7546771E-02  0.1249695E+00
          3   -1    0    0  502    0 -0.00000000000E+00  0.00000000000E+00  0.21603114252E+03  0.21603114252E+03  0.00000000000E+00 0. -1.
         21   -1    0    0  501  502  0.00000000000E+00 -0.00000000000E+00 -0.24009861749E+03  0.24009861749E+03  0.00000000000E+00 0. -1.
         23    2    1    2    0    0  0.48110207067E+02 -0.73352123824E+02  0.13724275941E+03  0.18589907310E+03  0.89597791674E+02 0.  0.
         23    2    1    2    0    0 -0.26191802853E+02  0.26481744840E+02  0.94949634950E+00  0.99920766226E+02  0.92714425163E+02 0.  0.
        -11    1    4    4    0    0 -0.48043835908E+02  0.46618799083E+02 -0.11094412122E+02  0.67857266207E+02  0.00000000000E+00 0.  1.
         11    1    4    4    0    0  0.21852033055E+02 -0.20137054242E+02  0.12043908471E+02  0.32063500019E+02  0.00000000000E+00 0. -1.
        -13    1    3    3    0    0 -0.14203349805E+01 -0.21321347614E+02 -0.88274432677E+01  0.23120142088E+02  0.00000000000E+00 0.  1.
         13    1    3    3    0    0  0.49530542047E+02 -0.52030776210E+02  0.14607020268E+03  0.16277893101E+03  0.00000000000E+00 0. -1.
          3    1    1    2  501    0 -0.21918404214E+02  0.46870378984E+02 -0.16225973073E+03  0.17030992069E+03  0.00000000000E+00 0. -1.
<scales pt_clust_5="13000.00000" pt_clust_6="13000.00000" pt_clust_7="13000.00000" pt_clust_8="13000.00000" pt_clust_9="51.74214"></scales>
<clustering>
<clus scale="   51.742">  2  9  1 -1</clus>
<clus scale="   89.598">  7  8 -1 -1</clus>
<clus scale="   92.714">  5  6 -1 -1</clus>
<clus scale="  114.247">  1  7  2 -1</clus>
<clus scale="   51.742">  2  5  1 -1</clus>
</clustering>
</event>
<event>
 9    1  0.1881049E-005  0.9583126E+02  0.7546771E-02  0.1289389E+00
         -3   -1    0    0    0  501 -0.00000000000E+00  0.00000000000E+00  0.98853292695E+03  0.98853292695E+03  0.00000000000E+00 0.  1.
         21   -1    0    0  501  502  0.00000000000E+00 -0.00000000000E+00 -0.17793827437E+02  0.17793827437E+02  0.00000000000E+00 0. -1.
         23    2    1    2    0    0  0.62872220418E+01 -0.37993520558E+02  0.40762005761E+03  0.41952893445E+03  0.91473377075E+02 0.  0.
         23    2    1    2    0    0  0.33818552984E+02  0.91017457704E+01  0.22863709618E+03  0.24868337206E+03  0.91334339055E+02 0.  0.
        -13    1    3    3    0    0 -0.26917097984E+02 -0.47811010805E+02  0.33008104049E+03  0.33461009580E+03  0.00000000000E+00 0.  1.
         13    1    3    3    0    0  0.33204320026E+02  0.98174902469E+01  0.77539017120E+02  0.84918838659E+02  0.00000000000E+00 0. -1.
        -13    1    4    4    0    0  0.32778340589E+02 -0.31209108386E+02  0.59227640806E+02  0.74540871295E+02  0.00000000000E+00 0. -1.
         13    1    4    4    0    0  0.10402123943E+01  0.40310854156E+02  0.16940945537E+03  0.17414250077E+03  0.00000000000E+00 0.  1.
         -3    1    1    2    0  502 -0.40105775026E+02  0.28891774788E+02  0.33448194573E+03  0.33811444787E+03  0.00000000000E+00 0.  1.
<scales pt_clust_5="13000.00000" pt_clust_6="13000.00000" pt_clust_7="13000.00000" pt_clust_8="13000.00000" pt_clust_9="49.42884"></scales>
<clustering>
<clus scale="   49.429">  2  9  1 -1</clus>
<clus scale="   91.334">  7  8 -1 -1</clus>
<clus scale="   91.473">  5  6 -1 -1</clus>
<clus scale="   95.699">  2  7  1 -1</clus>
<clus scale="   49.429">  2  5  1 -1</clus>
</clustering>
</event>
<event>
 9    1  0.1881049E-005  0.9846875E+02  0.7546771E-02  0.1286312E+00
          2   -1    0    0  502    0 -0.00000000000E+00  0.00000000000E+00  0.80555320920E+03  0.80555320920E+03  0.00000000000E+00 0. -1.
         21   -1    0    0  501  502  0.00000000000E+00 -0.00000000000E+00 -0.17596583793E+02  0.17596583793E+02  0.00000000000E+00 0.  1.
         23    2    1    2    0    0 -0.20776606058E+02 -0.14853618240E+02  0.37440784342E+03  0.38643732427E+03  0.92196936195E+02 0.  0.
         23    2    1    2    0    0  0.16148649470E+02  0.44456628743E+02  0.37540258895E+03  0.38820588920E+03  0.86830512522E+02 0.  0.
        -11    1    4    4    0    0  0.39571159349E+02  0.53253853555E+02  0.32760561394E+03  0.33425632059E+03  0.00000000000E+00 0.  1.
         11    1    4    4    0    0 -0.23422509880E+02 -0.87972248120E+01  0.47796975004E+02  0.53949568608E+02  0.00000000000E+00 0. -1.
        -11    1    3    3    0    0 -0.22542299387E+02 -0.51481298296E+02  0.17888734029E+03  0.18750775945E+03  0.00000000000E+00 0. -1.
         11    1    3    3    0    0  0.17656933288E+01  0.36627680056E+02  0.19552050313E+03  0.19892956483E+03  0.00000000000E+00 0.  1.
          2    1    1    2  501    0  0.46279565887E+01 -0.29603010503E+02  0.38146193043E+02  0.48506579519E+02  0.00000000000E+00 0. -1.
<scales pt_clust_5="13000.00000" pt_clust_6="13000.00000" pt_clust_7="13000.00000" pt_clust_8="13000.00000" pt_clust_9="29.96258"></scales>
<clustering>
<clus scale="   29.963">  2  9  1 -1</clus>
<clus scale="   86.831">  5  6 -1 -1</clus>
<clus scale="   92.197">  7  8 -1 -1</clus>
<clus scale="   93.463">  2  5  1 -1</clus>
<clus scale="   29.963">  2  5  1 -1</clus>
</clustering>
</event>
<event>
 9    1  0.1881049E-005  0.1018360E+03  0.7546771E-02  0.1276590E+00
          1   -1    0    0  502    0 -0.00000000000E+00  0.00000000000E+00  0.15855447144E+03  0.15855447144E+03  0.00000000000E+00 0. -1.
         21   -1    0    0  501  502  0.00000000000E+00 -0.00000000000E+00 -0.33968051564E+03  0.33968051564E+03  0.00000000000E+00 0. -1.
         23    2    1    2    0    0  0.52959498238E+02  0.37610282427E+01  0.11265266501E+03  0.15444119006E+03  0.91337858892E+02 0.  0.
         23    2    1    2    0    0  0.27028849256E+02 -0.18920564622E+02 -0.16897379545E+03  0.19478301292E+03  0.91102865575E+02 0.  0.
        -11    1    3    3    0    0  0.18160103906E+02 -0.11360331009E+02  0.11446801315E+03  0.11645502363E+03  0.00000000000E+00 0. -1.
         11    1    3    3    0    0  0.34799394332E+02  0.15121359251E+02 -0.18153481360E+01  0.37986166434E+02  0.00000000000E+00 0.  1.
        -13    1    4    4    0    0  0.39385921625E+02 -0.44730408035E+02 -0.14725512799E+03  0.15885884598E+03  0.00000000000E+00 0.  1.
         13    1    4    4    0    0 -0.12357072370E+02  0.25809843412E+02 -0.21718667461E+02  0.35924166946E+02  0.00000000000E+00 0. -1.
          1    1    1    2  501    0 -0.79988347493E+02  0.15159536380E+02 -0.12480491376E+03  0.14901078409E+03  0.00000000000E+00 0. -1.
<scales pt_clust_5="13000.00000" pt_clust_6="13000.00000" pt_clust_7="13000.00000" pt_clust_8="13000.00000" pt_clust_9="81.41221"></scales>
<clustering>
<clus scale="   81.412">  2  9  1 -1</clus>
<clus scale="   91.103">  7  8 -1 -1</clus>
<clus scale="   91.338">  5  6 -1 -1</clus>
<clus scale="  101.625">  2  7  1 -1</clus>
<clus scale="   81.412">  2  5  1 -1</clus>
</clustering>
</event>
<event>
 9    1  0.1881049E-005  0.1073187E+03  0.7546771E-02  0.1268357E+00
          1   -1    0    0  502    0 -0.00000000000E+00  0.00000000000E+00  0.39325591434E+03  0.39325591434E+03  0.00000000000E+00 0. -1.
         21   -1    0    0  501  502  0.00000000000E+00 -0.00000000000E+00 -0.67681954803E+02  0.67681954803E+02  0.00000000000E+00 0. -1.
         23    2    1    2    0    0  0.29095040486E+02  0.38440024361E+01  0.10585586542E+03  0.14655293144E+03  0.97010307368E+02 0.  0.
         23    2    1    2    0    0  0.56802542556E+01 -0.90799172246E+02  0.15052779679E+03  0.19794688582E+03  0.90816281744E+02 0.  0.
        -13    1    4    4    0    0 -0.23111631616E+02  0.31157545696E+01  0.76178360441E+01  0.24533382737E+02  0.00000000000E+00 0.  1.
         13    1    4    4    0    0  0.28791885872E+02 -0.93914926815E+02  0.14290996074E+03  0.17341350308E+03  0.00000000000E+00 0. -1.
        -13    1    3    3    0    0 -0.80650888755E+01  0.44947586810E+02  0.42474341718E+02  0.62365061717E+02  0.00000000000E+00 0.  1.
         13    1    3    3    0    0  0.37160129361E+02 -0.41103584374E+02  0.63381523697E+02  0.84187869724E+02  0.00000000000E+00 0. -1.
          1    1    1    2  501    0 -0.34775294742E+02  0.86955169809E+02  0.69190297329E+02  0.11643805188E+03  0.00000000000E+00 0. -1.
<scales pt_clust_5="13000.00000" pt_clust_6="13000.00000" pt_clust_7="13000.00000" pt_clust_8="13000.00000" pt_clust_9="93.65107"></scales>
<clustering>
<clus scale="   90.816">  5  6 -1 -1</clus>
<clus scale="   93.651">  2  9  1 -1</clus>
<clus scale="   97.010">  7  8 -1 -1</clus>
<clus scale="  101.754">  2  5  1 -1</clus>
<clus scale="   93.651">  2  5  1 -1</clus>
</clustering>
</event>
<event>
 9    1  0.1881049E-005  0.3253240E+03  0.7546771E-02  0.1073296E+00
         21   -1    0    0  501  502  0.00000000000E+00  0.00000000000E+00  0.13311452328E+03  0.13311452328E+03  0.00000000000E+00 0. -1.
          2   -1    0    0  502    0 -0.00000000000E+00 -0.00000000000E+00 -0.15906702351E+04  0.15906702351E+04  0.00000000000E+00 0. -1.
         23    2    1    2    0    0 -0.23538082861E+03 -0.27825562769E+03 -0.11458455528E+04  0.12061392369E+04  0.94760218553E+02 0.  0.
         23    2    1    2    0    0  0.19085845353E+03  0.11870755364E+03 -0.22235168706E+03  0.32943615319E+03  0.92571451919E+02 0.  0.
        -13    1    4    4    0    0  0.51017852958E+02 -0.68286501823E+01 -0.26068539791E+02  0.57697665036E+02  0.00000000000E+00 0. -1.
         13    1    4    4    0    0  0.13984060057E+03  0.12553620382E+03 -0.19628314727E+03  0.27173848815E+03  0.00000000000E+00 0.  1.
        -13    1    3    3    0    0 -0.59104009820E+02 -0.19090132149E+02 -0.22485080029E+03  0.23327151457E+03  0.00000000000E+00 0.  1.
         13    1    3    3    0    0 -0.17627681879E+03 -0.25916549554E+03 -0.92099475254E+03  0.97286772232E+03  0.00000000000E+00 0. -1.
          2    1    1    2  501    0  0.44522375082E+02  0.15954807405E+03 -0.89358471975E+02  0.18820936834E+03  0.00000000000E+00 0. -1.
<scales pt_clust_5="13000.00000" pt_clust_6="13000.00000" pt_clust_7="13000.00000" pt_clust_8="13000.00000" pt_clust_9="165.64368"></scales>
<clustering>
<clus scale="   92.571">  5  6 -1 -1</clus>
<clus scale="   94.760">  7  8 -1 -1</clus>
<clus scale="  165.644">  1  9  2 -1</clus>
<clus scale="  324.693">  1  5  2 -1</clus>
<clus scale="  165.644">  1  5  2 -1</clus>
</clustering>
</event>
<event>
 9    1  0.1881049E-005  0.1160257E+03  0.7546771E-02  0.1250056E+00
         -3   -1    0    0    0  501 -0.00000000000E+00  0.00000000000E+00  0.71781797148E+03  0.71781797148E+03  0.00000000000E+00 0.  1.
         21   -1    0    0  501  502  0.00000000000E+00 -0.00000000000E+00 -0.30023155527E+02  0.30023155527E+02  0.00000000000E+00 0.  1.
         23    2    1    2    0    0 -0.60322147321E+02 -0.21245440852E+01  0.37019967550E+03  0.38590323537E+03  0.90720627131E+02 0.  0.
         23    2    1    2    0    0  0.90368309406E+02  0.27340609210E+02  0.26969324348E+03  0.30002494041E+03  0.91469005835E+02 0.  0.
        -13    1    3    3    0    0 -0.81154513573E+02  0.11937384925E+02  0.30996326059E+03  0.32063340304E+03  0.00000000000E+00 0.  1.
         13    1    3    3    0    0  0.20832366253E+02 -0.14061929010E+02  0.60236414911E+02  0.65269832331E+02  0.00000000000E+00 0. -1.
        -13    1    4    4    0    0  0.90347448345E+02  0.65534135356E+01  0.26303721960E+03  0.27819810845E+03  0.00000000000E+00 0.  1.
         13    1    4    4    0    0  0.20861061511E-01  0.20787195675E+02  0.66560238822E+01  0.21826831953E+02  0.00000000000E+00 0. -1.
         -3    1    1    2    0  502 -0.30046162086E+02 -0.25216065125E+02  0.47901896977E+02  0.61912951233E+02  0.00000000000E+00 0.  1.
<scales pt_clust_5="13000.00000" pt_clust_6="13000.00000" pt_clust_7="13000.00000" pt_clust_8="13000.00000" pt_clust_9="39.22527"></scales>
<clustering>
<clus scale="   39.225">  2  9  1 -1</clus>
<clus scale="   90.721">  5  6 -1 -1</clus>
<clus scale="   91.469">  7  8 -1 -1</clus>
<clus scale="  115.437">  1  5  2 -1</clus>
<clus scale="   39.225">  2  5  1 -1</clus>
</clustering>
</event>
<event>
 9    1  0.1881049E-005  0.2022788E+03  0.7546771E-02  0.1148284E+00
          1   -1    0    0  502    0 -0.00000000000E+00  0.00000000000E+00  0.13676334736E+04  0.13676334736E+04  0.00000000000E+00 0. -1.
         21   -1    0    0  501  502  0.00000000000E+00 -0.00000000000E+00 -0.45015238921E+02  0.45015238921E+02  0.00000000000E+00 0. -1.
         23    2    1    2    0    0 -0.12835285021E+03 -0.13715131763E+03  0.98634388571E+03  0.10083783112E+04  0.93100051509E+02 0.  0.
         23    2    1    2    0    0  0.10142181638E+03  0.12585027465E+03  0.32379633289E+03  0.37251044160E+03  0.88290925025E+02 0.  0.
        -11    1    3    3    0    0 -0.86692533088E+02 -0.14334500491E+03  0.78438081910E+03  0.80207023077E+03  0.00000000000E+00 0.  1.
         11    1    3    3    0    0 -0.41660317122E+02  0.61936872782E+01  0.20196306661E+03  0.20630808046E+03  0.00000000000E+00 0. -1.
        -13    1    4    4    0    0  0.81804016692E+02  0.13443452668E+03  0.30809140300E+03  0.34595498509E+03  0.00000000000E+00 0. -1.
         13    1    4    4    0    0  0.19617799686E+02 -0.85842520294E+01  0.15704929897E+02  0.26555456510E+02  0.00000000000E+00 0.  1.
          1    1    1    2  501    0  0.26931033833E+02  0.11301042982E+02  0.12478016112E+02  0.31759959727E+02  0.00000000000E+00 0. -1.
<scales pt_clust_5="13000.00000" pt_clust_6="13000.00000" pt_clust_7="13000.00000" pt_clust_8="13000.00000" pt_clust_9="29.20606"></scales>
<clustering>
<clus scale="   29.206">  2  9  1 -1</clus>
<clus scale="   88.291">  7  8 -1 -1</clus>
<clus scale="   93.100">  5  6 -1 -1</clus>
<clus scale="  200.111">  2  7  1 -1</clus>
<clus scale="   29.206">  2  5  1 -1</clus>
</clustering>
</event>
<event>
 9    1  0.1881049E-005  0.9150873E+02  0.7546771E-02  0.1299682E+00
          1   -1    0    0  502    0 -0.00000000000E+00  0.00000000000E+00  0.53555291555E+02  0.53555291555E+02  0.00000000000E+00 0. -1.
         21   -1    0    0  501  502  0.00000000000E+00 -0.00000000000E+00 -0.34890804690E+03  0.34890804690E+03  0.00000000000E+00 0.  1.
         23    2    1    2    0    0 -0.66004347340E+01 -0.26095871923E+02 -0.28284714779E+02  0.98163848026E+02  0.90064175448E+02 0.  0.
         23    2    1    2    0    0  0.12201965635E+02 -0.24490633027E+02 -0.19321421889E+03  0.21460691210E+03  0.89306848941E+02 0.  0.
        -11    1    4    4    0    0  0.26497619328E+02  0.10861373033E+02 -0.16423226582E+03  0.16671031879E+03  0.00000000000E+00 0.  1.
         11    1    4    4    0    0 -0.14295653694E+02 -0.35352006060E+02 -0.28981953072E+02  0.47896593312E+02  0.00000000000E+00 0. -1.
        -11    1    3    3    0    0 -0.52693528031E+01 -0.56326184861E+02  0.24916490832E+00  0.56572672406E+02  0.00000000000E+00 0. -1.
         11    1    3    3    0    0 -0.13310819309E+01  0.30230312939E+02 -0.28533879687E+02  0.41591175620E+02  0.00000000000E+00 0.  1.
          1    1    1    2  501    0 -0.56015309008E+01  0.50586504950E+02 -0.73853821677E+02  0.89692578331E+02  0.00000000000E+00 0. -1.
<scales pt_clust_5="13000.00000" pt_clust_6="13000.00000" pt_clust_7="13000.00000" pt_clust_8="13000.00000" pt_clust_9="50.89569"></scales>
<clustering>
<clus scale="   50.896">  2  9  1 -1</clus>
<clus scale="   89.307">  5  6 -1 -1</clus>
<clus scale="   90.064">  7  8 -1 -1</clus>
<clus scale="   90.763">  2  5  1 -1</clus>
<clus scale="   50.896">  2  5  1 -1</clus>
</clustering>
</event>
<event>
 9    1  0.1881049E-005  0.1365349E+03  0.7546771E-02  0.1218730E+00
         21   -1    0    0  501  502  0.00000000000E+00  0.00000000000E+00  0.52640168644E+03  0.52640168644E+03  0.00000000000E+00 0.  1.
         -1   -1    0    0    0  501 -0.00000000000E+00 -0.00000000000E+00 -0.14223702674E+03  0.14223702674E+03  0.00000000000E+00 0.  1.
         23    2    1    2    0    0 -0.11715058148E+03  0.22209533394E+02 -0.66361521333E+02  0.16506863929E+03  0.92877780164E+02 0.  0.
         23    2    1    2    0    0  0.42221888863E+02 -0.39493529755E+02  0.10628084557E+03  0.15084086260E+03  0.90082855776E+02 0.  0.
        -11    1    4    4    0    0 -0.22717212654E+02 -0.22687351026E+02  0.10250271532E+02  0.33702458572E+02  0.00000000000E+00 0.  1.
         11    1    4    4    0    0  0.64939101517E+02 -0.16806178729E+02  0.96030574034E+02  0.11713840403E+03  0.00000000000E+00 0. -1.
        -11    1    3    3    0    0 -0.10154729566E+03 -0.22097098967E+02 -0.41319339081E+02  0.11183658981E+03  0.00000000000E+00 0.  1.
         11    1    3    3    0    0 -0.15603285821E+02  0.44306632361E+02 -0.25042182252E+02  0.53232049477E+02  0.00000000000E+00 0. -1.
         -1    1    1    2    0  502  0.74928692620E+02  0.17283996361E+02  0.34424533546E+03  0.35272921129E+03  0.00000000000E+00 0.  1.
<scales pt_clust_5="13000.00000" pt_clust_6="13000.00000" pt_clust_7="13000.00000" pt_clust_8="13000.00000" pt_clust_9="76.89633"></scales>
<clustering>
<clus scale="   76.896">  1  9  2 -1</clus>
<clus scale="   90.083">  5  6 -1 -1</clus>
<clus scale="   92.878">  7  8 -1 -1</clus>
<clus scale="  134.649">  1  5  2 -1</clus>
<clus scale="   76.896">  1  5  2 -1</clus>
</clustering>
</event>
<event>
 9    1  0.1881049E-005  0.3645058E+03  0.7546771E-02  0.1096431E+00
         21   -1    0    0  501  502  0.00000000000E+00  0.00000000000E+00  0.35627743841E+03  0.35627743841E+03  0.00000000000E+00 0. -1.
          2   -1    0    0  502    0 -0.00000000000E+00 -0.00000000000E+00 -0.14971110195E+04  0.14971110195E+04  0.00000000000E+00 0. -1.
         23    2    1    2    0    0  0.32215490373E+02  0.74684135629E+02 -0.14755465405E+03  0.19304827745E+03  0.94232178996E+02 0.  0.
         23    2    1    2    0    0 -0.34934770987E+03  0.81908532779E+02 -0.11965686587E+04  0.12523930964E+04  0.89213691487E+02 0.  0.
        -11    1    3    3    0    0 -0.28690509345E+02  0.96332945508E+00 -0.38122871165E+02  0.47722391349E+02  0.00000000000E+00 0.  1.
         11    1    3    3    0    0  0.60905999718E+02  0.73720806174E+02 -0.10943178289E+03  0.14532588610E+03  0.00000000000E+00 0. -1.
        -11    1    4    4    0    0 -0.30155441669E+03  0.94759993997E+02 -0.10897347207E+04  0.11346524949E+04  0.00000000000E+00 0. -1.
         11    1    4    4    0    0 -0.47793293181E+02 -0.12851461218E+02 -0.10683393801E+03  0.11774060149E+03  0.00000000000E+00 0.  1.
          2    1    1    2  501    0  0.31713221949E+03 -0.15659266841E+03  0.20328973164E+03  0.40794708411E+03  0.00000000000E+00 0. -1.
<scales pt_clust_5="13000.00000" pt_clust_6="13000.00000" pt_clust_7="13000.00000" pt_clust_8="13000.00000" pt_clust_9="353.41960"></scales>
<clustering>
<clus scale="   89.214">  7  8 -1 -1</clus>
<clus scale="   94.232">  5  6 -1 -1</clus>
<clus scale="  124.480">  2  5  1 -1</clus>
<clus scale="  353.420">  1  9  2 -1</clus>
<clus scale="  353.420">  1  5  2 -1</clus>
</clustering>
</event>
<event>
 9    1  0.1881049E-005  0.2479067E+03  0.7546771E-02  0.1114689E+00
         -1   -1    0    0    0  501 -0.00000000000E+00  0.00000000000E+00  0.45748892388E+03  0.45748892388E+03  0.00000000000E+00 0.  1.
         21   -1    0    0  501  502  0.00000000000E+00 -0.00000000000E+00 -0.31131010140E+03  0.31131010140E+03  0.00000000000E+00 0.  1.
         23    2    1    2    0    0  0.43251894801E+02 -0.28387807204E+03  0.16382933921E+03  0.34335246696E+03  0.92700474599E+02 0.  0.
         23    2    1    2    0    0 -0.16119245470E+03  0.11584815283E+03 -0.78853942004E+00  0.21946511328E+03  0.93597607812E+02 0.  0.
        -11    1    3    3    0    0  0.76929468740E+00 -0.34106168501E+02 -0.10635902327E+02  0.35734366686E+02  0.00000000000E+00 0. -1.
         11    1    3    3    0    0  0.42482600114E+02 -0.24977190354E+03  0.17446524154E+03  0.30761810028E+03  0.00000000000E+00 0.  1.
        -13    1    4    4    0    0 -0.97687922329E+02  0.16989470415E+02 -0.17807336043E+02  0.10074062483E+03  0.00000000000E+00 0.  1.
         13    1    4    4    0    0 -0.63504532369E+02  0.98858682414E+02  0.17018796623E+02  0.11872448845E+03  0.00000000000E+00 0. -1.
         -1    1    1    2    0  502  0.11794055990E+03  0.16802991921E+03 -0.16861977321E+02  0.20598144504E+03  0.00000000000E+00 0.  1.
<scales pt_clust_5="13000.00000" pt_clust_6="13000.00000" pt_clust_7="13000.00000" pt_clust_8="13000.00000" pt_clust_9="205.29011"></scales>
<clustering>
<clus scale="   92.700">  5  6 -1 -1</clus>
<clus scale="   93.598">  7  8 -1 -1</clus>
<clus scale="  205.290">  2  9  1 -1</clus>
<clus scale="  247.569">  1  5  2 -1</clus>
<clus scale="  205.290">  2  5  1 -1</clus>
</clustering>
</event>
<event>
 9    1  0.1881049E-005  0.1056967E+03  0.7546771E-02  0.1271010E+00
         21   -1    0    0  501  502  0.00000000000E+00  0.00000000000E+00  0.24958828362E+03  0.24958828362E+03  0.00000000000E+00 0.  1.
         -2   -1    0    0    0  501 -0.00000000000E+00 -0.00000000000E+00 -0.16178772058E+03  0.16178772058E+03  0.00000000000E+00 0.  1.
         23    2    1    2    0    0  0.42329771290E+02  0.12872244797E+02 -0.10061303605E+03  0.14362326148E+03  0.92450819314E+02 0.  0.
         23    2    1    2    0    0 -0.78379074597E+02 -0.30233311903E+02  0.63850080794E+02  0.13692067857E+03  0.87253119826E+02 0.  0.
        -11    1    3    3    0    0 -0.25758258062E+02 -0.17555927951E+01 -0.53904365928E+02  0.59768307912E+02  0.00000000000E+00 0. -1.
         11    1    3    3    0    0  0.68088029352E+02  0.14627837592E+02 -0.46708670123E+02  0.83854953571E+02  0.00000000000E+00 0.  1.
        -13    1    4    4    0    0  0.59054802226E+01  0.20855073491E+02  0.54169613936E+01  0.22341715640E+02  0.00000000000E+00 0. -1.
         13    1    4    4    0    0 -0.84284554820E+02 -0.51088385395E+02  0.58433119401E+02  0.11457896293E+03  0.00000000000E+00 0.  1.
         -2    1    1    2    0  502  0.36049303307E+02  0.17361067107E+02  0.12456351829E+03  0.13083206415E+03  0.00000000000E+00 0.  1.
<scales pt_clust_5="13000.00000" pt_clust_6="13000.00000" pt_clust_7="13000.00000" pt_clust_8="13000.00000" pt_clust_9="40.01198"></scales>
<clustering>
<clus scale="   40.012">  1  9  2 -1</clus>
<clus scale="   87.253">  7  8 -1 -1</clus>
<clus scale="   92.451">  5  6 -1 -1</clus>
<clus scale="  101.182">  1  7  2 -1</clus>
<clus scale="   40.012">  1  5  2 -1</clus>
</clustering>
</event>
<event>
 9    1  0.1881049E-005  0.1282903E+03  0.7546771E-02  0.1230254E+00
         21   -1    0    0  501  502  0.00000000000E+00  0.00000000000E+00  0.65700990465E+03  0.65700990465E+03  0.00000000000E+00 0.  1.
          4   -1    0    0  502    0 -0.00000000000E+00 -0.00000000000E+00 -0.38438833574E+02  0.38438833574E+02  0.00000000000E+00 0. -1.
         23    2    1    2    0    0 -0.11812878107E+02  0.82516027049E+02  0.14322820126E+03  0.19000486887E+03  0.92946725324E+02 0.  0.
         23    2    1    2    0    0  0.42993062885E+02 -0.93079276323E+02  0.35922851061E+03  0.38475281512E+03  0.92073073006E+02 0.  0.
        -11    1    3    3    0    0  0.39735069032E+02  0.22906442414E+02  0.47846649006E+02  0.66278824945E+02  0.00000000000E+00 0.  1.
         11    1    3    3    0    0 -0.51547947138E+02  0.59609584635E+02  0.95381552257E+02  0.12372604393E+03  0.00000000000E+00 0. -1.
        -13    1    4    4    0    0  0.60082665695E+02 -0.26381953299E+02  0.13347102093E+03  0.14872944431E+03  0.00000000000E+00 0.  1.
         13    1    4    4    0    0 -0.17089602810E+02 -0.66697323024E+02  0.22575748968E+03  0.23602337081E+03  0.00000000000E+00 0. -1.
          4    1    1    2  501    0 -0.31180184779E+02  0.10563249274E+02  0.11611435920E+03  0.12069105423E+03  0.00000000000E+00 0. -1.
<scales pt_clust_5="13000.00000" pt_clust_6="13000.00000" pt_clust_7="13000.00000" pt_clust_8="13000.00000" pt_clust_9="32.92091"></scales>
<clustering>
<clus scale="   32.921">  1  9  2 -1</clus>
<clus scale="   92.073">  7  8 -1 -1</clus>
<clus scale="   92.947">  5  6 -1 -1</clus>
<clus scale="  127.659">  1  7  2 -1</clus>
<clus scale="   32.921">  1  5  2 -1</clus>
</clustering>
</event>
<event>
 9    1  0.1881049E-005  0.9164413E+02  0.7546771E-02  0.1300075E+00
         21   -1    0    0  501  502  0.00000000000E+00  0.00000000000E+00  0.23603283511E+03  0.23603283511E+03  0.00000000000E+00 0. -1.
         -2   -1    0    0    0  501 -0.00000000000E+00 -0.00000000000E+00 -0.15399311961E+03  0.15399311961E+03  0.00000000000E+00 0.  1.
         23    2    1    2    0    0  0.19120399272E+02 -0.12470820734E+01 -0.11639476100E+03  0.14862022757E+03  0.90405125807E+02 0.  0.
         23    2    1    2    0    0  0.24371426092E+02  0.12405849885E+02  0.13284347029E+03  0.16191838811E+03  0.88443797354E+02 0.  0.
        -13    1    3    3    0    0  0.11372360564E+02 -0.26624013142E+02  0.29419056855E+00  0.28952637335E+02  0.00000000000E+00 0. -1.
         13    1    3    3    0    0  0.77480387074E+01  0.25376931068E+02 -0.11668895156E+03  0.11966759023E+03  0.00000000000E+00 0.  1.
        -13    1    4    4    0    0  0.52585623948E+02  0.23503440699E+02  0.60779860522E+02  0.83736796068E+02  0.00000000000E+00 0.  1.
         13    1    4    4    0    0 -0.28214197855E+02 -0.11097590814E+02  0.72063609765E+02  0.78181592046E+02  0.00000000000E+00 0. -1.
         -2    1    1    2    0  502 -0.43491825364E+02 -0.11158767811E+02  0.65591006208E+02  0.79487339042E+02  0.00000000000E+00 0.  1.
<scales pt_clust_5="13000.00000" pt_clust_6="13000.00000" pt_clust_7="13000.00000" pt_clust_8="13000.00000" pt_clust_9="44.90052"></scales>
<clustering>
<clus scale="   44.901">  1  9  2 -1</clus>
<clus scale="   88.444">  7  8 -1 -1</clus>
<clus scale="   89.710">  1  7  2 -1</clus>
<clus scale="   90.405">  5  6 -1 -1</clus>
<clus scale="   44.901">  1  5  2 -1</clus>
</clustering>
</event>
<event>
 9    1  0.1881049E-005  0.2461043E+03  0.7546771E-02  0.1115912E+00
          2   -1    0    0  502    0 -0.00000000000E+00  0.00000000000E+00  0.10366315334E+04  0.10366315334E+04  0.00000000000E+00 0. -1.
         21   -1    0    0  501  502  0.00000000000E+00 -0.00000000000E+00 -0.39822417447E+03  0.39822417447E+03  0.00000000000E+00 0. -1.
         23    2    1    2    0    0 -0.20195180614E+03  0.15266520674E+02  0.58019717738E+03  0.62116124103E+03  0.90525819846E+02 0.  0.
         23    2    1    2    0    0  0.29647962597E+03 -0.60814498393E+02  0.36873056070E+03  0.48592468055E+03  0.92531059358E+02 0.  0.
        -13    1    3    3    0    0 -0.10368679145E+03  0.52789444982E+02  0.32085954799E+03  0.34130415433E+03  0.00000000000E+00 0.  1.
         13    1    3    3    0    0 -0.98265014685E+02 -0.37522924308E+02  0.25933762939E+03  0.27985708670E+03  0.00000000000E+00 0. -1.
        -13    1    4    4    0    0  0.27196998114E+03 -0.81541946821E+02  0.32300163106E+03  0.43005443074E+03  0.00000000000E+00 0. -1.
         13    1    4    4    0    0  0.24509644829E+02  0.20727448428E+02  0.45728929633E+02  0.55870249806E+02  0.00000000000E+00 0.  1.
          2    1    1    2  501    0 -0.94527819833E+02  0.45547977719E+02 -0.31052037910E+03  0.32776978633E+03  0.00000000000E+00 0. -1.
<scales pt_clust_5="13000.00000" pt_clust_6="13000.00000" pt_clust_7="13000.00000" pt_clust_8="13000.00000" pt_clust_9="104.92915"></scales>
<clustering>
<clus scale="   90.526">  5  6 -1 -1</clus>
<clus scale="   92.531">  7  8 -1 -1</clus>
<clus scale="  104.929">  2  9  1 -1</clus>
<clus scale="  245.357">  1  5  2 -1</clus>
<clus scale="  104.929">  2  5  1 -1</clus>
</clustering>
</event>
<event>
 9    1  0.1881049E-005  0.1017128E+03  0.7546771E-02  0.1278095E+00
         -3   -1    0    0    0  501 -0.00000000000E+00  0.00000000000E+00  0.56638237149E+02  0.56638237149E+02  0.00000000000E+00 0.  1.
         21   -1    0    0  501  502  0.00000000000E+00 -0.00000000000E+00 -0.47320025534E+03  0.47320025534E+03  0.00000000000E+00 0. -1.
         23    2    1    2    0    0  0.82188843938E+00  0.45062959716E+02 -0.13784290765E+02  0.10222836302E+03  0.90715410459E+02 0.  0.
         23    2    1    2    0    0 -0.12126944245E+02 -0.21350431989E+02 -0.18987690474E+03  0.21309474877E+03  0.93558694277E+02 0.  0.
        -11    1    4    4    0    0 -0.51282158040E+02  0.87393331372E+00 -0.11089785762E+03  0.12218411647E+03  0.00000000000E+00 0. -1.
         11    1    4    4    0    0  0.39155213795E+02 -0.22224365303E+02 -0.78979047119E+02  0.90910632295E+02  0.00000000000E+00 0.  1.
        -11    1    3    3    0    0 -0.34211785348E+02  0.55074757638E+02 -0.77819156567E+01  0.65301097976E+02  0.00000000000E+00 0. -1.
         11    1    3    3    0    0  0.35033673787E+02 -0.10011797921E+02 -0.60023751080E+01  0.36927265044E+02  0.00000000000E+00 0.  1.
         -3    1    1    2    0  502  0.11305055806E+02 -0.23712527727E+02 -0.21290082268E+03  0.21451538070E+03  0.00000000000E+00 0.  1.
<scales pt_clust_5="13000.00000" pt_clust_6="13000.00000" pt_clust_7="13000.00000" pt_clust_8="13000.00000" pt_clust_9="26.26953"></scales>
<clustering>
<clus scale="   26.270">  2  9  1 -1</clus>
<clus scale="   90.715">  7  8 -1 -1</clus>
<clus scale="   93.559">  5  6 -1 -1</clus>
<clus scale="   99.104">  1  7  2 -1</clus>
<clus scale="   26.270">  2  5  1 -1</clus>
</clustering>
</event>
<event>
 9    1  0.1881049E-005  0.1004795E+03  0.7546771E-02  0.1280000E+00
          2   -1    0    0  502    0 -0.00000000000E+00  0.00000000000E+00  0.32312929098E+03  0.32312929098E+03  0.00000000000E+00 0. -1.
         21   -1    0    0  501  502  0.00000000000E+00 -0.00000000000E+00 -0.78629012445E+02  0.78629012445E+02  0.00000000000E+00 0. -1.
         23    2    1    2    0    0  0.59224171156E+02  0.21522562067E+02  0.20725060453E+03  0.23437356797E+03  0.89484262086E+02 0.  0.
         23    2    1    2    0    0  0.68289094907E+00 -0.80275145632E+01  0.50785980661E+02  0.10450227371E+03  0.90975832219E+02 0.  0.
        -11    1    3    3    0    0 -0.23554413309E+02  0.91428668384E+01  0.39281871049E+02  0.46706185816E+02  0.00000000000E+00 0.  1.
         11    1    3    3    0    0  0.82778584465E+02  0.12379695229E+02  0.16796873348E+03  0.18766738216E+03  0.00000000000E+00 0. -1.
        -13    1    4    4    0    0  0.35318682766E+02 -0.32079601298E+02  0.36170082472E+02  0.59873074397E+02  0.00000000000E+00 0. -1.
         13    1    4    4    0    0 -0.34635791817E+02  0.24052086735E+02  0.14615898189E+02  0.44629199309E+02  0.00000000000E+00 0.  1.
          2    1    1    2  501    0 -0.59907062105E+02 -0.13495047504E+02 -0.13536306655E+02  0.62882461744E+02  0.00000000000E+00 0. -1.
<scales pt_clust_5="13000.00000" pt_clust_6="13000.00000" pt_clust_7="13000.00000" pt_clust_8="13000.00000" pt_clust_9="61.40824"></scales>
<clustering>
<clus scale="   61.408">  2  9  1 -1</clus>
<clus scale="   89.484">  5  6 -1 -1</clus>
<clus scale="   90.976">  7  8 -1 -1</clus>
<clus scale="   99.131">  1  5  2 -1</clus>
<clus scale="   61.408">  2  5  1 -1</clus>
</clustering>
</event>
<event>
 9    1  0.1881049E-005  0.1250017E+03  0.7546771E-02  0.1236955E+00
         21   -1    0    0  501  502  0.00000000000E+00  0.00000000000E+00  0.11469223759E+03  0.11469223759E+03  0.00000000000E+00 0. -1.
          1   -1    0    0  502    0 -0.00000000000E+00 -0.00000000000E+00 -0.30023099426E+03  0.30023099426E+03  0.00000000000E+00 0. -1.
         23    2    1    2    0    0 -0.97709365290E+02 -0.21989395752E+02 -0.17561243627E+03  0.22154079720E+03  0.90608738324E+02 0.  0.
         23    2    1    2    0    0  0.67843605916E+02 -0.28092480822E+02 -0.50404085072E+02  0.12239928611E+03  0.83958746454E+02 0.  0.
        -11    1    4    4    0    0 -0.89494196669E+01 -0.25931716851E+02  0.47324695706E+01  0.27837785822E+02  0.00000000000E+00 0.  1.
         11    1    4    4    0    0  0.76793025583E+02 -0.21607639713E+01 -0.55136554643E+02  0.94561500289E+02  0.00000000000E+00 0. -1.
        -11    1    3    3    0    0 -0.54737485946E+02  0.31558757397E+02 -0.10834008135E+03  0.12541818354E+03  0.00000000000E+00 0.  1.
         11    1    3    3    0    0 -0.42971879344E+02 -0.53548153149E+02 -0.67272354919E+02  0.96122613657E+02  0.00000000000E+00 0. -1.
          1    1    1    2  501    0  0.29865759374E+02  0.50081876574E+02  0.40477764665E+02  0.70983148538E+02  0.00000000000E+00 0. -1.
<scales pt_clust_5="13000.00000" pt_clust_6="13000.00000" pt_clust_7="13000.00000" pt_clust_8="13000.00000" pt_clust_9="58.31087"></scales>
<clustering>
<clus scale="   58.311">  1  9  2 -1</clus>
<clus scale="   83.959">  5  6 -1 -1</clus>
<clus scale="   90.609">  7  8 -1 -1</clus>
<clus scale="  120.269">  1  5  2 -1</clus>
<clus scale="   58.311">  1  5  2 -1</clus>
</clustering>
</event>
<event>
 9    1  0.1881049E-005  0.1959130E+03  0.7546771E-02  0.1171184E+00
         -3   -1    0    0    0  501 -0.00000000000E+00  0.00000000000E+00  0.34707659316E+03  0.34707659316E+03  0.00000000000E+00 0.  1.
         21   -1    0    0  501  502  0.00000000000E+00 -0.00000000000E+00 -0.21652955176E+03  0.21652955176E+03  0.00000000000E+00 0.  1.
         23    2    1    2    0    0  0.21065445501E+02 -0.93579896629E+02  0.10301874058E+03  0.16524904500E+03  0.86564634326E+02 0.  0.
         23    2    1    2    0    0  0.16110877439E+03 -0.62635744772E+00 -0.23764486607E+02  0.18694940200E+03  0.91809033182E+02 0.  0.
        -13    1    3    3    0    0 -0.29570059678E+02 -0.10283359754E+02  0.30932685724E+02  0.44010986848E+02  0.00000000000E+00 0. -1.
         13    1    3    3    0    0  0.50635505180E+02 -0.83296536875E+02  0.72086054855E+02  0.12123805815E+03  0.00000000000E+00 0.  1.
        -13    1    4    4    0    0  0.12023799689E+03  0.36766671100E+02  0.22405012035E+01  0.12575366335E+03  0.00000000000E+00 0.  1.
         13    1    4    4    0    0  0.40870777495E+02 -0.37393028548E+02 -0.26004987811E+02  0.61195738643E+02  0.00000000000E+00 0. -1.
         -3    1    1    2    0  502 -0.18217421989E+03  0.94206254077E+02  0.51292787422E+02  0.21140769792E+03  0.00000000000E+00 0.  1.
<scales pt_clust_5="13000.00000" pt_clust_6="13000.00000" pt_clust_7="13000.00000" pt_clust_8="13000.00000" pt_clust_9="173.06943"></scales>
<clustering>
<clus scale="   86.565">  5  6 -1 -1</clus>
<clus scale="   91.809">  7  8 -1 -1</clus>
<clus scale="  129.207">  1  5  2 -1</clus>
<clus scale="  173.069">  2  9  1 -1</clus>
<clus scale="  173.069">  2  5  1 -1</clus>
</clustering>
</event>
<event>
 9    1  0.1881049E-005  0.1318485E+03  0.7546771E-02  0.1225388E+00
         21   -1    0    0  501  502  0.00000000000E+00  0.00000000000E+00  0.15023812933E+03  0.15023812933E+03  0.00000000000E+00 0. -1.
         -4   -1    0    0    0  501 -0.00000000000E+00 -0.00000000000E+00 -0.14517602188E+03  0.14517602188E+03  0.00000000000E+00 0.  1.
         23    2    1    2    0    0  0.11350998990E+02  0.89076698931E+02 -0.35165009139E+02  0.13455349711E+03  0.93832628901E+02 0.  0.
         23    2    1    2    0    0 -0.31783103592E+02 -0.86327878396E+02  0.25637512756E+02  0.13560429939E+03  0.96273442289E+02 0.  0.
        -11    1    3    3    0    0  0.16513553323E+02  0.51235574909E+02 -0.66212630858E+02  0.85334014699E+02  0.00000000000E+00 0.  1.
         11    1    3    3    0    0 -0.51625543329E+01  0.37841124022E+02  0.31047621719E+02  0.49219482412E+02  0.00000000000E+00 0. -1.
        -13    1    4    4    0    0 -0.58053263310E+02 -0.89148462304E+02  0.16549825542E+02  0.10766395143E+03  0.00000000000E+00 0. -1.
         13    1    4    4    0    0  0.26270159717E+02  0.28205839081E+01  0.90876872146E+01  0.27940347959E+02  0.00000000000E+00 0.  1.
         -4    1    1    2    0  502  0.20432104603E+02 -0.27488205353E+01  0.14589603833E+02  0.25256354702E+02  0.00000000000E+00 0.  1.
<scales pt_clust_5="13000.00000" pt_clust_6="13000.00000" pt_clust_7="13000.00000" pt_clust_8="13000.00000" pt_clust_9="20.61618"></scales>
<clustering>
<clus scale="   20.616">  1  9  2 -1</clus>
<clus scale="   93.833">  5  6 -1 -1</clus>
<clus scale="   96.273">  7  8 -1 -1</clus>
<clus scale="  130.077">  2  5  1 -1</clus>
<clus scale="   20.616">  1  5  2 -1</clus>
</clustering>
</event>
<event>
 9    1  0.1881049E-005  0.1172428E+03  0.7546771E-02  0.1251637E+00
         -2   -1    0    0    0  501 -0.00000000000E+00  0.00000000000E+00  0.32486830061E+03  0.32486830061E+03  0.00000000000E+00 0.  1.
         21   -1    0    0  501  502  0.00000000000E+00 -0.00000000000E+00 -0.85921511183E+02  0.85921511183E+02  0.00000000000E+00 0.  1.
         23    2    1    2    0    0 -0.34466682120E+01 -0.64547301167E+02  0.18724448733E+03  0.21772809467E+03  0.90370302439E+02 0.  0.
         23    2    1    2    0    0 -0.12828786186E+02  0.51445332166E+02  0.92828205514E+02  0.14693263802E+03  0.10080141080E+03 0.  0.
        -11    1    4    4    0    0  0.26672602703E+02  0.31124933148E+02 -0.32130122424E+01  0.41115844223E+02  0.00000000000E+00 0. -1.
         11    1    4    4    0    0 -0.39501388889E+02  0.20320399018E+02  0.96041217757E+02  0.10581679379E+03  0.00000000000E+00 0.  1.
        -13    1    3    3    0    0 -0.44631867416E+02 -0.32538026073E+02  0.12402297358E+03  0.13576606611E+03  0.00000000000E+00 0.  1.
         13    1    3    3    0    0  0.41185199204E+02 -0.32009275094E+02  0.63221513746E+02  0.81962028561E+02  0.00000000000E+00 0. -1.
         -2    1    1    2    0  502  0.16275454398E+02  0.13101969000E+02 -0.41125903417E+02  0.46129079108E+02  0.00000000000E+00 0.  1.
<scales pt_clust_5="13000.00000" pt_clust_6="13000.00000" pt_clust_7="13000.00000" pt_clust_8="13000.00000" pt_clust_9="20.89383"></scales>
<clustering>
<clus scale="   20.894">  2  9  1 -1</clus>
<clus scale="   90.370">  7  8 -1 -1</clus>
<clus scale="  100.801">  5  6 -1 -1</clus>
<clus scale="  108.405">  1  7  2 -1</clus>
<clus scale="   20.894">  2  5  1 -1</clus>
</clustering>
</event>
<event>
 9    1  0.1881049E-005  0.2097282E+03  0.7546771E-02  0.1165717E+00
          3   -1    0    0  502    0 -0.00000000000E+00  0.00000000000E+00  0.78843700929E+03  0.78843700929E+03  0.00000000000E+00 0. -1.
         21   -1    0    0  501  502  0.00000000000E+00 -0.00000000000E+00 -0.96521585442E+02  0.96521585442E+02  0.00000000000E+00 0. -1.
         23    2    1    2    0    0 -0.49367945079E+02 -0.69589289328E+02  0.17370241439E+03  0.21077439009E+03  0.83507194683E+02 0.  0.
         23    2    1    2    0    0  0.20403928193E+03  0.12973086725E+03  0.37145868660E+03  0.45265076898E+03  0.91918639640E+02 0.  0.
        -11    1    3    3    0    0 -0.70983526366E+02 -0.55730619496E+02  0.15365782968E+03  0.17820014475E+03  0.00000000000E+00 0. -1.
         11    1    3    3    0    0  0.21615581287E+02 -0.13858669832E+02  0.20044584710E+02  0.32574245350E+02  0.00000000000E+00 0.  1.
        -13    1    4    4    0    0  0.74750458992E+02  0.76452305712E+02  0.95846373820E+02  0.14359357069E+03  0.00000000000E+00 0.  1.
         13    1    4    4    0    0  0.12928882294E+03  0.53278561536E+02  0.27561231278E+03  0.30905719829E+03  0.00000000000E+00 0. -1.
          3    1    1    2  501    0 -0.15467133686E+03 -0.60141577920E+02  0.14675432285E+03  0.22153343566E+03  0.00000000000E+00 0. -1.
<scales pt_clust_5="13000.00000" pt_clust_6="13000.00000" pt_clust_7="13000.00000" pt_clust_8="13000.00000" pt_clust_9="188.51223"></scales>
<clustering>
<clus scale="   83.507">  5  6 -1 -1</clus>
<clus scale="   91.919">  7  8 -1 -1</clus>
<clus scale="  119.387">  1  5  2 -1</clus>
<clus scale="  188.512">  2  9  1 -1</clus>
<clus scale="  188.512">  2  5  1 -1</clus>
</clustering>
</event>
<event>
 9    1  0.1881049E-005  0.9802224E+02  0.7546771E-02  0.1285000E+00
         21   -1    0    0  501  502  0.00000000000E+00  0.00000000000E+00  0.47280990805E+03  0.47280990805E+03  0.00000000000E+00 0. -1.
          1   -1    0    0  502    0 -0.00000000000E+00 -0.00000000000E+00 -0.13621575601E+03  0.13621575601E+03  0.00000000000E+00 0. -1.
         23    2    1    2    0    0 -0.12369168491E+02  0.35332481158E+02 -0.87503001480E+02  0.13037821394E+03  0.89108489202E+02 0.  0.
         23    2    1    2    0    0  0.71664456169E+02 -0.17005317436E+02  0.11580629682E+03  0.16417158714E+03  0.90090157867E+02 0.  0.
        -13    1    4    4    0    0  0.30459803537E+02 -0.52804124474E+02  0.70786505568E+02  0.93417367569E+02  0.00000000000E+00 0.  1.
         13    1    4    4    0    0  0.41204652632E+02  0.35798807038E+02  0.45019791248E+02  0.70754219576E+02  0.00000000000E+00 0. -1.
        -13    1    3    3    0    0  0.47026058077E+01 -0.28002490371E+02 -0.13351033845E+02  0.31376807886E+02  0.00000000000E+00 0.  1.
         13    1    3    3    0    0 -0.17071774299E+02  0.63334971529E+02 -0.74151967635E+02  0.99001406053E+02  0.00000000000E+00 0. -1.
          1    1    1    2  501    0 -0.59295287677E+02 -0.18327163722E+02  0.30829085670E+03  0.31447586298E+03  0.00000000000E+00 0. -1.
<scales pt_clust_5="13000.00000" pt_clust_6="13000.00000" pt_clust_7="13000.00000" pt_clust_8="13000.00000" pt_clust_9="62.06300"></scales>
<clustering>
<clus scale="   62.063">  1  9  2 -1</clus>
<clus scale="   89.108">  7  8 -1 -1</clus>
<clus scale="   90.090">  5  6 -1 -1</clus>
<clus scale="   97.121">  2  7  1 -1</clus>
<clus scale="   62.063">  1  5  2 -1</clus>
</clustering>
</event>
<event>
 9    1  0.1881049E-005  0.4002607E+03  0.7546771E-02  0.1043694E+00
          2   -1    0    0  502    0 -0.00000000000E+00  0.00000000000E+00  0.32326633896E+03  0.32326633896E+03  0.00000000000E+00 0. -1.
         21   -1    0    0  501  502  0.00000000000E+00 -0.00000000000E+00 -0.74698467249E+03  0.74698467249E+03  0.00000000000E+00 0.  1.
         23    2    1    2    0    0  0.38058806908E+03 -0.53530269826E+02 -0.79558949020E+01  0.39564317036E+03  0.93581268837E+02 0.  0.
         23    2    1    2    0    0 -0.39647423296E+03  0.28516388909E+02 -0.19611972222E+03  0.45297529088E+03  0.93373801857E+02 0.  0.
        -11    1    4    4    0    0 -0.30488707825E+03  0.49540198457E+02 -0.18037942957E+03  0.35769693926E+03  0.00000000000E+00 0.  1.
         11    1    4    4    0    0 -0.91587154704E+02 -0.21023809547E+02 -0.15740292655E+02  0.95278351620E+02  0.00000000000E+00 0. -1.
        -13    1    3    3    0    0  0.30819057650E+03 -0.69989218879E+02  0.19119125061E+02  0.31661563945E+03  0.00000000000E+00 0. -1.
         13    1    3    3    0    0  0.72397492581E+02  0.16458949053E+02 -0.27075019963E+02  0.79027530911E+02  0.00000000000E+00 0.  1.
          2    1    1    2  501    0  0.15886163876E+02  0.25013880917E+02 -0.21964271640E+03  0.22163255020E+03  0.00000000000E+00 0. -1.
<scales pt_clust_5="13000.00000" pt_clust_6="13000.00000" pt_clust_7="13000.00000" pt_clust_8="13000.00000" pt_clust_9="29.63215"></scales>
<clustering>
<clus scale="   29.632">  2  9  1 -1</clus>
<clus scale="   93.374">  5  6 -1 -1</clus>
<clus scale="   93.581">  7  8 -1 -1</clus>
<clus scale="  400.212">  2  5  1 -1</clus>
<clus scale="   29.632">  2  5  1 -1</clus>
</clustering>
</event>
<event>
 9    1  0.1881049E-005  0.1613726E+03  0.7546771E-02  0.1187497E+00
         -1   -1    0    0    0  501 -0.00000000000E+00  0.00000000000E+00  0.10768166181E+04  0.10768166181E+04  0.00000000000E+00 0.  1.
         21   -1    0    0  501  502  0.00000000000E+00 -0.00000000000E+00 -0.37162827133E+02  0.37162827133E+02  0.00000000000E+00 0. -1.
         23    2    1    2    0    0 -0.13750106866E+03  0.34032603935E+02  0.73994755387E+03  0.75891226979E+03  0.91436801982E+02 0.  0.
         23    2    1    2    0    0  0.11720308640E+03  0.32527388130E+01  0.24368373263E+03  0.28477687828E+03  0.89269060066E+02 0.  0.
        -11    1    4    4    0    0  0.90965862133E+00  0.23576525392E+02  0.16630989041E+02  0.28866413440E+02  0.00000000000E+00 0.  1.
         11    1    4    4    0    0  0.11629342778E+03 -0.20323786579E+02  0.22705274359E+03  0.25591046484E+03  0.00000000000E+00 0. -1.
        -13    1    3    3    0    0 -0.63407896177E+02  0.54591663684E+02  0.49979169206E+03  0.50674702416E+03  0.00000000000E+00 0. -1.
         13    1    3    3    0    0 -0.74093172478E+02 -0.20559059749E+02  0.24015586181E+03  0.25216524564E+03  0.00000000000E+00 0.  1.
         -1    1    1    2    0  502  0.20297982253E+02 -0.37285342748E+02  0.56022504477E+02  0.70290297162E+02  0.00000000000E+00 0.  1.
<scales pt_clust_5="13000.00000" pt_clust_6="13000.00000" pt_clust_7="13000.00000" pt_clust_8="13000.00000" pt_clust_9="42.45238"></scales>
<clustering>
<clus scale="   42.452">  2  9  1 -1</clus>
<clus scale="   89.269">  5  6 -1 -1</clus>
<clus scale="   91.437">  7  8 -1 -1</clus>
<clus scale="  160.154">  2  5  1 -1</clus>
<clus scale="   42.452">  2  5  1 -1</clus>
</clustering>
</event>
<event>
 9    1  0.1881049E-005  0.1225872E+03  0.7546771E-02  0.1238963E+00
         21   -1    0    0  501  502  0.00000000000E+00  0.00000000000E+00  0.24206581135E+03  0.24206581135E+03  0.00000000000E+00 0. -1.
         -2   -1    0    0    0  501 -0.00000000000E+00 -0.00000000000E+00 -0.10168892590E+03  0.10168892590E+03  0.00000000000E+00 0.  1.
         23    2    1    2    0    0  0.70934469498E+02  0.98277155247E+01  0.25891245147E+01  0.11576495470E+03  0.90920504930E+02 0.  0.
         23    2    1    2    0    0 -0.10447015152E+03  0.70756555316E+01  0.83609302856E+02  0.16206807715E+03  0.91167256433E+02 0.  0.
        -11    1    3    3    0    0  0.25547055584E+01  0.29541900669E+02 -0.25645289757E+02  0.39203715415E+02  0.00000000000E+00 0.  1.
         11    1    3    3    0    0  0.68379763939E+02 -0.19714185144E+02  0.28234414272E+02  0.76561239290E+02  0.00000000000E+00 0. -1.
        -13    1    4    4    0    0  0.11982627074E+02  0.18217282915E+02  0.11620630642E+02  0.24708132364E+02  0.00000000000E+00 0. -1.
         13    1    4    4    0    0 -0.11645277860E+03 -0.11141627383E+02  0.71988672214E+02  0.13735994478E+03  0.00000000000E+00 0.  1.
         -2    1    1    2    0  502  0.33535682024E+02 -0.16903371056E+02  0.54178458086E+02  0.65921705397E+02  0.00000000000E+00 0.  1.
<scales pt_clust_5="13000.00000" pt_clust_6="13000.00000" pt_clust_7="13000.00000" pt_clust_8="13000.00000" pt_clust_9="37.55484"></scales>
<clustering>
<clus scale="   37.555">  1  9  2 -1</clus>
<clus scale="   90.921">  5  6 -1 -1</clus>
<clus scale="   91.167">  7  8 -1 -1</clus>
<clus scale="  122.404">  2  5  1 -1</clus>
<clus scale="   37.555">  1  5  2 -1</clus>
</clustering>
</event>
<event>
 9    1  0.1881049E-005  0.9521780E+02  0.7546771E-02  0.1290891E+00
         21   -1    0    0  501  502  0.00000000000E+00  0.00000000000E+00  0.22962497895E+03  0.22962497895E+03  0.00000000000E+00 0. -1.
          2   -1    0    0  502    0 -0.00000000000E+00 -0.00000000000E+00 -0.42267719773E+03  0.42267719773E+03  0.00000000000E+00 0. -1.
         23    2    1    2    0    0 -0.25298169412E+02 -0.88770450679E+01 -0.39827286091E+03  0.40945054583E+03  0.91157437644E+02 0.  0.
         23    2    1    2    0    0  0.49198219026E+02  0.14856016448E+02  0.17640059061E+03  0.20493651724E+03  0.90777980534E+02 0.  0.
        -11    1    3    3    0    0 -0.28746244492E+02  0.35142192325E+02 -0.13319305946E+03  0.14071855365E+03  0.00000000000E+00 0.  1.
         11    1    3    3    0    0  0.34480750793E+01 -0.44019237393E+02 -0.26507980146E+03  0.26873199218E+03  0.00000000000E+00 0. -1.
        -13    1    4    4    0    0  0.74752012583E+02  0.10840941551E+02  0.10786938882E+03  0.13168596904E+03  0.00000000000E+00 0. -1.
         13    1    4    4    0    0 -0.25553793557E+02  0.40150748960E+01  0.68531201796E+02  0.73250548197E+02  0.00000000000E+00 0.  1.
          2    1    1    2  501    0 -0.23900049614E+02 -0.59789713796E+01  0.28820051524E+02  0.37915113611E+02  0.00000000000E+00 0. -1.
<scales pt_clust_5="13000.00000" pt_clust_6="13000.00000" pt_clust_7="13000.00000" pt_clust_8="13000.00000" pt_clust_9="24.63657"></scales>
<clustering>
<clus scale="   24.637">  1  9  2 -1</clus>
<clus scale="   90.778">  7  8 -1 -1</clus>
<clus scale="   91.157">  5  6 -1 -1</clus>
<clus scale="   94.855">  1  7  2 -1</clus>
<clus scale="   24.637">  1  5  2 -1</clus>
</clustering>
</event>
<event>
 9    1  0.2856144E-005  0.1252157E+03  0.7546771E-02  0.1238174E+00
          1   -1    0    0  502    0 -0.00000000000E+00  0.00000000000E+00  0.42805864298E+03  0.42805864298E+03  0.00000000000E+00 0. -1.
         21   -1    0    0  501  502  0.00000000000E+00 -0.00000000000E+00 -0.41028732491E+03  0.41028732491E+03  0.00000000000E+00 0. -1.
         23    2    1    2    0    0  0.48095969009E+02  0.10598625635E+02  0.16088185725E+03  0.19158060858E+03  0.91622074262E+02 0.  0.
         23    2    1    2    0    0 -0.87553904540E+02 -0.68491383759E+02  0.22558543049E+03  0.27147184995E+03  0.10223220148E+03 0.  0.
        -11    1    3    3    0    0  0.66392901875E+02 -0.96842440983E+01  0.14551526804E+03  0.16023886931E+03  0.00000000000E+00 0.  1.
         11    1    3    3    0    0 -0.18296932866E+02  0.20282869733E+02  0.15366589208E+02  0.31341739275E+02  0.00000000000E+00 0. -1.
        -13    1    4    4    0    0  0.42065900448E+00 -0.34200025266E+02  0.92542860759E+01  0.35432477940E+02  0.00000000000E+00 0.  1.
         13    1    4    4    0    0 -0.87974563545E+02 -0.34291358493E+02  0.21633114441E+03  0.23603937201E+03  0.00000000000E+00 0. -1.
          1    1    1    2  501    0  0.39457935531E+02  0.57892758124E+02 -0.36869596966E+03  0.37529350935E+03  0.00000000000E+00 0. -1.
<scales pt_clust_5="13000.00000" pt_clust_6="13000.00000" pt_clust_7="13000.00000" pt_clust_8="13000.00000" pt_clust_9="70.06069"></scales>
<clustering>
<clus scale="   70.061">  2  9  1 -1</clus>
<clus scale="   91.622">  5  6 -1 -1</clus>
<clus scale="  102.232">  7  8 -1 -1</clus>
<clus scale="  116.714">  1  5  2 -1</clus>
<clus scale="   70.061">  2  5  1 -1</clus>
</clustering>
</event>
<event>
 9    1  0.2026297E-005  0.1040476E+03  0.7546771E-02  0.1272582E+00
         21   -1    0    0  501  502  0.00000000000E+00  0.00000000000E+00  0.16353799237E+03  0.16353799237E+03  0.00000000000E+00 0. -1.
          3   -1    0    0  502    0 -0.00000000000E+00 -0.00000000000E+00 -0.46621239860E+03  0.46621239860E+03  0.00000000000E+00 0. -1.
         23    2    1    2    0    0  0.13879805081E+02  0.58184932442E+02 -0.38687924102E+03  0.40228480367E+03  0.92624946868E+02 0.  0.
         23    2    1    2    0    0  0.30249373565E+02  0.19518689344E+02 -0.87009864285E+01  0.98559695797E+02  0.91336206599E+02 0.  0.
        -13    1    4    4    0    0  0.56336189031E+02 -0.47597320896E+01 -0.21796793436E+02  0.60593080861E+02  0.00000000000E+00 0. -1.
         13    1    4    4    0    0 -0.26086815467E+02  0.24278421434E+02  0.13095807008E+02  0.37966614936E+02  0.00000000000E+00 0.  1.
        -13    1    3    3    0    0 -0.18917869123E+01  0.81454599518E+02 -0.30591879609E+03  0.31658291243E+03  0.00000000000E+00 0. -1.
         13    1    3    3    0    0  0.15771591994E+02 -0.23269667076E+02 -0.80960444930E+02  0.85701891246E+02  0.00000000000E+00 0.  1.
          3    1    1    2  501    0 -0.44129178646E+02 -0.77703621786E+02  0.92905821220E+02  0.12890589150E+03  0.00000000000E+00 0. -1.
<scales pt_clust_5="13000.00000" pt_clust_6="13000.00000" pt_clust_7="13000.00000" pt_clust_8="13000.00000" pt_clust_9="89.36015"></scales>
<clustering>
<clus scale="   89.360">  1  9  2 -1</clus>
<clus scale="   91.336">  5  6 -1 -1</clus>
<clus scale="   92.625">  7  8 -1 -1</clus>
<clus scale="  102.902">  1  5  2 -1</clus>
<clus scale="   89.360">  1  5  2 -1</clus>
</clustering>
</event>
<event>
 9    1  0.1881049E-005  0.9267747E+02  0.7546771E-02  0.1296548E+00
         21   -1    0    0  501  502  0.00000000000E+00  0.00000000000E+00  0.11943247073E+03  0.11943247073E+03  0.00000000000E+00 0. -1.
          1   -1    0    0  502    0 -0.00000000000E+00 -0.00000000000E+00 -0.29990428421E+03  0.29990428421E+03  0.00000000000E+00 0. -1.
         23    2    1    2    0    0 -0.28629586249E+02  0.16630133698E+02 -0.19412762899E+03  0.21709791578E+03  0.91376989133E+02 0.  0.
         23    2    1    2    0    0 -0.26709807097E+02  0.13748807982E+02 -0.53439592635E+02  0.11011325994E+03  0.91469647634E+02 0.  0.
        -11    1    4    4    0    0 -0.33730918234E+02  0.35112810239E+02 -0.67769924325E+02  0.83447270361E+02  0.00000000000E+00 0. -1.
         11    1    4    4    0    0  0.70211111366E+01 -0.21364002257E+02  0.14330331690E+02  0.26665989582E+02  0.00000000000E+00 0.  1.
        -13    1    3    3    0    0 -0.89605636633E+01  0.51348515230E+02 -0.73989313133E+02  0.90506243847E+02  0.00000000000E+00 0. -1.
         13    1    3    3    0    0 -0.19669022586E+02 -0.34718381532E+02 -0.12013831586E+03  0.12659167193E+03  0.00000000000E+00 0.  1.
          1    1    1    2  501    0  0.55339393346E+02 -0.30378941680E+02  0.67095408142E+02  0.92125579223E+02  0.00000000000E+00 0. -1.
<scales pt_clust_5="13000.00000" pt_clust_6="13000.00000" pt_clust_7="13000.00000" pt_clust_8="13000.00000" pt_clust_9="63.12946"></scales>
<clustering>
<clus scale="   63.129">  1  9  2 -1</clus>
<clus scale="   91.377">  7  8 -1 -1</clus>
<clus scale="   91.470">  5  6 -1 -1</clus>
<clus scale="   92.586">  2  7  1 -1</clus>
<clus scale="   63.129">  1  5  2 -1</clus>
</clustering>
</event>
<event>
 9    1  0.1881049E-005  0.1909538E+03  0.7546771E-02  0.1159632E+00
         21   -1    0    0  501  502  0.00000000000E+00  0.00000000000E+00  0.83608529104E+02  0.83608529104E+02  0.00000000000E+00 0. -1.
          1   -1    0    0  502    0 -0.00000000000E+00 -0.00000000000E+00 -0.87591026974E+03  0.87591026974E+03  0.00000000000E+00 0. -1.
         23    2    1    2    0    0  0.11157124095E+03  0.81966583655E+02 -0.37214180081E+03  0.40945299568E+03  0.99977863136E+02 0.  0.
         23    2    1    2    0    0 -0.11051851857E+03 -0.13091299811E+03 -0.44831749603E+03  0.49358830603E+03  0.11527481333E+03 0.  0.
        -11    1    4    4    0    0 -0.39602738853E+02  0.16032339145E+02 -0.10919434658E+03  0.11725535446E+03  0.00000000000E+00 0.  1.
         11    1    4    4    0    0 -0.70915779722E+02 -0.14694533725E+03 -0.33912314944E+03  0.37633295158E+03  0.00000000000E+00 0. -1.
        -13    1    3    3    0    0  0.12493735803E+03  0.54572234234E+02 -0.33310433727E+03  0.35992495286E+03  0.00000000000E+00 0. -1.
         13    1    3    3    0    0 -0.13366117082E+02  0.27394349421E+02 -0.39037463538E+02  0.49528042819E+02  0.00000000000E+00 0.  1.
          1    1    1    2  501    0 -0.10527223760E+01  0.48946414454E+02  0.28157556192E+02  0.56477497139E+02  0.00000000000E+00 0. -1.
<scales pt_clust_5="13000.00000" pt_clust_6="13000.00000" pt_clust_7="13000.00000" pt_clust_8="13000.00000" pt_clust_9="48.95773"></scales>
<clustering>
<clus scale="   48.958">  1  9  2 -1</clus>
<clus scale="   99.978">  7  8 -1 -1</clus>
<clus scale="  115.275">  5  6 -1 -1</clus>
<clus scale="  182.128">  2  7  1 -1</clus>
<clus scale="   48.958">  1  5  2 -1</clus>
</clustering>
</event>
<event>
 9    1  0.1881049E-005  0.2332603E+03  0.7546771E-02  0.1124531E+00
          2   -1    0    0  502    0 -0.00000000000E+00  0.00000000000E+00  0.18739506800E+03  0.18739506800E+03  0.00000000000E+00 0. -1.
         21   -1    0    0  501  502  0.00000000000E+00 -0.00000000000E+00 -0.53093663064E+03  0.53093663064E+03  0.00000000000E+00 0.  1.
         23    2    1    2    0    0  0.21171148037E+03 -0.65093871032E+02  0.15559323912E+02  0.23942321699E+03  0.89567970311E+02 0.  0.
         23    2    1    2    0    0 -0.20332579407E+03  0.14353534617E+02 -0.16448925028E+03  0.27761618064E+03  0.92014280428E+02 0.  0.
        -13    1    4    4    0    0 -0.12340259295E+03 -0.36238465804E+02 -0.86183010975E+02  0.15481904835E+03  0.00000000000E+00 0. -1.
         13    1    4    4    0    0 -0.79923201119E+02  0.50592000421E+02 -0.78306239302E+02  0.12279713228E+03  0.00000000000E+00 0.  1.
        -13    1    3    3    0    0  0.63425583712E+02 -0.26020369789E+02 -0.36263509321E+02  0.77555827772E+02  0.00000000000E+00 0.  1.
         13    1    3    3    0    0  0.14828589666E+03 -0.39073501243E+02  0.51822833233E+02  0.16186738922E+03  0.00000000000E+00 0. -1.
          2    1    1    2  501    0 -0.83856862982E+01  0.50740336415E+02 -0.19461163628E+03  0.20129230102E+03  0.00000000000E+00 0. -1.
<scales pt_clust_5="13000.00000" pt_clust_6="13000.00000" pt_clust_7="13000.00000" pt_clust_8="13000.00000" pt_clust_9="51.42861"></scales>
<clustering>
<clus scale="   51.429">  2  9  1 -1</clus>
<clus scale="   89.568">  7  8 -1 -1</clus>
<clus scale="   92.014">  5  6 -1 -1</clus>
<clus scale="  232.306">  1  7  2 -1</clus>
<clus scale="   51.429">  2  5  1 -1</clus>
</clustering>
</event>
<event>
 9    1  0.1881049E-005  0.1163586E+03  0.7546771E-02  0.1252425E+00
         -3   -1    0    0    0  501 -0.00000000000E+00  0.00000000000E+00  0.14905151644E+03  0.14905151644E+03  0.00000000000E+00 0.  1.
         21   -1    0    0  501  502  0.00000000000E+00 -0.00000000000E+00 -0.19416834789E+03  0.19416834789E+03  0.00000000000E+00 0. -1.
         23    2    1    2    0    0  0.43601398950E+02 -0.73426535986E+02 -0.71203486187E+01  0.13130559575E+03  0.99488300489E+02 0.  0.
         23    2    1    2    0    0 -0.62980468472E+02 -0.19199400001E+02 -0.33439415946E+02  0.11717315179E+03  0.90973603823E+02 0.  0.
        -11    1    4    4    0    0  0.15874526417E+02  0.18448786492E+02 -0.12305683485E+02  0.27272479865E+02  0.00000000000E+00 0.  1.
         11    1    4    4    0    0 -0.78854994889E+02 -0.37648186493E+02 -0.21133732461E+02  0.89900671927E+02  0.00000000000E+00 0. -1.
        -11    1    3    3    0    0  0.62407600398E+02 -0.57308571445E+02  0.27194192000E+02  0.88985982194E+02  0.00000000000E+00 0.  1.
         11    1    3    3    0    0 -0.18806201448E+02 -0.16117964541E+02 -0.34314540619E+02  0.42319613558E+02  0.00000000000E+00 0. -1.
         -3    1    1    2    0  502  0.19379069522E+02  0.92625935987E+02 -0.45570668848E+01  0.94741116795E+02  0.00000000000E+00 0.  1.
<scales pt_clust_5="13000.00000" pt_clust_6="13000.00000" pt_clust_7="13000.00000" pt_clust_8="13000.00000" pt_clust_9="94.63150"></scales>
<clustering>
<clus scale="   90.974">  5  6 -1 -1</clus>
<clus scale="   94.632">  2  9  1 -1</clus>
<clus scale="   99.488">  7  8 -1 -1</clus>
<clus scale="  109.168">  2  5  1 -1</clus>
<clus scale="   94.632">  2  5  1 -1</clus>
</clustering>
</event>
<event>
 9    1  0.1881049E-005  0.1100793E+03  0.7546771E-02  0.1266206E+00
          1   -1    0    0  502    0 -0.00000000000E+00  0.00000000000E+00  0.23027256100E+03  0.23027256100E+03  0.00000000000E+00 0. -1.
         21   -1    0    0  501  502  0.00000000000E+00 -0.00000000000E+00 -0.20100040986E+03  0.20100040986E+03  0.00000000000E+00 0.  1.
         23    2    1    2    0    0 -0.60806126725E+01 -0.31879990100E+02  0.17455898010E+03  0.20013692926E+03  0.92361492530E+02 0.  0.
         23    2    1    2    0    0  0.57082512804E+02  0.30047035370E+02 -0.74447329412E+02  0.14382746106E+03  0.10479835922E+03 0.  0.
        -11    1    3    3    0    0 -0.45235477040E+02 -0.36476761124E+01  0.11394527139E+03  0.12265022950E+03  0.00000000000E+00 0.  1.
         11    1    3    3    0    0  0.39154864368E+02 -0.28232313987E+02  0.60613708705E+02  0.77486699760E+02  0.00000000000E+00 0. -1.
        -11    1    4    4    0    0  0.35512986695E+02 -0.23698986100E+01  0.20593141861E+02  0.41120142694E+02  0.00000000000E+00 0. -1.
         11    1    4    4    0    0  0.21569526109E+02  0.32416933980E+02 -0.95040471273E+02  0.10270731836E+03  0.00000000000E+00 0.  1.
          1    1    1    2  501    0 -0.51001900132E+02  0.18329547302E+01 -0.70839499544E+02  0.87308580539E+02  0.00000000000E+00 0. -1.
<scales pt_clust_5="13000.00000" pt_clust_6="13000.00000" pt_clust_7="13000.00000" pt_clust_8="13000.00000" pt_clust_9="51.03483"></scales>
<clustering>
<clus scale="   51.035">  2  9  1 -1</clus>
<clus scale="   92.361">  5  6 -1 -1</clus>
<clus scale="   98.313">  1  5  2 -1</clus>
<clus scale="  104.798">  7  8 -1 -1</clus>
<clus scale="   51.035">  2  5  1 -1</clus>
</clustering>
</event>
<event>
 9    1  0.1881049E-005  0.1425896E+03  0.7546771E-02  0.1214086E+00
          1   -1    0    0  502    0 -0.00000000000E+00  0.00000000000E+00  0.37911286653E+03  0.37911286653E+03  0.00000000000E+00 0. -1.
         21   -1    0    0  501  502  0.00000000000E+00 -0.00000000000E+00 -0.60731305815E+02  0.60731305815E+02  0.00000000000E+00 0.  1.
         23    2    1    2    0    0 -0.15539231906E+02 -0.87750163933E+02  0.17523890497E+03  0.21857013054E+03  0.95512664883E+02 0.  0.
         23    2    1    2    0    0  0.36376938931E+02  0.82125529439E+02  0.13838769824E+03  0.19917299730E+03  0.11158334802E+03 0.  0.
        -11    1    4    4    0    0  0.58235390071E+02  0.81108290945E+02  0.57167394325E+02  0.11505662298E+03  0.00000000000E+00 0.  1.
         11    1    4    4    0    0 -0.21858451140E+02  0.10172384943E+01  0.81220303919E+02  0.84116374322E+02  0.00000000000E+00 0. -1.
        -13    1    3    3    0    0  0.29004863433E+02 -0.70994855587E+02  0.73382562999E+02  0.10614401620E+03  0.00000000000E+00 0.  1.
         13    1    3    3    0    0 -0.44544095339E+02 -0.16755308346E+02  0.10185634197E+03  0.11242611434E+03  0.00000000000E+00 0. -1.
          1    1    1    2  501    0 -0.20837707025E+02  0.56246344937E+01  0.47549575022E+01  0.22101044502E+02  0.00000000000E+00 0. -1.
<scales pt_clust_5="13000.00000" pt_clust_6="13000.00000" pt_clust_7="13000.00000" pt_clust_8="13000.00000" pt_clust_9="21.58348"></scales>
<clustering>
<clus scale="   21.583">  2  9  1 -1</clus>
<clus scale="   95.513">  7  8 -1 -1</clus>
<clus scale="  111.583">  5  6 -1 -1</clus>
<clus scale="  130.398">  1  7  2 -1</clus>
<clus scale="   21.583">  2  5  1 -1</clus>
</clustering>
</event>
<event>
 9    1  0.1881049E-005  0.1181035E+03  0.7546771E-02  0.1246291E+00
         21   -1    0    0  501  502  0.00000000000E+00  0.00000000000E+00  0.11982885087E+03  0.11982885087E+03  0.00000000000E+00 0. -1.
         -2   -1    0    0    0  501 -0.00000000000E+00 -0.00000000000E+00 -0.22701975871E+03  0.22701975871E+03  0.00000000000E+00 0.  1.
         23    2    1    2    0    0  0.36074259195E+02  0.65699919210E+02 -0.13015225678E+03  0.17554605214E+03  0.90878902472E+02 0.  0.
         23    2    1    2    0    0 -0.18777883396E+00 -0.83545752656E+02 -0.29889493240E+01  0.12355602642E+03  0.90979282256E+02 0.  0.
        -11    1    4    4    0    0  0.29364292026E+02 -0.51331384263E+02 -0.35591742001E+02  0.69021335507E+02  0.00000000000E+00 0.  1.
         11    1    4    4    0    0 -0.29552070860E+02 -0.32214368393E+02  0.32602792677E+02  0.54534690917E+02  0.00000000000E+00 0. -1.
        -11    1    3    3    0    0 -0.25029735299E+01  0.24799403472E+02  0.81730225415E+01  0.26231156789E+02  0.00000000000E+00 0. -1.
         11    1    3    3    0    0  0.38577232725E+02  0.40900515738E+02 -0.13832527933E+03  0.14931489535E+03  0.00000000000E+00 0.  1.
         -2    1    1    2    0  502 -0.35886480361E+02  0.17845833446E+02  0.25950298273E+02  0.47746531021E+02  0.00000000000E+00 0.  1.
<scales pt_clust_5="13000.00000" pt_clust_6="13000.00000" pt_clust_7="13000.00000" pt_clust_8="13000.00000" pt_clust_9="40.07884"></scales>
<clustering>
<clus scale="   40.079">  1  9  2 -1</clus>
<clus scale="   90.879">  7  8 -1 -1</clus>
<clus scale="   90.979">  5  6 -1 -1</clus>
<clus scale="  118.026">  2  7  1 -1</clus>
<clus scale="   40.079">  1  5  2 -1</clus>
</clustering>
</event>
<event>
 9    1  0.1881049E-005  0.9292900E+02  0.7546771E-02  0.1298195E+00
          1   -1    0    0  502    0 -0.00000000000E+00  0.00000000000E+00  0.19632711858E+03  0.19632711858E+03  0.00000000000E+00 0. -1.
         21   -1    0    0  501  502  0.00000000000E+00 -0.00000000000E+00 -0.97002022094E+02  0.97002022094E+02  0.00000000000E+00 0. -1.
         23    2    1    2    0    0 -0.23041721380E+02 -0.82695502963E+00  0.14527099751E+03  0.17082412746E+03  0.86865499618E+02 0.  0.
         23    2    1    2    0    0  0.11816520765E+01  0.48212400161E+01 -0.40891382304E+02  0.99715430024E+02  0.90809807737E+02 0.  0.
        -11    1    4    4    0    0  0.42109018021E+02 -0.70517886147E+01 -0.31853028562E+01  0.42814054651E+02  0.00000000000E+00 0.  1.
         11    1    4    4    0    0 -0.40927365945E+02  0.11873028631E+02 -0.37706079448E+02  0.56901375373E+02  0.00000000000E+00 0. -1.
        -13    1    3    3    0    0  0.20474172141E+02 -0.30816797091E+02  0.61854255516E+02  0.72075069429E+02  0.00000000000E+00 0.  1.
         13    1    3    3    0    0 -0.43515893520E+02  0.29989842061E+02  0.83416741997E+02  0.98749058027E+02  0.00000000000E+00 0. -1.
          1    1    1    2  501    0  0.21860069303E+02 -0.39942849865E+01 -0.50545187252E+01  0.22789583191E+02  0.00000000000E+00 0. -1.
<scales pt_clust_5="13000.00000" pt_clust_6="13000.00000" pt_clust_7="13000.00000" pt_clust_8="13000.00000" pt_clust_9="22.22199"></scales>
<clustering>
<clus scale="   22.222">  2  9  1 -1</clus>
<clus scale="   86.865">  7  8 -1 -1</clus>
<clus scale="   89.079">  1  7  2 -1</clus>
<clus scale="   90.810">  5  6 -1 -1</clus>
<clus scale="   22.222">  2  5  1 -1</clus>
</clustering>
</event>
<event>
 9    1  0.1881049E-005  0.1000831E+03  0.7546771E-02  0.1282135E+00
         21   -1    0    0  501  502  0.00000000000E+00  0.00000000000E+00  0.96334092527E+02  0.96334092527E+02  0.00000000000E+00 0.  1.
          2   -1    0    0  502    0 -0.00000000000E+00 -0.00000000000E+00 -0.27120146223E+03  0.27120146223E+03  0.00000000000E+00 0. -1.
         23    2    1    2    0    0  0.17450194454E+02 -0.17922284870E+02 -0.20421227461E+03  0.22547957783E+03  0.92264128115E+02 0.  0.
         23    2    1    2    0    0 -0.14646096419E+02  0.47548515604E+02  0.29738816650E+02  0.11229473233E+03  0.96178688996E+02 0.  0.
        -11    1    4    4    0    0  0.38563478293E+02  0.37936771868E+01  0.16638760696E+02  0.42170869118E+02  0.00000000000E+00 0.  1.
         11    1    4    4    0    0 -0.53209574712E+02  0.43754838418E+02  0.13100055954E+02  0.70123863213E+02  0.00000000000E+00 0. -1.
        -13    1    3    3    0    0  0.33819504792E+02 -0.49466537441E+02 -0.12234757810E+03  0.13623372232E+03  0.00000000000E+00 0. -1.
         13    1    3    3    0    0 -0.16369310338E+02  0.31544252571E+02 -0.81864696511E+02  0.89245855512E+02  0.00000000000E+00 0.  1.
          2    1    1    2  501    0 -0.28040980354E+01 -0.29626230735E+02 -0.39391174354E+00  0.29761244594E+02  0.00000000000E+00 0. -1.
<scales pt_clust_5="13000.00000" pt_clust_6="13000.00000" pt_clust_7="13000.00000" pt_clust_8="13000.00000" pt_clust_9="29.75864"></scales>
<clustering>
<clus scale="   29.759">  1  9  2 -1</clus>
<clus scale="   92.264">  7  8 -1 -1</clus>
<clus scale="   96.179">  5  6 -1 -1</clus>
<clus scale="   96.327">  2  7  1 -1</clus>
<clus scale="   29.759">  1  5  2 -1</clus>
</clustering>
</event>
<event>
 9    1  0.1881049E-005  0.2310354E+03  0.7546771E-02  0.1126477E+00
         -3   -1    0    0    0  501 -0.00000000000E+00  0.00000000000E+00  0.21840553198E+03  0.21840553198E+03  0.00000000000E+00 0.  1.
         21   -1    0    0  501  502  0.00000000000E+00 -0.00000000000E+00 -0.47917376695E+03  0.47917376695E+03  0.00000000000E+00 0. -1.
         23    2    1    2    0    0 -0.38561701594E+02  0.22646665205E+03  0.23271364131E+02  0.24805692701E+03  0.90645095448E+02 0.  0.
         23    2    1    2    0    0  0.93619495432E+02 -0.16346077362E+03 -0.76713994569E+02  0.22594910054E+03  0.98406933872E+02 0.  0.
        -11    1    3    3    0    0 -0.33636259722E+02  0.19126291059E+02 -0.38821600171E+01  0.38888097719E+02  0.00000000000E+00 0.  1.
         11    1    3    3    0    0 -0.49254418714E+01  0.20734036100E+03  0.27153524148E+02  0.20916882930E+03  0.00000000000E+00 0. -1.
        -11    1    4    4    0    0  0.14331611593E+02 -0.40158237824E+02 -0.66503861410E+02  0.78999004668E+02  0.00000000000E+00 0. -1.
         11    1    4    4    0    0  0.79287883838E+02 -0.12330253580E+03 -0.10210133159E+02  0.14695009587E+03  0.00000000000E+00 0.  1.
         -3    1    1    2    0  502 -0.55057793838E+02 -0.63005878432E+02 -0.20732560453E+03  0.22357327137E+03  0.00000000000E+00 0.  1.
<scales pt_clust_5="13000.00000" pt_clust_6="13000.00000" pt_clust_7="13000.00000" pt_clust_8="13000.00000" pt_clust_9="83.67258"></scales>
<clustering>
<clus scale="   83.673">  2  9  1 -1</clus>
<clus scale="   90.645">  5  6 -1 -1</clus>
<clus scale="   98.407">  7  8 -1 -1</clus>
<clus scale="  227.838">  1  5  2 -1</clus>
<clus scale="   83.673">  2  5  1 -1</clus>
</clustering>
</event>
<event>
 9    1  0.1881049E-005  0.9221857E+02  0.7546771E-02  0.1299262E+00
          1   -1    0    0  502    0 -0.00000000000E+00  0.00000000000E+00  0.97801159476E+02  0.97801159476E+02  0.00000000000E+00 0. -1.
         21   -1    0    0  501  502  0.00000000000E+00 -0.00000000000E+00 -0.14589853459E+03  0.14589853459E+03  0.00000000000E+00 0.  1.
         23    2    1    2    0    0 -0.22638235593E+02  0.90915285895E+01  0.15205953093E+02  0.91090201566E+02  0.86435283357E+02 0.  0.
         23    2    1    2    0    0 -0.44919444910E+01 -0.35528289151E+02 -0.26657479209E+02  0.99904016226E+02  0.89374237703E+02 0.  0.
        -11    1    3    3    0    0 -0.29540277012E+02 -0.21875762061E+02  0.37346351096E+02  0.52401592265E+02  0.00000000000E+00 0. -1.
         11    1    3    3    0    0  0.69020414192E+01  0.30967290651E+02 -0.22140398002E+02  0.38688609302E+02  0.00000000000E+00 0.  1.
        -13    1    4    4    0    0 -0.20292639266E+02 -0.61334278899E+02 -0.25994676355E+02  0.69637692202E+02  0.00000000000E+00 0. -1.
         13    1    4    4    0    0  0.15800694775E+02  0.25805989749E+02 -0.66280285477E+00  0.30266324024E+02  0.00000000000E+00 0.  1.
          1    1    1    2  501    0  0.27130180084E+02  0.26436760561E+02 -0.36645848996E+02  0.52705476271E+02  0.00000000000E+00 0. -1.
<scales pt_clust_5="13000.00000" pt_clust_6="13000.00000" pt_clust_7="13000.00000" pt_clust_8="13000.00000" pt_clust_9="37.88072"></scales>
<clustering>
<clus scale="   37.881">  2  9  1 -1</clus>
<clus scale="   86.435">  5  6 -1 -1</clus>
<clus scale="   89.373">  1  5  2 -1</clus>
<clus scale="   89.374">  7  8 -1 -1</clus>
<clus scale="   37.881">  2  5  1 -1</clus>
</clustering>
</event>
<event>
 9    1  0.1881049E-005  0.1218157E+03  0.7546771E-02  0.1241730E+00
          2   -1    0    0  502    0 -0.00000000000E+00  0.00000000000E+00  0.63293984589E+03  0.63293984589E+03  0.00000000000E+00 0. -1.
         21   -1    0    0  501  502  0.00000000000E+00 -0.00000000000E+00 -0.28400632221E+02  0.28400632221E+02  0.00000000000E+00 0.  1.
         23    2    1    2    0    0 -0.59083741780E+02 -0.22069351969E+02  0.25795160891E+03  0.28080577730E+03  0.91295712865E+02 0.  0.
         23    2    1    2    0    0  0.83949248572E+02  0.29633378259E+02  0.28885146667E+03  0.31721827669E+03  0.96263450105E+02 0.  0.
        -13    1    3    3    0    0 -0.70313818984E+02  0.65332968140E+01  0.11796437893E+03  0.13748567854E+03  0.00000000000E+00 0.  1.
         13    1    3    3    0    0  0.11230077204E+02 -0.28602648783E+02  0.13998722998E+03  0.14332009876E+03  0.00000000000E+00 0. -1.
        -13    1    4    4    0    0  0.10782156796E+02  0.52354695656E+02  0.99383441103E+02  0.11284652156E+03  0.00000000000E+00 0.  1.
         13    1    4    4    0    0  0.73167091776E+02 -0.22721317398E+02  0.18946802557E+03  0.20437175513E+03  0.00000000000E+00 0. -1.
          2    1    1    2  501    0 -0.24865506792E+02 -0.75640262898E+01  0.57736138089E+02  0.63316424119E+02  0.00000000000E+00 0. -1.
<scales pt_clust_5="13000.00000" pt_clust_6="13000.00000" pt_clust_7="13000.00000" pt_clust_8="13000.00000" pt_clust_9="25.99054"></scales>
<clustering>
<clus scale="   25.991">  2  9  1 -1</clus>
<clus scale="   91.296">  5  6 -1 -1</clus>
<clus scale="   96.263">  7  8 -1 -1</clus>
<clus scale="  117.929">  1  5  2 -1</clus>
<clus scale="   25.991">  2  5  1 -1</clus>
</clustering>
</event>
<event>
 9    1  0.1881049E-005  0.1002281E+03  0.7546771E-02  0.1280161E+00
         21   -1    0    0  501  502  0.00000000000E+00  0.00000000000E+00  0.20439050951E+03  0.20439050951E+03  0.00000000000E+00 0. -1.
          2   -1    0    0  502    0 -0.00000000000E+00 -0.00000000000E+00 -0.43098098632E+03  0.43098098632E+03  0.00000000000E+00 0. -1.
         23    2    1    2    0    0  0.41090433397E+02 -0.14826810686E+02 -0.35120452973E+03  0.36580861826E+03  0.92536832988E+02 0.  0.
         23    2    1    2    0    0 -0.11518561827E+02  0.15896853379E+02 -0.40176925014E+02  0.10213615633E+03  0.91827130585E+02 0.  0.
        -11    1    4    4    0    0  0.17342277369E+02 -0.26361268415E+02 -0.40019077338E+02  0.50962708010E+02  0.00000000000E+00 0.  1.
         11    1    4    4    0    0 -0.28860839196E+02  0.42258121794E+02 -0.15784767681E+00  0.51173448316E+02  0.00000000000E+00 0. -1.
        -13    1    3    3    0    0 -0.27988385595E+02 -0.16176532729E+02 -0.90352817017E+02  0.95961770941E+02  0.00000000000E+00 0.  1.
         13    1    3    3    0    0  0.69078818992E+02  0.13497220437E+01 -0.26085171271E+03  0.26984684732E+03  0.00000000000E+00 0. -1.
          2    1    1    2  501    0 -0.29571871570E+02 -0.10700426938E+01  0.16479097794E+03  0.16742672125E+03  0.00000000000E+00 0. -1.
<scales pt_clust_5="13000.00000" pt_clust_6="13000.00000" pt_clust_7="13000.00000" pt_clust_8="13000.00000" pt_clust_9="29.59122"></scales>
<clustering>
<clus scale="   29.591">  1  9  2 -1</clus>
<clus scale="   91.827">  5  6 -1 -1</clus>
<clus scale="   92.537">  7  8 -1 -1</clus>
<clus scale="   99.573">  1  5  2 -1</clus>
<clus scale="   29.591">  1  5  2 -1</clus>
</clustering>
</event>
<event>
 9    1  0.1881049E-005  0.1064495E+03  0.7546771E-02  0.1267318E+00
         -2   -1    0    0    0  501 -0.00000000000E+00  0.00000000000E+00  0.27900542813E+03  0.27900542813E+03  0.00000000000E+00 0.  1.
         21   -1    0    0  501  502  0.00000000000E+00 -0.00000000000E+00 -0.66310926221E+02  0.66310926221E+02  0.00000000000E+00 0. -1.
         23    2    1    2    0    0 -0.61340465811E+02 -0.41295621627E+02  0.11713036683E+03  0.16625307327E+03  0.91937916155E+02 0.  0.
         23    2    1    2    0    0  0.10404268614E+02  0.36970594759E+02  0.70660289228E+02  0.12220025636E+03  0.92005176471E+02 0.  0.
        -11    1    3    3    0    0 -0.18412903843E+02  0.28421034589E+02  0.20436277712E+02  0.39552897262E+02  0.00000000000E+00 0. -1.
         11    1    3    3    0    0 -0.42927561968E+02 -0.69716656216E+02  0.96694089120E+02  0.12670017601E+03  0.00000000000E+00 0.  1.
        -13    1    4    4    0    0 -0.28401229016E+02 -0.51637292420E+01  0.56109295904E+02  0.63099500760E+02  0.00000000000E+00 0.  1.
         13    1    4    4    0    0  0.38805497630E+02  0.42134324001E+02  0.14550993324E+02  0.59100755596E+02  0.00000000000E+00 0. -1.
         -2    1    1    2    0  502  0.50936197197E+02  0.43250268681E+01  0.24903845845E+02  0.56863024719E+02  0.00000000000E+00 0.  1.
<scales pt_clust_5="13000.00000" pt_clust_6="13000.00000" pt_clust_7="13000.00000" pt_clust_8="13000.00000" pt_clust_9="51.11949"></scales>
<clustering>
<clus scale="   51.119">  2  9  1 -1</clus>
<clus scale="   91.938">  5  6 -1 -1</clus>
<clus scale="   92.005">  7  8 -1 -1</clus>
<clus scale="  106.391">  1  5  2 -1</clus>
<clus scale="   51.119">  2  5  1 -1</clus>
</clustering>
</event>
<event>
 9    1  0.1881049E-005  0.1704445E+03  0.7546771E-02  0.1201909E+00
          1   -1    0    0  502    0 -0.00000000000E+00  0.00000000000E+00  0.20369994216E+03  0.20369994216E+03  0.00000000000E+00 0. -1.
         21   -1    0    0  501  502  0.00000000000E+00 -0.00000000000E+00 -0.32976994381E+03  0.32976994381E+03  0.00000000000E+00 0. -1.
         23    2    1    2    0    0 -0.12508790905E+02  0.55172063429E+01  0.42628486834E+02  0.10788490815E+03  0.98158321608E+02 0.  0.
         23    2    1    2    0    0 -0.13587868189E+03 -0.13135993146E+02  0.42315086536E+02  0.16750821242E+03  0.87366264500E+02 0.  0.
        -11    1    4    4    0    0 -0.10898685488E+03  0.15832802217E+02  0.58608701193E+02  0.12475492783E+03  0.00000000000E+00 0. -1.
         11    1    4    4    0    0 -0.26891827007E+02 -0.28968795363E+02 -0.16293614658E+02  0.42753284590E+02  0.00000000000E+00 0.  1.
        -13    1    3    3    0    0  0.26180349203E+02  0.38612550737E+02  0.10943949819E+02  0.47917739893E+02  0.00000000000E+00 0. -1.
         13    1    3    3    0    0 -0.38689140108E+02 -0.33095344394E+02  0.31684537015E+02  0.59967168256E+02  0.00000000000E+00 0.  1.
          1    1    1    2  501    0  0.14838747279E+03  0.76187868032E+01 -0.21101357502E+03  0.25807676539E+03  0.00000000000E+00 0. -1.
<scales pt_clust_5="13000.00000" pt_clust_6="13000.00000" pt_clust_7="13000.00000" pt_clust_8="13000.00000" pt_clust_9="146.35043"></scales>
<clustering>
<clus scale="   87.366">  5  6 -1 -1</clus>
<clus scale="   98.158">  7  8 -1 -1</clus>
<clus scale="   99.106">  1  7  2 -1</clus>
<clus scale="  146.350">  2  9  1 -1</clus>
<clus scale="  146.350">  2  5  1 -1</clus>
</clustering>
</event>
<event>
 9    1  0.1881049E-005  0.1205449E+03  0.7546771E-02  0.1243596E+00
          1   -1    0    0  502    0 -0.00000000000E+00  0.00000000000E+00  0.63812871638E+03  0.63812871638E+03  0.00000000000E+00 0. -1.
         21   -1    0    0  501  502  0.00000000000E+00 -0.00000000000E+00 -0.62070193179E+02  0.62070193179E+02  0.00000000000E+00 0. -1.
         23    2    1    2    0    0 -0.38745018760E+02  0.70606623810E+02  0.33699364903E+03  0.35846267861E+03  0.91892876005E+02 0.  0.
         23    2    1    2    0    0 -0.14071316751E+01 -0.80888254287E+02  0.26657927749E+03  0.29198736665E+03  0.87448392741E+02 0.  0.
        -13    1    3    3    0    0  0.89853664333E+01 -0.18797908390E+02  0.59099249834E+02  0.62664339944E+02  0.00000000000E+00 0.  1.
         13    1    3    3    0    0 -0.47730385193E+02  0.89404532200E+02  0.27789439920E+03  0.29579833866E+03  0.00000000000E+00 0. -1.
        -13    1    4    4    0    0 -0.36649525769E+02 -0.36758100710E+02  0.18919522674E+03  0.19618659365E+03  0.00000000000E+00 0.  1.
         13    1    4    4    0    0  0.35242394094E+02 -0.44130153577E+02  0.77384050752E+02  0.95800772998E+02  0.00000000000E+00 0. -1.
          1    1    1    2  501    0  0.40152150435E+02  0.10281630477E+02 -0.27514403320E+02  0.49748864308E+02  0.00000000000E+00 0. -1.
<scales pt_clust_5="13000.00000" pt_clust_6="13000.00000" pt_clust_7="13000.00000" pt_clust_8="13000.00000" pt_clust_9="41.44764"></scales>
<clustering>
<clus scale="   41.448">  2  9  1 -1</clus>
<clus scale="   87.448">  7  8 -1 -1</clus>
<clus scale="   91.893">  5  6 -1 -1</clus>
<clus scale="  117.192">  2  7  1 -1</clus>
<clus scale="   41.448">  2  5  1 -1</clus>
</clustering>
</event>
<event>
 9    1  0.1881049E-005  0.1378224E+03  0.7546771E-02  0.1216312E+00
          3   -1    0    0  502    0 -0.00000000000E+00  0.00000000000E+00  0.10465666289E+03  0.10465666289E+03  0.00000000000E+00 0. -1.
         21   -1    0    0  501  502  0.00000000000E+00 -0.00000000000E+00 -0.24691159638E+03  0.24691159638E+03  0.00000000000E+00 0. -1.
         23    2    1    2    0    0  0.45455027500E+02  0.10742991561E+03 -0.22054365506E+02  0.15065251786E+03  0.92749338574E+02 0.  0.
         23    2    1    2    0    0 -0.22219779396E+02 -0.78783917868E+02 -0.87061610597E+02  0.15133086028E+03  0.92847622054E+02 0.  0.
        -11    1    4    4    0    0  0.15112739864E+02 -0.79787095549E+02 -0.37958573834E+02  0.89639438028E+02  0.00000000000E+00 0.  1.
         11    1    4    4    0    0 -0.37332519259E+02  0.10031776811E+01 -0.49103036763E+02  0.61691422248E+02  0.00000000000E+00 0. -1.
        -13    1    3    3    0    0  0.26706824448E+02 -0.70546884225E+00 -0.30539948211E+02  0.40576355124E+02  0.00000000000E+00 0.  1.
         13    1    3    3    0    0  0.18748203051E+02  0.10813538445E+03  0.84855827052E+01  0.11007616273E+03  0.00000000000E+00 0. -1.
          3    1    1    2  501    0 -0.23235248104E+02 -0.28645997743E+02 -0.33138957390E+02  0.49584881144E+02  0.00000000000E+00 0. -1.
<scales pt_clust_5="13000.00000" pt_clust_6="13000.00000" pt_clust_7="13000.00000" pt_clust_8="13000.00000" pt_clust_9="36.88455"></scales>
<clustering>
<clus scale="   36.885">  2  9  1 -1</clus>
<clus scale="   92.749">  7  8 -1 -1</clus>
<clus scale="   92.848">  5  6 -1 -1</clus>
<clus scale="  137.756">  1  7  2 -1</clus>
<clus scale="   36.885">  2  5  1 -1</clus>
</clustering>
</event>
<event>
 9    1  0.1881049E-005  0.1137248E+03  0.7546771E-02  0.1254663E+00
         -1   -1    0    0    0  501 -0.00000000000E+00  0.00000000000E+00  0.46337641354E+02  0.46337641354E+02  0.00000000000E+00 0.  1.
         21   -1    0    0  501  502  0.00000000000E+00 -0.00000000000E+00 -0.40643587627E+03  0.40643587627E+03  0.00000000000E+00 0. -1.
         23    2    1    2    0    0 -0.43258844401E+02 -0.17013678896E+01 -0.15131937942E+03  0.18230319857E+03  0.91992822276E+02 0.  0.
         23    2    1    2    0    0  0.84734193436E+02  0.16264218593E+02 -0.16088255777E+03  0.20546003883E+03  0.94266758820E+02 0.  0.
        -13    1    3    3    0    0 -0.60487211331E+02  0.14467230311E+02 -0.54663939266E+02  0.82801870411E+02  0.00000000000E+00 0.  1.
         13    1    3    3    0    0  0.17228366930E+02 -0.16168598200E+02 -0.96655440151E+02  0.99501328160E+02  0.00000000000E+00 0. -1.
        -13    1    4    4    0    0  0.63969888494E+02 -0.31750906397E+02 -0.66675814490E+02  0.97703280032E+02  0.00000000000E+00 0. -1.
         13    1    4    4    0    0  0.20764304941E+02  0.48015124990E+02 -0.94206743283E+02  0.10775675880E+03  0.00000000000E+00 0.  1.
         -1    1    1    2    0  502 -0.41475349035E+02 -0.14562850703E+02 -0.47896297723E+02  0.65010280216E+02  0.00000000000E+00 0.  1.
<scales pt_clust_5="13000.00000" pt_clust_6="13000.00000" pt_clust_7="13000.00000" pt_clust_8="13000.00000" pt_clust_9="43.95774"></scales>
<clustering>
<clus scale="   43.958">  2  9  1 -1</clus>
<clus scale="   91.993">  5  6 -1 -1</clus>
<clus scale="   94.267">  7  8 -1 -1</clus>
<clus scale="  111.847">  1  5  2 -1</clus>
<clus scale="   43.958">  2  5  1 -1</clus>
</clustering>
</event>
<event>
 9    1  0.1881049E-005  0.9820161E+02  0.7546771E-02  0.1298441E+00
          1   -1    0    0  502    0 -0.00000000000E+00  0.00000000000E+00  0.34612327506E+03  0.34612327506E+03  0.00000000000E+00 0. -1.
         21   -1    0    0  501  502  0.00000000000E+00 -0.00000000000E+00 -0.41329489070E+02  0.41329489070E+02  0.00000000000E+00 0.  1.
         23    2    1    2    0    0  0.20436236128E+02 -0.80823918673E+01  0.18265012958E+03  0.20546070271E+03  0.91488063241E+02 0.  0.
         23    2    1    2    0    0 -0.43633379229E+02  0.26177493866E+02  0.12721535037E+03  0.15213804588E+03  0.66129468958E+02 0.  0.
        -11    1    4    4    0    0 -0.51664222705E+02  0.40102831434E+01  0.52399773404E+02  0.73695390164E+02  0.00000000000E+00 0.  1.
         11    1    4    4    0    0  0.80308434756E+01  0.22167210723E+02  0.74815576970E+02  0.78442655714E+02  0.00000000000E+00 0. -1.
        -13    1    3    3    0    0 -0.36128009834E+02 -0.89255533264E+01  0.80697304549E+02  0.88864804947E+02  0.00000000000E+00 0.  1.
         13    1    3    3    0    0  0.56564245962E+02  0.84316145910E+00  0.10195282503E+03  0.11659589776E+03  0.00000000000E+00 0. -1.
          1    1    1    2  501    0  0.23197143102E+02 -0.18095101999E+02 -0.50716939649E+01  0.29854015544E+02  0.00000000000E+00 0. -1.
<scales pt_clust_5="13000.00000" pt_clust_6="13000.00000" pt_clust_7="13000.00000" pt_clust_8="13000.00000" pt_clust_9="29.42006"></scales>
<clustering>
<clus scale="   29.420">  2  9  1 -1</clus>
<clus scale="   66.129">  5  6 -1 -1</clus>
<clus scale="   75.144">  2  5  1 -1</clus>
<clus scale="   91.488">  7  8 -1 -1</clus>
<clus scale="   29.420">  2  5  1 -1</clus>
</clustering>
</event>
<event>
 9    1  0.1881049E-005  0.9536165E+02  0.7546771E-02  0.1290614E+00
         21   -1    0    0  501  502  0.00000000000E+00  0.00000000000E+00  0.15359609154E+03  0.15359609154E+03  0.00000000000E+00 0. -1.
         -4   -1    0    0    0  501 -0.00000000000E+00 -0.00000000000E+00 -0.41964438606E+03  0.41964438606E+03  0.00000000000E+00 0.  1.
         23    2    1    2    0    0  0.20762159912E+02 -0.16243854863E+02 -0.36445653652E+03  0.37671641269E+03  0.91606541645E+02 0.  0.
         23    2    1    2    0    0 -0.42325601635E+02 -0.74292943146E+01  0.12090457031E+03  0.15738987527E+03  0.91142782208E+02 0.  0.
        -13    1    3    3    0    0  0.62779548011E+01  0.34132646478E+02 -0.76176830033E+02  0.83709973754E+02  0.00000000000E+00 0. -1.
         13    1    3    3    0    0  0.14484205111E+02 -0.50376501341E+02 -0.28827970649E+03  0.29300643894E+03  0.00000000000E+00 0.  1.
        -13    1    4    4    0    0 -0.42407323705E+02  0.24042345918E+02  0.11562111623E+03  0.12547771921E+03  0.00000000000E+00 0. -1.
         13    1    4    4    0    0  0.81722069432E-01 -0.31471640232E+02  0.52834540832E+01  0.31912156061E+02  0.00000000000E+00 0.  1.
         -4    1    1    2    0  502  0.21563441723E+02  0.23673149178E+02 -0.22496328307E+02  0.39134189633E+02  0.00000000000E+00 0.  1.
<scales pt_clust_5="13000.00000" pt_clust_6="13000.00000" pt_clust_7="13000.00000" pt_clust_8="13000.00000" pt_clust_9="32.02188"></scales>
<clustering>
<clus scale="   32.022">  1  9  2 -1</clus>
<clus scale="   91.143">  7  8 -1 -1</clus>
<clus scale="   91.607">  5  6 -1 -1</clus>
<clus scale="   94.916">  1  7  2 -1</clus>
<clus scale="   32.022">  1  5  2 -1</clus>
</clustering>
</event>
<event>
 9    1  0.1881049E-005  0.1266446E+03  0.7546771E-02  0.1232549E+00
         21   -1    0    0  501  502  0.00000000000E+00  0.00000000000E+00  0.43835053193E+02  0.43835053193E+02  0.00000000000E+00 0.  1.
          1   -1    0    0  502    0 -0.00000000000E+00 -0.00000000000E+00 -0.60691931965E+03  0.60691931965E+03  0.00000000000E+00 0. -1.
         23    2    1    2    0    0  0.45352359203E+02 -0.81780759352E+02 -0.37180345028E+03  0.39464167844E+03  0.93591236985E+02 0.  0.
         23    2    1    2    0    0 -0.54047836180E+02  0.52109583903E+02 -0.19060841369E+03  0.22518629633E+03  0.93491835775E+02 0.  0.
        -11    1    3    3    0    0  0.45828491825E+02 -0.54003064372E+01 -0.74084846694E+02  0.87281031629E+02  0.00000000000E+00 0.  1.
         11    1    3    3    0    0 -0.47613262237E+00 -0.76380452915E+02 -0.29771860359E+03  0.30736064682E+03  0.00000000000E+00 0. -1.
        -13    1    4    4    0    0  0.25524598405E+02  0.15178275944E+02 -0.70087341085E+02  0.76119120888E+02  0.00000000000E+00 0. -1.
         13    1    4    4    0    0 -0.79572434585E+02  0.36931307959E+02 -0.12052107260E+03  0.14906717544E+03  0.00000000000E+00 0.  1.
          1    1    1    2  501    0  0.86954769771E+01  0.29671175449E+02 -0.67240249075E+00  0.30926398069E+02  0.00000000000E+00 0. -1.
<scales pt_clust_5="13000.00000" pt_clust_6="13000.00000" pt_clust_7="13000.00000" pt_clust_8="13000.00000" pt_clust_9="30.91909"></scales>
<clustering>
<clus scale="   30.919">  1  9  2 -1</clus>
<clus scale="   93.492">  7  8 -1 -1</clus>
<clus scale="   93.591">  5  6 -1 -1</clus>
<clus scale="  126.571">  1  7  2 -1</clus>
<clus scale="   30.919">  1  5  2 -1</clus>
</clustering>
</event>
<event>
 9    1  0.1881049E-005  0.1871818E+03  0.7546771E-02  0.1194419E+00
          2   -1    0    0  502    0 -0.00000000000E+00  0.00000000000E+00  0.45087858409E+03  0.45087858409E+03  0.00000000000E+00 0. -1.
         21   -1    0    0  501  502  0.00000000000E+00 -0.00000000000E+00 -0.28962111317E+03  0.28962111317E+03  0.00000000000E+00 0. -1.
         23    2    1    2    0    0 -0.94797719735E+01 -0.17638849845E+01  0.19557256541E+03  0.21449631834E+03  0.87561777468E+02 0.  0.
         23    2    1    2    0    0 -0.28213697923E+02  0.16104642384E+03 -0.21307833336E+03  0.28362346962E+03  0.91147863306E+02 0.  0.
        -13    1    4    4    0    0 -0.86706669140E+01  0.11184708430E+03 -0.19964892835E+03  0.22900795908E+03  0.00000000000E+00 0. -1.
         13    1    4    4    0    0 -0.19543031009E+02  0.49199339537E+02 -0.13429405017E+02  0.54615510535E+02  0.00000000000E+00 0.  1.
        -13    1    3    3    0    0 -0.38693952159E+02  0.28142510485E+01  0.38473301450E+02  0.54638236311E+02  0.00000000000E+00 0.  1.
         13    1    3    3    0    0  0.29214180185E+02 -0.45781360330E+01  0.15709926396E+03  0.15985808203E+03  0.00000000000E+00 0. -1.
          2    1    1    2  501    0  0.37693469897E+02 -0.15928253886E+03  0.17876323888E+03  0.24237990930E+03  0.00000000000E+00 0. -1.
<scales pt_clust_5="13000.00000" pt_clust_6="13000.00000" pt_clust_7="13000.00000" pt_clust_8="13000.00000" pt_clust_9="163.49048"></scales>
<clustering>
<clus scale="   87.562">  7  8 -1 -1</clus>
<clus scale="   88.091">  1  7  2 -1</clus>
<clus scale="   91.148">  5  6 -1 -1</clus>
<clus scale="  163.490">  2  9  1 -1</clus>
<clus scale="  163.490">  2  5  1 -1</clus>
</clustering>
</event>
<event>
 9    1  0.1881049E-005  0.9854923E+02  0.7546771E-02  0.1284472E+00
          3   -1    0    0  502    0 -0.00000000000E+00  0.00000000000E+00  0.72902550133E+03  0.72902550133E+03  0.00000000000E+00 0. -1.
         21   -1    0    0  501  502  0.00000000000E+00 -0.00000000000E+00 -0.22874465116E+02  0.22874465116E+02  0.00000000000E+00 0.  1.
         23    2    1    2    0    0 -0.18274514015E+02 -0.21152700624E+02  0.38440800256E+03  0.39610243028E+03  0.91357693898E+02 0.  0.
         23    2    1    2    0    0  0.23216702205E+02  0.44253224651E+02  0.31508740164E+03  0.33125457645E+03  0.89174887671E+02 0.  0.
        -11    1    4    4    0    0  0.56172603099E+02  0.39667453985E+02  0.22143024495E+03  0.23186250586E+03  0.00000000000E+00 0.  1.
         11    1    4    4    0    0 -0.32955900895E+02  0.45857706656E+01  0.93657156692E+02  0.99392070590E+02  0.00000000000E+00 0. -1.
        -13    1    3    3    0    0  0.12911330709E+02  0.30997276644E+02  0.10824430158E+03  0.11333297156E+03  0.00000000000E+00 0.  1.
         13    1    3    3    0    0 -0.31185844724E+02 -0.52149977268E+02  0.27616370098E+03  0.28276945871E+03  0.00000000000E+00 0. -1.
          3    1    1    2  501    0 -0.49421881891E+01 -0.23100524027E+02  0.66556320160E+01  0.24542959722E+02  0.00000000000E+00 0. -1.
<scales pt_clust_5="13000.00000" pt_clust_6="13000.00000" pt_clust_7="13000.00000" pt_clust_8="13000.00000" pt_clust_9="23.62328"></scales>
<clustering>
<clus scale="   23.623">  2  9  1 -1</clus>
<clus scale="   89.175">  5  6 -1 -1</clus>
<clus scale="   91.358">  7  8 -1 -1</clus>
<clus scale="   96.529">  2  5  1 -1</clus>
<clus scale="   23.623">  2  5  1 -1</clus>
</clustering>
</event>
<event>
 9    1  0.1881049E-005  0.1103012E+03  0.7546771E-02  0.1260149E+00
         21   -1    0    0  501  502  0.00000000000E+00  0.00000000000E+00  0.15194080608E+03  0.15194080608E+03  0.00000000000E+00 0. -1.
         -3   -1    0    0    0  501 -0.00000000000E+00 -0.00000000000E+00 -0.16707132008E+03  0.16707132008E+03  0.00000000000E+00 0.  1.
         23    2    1    2    0    0  0.39611926902E+02  0.50659873899E+02 -0.10861063043E+03  0.15569828244E+03  0.91160070960E+02 0.  0.
         23    2    1    2    0    0 -0.17671830033E+02 -0.46591119529E+02  0.94920514505E+02  0.14095322299E+03  0.91514375933E+02 0.  0.
        -11    1    3    3    0    0 -0.27264188153E+02  0.26195753046E+02 -0.54178025640E+02  0.66066723057E+02  0.00000000000E+00 0.  1.
         11    1    3    3    0    0  0.66876115055E+02  0.24464120854E+02 -0.54432604788E+02  0.89631559386E+02  0.00000000000E+00 0. -1.
        -13    1    4    4    0    0 -0.45850283670E+02  0.18185069507E+01  0.28289053532E+02  0.53905714260E+02  0.00000000000E+00 0.  1.
         13    1    4    4    0    0  0.28178453636E+02 -0.48409626480E+02  0.66631460973E+02  0.87047508733E+02  0.00000000000E+00 0. -1.
         -3    1    1    2    0  502 -0.21940096868E+02 -0.40687543704E+01 -0.14403980782E+01  0.22360620728E+02  0.00000000000E+00 0.  1.
<scales pt_clust_5="13000.00000" pt_clust_6="13000.00000" pt_clust_7="13000.00000" pt_clust_8="13000.00000" pt_clust_9="22.31419"></scales>
<clustering>
<clus scale="   22.314">  1  9  2 -1</clus>
<clus scale="   91.160">  5  6 -1 -1</clus>
<clus scale="   91.514">  7  8 -1 -1</clus>
<clus scale="  110.007">  2  5  1 -1</clus>
<clus scale="   22.314">  1  5  2 -1</clus>
</clustering>
</event>
<event>
 9    1  0.1881049E-005  0.1518489E+03  0.7546771E-02  0.1199028E+00
         21   -1    0    0  501  502  0.00000000000E+00  0.00000000000E+00  0.21753620260E+03  0.21753620260E+03  0.00000000000E+00 0.  1.
         -1   -1    0    0    0  501 -0.00000000000E+00 -0.00000000000E+00 -0.17133971655E+03  0.17133971655E+03  0.00000000000E+00 0.  1.
         23    2    1    2    0    0 -0.32081843159E+02  0.10567560401E+03 -0.46960210352E+02  0.15060447194E+03  0.90993778195E+02 0.  0.
         23    2    1    2    0    0  0.12521584699E+02 -0.14189875090E+03  0.97003871940E+02  0.19692509499E+03  0.95276945154E+02 0.  0.
        -11    1    4    4    0    0  0.17873396962E+02 -0.11069754105E+03  0.20311500275E+02  0.11395596060E+03  0.00000000000E+00 0.  1.
         11    1    4    4    0    0 -0.53518122628E+01 -0.31201209849E+02  0.76692371665E+02  0.82969134395E+02  0.00000000000E+00 0. -1.
        -13    1    3    3    0    0  0.29611590838E+02  0.33473082993E+02 -0.30782468444E+02  0.54266508645E+02  0.00000000000E+00 0. -1.
         13    1    3    3    0    0 -0.61693433998E+02  0.72202521016E+02 -0.16177741908E+02  0.96337963299E+02  0.00000000000E+00 0.  1.
         -1    1    1    2    0  502  0.19560258461E+02  0.36223146887E+02 -0.38471755363E+01  0.41346352210E+02  0.00000000000E+00 0.  1.
<scales pt_clust_5="13000.00000" pt_clust_6="13000.00000" pt_clust_7="13000.00000" pt_clust_8="13000.00000" pt_clust_9="41.16700"></scales>
<clustering>
<clus scale="   41.167">  1  9  2 -1</clus>
<clus scale="   90.994">  7  8 -1 -1</clus>
<clus scale="   95.277">  5  6 -1 -1</clus>
<clus scale="  149.199">  2  7  1 -1</clus>
<clus scale="   41.167">  1  5  2 -1</clus>
</clustering>
</event>
<event>
 9    1  0.1881049E-005  0.1482150E+03  0.7546771E-02  0.1208660E+00
         21   -1    0    0  501  502  0.00000000000E+00  0.00000000000E+00  0.32934947208E+03  0.32934947208E+03  0.00000000000E+00 0.  1.
          1   -1    0    0  502    0 -0.00000000000E+00 -0.00000000000E+00 -0.19157732452E+03  0.19157732452E+03  0.00000000000E+00 0. -1.
         23    2    1    2    0    0 -0.10039946288E+03 -0.37313029842E+02 -0.11982496364E+03  0.19843241527E+03  0.11638336297E+03 0.  0.
         23    2    1    2    0    0  0.95732575519E+01  0.31778492429E+02  0.16885289360E+03  0.19538983052E+03  0.92543861776E+02 0.  0.
        -13    1    4    4    0    0  0.50028273930E+02  0.22823967426E+02  0.11473534789E+03  0.12723192106E+03  0.00000000000E+00 0. -1.
         13    1    4    4    0    0 -0.40455016378E+02  0.89545250032E+01  0.54117545706E+02  0.68157909456E+02  0.00000000000E+00 0.  1.
        -13    1    3    3    0    0  0.15301091189E+02 -0.37328236483E+02 -0.17497774713E+02  0.43973773439E+02  0.00000000000E+00 0. -1.
         13    1    3    3    0    0 -0.11570055406E+03  0.15206641489E-01 -0.10232718893E+03  0.15445864183E+03  0.00000000000E+00 0.  1.
          1    1    1    2  501    0  0.90826205323E+02  0.55345374131E+01  0.88744217605E+02  0.12710455081E+03  0.00000000000E+00 0. -1.
<scales pt_clust_5="13000.00000" pt_clust_6="13000.00000" pt_clust_7="13000.00000" pt_clust_8="13000.00000" pt_clust_9="90.99467"></scales>
<clustering>
<clus scale="   90.995">  1  9  2 -1</clus>
<clus scale="   92.544">  5  6 -1 -1</clus>
<clus scale="  116.383">  7  8 -1 -1</clus>
<clus scale="  130.334">  1  5  2 -1</clus>
<clus scale="   90.995">  1  5  2 -1</clus>
</clustering>
</event>
<event>
 9    1  0.1881049E-005  0.9789874E+02  0.7546771E-02  0.1286851E+00
          1   -1    0    0  502    0 -0.00000000000E+00  0.00000000000E+00  0.71943765137E+02  0.71943765137E+02  0.00000000000E+00 0. -1.
         21   -1    0    0  501  502  0.00000000000E+00 -0.00000000000E+00 -0.23629558305E+03  0.23629558305E+03  0.00000000000E+00 0.  1.
         23    2    1    2    0    0 -0.22616467583E+02  0.16351474225E+02  0.30225580989E+01  0.98156884515E+02  0.94057231540E+02 0.  0.
         23    2    1    2    0    0  0.32520956924E+02  0.76413329621E+01 -0.10414332794E+03  0.14173102517E+03  0.90143486350E+02 0.  0.
        -11    1    3    3    0    0 -0.39010534812E+02  0.29283009708E+02 -0.31317912674E+02  0.57966612270E+02  0.00000000000E+00 0. -1.
         11    1    3    3    0    0  0.16394067228E+02 -0.12931535483E+02  0.34340470773E+02  0.40190272245E+02  0.00000000000E+00 0.  1.
        -13    1    4    4    0    0  0.53328012156E+02  0.28598074635E+02 -0.91287894320E+02  0.10952262964E+03  0.00000000000E+00 0.  1.
         13    1    4    4    0    0 -0.20807055232E+02 -0.20956741673E+02 -0.12855433622E+02  0.32208395530E+02  0.00000000000E+00 0. -1.
          1    1    1    2  501    0 -0.99044893402E+01 -0.23992807187E+02 -0.63231048074E+02  0.68351438509E+02  0.00000000000E+00 0. -1.
<scales pt_clust_5="13000.00000" pt_clust_6="13000.00000" pt_clust_7="13000.00000" pt_clust_8="13000.00000" pt_clust_9="25.95677"></scales>
<clustering>
<clus scale="   25.957">  2  9  1 -1</clus>
<clus scale="   90.143">  7  8 -1 -1</clus>
<clus scale="   94.057">  5  6 -1 -1</clus>
<clus scale="   94.145">  2  7  1 -1</clus>
<clus scale="   25.957">  2  5  1 -1</clus>
</clustering>
</event>
<event>
 9    1  0.1881049E-005  0.1019811E+03  0.7546771E-02  0.1276534E+00
          3   -1    0    0  502    0 -0.00000000000E+00  0.00000000000E+00  0.13474046260E+03  0.13474046260E+03  0.00000000000E+00 0. -1.
         21   -1    0    0  501  502  0.00000000000E+00 -0.00000000000E+00 -0.22889745088E+03  0.22889745088E+03  0.00000000000E+00 0.  1.
         23    2    1    2    0    0 -0.45501468867E+02 -0.69981262084E+01  0.86744992275E+02  0.13382009702E+03  0.90905265210E+02 0.  0.
         23    2    1    2    0    0  0.28151733714E+02  0.37785008855E+02 -0.15443166785E+03  0.18566441446E+03  0.91661920960E+02 0.  0.
        -11    1    3    3    0    0 -0.52544181132E+02  0.31344366908E+02  0.40676423796E+02  0.73470618349E+02  0.00000000000E+00 0.  1.
         11    1    3    3    0    0  0.70427122658E+01 -0.38342493116E+02  0.46068568479E+02  0.60349478673E+02  0.00000000000E+00 0. -1.
        -13    1    4    4    0    0 -0.65940490593E+01 -0.27817414165E+02 -0.48769262164E+02  0.56530796438E+02  0.00000000000E+00 0. -1.
         13    1    4    4    0    0  0.34745782773E+02  0.65602423020E+02 -0.10566240569E+03  0.12913361802E+03  0.00000000000E+00 0.  1.
          3    1    1    2  501    0  0.17349735153E+02 -0.30786882647E+02 -0.26470312703E+02  0.44153401993E+02  0.00000000000E+00 0. -1.
<scales pt_clust_5="13000.00000" pt_clust_6="13000.00000" pt_clust_7="13000.00000" pt_clust_8="13000.00000" pt_clust_9="35.33901"></scales>
<clustering>
<clus scale="   35.339">  2  9  1 -1</clus>
<clus scale="   90.905">  5  6 -1 -1</clus>
<clus scale="   91.662">  7  8 -1 -1</clus>
<clus scale="  101.302">  1  5  2 -1</clus>
<clus scale="   35.339">  2  5  1 -1</clus>
</clustering>
</event>
<event>
 9    1  0.1881049E-005  0.1040990E+03  0.7546771E-02  0.1273300E+00
         21   -1    0    0  501  502  0.00000000000E+00  0.00000000000E+00  0.53297596343E+02  0.53297596343E+02  0.00000000000E+00 0.  1.
          1   -1    0    0  502    0 -0.00000000000E+00 -0.00000000000E+00 -0.36707543733E+03  0.36707543733E+03  0.00000000000E+00 0. -1.
         23    2    1    2    0    0  0.52422217495E+02  0.26413329951E+02 -0.24195430421E+03  0.26505519296E+03  0.90920938769E+02 0.  0.
         23    2    1    2    0    0 -0.30633773763E+02 -0.19402307921E+02 -0.86242102960E+02  0.12826630173E+03  0.87747741794E+02 0.  0.
        -11    1    4    4    0    0 -0.36113219157E+02  0.12432326602E+02 -0.22304300943E+01  0.38258360669E+02  0.00000000000E+00 0.  1.
         11    1    4    4    0    0  0.54794453944E+01 -0.31834634523E+02 -0.84011672866E+02  0.90007941065E+02  0.00000000000E+00 0. -1.
        -13    1    3    3    0    0  0.20050636033E+02  0.55327154220E+02 -0.94320458512E+02  0.11117315725E+03  0.00000000000E+00 0.  1.
         13    1    3    3    0    0  0.32371581462E+02 -0.28913824269E+02 -0.14763384569E+03  0.15388203571E+03  0.00000000000E+00 0. -1.
          1    1    1    2  501    0 -0.21788443731E+02 -0.70110220293E+01  0.14418566181E+02  0.27051538974E+02  0.00000000000E+00 0. -1.
<scales pt_clust_5="13000.00000" pt_clust_6="13000.00000" pt_clust_7="13000.00000" pt_clust_8="13000.00000" pt_clust_9="22.88866"></scales>
<clustering>
<clus scale="   22.889">  1  9  2 -1</clus>
<clus scale="   87.748">  5  6 -1 -1</clus>
<clus scale="   90.921">  7  8 -1 -1</clus>
<clus scale="  101.339">  1  5  2 -1</clus>
<clus scale="   22.889">  1  5  2 -1</clus>
</clustering>
</event>
<event>
 9    1  0.1881049E-005  0.1810729E+03  0.7546771E-02  0.1184647E+00
         21   -1    0    0  501  502  0.00000000000E+00  0.00000000000E+00  0.11490586193E+03  0.11490586193E+03  0.00000000000E+00 0.  1.
         -3   -1    0    0    0  501 -0.00000000000E+00 -0.00000000000E+00 -0.60903125011E+03  0.60903125011E+03  0.00000000000E+00 0.  1.
         23    2    1    2    0    0 -0.85564191249E+02 -0.20545084770E+02 -0.20810129019E+03  0.24061326294E+03  0.82736110571E+02 0.  0.
         23    2    1    2    0    0 -0.38079631619E+02  0.13211831624E+03 -0.26890271897E+03  0.31590365160E+03  0.92634426606E+02 0.  0.
        -11    1    3    3    0    0 -0.32354624731E+02 -0.50224532384E+02 -0.97848133225E+02  0.11464546467E+03  0.00000000000E+00 0. -1.
         11    1    3    3    0    0 -0.53209566518E+02  0.29679447614E+02 -0.11025315696E+03  0.12596779827E+03  0.00000000000E+00 0.  1.
        -13    1    4    4    0    0  0.13602530939E+02  0.94185634256E+02 -0.20172513945E+03  0.22304482606E+03  0.00000000000E+00 0.  1.
         13    1    4    4    0    0 -0.51682162558E+02  0.37932681984E+02 -0.67177579524E+02  0.92858825536E+02  0.00000000000E+00 0. -1.
         -3    1    1    2    0  502  0.12364382287E+03 -0.11157323147E+03 -0.17121379021E+02  0.16742019751E+03  0.00000000000E+00 0.  1.
<scales pt_clust_5="13000.00000" pt_clust_6="13000.00000" pt_clust_7="13000.00000" pt_clust_8="13000.00000" pt_clust_9="155.58356"></scales>
<clustering>
<clus scale="   82.736">  5  6 -1 -1</clus>
<clus scale="   92.634">  7  8 -1 -1</clus>
<clus scale="  120.783">  2  5  1 -1</clus>
<clus scale="  155.584">  1  9  2 -1</clus>
<clus scale="  155.584">  1  5  2 -1</clus>
</clustering>
</event>
<event>
 9    1  0.1881049E-005  0.1077300E+03  0.7546771E-02  0.1271863E+00
         21   -1    0    0  501  502  0.00000000000E+00  0.00000000000E+00  0.10419452683E+03  0.10419452683E+03  0.00000000000E+00 0. -1.
          2   -1    0    0  502    0 -0.00000000000E+00 -0.00000000000E+00 -0.79261894583E+03  0.79261894583E+03  0.00000000000E+00 0. -1.
         23    2    1    2    0    0 -0.45854933638E+02  0.60297456823E+01 -0.40895558170E+03  0.41831095649E+03  0.74835524606E+02 0.  0.
         23    2    1    2    0    0  0.74411818955E+02 -0.33388909416E+02 -0.36459148192E+03  0.38464153297E+03  0.91488918062E+02 0.  0.
        -13    1    3    3    0    0  0.14385850075E+02  0.21253405986E+02 -0.10788576181E+03  0.11089633695E+03  0.00000000000E+00 0.  1.
         13    1    3    3    0    0 -0.60240783713E+02 -0.15223660304E+02 -0.30106981989E+03  0.30741461954E+03  0.00000000000E+00 0. -1.
        -13    1    4    4    0    0 -0.20290206560E+02  0.35634861992E+01 -0.72264627191E+02  0.75143644170E+02  0.00000000000E+00 0. -1.
         13    1    4    4    0    0  0.94702025515E+02 -0.36952395615E+02 -0.29232685473E+03  0.30949788880E+03  0.00000000000E+00 0.  1.
          2    1    1    2  501    0 -0.28556885317E+02  0.27359163733E+02  0.85122644624E+02  0.93860983199E+02  0.00000000000E+00 0. -1.
<scales pt_clust_5="13000.00000" pt_clust_6="13000.00000" pt_clust_7="13000.00000" pt_clust_8="13000.00000" pt_clust_9="39.54769"></scales>
<clustering>
<clus scale="   39.548">  1  9  2 -1</clus>
<clus scale="   74.836">  5  6 -1 -1</clus>
<clus scale="   91.489">  7  8 -1 -1</clus>
<clus scale="   93.999">  2  5  1 -1</clus>
<clus scale="   39.548">  1  5  2 -1</clus>
</clustering>
</event>
<event>
 9    1  0.1881049E-005  0.1542718E+03  0.7546771E-02  0.1195350E+00
         21   -1    0    0  501  502  0.00000000000E+00  0.00000000000E+00  0.71682918046E+02  0.71682918046E+02  0.00000000000E+00 0.  1.
          2   -1    0    0  502    0 -0.00000000000E+00 -0.00000000000E+00 -0.57163425327E+03  0.57163425327E+03  0.00000000000E+00 0. -1.
         23    2    1    2    0    0 -0.67528620802E+02 -0.10094370615E+03 -0.40080348373E+03  0.42850609571E+03  0.90687899163E+02 0.  0.
         23    2    1    2    0    0  0.58543090375E+02  0.12467291341E+03 -0.82664382205E+02  0.18455351796E+03  0.90862380210E+02 0.  0.
        -11    1    4    4    0    0 -0.79304121964E+01  0.30068402139E+02 -0.58765805521E+02  0.66486240256E+02  0.00000000000E+00 0. -1.
         11    1    4    4    0    0  0.66473502571E+02  0.94604511276E+02 -0.23898576684E+02  0.11806727771E+03  0.00000000000E+00 0.  1.
        -13    1    3    3    0    0 -0.88125319120E+02 -0.81820078694E+02 -0.35449565826E+03  0.37433643807E+03  0.00000000000E+00 0. -1.
         13    1    3    3    0    0  0.20596698318E+02 -0.19123627451E+02 -0.46307825469E+02  0.54169657634E+02  0.00000000000E+00 0.  1.
          2    1    1    2  501    0  0.89855304276E+01 -0.23729207269E+02 -0.16483469294E+02  0.30257557646E+02  0.00000000000E+00 0. -1.
<scales pt_clust_5="13000.00000" pt_clust_6="13000.00000" pt_clust_7="13000.00000" pt_clust_8="13000.00000" pt_clust_9="25.37351"></scales>
<clustering>
<clus scale="   25.374">  1  9  2 -1</clus>
<clus scale="   90.688">  7  8 -1 -1</clus>
<clus scale="   90.862">  5  6 -1 -1</clus>
<clus scale="  154.169">  2  7  1 -1</clus>
<clus scale="   25.374">  1  5  2 -1</clus>
</clustering>
</event>
<event>
 9    1  0.1881049E-005  0.2141588E+03  0.7546771E-02  0.1139022E+00
         21   -1    0    0  501  502  0.00000000000E+00  0.00000000000E+00  0.43933416102E+02  0.43933416102E+02  0.00000000000E+00 0. -1.
          2   -1    0    0  502    0 -0.00000000000E+00 -0.00000000000E+00 -0.16447119217E+04  0.16447119217E+04  0.00000000000E+00 0. -1.
         23    2    1    2    0    0  0.21655997276E+03  0.23098167676E+02 -0.11342615789E+04  0.11587486356E+04  0.93366610247E+02 0.  0.
         23    2    1    2    0    0 -0.15167207057E+03  0.16405278845E+02 -0.34436135841E+03  0.38604627643E+03  0.84696116896E+02 0.  0.
        -11    1    3    3    0    0  0.16390670311E+02 -0.17432384849E+02 -0.50128252483E+02  0.55546231301E+02  0.00000000000E+00 0.  1.
         11    1    3    3    0    0  0.20016930245E+03  0.40530552525E+02 -0.10841333264E+04  0.11032024043E+04  0.00000000000E+00 0. -1.
        -13    1    4    4    0    0 -0.92914062740E+02 -0.42489635106E+01 -0.28580863490E+03  0.30056222739E+03  0.00000000000E+00 0. -1.
         13    1    4    4    0    0 -0.58758007829E+02  0.20654242355E+02 -0.58552723502E+02  0.85484049043E+02  0.00000000000E+00 0.  1.
          2    1    1    2  501    0 -0.64887902192E+02 -0.39503446521E+02 -0.12215556826E+03  0.14385042577E+03  0.00000000000E+00 0. -1.
<scales pt_clust_5="13000.00000" pt_clust_6="13000.00000" pt_clust_7="13000.00000" pt_clust_8="13000.00000" pt_clust_9="75.96685"></scales>
<clustering>
<clus scale="   75.967">  1  9  2 -1</clus>
<clus scale="   84.696">  7  8 -1 -1</clus>
<clus scale="   93.367">  5  6 -1 -1</clus>
<clus scale="  210.523">  1  7  2 -1</clus>
<clus scale="   75.967">  1  5  2 -1</clus>
</clustering>
</event>
<event>
 9    1  0.1881049E-005  0.9690395E+02  0.7546771E-02  0.1289505E+00
         21   -1    0    0  501  502  0.00000000000E+00  0.00000000000E+00  0.12029218492E+03  0.12029218492E+03  0.00000000000E+00 0. -1.
         -1   -1    0    0    0  501 -0.00000000000E+00 -0.00000000000E+00 -0.13505366038E+03  0.13505366038E+03  0.00000000000E+00 0.  1.
         23    2    1    2    0    0 -0.53447381442E+01  0.39081252928E+01 -0.27272738584E+02  0.99337209447E+02  0.95290289336E+02 0.  0.
         23    2    1    2    0    0 -0.34745152357E+02 -0.34300918199E+02  0.20723311460E+02  0.10503453538E+03  0.90658807528E+02 0.  0.
        -11    1    4    4    0    0  0.26860820772E+02 -0.16737899556E+02 -0.11055967673E+02  0.33524549143E+02  0.00000000000E+00 0.  1.
         11    1    4    4    0    0 -0.61605973129E+02 -0.17563018644E+02  0.31779279133E+02  0.71509986235E+02  0.00000000000E+00 0. -1.
        -13    1    3    3    0    0 -0.23674054621E+02  0.44197622319E+02 -0.69014110995E+01  0.50611462694E+02  0.00000000000E+00 0. -1.
         13    1    3    3    0    0  0.18329316477E+02 -0.40289497026E+02 -0.20371327485E+02  0.48725746753E+02  0.00000000000E+00 0.  1.
         -1    1    1    2    0  502  0.40089890502E+02  0.30392792907E+02 -0.82120483377E+01  0.50974100473E+02  0.00000000000E+00 0.  1.
<scales pt_clust_5="13000.00000" pt_clust_6="13000.00000" pt_clust_7="13000.00000" pt_clust_8="13000.00000" pt_clust_9="50.30829"></scales>
<clustering>
<clus scale="   50.308">  1  9  2 -1</clus>
<clus scale="   90.659">  5  6 -1 -1</clus>
<clus scale="   92.353">  1  5  2 -1</clus>
<clus scale="   95.290">  7  8 -1 -1</clus>
<clus scale="   50.308">  1  5  2 -1</clus>
</clustering>
</event>
<event>
 9    1  0.1881049E-005  0.2455315E+03  0.7546771E-02  0.1116223E+00
          1   -1    0    0  502    0 -0.00000000000E+00  0.00000000000E+00  0.41991981958E+03  0.41991981958E+03  0.00000000000E+00 0. -1.
         21   -1    0    0  501  502  0.00000000000E+00 -0.00000000000E+00 -0.27946139781E+03  0.27946139781E+03  0.00000000000E+00 0. -1.
         23    2    1    2    0    0  0.92259879725E+02 -0.18117901486E+03  0.89575633379E+02  0.23982530976E+03  0.90303179741E+02 0.  0.
         23    2    1    2    0    0 -0.53332872011E+02  0.25227673520E+03  0.16552954640E+03  0.31914908128E+03  0.89264544997E+02 0.  0.
        -11    1    3    3    0    0 -0.17666108478E+02 -0.24984203674E+02  0.52768072988E+01  0.31050708804E+02  0.00000000000E+00 0.  1.
         11    1    3    3    0    0  0.10992598820E+03 -0.15619481119E+03  0.84298826080E+02  0.20877460095E+03  0.00000000000E+00 0. -1.
        -11    1    4    4    0    0 -0.38610348035E+02  0.12868383594E+03  0.13611759957E+03  0.19125451503E+03  0.00000000000E+00 0. -1.
         11    1    4    4    0    0 -0.14722523976E+02  0.12359289926E+03  0.29411946823E+02  0.12789456625E+03  0.00000000000E+00 0.  1.
          1    1    1    2  501    0 -0.38927007714E+02 -0.71097720336E+02 -0.11464675801E+03  0.14040682636E+03  0.00000000000E+00 0. -1.
<scales pt_clust_5="13000.00000" pt_clust_6="13000.00000" pt_clust_7="13000.00000" pt_clust_8="13000.00000" pt_clust_9="81.05676"></scales>
<clustering>
<clus scale="   81.057">  2  9  1 -1</clus>
<clus scale="   89.265">  7  8 -1 -1</clus>
<clus scale="   90.303">  5  6 -1 -1</clus>
<clus scale="  245.151">  2  7  1 -1</clus>
<clus scale="   81.057">  2  5  1 -1</clus>
</clustering>
</event>
<event>
 9    1  0.1881049E-005  0.1983811E+03  0.7546771E-02  0.1151527E+00
         21   -1    0    0  501  502  0.00000000000E+00  0.00000000000E+00  0.31697284003E+03  0.31697284003E+03  0.00000000000E+00 0.  1.
          2   -1    0    0  502    0 -0.00000000000E+00 -0.00000000000E+00 -0.33993522664E+03  0.33993522664E+03  0.00000000000E+00 0. -1.
         23    2    1    2    0    0  0.12463595765E+03 -0.11638209091E+03 -0.23677070498E+03  0.30560799937E+03  0.90867868449E+02 0.  0.
         23    2    1    2    0    0 -0.15785659327E+03  0.11311024906E+03  0.11060207089E+03  0.24282958699E+03  0.94977669765E+02 0.  0.
        -11    1    3    3    0    0  0.14721052212E+02 -0.22711752780E+02  0.13705783288E+01  0.27100029106E+02  0.00000000000E+00 0.  1.
         11    1    3    3    0    0  0.10991490543E+03 -0.93670338126E+02 -0.23814128331E+03  0.27850797026E+03  0.00000000000E+00 0. -1.
        -11    1    4    4    0    0 -0.85579823070E+02  0.71249164731E+02  0.11383310560E+03  0.15924297637E+03  0.00000000000E+00 0.  1.
         11    1    4    4    0    0 -0.72276770195E+02  0.41861084326E+02 -0.32310347057E+01  0.83586610627E+02  0.00000000000E+00 0. -1.
          2    1    1    2  501    0  0.33220635620E+02  0.32718418496E+01  0.10320624748E+03  0.10847048031E+03  0.00000000000E+00 0. -1.
<scales pt_clust_5="13000.00000" pt_clust_6="13000.00000" pt_clust_7="13000.00000" pt_clust_8="13000.00000" pt_clust_9="33.38137"></scales>
<clustering>
<clus scale="   33.381">  1  9  2 -1</clus>
<clus scale="   90.868">  5  6 -1 -1</clus>
<clus scale="   94.978">  7  8 -1 -1</clus>
<clus scale="  196.447">  2  5  1 -1</clus>
<clus scale="   33.381">  1  5  2 -1</clus>
</clustering>
</event>
<event>
 9    1  0.1881049E-005  0.1585008E+03  0.7546771E-02  0.1190578E+00
          1   -1    0    0  502    0 -0.00000000000E+00  0.00000000000E+00  0.95564665897E+03  0.95564665897E+03  0.00000000000E+00 0. -1.
         21   -1    0    0  501  502  0.00000000000E+00 -0.00000000000E+00 -0.38809370487E+02  0.38809370487E+02  0.00000000000E+00 0.  1.
         23    2    1    2    0    0 -0.76613176076E+02 -0.10197793391E+03  0.53414443973E+03  0.55656589643E+03  0.90477824980E+02 0.  0.
         23    2    1    2    0    0  0.11171611758E+03  0.78510006998E+02  0.34094523512E+03  0.37851148923E+03  0.91558626050E+02 0.  0.
        -11    1    4    4    0    0  0.63090348314E+01  0.54108709669E+02  0.89475385724E+02  0.10475400247E+03  0.00000000000E+00 0.  1.
         11    1    4    4    0    0  0.10540708274E+03  0.24401297329E+02  0.25146984939E+03  0.27375748676E+03  0.00000000000E+00 0. -1.
        -11    1    3    3    0    0  0.12874348602E+02 -0.24026077027E+02  0.40239154492E+02  0.48602374258E+02  0.00000000000E+00 0.  1.
         11    1    3    3    0    0 -0.89487524678E+02 -0.77951856887E+02  0.49390528524E+03  0.50796352217E+03  0.00000000000E+00 0. -1.
          1    1    1    2  501    0 -0.35102941500E+02  0.23467926915E+02  0.41747613628E+02  0.59378643798E+02  0.00000000000E+00 0. -1.
<scales pt_clust_5="13000.00000" pt_clust_6="13000.00000" pt_clust_7="13000.00000" pt_clust_8="13000.00000" pt_clust_9="42.22511"></scales>
<clustering>
<clus scale="   42.225">  2  9  1 -1</clus>
<clus scale="   90.478">  7  8 -1 -1</clus>
<clus scale="   91.559">  5  6 -1 -1</clus>
<clus scale="  157.879">  1  7  2 -1</clus>
<clus scale="   42.225">  2  5  1 -1</clus>
</clustering>
</event>
<event>
 9    1  0.1881049E-005  0.1043577E+03  0.7546771E-02  0.1274053E+00
          1   -1    0    0  502    0 -0.00000000000E+00  0.00000000000E+00  0.53977049946E+03  0.53977049946E+03  0.00000000000E+00 0. -1.
         21   -1    0    0  501  502  0.00000000000E+00 -0.00000000000E+00 -0.55807131130E+02  0.55807131130E+02  0.00000000000E+00 0. -1.
         23    2    1    2    0    0 -0.35323656445E+02  0.36284295491E+02  0.38151199339E+03  0.39448929214E+03  0.86637692189E+02 0.  0.
         23    2    1    2    0    0  0.51601183996E+02 -0.19508704826E+01  0.11924965560E+03  0.15954409446E+03  0.92559978559E+02 0.  0.
        -11    1    4    4    0    0 -0.22864029070E+02 -0.15176724769E+02  0.16709410518E+02  0.32129444438E+02  0.00000000000E+00 0.  1.
         11    1    4    4    0    0  0.74465213066E+02  0.13225854286E+02  0.10254024508E+03  0.12741465002E+03  0.00000000000E+00 0. -1.
        -13    1    3    3    0    0 -0.21020555013E+02 -0.27705874228E+02  0.13402758227E+03  0.13846614030E+03  0.00000000000E+00 0.  1.
         13    1    3    3    0    0 -0.14303101432E+02  0.63990169719E+02  0.24748441112E+03  0.25602315185E+03  0.00000000000E+00 0. -1.
          1    1    1    2  501    0 -0.16277527551E+02 -0.34333425009E+02 -0.16798280658E+02  0.41544243994E+02  0.00000000000E+00 0. -1.
<scales pt_clust_5="13000.00000" pt_clust_6="13000.00000" pt_clust_7="13000.00000" pt_clust_8="13000.00000" pt_clust_9="37.99660"></scales>
<clustering>
<clus scale="   37.997">  2  9  1 -1</clus>
<clus scale="   86.638">  7  8 -1 -1</clus>
<clus scale="   92.560">  5  6 -1 -1</clus>
<clus scale="   99.143">  1  7  2 -1</clus>
<clus scale="   37.997">  2  5  1 -1</clus>
</clustering>
</event>
<event>
 9    1  0.1881049E-005  0.1840265E+03  0.7546771E-02  0.1164450E+00
         21   -1    0    0  501  502  0.00000000000E+00  0.00000000000E+00  0.67970827615E+03  0.67970827615E+03  0.00000000000E+00 0. -1.
         -4   -1    0    0    0  501 -0.00000000000E+00 -0.00000000000E+00 -0.95518493491E+02  0.95518493491E+02  0.00000000000E+00 0.  1.
         23    2    1    2    0    0 -0.15946580028E+03 -0.11577898187E+02  0.53705243342E+02  0.19062070820E+03  0.88817858834E+02 0.  0.
         23    2    1    2    0    0  0.15957101033E+03  0.59245984180E+02  0.35373554283E+03  0.40154195996E+03  0.84463704443E+02 0.  0.
        -11    1    4    4    0    0  0.83534742385E+02  0.73678099787E+02  0.23083271675E+03  0.25630110943E+03  0.00000000000E+00 0.  1.
         11    1    4    4    0    0  0.76036267946E+02 -0.14432115607E+02  0.12290282608E+03  0.14524085053E+03  0.00000000000E+00 0. -1.
        -13    1    3    3    0    0 -0.85327542537E+02 -0.48047416822E+02  0.13891128482E+02  0.98905547009E+02  0.00000000000E+00 0.  1.
         13    1    3    3    0    0 -0.74138257741E+02  0.36469518635E+02  0.39814114861E+02  0.91715161192E+02  0.00000000000E+00 0. -1.
         -4    1    1    2    0  502 -0.10521005395E+00 -0.47668085993E+02  0.17674899648E+03  0.18306410148E+03  0.00000000000E+00 0.  1.
<scales pt_clust_5="13000.00000" pt_clust_6="13000.00000" pt_clust_7="13000.00000" pt_clust_8="13000.00000" pt_clust_9="47.66820"></scales>
<clustering>
<clus scale="   47.668">  1  9  2 -1</clus>
<clus scale="   84.464">  5  6 -1 -1</clus>
<clus scale="   88.818">  7  8 -1 -1</clus>
<clus scale="  181.965">  1  5  2 -1</clus>
<clus scale="   47.668">  1  5  2 -1</clus>
</clustering>
</event>
<event>
 9    1  0.1881049E-005  0.1054834E+03  0.7546771E-02  0.1269195E+00
         21   -1    0    0  501  502  0.00000000000E+00  0.00000000000E+00  0.33300232075E+02  0.33300232075E+02  0.00000000000E+00 0. -1.
          1   -1    0    0  502    0 -0.00000000000E+00 -0.00000000000E+00 -0.90097515277E+03  0.90097515277E+03  0.00000000000E+00 0. -1.
         23    2    1    2    0    0 -0.28718994601E+02  0.40542521527E+02 -0.51205890098E+03  0.52251044195E+03  0.91347507713E+02 0.  0.
         23    2    1    2    0    0 -0.22051540752E+02 -0.73185207853E+02 -0.32050452153E+03  0.34193651362E+03  0.91406159134E+02 0.  0.
        -11    1    4    4    0    0 -0.38788259145E+02 -0.23969753205E+01 -0.17499879795E+03  0.17926196981E+03  0.00000000000E+00 0. -1.
         11    1    4    4    0    0  0.16736718393E+02 -0.70788232532E+02 -0.14550572358E+03  0.16267454381E+03  0.00000000000E+00 0.  1.
        -13    1    3    3    0    0  0.32728621335E+02  0.55893414912E+01 -0.15371251410E+03  0.15725756065E+03  0.00000000000E+00 0.  1.
         13    1    3    3    0    0 -0.61447615936E+02  0.34953180036E+02 -0.35834638688E+03  0.36525288129E+03  0.00000000000E+00 0. -1.
          1    1    1    2  501    0  0.50770535353E+02  0.32642686326E+02 -0.35111498180E+02  0.69828429275E+02  0.00000000000E+00 0. -1.
<scales pt_clust_5="13000.00000" pt_clust_6="13000.00000" pt_clust_7="13000.00000" pt_clust_8="13000.00000" pt_clust_9="60.35886"></scales>
<clustering>
<clus scale="   60.359">  1  9  2 -1</clus>
<clus scale="   91.348">  7  8 -1 -1</clus>
<clus scale="   91.406">  5  6 -1 -1</clus>
<clus scale="  105.433">  2  7  1 -1</clus>
<clus scale="   60.359">  1  5  2 -1</clus>
</clustering>
</event>
<event>
 9    1  0.1881049E-005  0.1453218E+03  0.7546771E-02  0.1206408E+00
         21   -1    0    0  501  502  0.00000000000E+00  0.00000000000E+00  0.60750513499E+03  0.60750513499E+03  0.00000000000E+00 0. -1.
         -1   -1    0    0    0  501 -0.00000000000E+00 -0.00000000000E+00 -0.85282372266E+02  0.85282372266E+02  0.00000000000E+00 0.  1.
         23    2    1    2    0    0  0.10928119447E+03  0.70238528792E+01  0.11115903942E+02  0.14275875897E+03  0.90910868267E+02 0.  0.
         23    2    1    2    0    0 -0.13613095361E+03  0.14801503460E+02  0.45783987383E+03  0.48651003111E+03  0.91235624993E+02 0.  0.
        -13    1    4    4    0    0 -0.12138030874E+03 -0.18719588545E+02  0.39632982314E+03  0.41492280132E+03  0.00000000000E+00 0. -1.
         13    1    4    4    0    0 -0.14750644872E+02  0.33521092005E+02  0.61510050689E+02  0.71587229791E+02  0.00000000000E+00 0.  1.
        -13    1    3    3    0    0  0.80768844639E+02  0.34441669557E+02  0.37216814288E+02  0.95367322139E+02  0.00000000000E+00 0.  1.
         13    1    3    3    0    0  0.28512349834E+02 -0.27417816678E+02 -0.26100910347E+02  0.47391436836E+02  0.00000000000E+00 0. -1.
         -1    1    1    2    0  502  0.26849759136E+02 -0.21825356340E+02  0.53266984954E+02  0.63518717172E+02  0.00000000000E+00 0.  1.
<scales pt_clust_5="13000.00000" pt_clust_6="13000.00000" pt_clust_7="13000.00000" pt_clust_8="13000.00000" pt_clust_9="34.60138"></scales>
<clustering>
<clus scale="   34.601">  1  9  2 -1</clus>
<clus scale="   90.911">  7  8 -1 -1</clus>
<clus scale="   91.236">  5  6 -1 -1</clus>
<clus scale="  145.118">  2  7  1 -1</clus>
<clus scale="   34.601">  1  5  2 -1</clus>
</clustering>
</event>
<event>
 9    1  0.1881049E-005  0.2092179E+03  0.7546771E-02  0.1144342E+00
         21   -1    0    0  501  502  0.00000000000E+00  0.00000000000E+00  0.14019455216E+03  0.14019455216E+03  0.00000000000E+00 0. -1.
          2   -1    0    0  502    0 -0.00000000000E+00 -0.00000000000E+00 -0.92212072240E+03  0.92212072240E+03  0.00000000000E+00 0. -1.
         23    2    1    2    0    0 -0.12563107576E+03 -0.13261353933E+03 -0.79493757866E+03  0.82334050217E+03  0.11222437587E+03 0.  0.
         23    2    1    2    0    0  0.10510735507E+03  0.10240875592E+03 -0.37404880895E+02  0.17672242883E+03  0.91085577118E+02 0.  0.
        -11    1    3    3    0    0 -0.50224014693E+02 -0.38734156849E+01 -0.93449837908E+02  0.10616179730E+03  0.00000000000E+00 0.  1.
         11    1    3    3    0    0 -0.75407061062E+02 -0.12874012365E+03 -0.70148774075E+03  0.71717870487E+03  0.00000000000E+00 0. -1.
        -13    1    4    4    0    0  0.62308625450E+02  0.84411095590E+02 -0.64312672471E+02  0.12305981352E+03  0.00000000000E+00 0. -1.
         13    1    4    4    0    0  0.42798729618E+02  0.17997660334E+02  0.26907791576E+02  0.53662615310E+02  0.00000000000E+00 0.  1.
          2    1    1    2  501    0  0.20523720687E+02  0.30204783411E+02  0.50416289310E+02  0.62252343566E+02  0.00000000000E+00 0. -1.
<scales pt_clust_5="13000.00000" pt_clust_6="13000.00000" pt_clust_7="13000.00000" pt_clust_8="13000.00000" pt_clust_9="36.51783"></scales>
<clustering>
<clus scale="   36.518">  1  9  2 -1</clus>
<clus scale="   91.086">  7  8 -1 -1</clus>
<clus scale="  112.224">  5  6 -1 -1</clus>
<clus scale="  198.682">  1  7  2 -1</clus>
<clus scale="   36.518">  1  5  2 -1</clus>
</clustering>
</event>
<event>
 9    1  0.1881049E-005  0.1023529E+03  0.7546771E-02  0.1279356E+00
          1   -1    0    0  502    0 -0.00000000000E+00  0.00000000000E+00  0.17644650971E+03  0.17644650971E+03  0.00000000000E+00 0. -1.
         21   -1    0    0  501  502  0.00000000000E+00 -0.00000000000E+00 -0.18448717383E+03  0.18448717383E+03  0.00000000000E+00 0. -1.
         23    2    1    2    0    0  0.34719847583E+02 -0.31478512570E+01  0.12279213313E+03  0.15411574429E+03  0.86361900723E+02 0.  0.
         23    2    1    2    0    0 -0.71802426040E+02  0.13112858876E+02 -0.82551120546E+02  0.14512888586E+03  0.94446654546E+02 0.  0.
        -11    1    4    4    0    0 -0.93450310847E+02  0.14137577088E+02 -0.52616541705E+02  0.10817269593E+03  0.00000000000E+00 0. -1.
         11    1    4    4    0    0  0.21647884807E+02 -0.10247182117E+01 -0.29934578841E+02  0.36956189934E+02  0.00000000000E+00 0.  1.
        -13    1    3    3    0    0  0.13303853529E+01 -0.37732740173E+02  0.84858967340E+02  0.92879351550E+02  0.00000000000E+00 0. -1.
         13    1    3    3    0    0  0.33389462230E+02  0.34584888916E+02  0.37933165792E+02  0.61236392745E+02  0.00000000000E+00 0.  1.
          1    1    1    2  501    0  0.37082578457E+02 -0.99650076195E+01 -0.48281676703E+02  0.61689053381E+02  0.00000000000E+00 0. -1.
<scales pt_clust_5="13000.00000" pt_clust_6="13000.00000" pt_clust_7="13000.00000" pt_clust_8="13000.00000" pt_clust_9="38.39816"></scales>
<clustering>
<clus scale="   38.398">  2  9  1 -1</clus>
<clus scale="   86.362">  7  8 -1 -1</clus>
<clus scale="   94.447">  5  6 -1 -1</clus>
<clus scale="   94.944">  1  7  2 -1</clus>
<clus scale="   38.398">  2  5  1 -1</clus>
</clustering>
</event>
<event>
 9    1  0.1881049E-005  0.1049119E+03  0.7546771E-02  0.1270850E+00
         21   -1    0    0  501  502  0.00000000000E+00  0.00000000000E+00  0.82431497495E+02  0.82431497495E+02  0.00000000000E+00 0.  1.
         -1   -1    0    0    0  501 -0.00000000000E+00 -0.00000000000E+00 -0.27306701049E+03  0.27306701049E+03  0.00000000000E+00 0.  1.
         23    2    1    2    0    0 -0.34144255886E+01 -0.46480180909E+02 -0.11413773774E+03  0.15272219872E+03  0.90136459253E+02 0.  0.
         23    2    1    2    0    0 -0.60933152307E+02  0.54021146770E+02 -0.42430405812E+02  0.12957752097E+03  0.91426808183E+02 0.  0.
        -11    1    3    3    0    0 -0.30703088344E+02 -0.19451291580E+02 -0.45880476717E+01  0.36634444986E+02  0.00000000000E+00 0.  1.
         11    1    3    3    0    0  0.27288662755E+02 -0.27028889329E+02 -0.10954969007E+03  0.11608775374E+03  0.00000000000E+00 0. -1.
        -13    1    4    4    0    0  0.21505574474E+02  0.17300163553E+02  0.43257880949E+01  0.27937391343E+02  0.00000000000E+00 0. -1.
         13    1    4    4    0    0 -0.82438726781E+02  0.36720983217E+02 -0.46756193907E+02  0.10164012963E+03  0.00000000000E+00 0.  1.
         -1    1    1    2    0  502  0.64347577896E+02 -0.75409658608E+01 -0.34067369443E+02  0.73198788295E+02  0.00000000000E+00 0.  1.
<scales pt_clust_5="13000.00000" pt_clust_6="13000.00000" pt_clust_7="13000.00000" pt_clust_8="13000.00000" pt_clust_9="64.78794"></scales>
<clustering>
<clus scale="   64.788">  1  9  2 -1</clus>
<clus scale="   90.136">  5  6 -1 -1</clus>
<clus scale="   91.427">  7  8 -1 -1</clus>
<clus scale="  103.789">  2  5  1 -1</clus>
<clus scale="   64.788">  1  5  2 -1</clus>
</clustering>
</event>
<event>
 9    1  0.1881049E-005  0.1301975E+03  0.7546771E-02  0.1229552E+00
         21   -1    0    0  501  502  0.00000000000E+00  0.00000000000E+00  0.17188058274E+03  0.17188058274E+03  0.00000000000E+00 0. -1.
         -1   -1    0    0    0  501 -0.00000000000E+00 -0.00000000000E+00 -0.11757009854E+03  0.11757009854E+03  0.00000000000E+00 0.  1.
         23    2    1    2    0    0  0.81151958197E+02 -0.40373690301E+01  0.68488974172E+01  0.12256241325E+03  0.91502443013E+02 0.  0.
         23    2    1    2    0    0 -0.83625853207E+02  0.28883784437E+02  0.30932367322E+02  0.13694365897E+03  0.99845871507E+02 0.  0.
        -11    1    4    4    0    0 -0.66216075255E+02 -0.12582276892E+02 -0.18719655196E+02  0.69952182272E+02  0.00000000000E+00 0.  1.
         11    1    4    4    0    0 -0.17409777951E+02  0.41466061330E+02  0.49652022517E+02  0.66991476701E+02  0.00000000000E+00 0. -1.
        -13    1    3    3    0    0  0.36975708480E+02  0.14675748984E+02  0.45872343509E+02  0.60719457547E+02  0.00000000000E+00 0.  1.
         13    1    3    3    0    0  0.44176249718E+02 -0.18713118014E+02 -0.39023446092E+02  0.61842955701E+02  0.00000000000E+00 0. -1.
         -1    1    1    2    0  502  0.24738950093E+01 -0.24846415407E+02  0.16529219462E+02  0.29944609049E+02  0.00000000000E+00 0.  1.
<scales pt_clust_5="13000.00000" pt_clust_6="13000.00000" pt_clust_7="13000.00000" pt_clust_8="13000.00000" pt_clust_9="24.96927"></scales>
<clustering>
<clus scale="   24.969">  1  9  2 -1</clus>
<clus scale="   91.502">  7  8 -1 -1</clus>
<clus scale="   99.846">  5  6 -1 -1</clus>
<clus scale="  123.915">  2  7  1 -1</clus>
<clus scale="   24.969">  1  5  2 -1</clus>
</clustering>
</event>
<event>
 9    1  0.1881049E-005  0.1141668E+03  0.7546771E-02  0.1253132E+00
         -2   -1    0    0    0  501 -0.00000000000E+00  0.00000000000E+00  0.19809730877E+03  0.19809730877E+03  0.00000000000E+00 0.  1.
         21   -1    0    0  501  502  0.00000000000E+00 -0.00000000000E+00 -0.14575316915E+03  0.14575316915E+03  0.00000000000E+00 0. -1.
         23    2    1    2    0    0  0.67581074443E+02 -0.23142605241E+02  0.14102181440E+03  0.18309073136E+03  0.92370352243E+02 0.  0.
         23    2    1    2    0    0 -0.39342485575E+02  0.27838292405E+02 -0.60909438534E+02  0.12087814274E+03  0.92621617321E+02 0.  0.
        -11    1    4    4    0    0  0.16963242686E+02  0.19590931646E+02  0.11860390763E+02  0.28499562702E+02  0.00000000000E+00 0.  1.
         11    1    4    4    0    0 -0.56305728261E+02  0.82473607598E+01 -0.72769829297E+02  0.92378580041E+02  0.00000000000E+00 0. -1.
        -13    1    3    3    0    0  0.31303293196E+02 -0.57800378246E+02  0.90857634694E+02  0.11214227424E+03  0.00000000000E+00 0.  1.
         13    1    3    3    0    0  0.36277781247E+02  0.34657773004E+02  0.50164179707E+02  0.70948457119E+02  0.00000000000E+00 0. -1.
         -2    1    1    2    0  502 -0.28238588868E+02 -0.46956871640E+01 -0.27768236245E+02  0.39881603821E+02  0.00000000000E+00 0.  1.
<scales pt_clust_5="13000.00000" pt_clust_6="13000.00000" pt_clust_7="13000.00000" pt_clust_8="13000.00000" pt_clust_9="28.62634"></scales>
<clustering>
<clus scale="   28.626">  2  9  1 -1</clus>
<clus scale="   92.370">  7  8 -1 -1</clus>
<clus scale="   92.622">  5  6 -1 -1</clus>
<clus scale="  113.963">  1  7  2 -1</clus>
<clus scale="   28.626">  2  5  1 -1</clus>
</clustering>
</event>
<event>
 9    1  0.1881049E-005  0.1031784E+03  0.7546771E-02  0.1274608E+00
         21   -1    0    0  501  502  0.00000000000E+00  0.00000000000E+00  0.25158250031E+02  0.25158250031E+02  0.00000000000E+00 0.  1.
          2   -1    0    0  502    0 -0.00000000000E+00 -0.00000000000E+00 -0.80654864303E+03  0.80654864303E+03  0.00000000000E+00 0. -1.
         23    2    1    2    0    0 -0.22299584829E+02  0.33077469571E+02 -0.41101065442E+03  0.42244282516E+03  0.89088674948E+02 0.  0.
         23    2    1    2    0    0  0.40243558432E+02 -0.45750925423E+02 -0.37146079219E+03  0.38726926513E+03  0.91003694488E+02 0.  0.
        -11    1    3    3    0    0  0.13590848494E+02 -0.24334346377E+02 -0.16253787640E+03  0.16491037820E+03  0.00000000000E+00 0.  1.
         11    1    3    3    0    0 -0.35890433323E+02  0.57411815949E+02 -0.24847277802E+03  0.25753244695E+03  0.00000000000E+00 0. -1.
        -11    1    4    4    0    0  0.64588081233E+02 -0.50018475706E+02 -0.24046882650E+03  0.25396599116E+03  0.00000000000E+00 0.  1.
         11    1    4    4    0    0 -0.24344522801E+02  0.42675502834E+01 -0.13099196570E+03  0.13330327398E+03  0.00000000000E+00 0. -1.
          2    1    1    2  501    0 -0.17943973603E+02  0.12673455852E+02  0.10810536112E+01  0.21994802768E+02  0.00000000000E+00 0. -1.
<scales pt_clust_5="13000.00000" pt_clust_6="13000.00000" pt_clust_7="13000.00000" pt_clust_8="13000.00000" pt_clust_9="21.96822"></scales>
<clustering>
<clus scale="   21.968">  1  9  2 -1</clus>
<clus scale="   89.089">  5  6 -1 -1</clus>
<clus scale="   91.004">  7  8 -1 -1</clus>
<clus scale="  101.493">  2  5  1 -1</clus>
<clus scale="   21.968">  1  5  2 -1</clus>
</clustering>
</event>
<event>
 9    1  0.1881049E-005  0.1150595E+03  0.7546771E-02  0.1252140E+00
         21   -1    0    0  501  502  0.00000000000E+00  0.00000000000E+00  0.21864465179E+03  0.21864465179E+03  0.00000000000E+00 0. -1.
         -3   -1    0    0    0  501 -0.00000000000E+00 -0.00000000000E+00 -0.78492364308E+02  0.78492364308E+02  0.00000000000E+00 0.  1.
         23    2    1    2    0    0  0.67126014419E+02  0.35201986824E+02  0.30071736442E+02  0.12219420429E+03  0.91005673122E+02 0.  0.
         23    2    1    2    0    0 -0.41030018833E+02 -0.40527963452E+02  0.89048194986E+02  0.14100570802E+03  0.92881916417E+02 0.  0.
        -11    1    4    4    0    0  0.10617231420E+02  0.21282399038E+02  0.40474761957E+02  0.46945420088E+02  0.00000000000E+00 0.  1.
         11    1    4    4    0    0 -0.51647250253E+02 -0.61810362489E+02  0.48573433029E+02  0.94060287933E+02  0.00000000000E+00 0. -1.
        -13    1    3    3    0    0  0.16957329371E+02  0.59985388847E+02  0.12841538014E+02  0.63645133302E+02  0.00000000000E+00 0. -1.
         13    1    3    3    0    0  0.50168685048E+02 -0.24783402022E+02  0.17230198429E+02  0.58549070984E+02  0.00000000000E+00 0.  1.
         -3    1    1    2    0  502 -0.26095995585E+02  0.53259766273E+01  0.21032356057E+02  0.33937103794E+02  0.00000000000E+00 0.  1.
<scales pt_clust_5="13000.00000" pt_clust_6="13000.00000" pt_clust_7="13000.00000" pt_clust_8="13000.00000" pt_clust_9="26.63394"></scales>
<clustering>
<clus scale="   26.634">  1  9  2 -1</clus>
<clus scale="   91.006">  7  8 -1 -1</clus>
<clus scale="   92.882">  5  6 -1 -1</clus>
<clus scale="  113.550">  2  7  1 -1</clus>
<clus scale="   26.634">  1  5  2 -1</clus>
</clustering>
</event>
<event>
 9    1  0.1881049E-005  0.2604417E+03  0.7546771E-02  0.1134327E+00
         21   -1    0    0  501  502  0.00000000000E+00  0.00000000000E+00  0.16982557056E+03  0.16982557056E+03  0.00000000000E+00 0.  1.
         -1   -1    0    0    0  501 -0.00000000000E+00 -0.00000000000E+00 -0.87377330860E+03  0.87377330860E+03  0.00000000000E+00 0.  1.
         23    2    1    2    0    0 -0.10604145842E+02 -0.78420921706E+02 -0.36456688387E+03  0.38744926955E+03  0.10462138783E+03 0.  0.
         23    2    1    2    0    0 -0.18159783823E+03  0.19754117985E+03 -0.31494544555E+03  0.42871098541E+03  0.11225944392E+03 0.  0.
        -11    1    3    3    0    0  0.14238642166E+02  0.22533438003E+02 -0.60893359373E+02  0.66471768253E+02  0.00000000000E+00 0.  1.
         11    1    3    3    0    0 -0.24842788008E+02 -0.10095435971E+03 -0.30367352449E+03  0.32097750130E+03  0.00000000000E+00 0. -1.
        -13    1    4    4    0    0 -0.31529211558E+02  0.57995910856E+02 -0.18907563236E+02  0.68666679001E+02  0.00000000000E+00 0. -1.
         13    1    4    4    0    0 -0.15006862667E+03  0.13954526899E+03 -0.29603788231E+03  0.36004430641E+03  0.00000000000E+00 0.  1.
         -1    1    1    2    0  502  0.19220198407E+03 -0.11912025814E+03 -0.24435408623E+02  0.22743862420E+03  0.00000000000E+00 0.  1.
<scales pt_clust_5="13000.00000" pt_clust_6="13000.00000" pt_clust_7="13000.00000" pt_clust_8="13000.00000" pt_clust_9="235.00570"></scales>
<clustering>
<clus scale="  104.621">  5  6 -1 -1</clus>
<clus scale="  112.259">  7  8 -1 -1</clus>
<clus scale="  131.179">  2  5  1 -1</clus>
<clus scale="  235.006">  1  9  2 -1</clus>
<clus scale="  235.006">  1  5  2 -1</clus>
</clustering>
</event>
<event>
 9    1  0.1881049E-005  0.1472229E+03  0.7546771E-02  0.1206179E+00
         21   -1    0    0  501  502  0.00000000000E+00  0.00000000000E+00  0.24191795202E+03  0.24191795202E+03  0.00000000000E+00 0.  1.
         -2   -1    0    0    0  501 -0.00000000000E+00 -0.00000000000E+00 -0.14775584815E+03  0.14775584815E+03  0.00000000000E+00 0.  1.
         23    2    1    2    0    0  0.70504856712E+02  0.68895742840E+02 -0.21347319921E+02  0.14031514929E+03  0.97545245153E+02 0.  0.
         23    2    1    2    0    0 -0.73128354702E+02 -0.10933304472E+03  0.38223640597E+02  0.16209382172E+03  0.86671156733E+02 0.  0.
        -11    1    4    4    0    0 -0.37843141973E+02 -0.10502994650E+03  0.24557151479E+01  0.11166657331E+03  0.00000000000E+00 0.  1.
         11    1    4    4    0    0 -0.35285212729E+02 -0.43030982175E+01  0.35767925449E+02  0.50427248413E+02  0.00000000000E+00 0. -1.
        -13    1    3    3    0    0  0.56682845287E+02  0.83413057078E+02 -0.44031962456E+02  0.11004315862E+03  0.00000000000E+00 0.  1.
         13    1    3    3    0    0  0.13822011424E+02 -0.14517314238E+02  0.22684642534E+02  0.30271990675E+02  0.00000000000E+00 0. -1.
         -2    1    1    2    0  502  0.26234979902E+01  0.40437301881E+02  0.77285783195E+02  0.87264829165E+02  0.00000000000E+00 0.  1.
<scales pt_clust_5="13000.00000" pt_clust_6="13000.00000" pt_clust_7="13000.00000" pt_clust_8="13000.00000" pt_clust_9="40.52232"></scales>
<clustering>
<clus scale="   40.522">  1  9  2 -1</clus>
<clus scale="   86.671">  5  6 -1 -1</clus>
<clus scale="   97.545">  7  8 -1 -1</clus>
<clus scale="  140.255">  1  5  2 -1</clus>
<clus scale="   40.522">  1  5  2 -1</clus>
</clustering>
</event>
<event>
 9    1  0.1881049E-005  0.1182266E+03  0.7546771E-02  0.1254141E+00
         21   -1    0    0  501  502  0.00000000000E+00  0.00000000000E+00  0.23425122820E+03  0.23425122820E+03  0.00000000000E+00 0.  1.
         -1   -1    0    0    0  501 -0.00000000000E+00 -0.00000000000E+00 -0.25908392362E+03  0.25908392362E+03  0.00000000000E+00 0.  1.
         23    2    1    2    0    0 -0.17750903686E+02  0.78259711266E+02 -0.20887145967E+03  0.24231338308E+03  0.92998989074E+02 0.  0.
         23    2    1    2    0    0  0.34275691055E+02 -0.38961574477E+02  0.30566832711E+02  0.91738857155E+02  0.69201585005E+02 0.  0.
        -11    1    3    3    0    0 -0.35638344701E+02  0.47474097291E+02 -0.44659113367E+02  0.74285381693E+02  0.00000000000E+00 0.  1.
         11    1    3    3    0    0  0.17887441014E+02  0.30785613975E+02 -0.16421234630E+03  0.16802800139E+03  0.00000000000E+00 0. -1.
        -11    1    4    4    0    0  0.26458249673E+02 -0.56399236678E+01  0.46646508784E+02  0.53923505973E+02  0.00000000000E+00 0.  1.
         11    1    4    4    0    0  0.78174413822E+01 -0.33321650809E+02 -0.16079676073E+02  0.37815351182E+02  0.00000000000E+00 0. -1.
         -1    1    1    2    0  502 -0.16524787369E+02 -0.39298136789E+02  0.15347193154E+03  0.15928291159E+03  0.00000000000E+00 0.  1.
<scales pt_clust_5="13000.00000" pt_clust_6="13000.00000" pt_clust_7="13000.00000" pt_clust_8="13000.00000" pt_clust_9="42.63112"></scales>
<clustering>
<clus scale="   42.631">  1  9  2 -1</clus>
<clus scale="   69.202">  7  8 -1 -1</clus>
<clus scale="   92.999">  5  6 -1 -1</clus>
<clus scale="  100.586">  1  7  2 -1</clus>
<clus scale="   42.631">  1  5  2 -1</clus>
</clustering>
</event>
<event>
 9    1  0.1881049E-005  0.1088607E+03  0.7546771E-02  0.1264494E+00
          1   -1    0    0  502    0 -0.00000000000E+00  0.00000000000E+00  0.14009228378E+03  0.14009228378E+03  0.00000000000E+00 0. -1.
         21   -1    0    0  501  502  0.00000000000E+00 -0.00000000000E+00 -0.14154056098E+03  0.14154056098E+03  0.00000000000E+00 0.  1.
         23    2    1    2    0    0 -0.55377971442E+02  0.23459902752E+02  0.65737029972E+02  0.13031200916E+03  0.95093511157E+02 0.  0.
         23    2    1    2    0    0  0.38731623102E+02 -0.86598824132E+01 -0.22788004152E+02  0.10164929415E+03  0.90764275331E+02 0.  0.
        -11    1    3    3    0    0 -0.20952133875E+02  0.48705687954E+02  0.69545598637E+02  0.87451850997E+02  0.00000000000E+00 0. -1.
         11    1    3    3    0    0 -0.34425837567E+02 -0.25245785202E+02 -0.38085686655E+01  0.42860158165E+02  0.00000000000E+00 0.  1.
        -11    1    4    4    0    0  0.12590096527E+02 -0.24785602238E+02 -0.52188479268E+02  0.59130989990E+02  0.00000000000E+00 0.  1.
         11    1    4    4    0    0  0.26141526575E+02  0.16125719825E+02  0.29400475117E+02  0.42518304160E+02  0.00000000000E+00 0. -1.
          1    1    1    2  501    0  0.16646348340E+02 -0.14800020338E+02 -0.44397303021E+02  0.49671541456E+02  0.00000000000E+00 0. -1.
<scales pt_clust_5="13000.00000" pt_clust_6="13000.00000" pt_clust_7="13000.00000" pt_clust_8="13000.00000" pt_clust_9="22.27423"></scales>
<clustering>
<clus scale="   22.274">  2  9  1 -1</clus>
<clus scale="   90.764">  7  8 -1 -1</clus>
<clus scale="   95.094">  5  6 -1 -1</clus>
<clus scale="  105.100">  2  7  1 -1</clus>
<clus scale="   22.274">  2  5  1 -1</clus>
</clustering>
</event>
<event>
 9    1  0.1881049E-005  0.1164919E+03  0.7546771E-02  0.1250331E+00
         21   -1    0    0  501  502  0.00000000000E+00  0.00000000000E+00  0.63296429377E+03  0.63296429377E+03  0.00000000000E+00 0. -1.
         -2   -1    0    0    0  501 -0.00000000000E+00 -0.00000000000E+00 -0.42037326963E+02  0.42037326963E+02  0.00000000000E+00 0.  1.
         23    2    1    2    0    0 -0.14189760496E+02 -0.62207655784E+02  0.82679504823E+02  0.13968142155E+03  0.92756979608E+02 0.  0.
         23    2    1    2    0    0  0.33764701479E+02  0.84117768092E+02  0.31124717382E+03  0.33614102138E+03  0.88882670239E+02 0.  0.
        -11    1    4    4    0    0  0.28869347134E+02 -0.11239631877E+02  0.64203647097E+02  0.71287283783E+02  0.00000000000E+00 0. -1.
         11    1    4    4    0    0  0.48953543445E+01  0.95357399969E+02  0.24704352672E+03  0.26485373760E+03  0.00000000000E+00 0.  1.
        -13    1    3    3    0    0 -0.32254545389E+02 -0.51310022527E+02  0.68735060791E+01  0.60994419382E+02  0.00000000000E+00 0.  1.
         13    1    3    3    0    0  0.18064784893E+02 -0.10897633257E+02  0.75805998744E+02  0.78687002163E+02  0.00000000000E+00 0. -1.
         -2    1    1    2    0  502 -0.19574940983E+02 -0.21910112308E+02  0.19700028817E+03  0.19917917781E+03  0.00000000000E+00 0.  1.
<scales pt_clust_5="13000.00000" pt_clust_6="13000.00000" pt_clust_7="13000.00000" pt_clust_8="13000.00000" pt_clust_9="29.38080"></scales>
<clustering>
<clus scale="   29.381">  1  9  2 -1</clus>
<clus scale="   88.883">  5  6 -1 -1</clus>
<clus scale="   92.757">  7  8 -1 -1</clus>
<clus scale="  113.431">  1  5  2 -1</clus>
<clus scale="   29.381">  1  5  2 -1</clus>
</clustering>
</event>
<event>
 9    1  0.1881049E-005  0.1301822E+03  0.7546771E-02  0.1243169E+00
          3   -1    0    0  502    0 -0.00000000000E+00  0.00000000000E+00  0.53314434397E+03  0.53314434397E+03  0.00000000000E+00 0. -1.
         21   -1    0    0  501  502  0.00000000000E+00 -0.00000000000E+00 -0.51103596729E+02  0.51103596729E+02  0.00000000000E+00 0.  1.
         23    2    1    2    0    0  0.82689626618E+01 -0.38735013831E+02  0.43800297973E+03  0.45701780254E+03  0.12429756452E+03 0.  0.
         23    2    1    2    0    0  0.16037145338E+02  0.38060351681E+02  0.32975146011E+02  0.10051640293E+03  0.85500915805E+02 0.  0.
        -11    1    4    4    0    0 -0.28010259434E+02  0.15733654630E+02 -0.11435618642E+02  0.34101259439E+02  0.00000000000E+00 0.  1.
         11    1    4    4    0    0  0.44047404772E+02  0.22326697051E+02  0.44410764653E+02  0.66415143495E+02  0.00000000000E+00 0. -1.
        -13    1    3    3    0    0  0.61230665245E+02 -0.59191780596E+01  0.28969272818E+03  0.29615217000E+03  0.00000000000E+00 0. -1.
         13    1    3    3    0    0 -0.52961702583E+02 -0.32815835772E+02  0.14831025155E+03  0.16086563254E+03  0.00000000000E+00 0.  1.
          3    1    1    2  501    0 -0.24306108000E+02  0.67466215074E+00  0.11062621495E+02  0.26713735221E+02  0.00000000000E+00 0. -1.
<scales pt_clust_5="13000.00000" pt_clust_6="13000.00000" pt_clust_7="13000.00000" pt_clust_8="13000.00000" pt_clust_9="24.31547"></scales>
<clustering>
<clus scale="   24.315">  2  9  1 -1</clus>
<clus scale="   85.501">  5  6 -1 -1</clus>
<clus scale="   93.851">  2  5  1 -1</clus>
<clus scale="  124.298">  7  8 -1 -1</clus>
<clus scale="   24.315">  2  5  1 -1</clus>
</clustering>
</event>
<event>
 9    1  0.1881049E-005  0.9397411E+02  0.7546771E-02  0.1307285E+00
          1   -1    0    0  502    0 -0.00000000000E+00  0.00000000000E+00  0.38634916232E+02  0.38634916232E+02  0.00000000000E+00 0. -1.
         21   -1    0    0  501  502  0.00000000000E+00 -0.00000000000E+00 -0.33485851364E+03  0.33485851364E+03  0.00000000000E+00 0.  1.
         23    2    1    2    0    0  0.25117764150E+01 -0.27771544406E+02 -0.49131144422E+02  0.88826006606E+02  0.68546498071E+02 0.  0.
         23    2    1    2    0    0 -0.20179327360E+02  0.14992909571E+02 -0.10523484741E+03  0.14114384986E+03  0.90637854416E+02 0.  0.
        -11    1    4    4    0    0  0.25336917022E+02  0.57127226459E+01 -0.87743952219E+02  0.91507353340E+02  0.00000000000E+00 0.  1.
         11    1    4    4    0    0 -0.45516244382E+02  0.92801869255E+01 -0.17490895192E+02  0.49636496519E+02  0.00000000000E+00 0. -1.
        -11    1    3    3    0    0  0.21668418261E+02 -0.38765414796E+02 -0.12645248429E+02  0.46175535103E+02  0.00000000000E+00 0.  1.
         11    1    3    3    0    0 -0.19156641846E+02  0.10993870390E+02 -0.36485895993E+02  0.42650471502E+02  0.00000000000E+00 0. -1.
          1    1    1    2  501    0  0.17667550945E+02  0.12778634834E+02 -0.14185760558E+03  0.14352357341E+03  0.00000000000E+00 0. -1.
<scales pt_clust_5="13000.00000" pt_clust_6="13000.00000" pt_clust_7="13000.00000" pt_clust_8="13000.00000" pt_clust_9="21.80449"></scales>
<clustering>
<clus scale="   21.804">  2  9  1 -1</clus>
<clus scale="   68.546">  7  8 -1 -1</clus>
<clus scale="   72.901">  1  7  2 -1</clus>
<clus scale="   90.638">  5  6 -1 -1</clus>
<clus scale="   21.804">  2  5  1 -1</clus>
</clustering>
</event>
<event>
 9    1  0.1881049E-005  0.2424377E+03  0.7546771E-02  0.1153753E+00
          1   -1    0    0  502    0 -0.00000000000E+00  0.00000000000E+00  0.94416645760E+03  0.94416645760E+03  0.00000000000E+00 0. -1.
         21   -1    0    0  501  502  0.00000000000E+00 -0.00000000000E+00 -0.21689332486E+03  0.21689332486E+03  0.00000000000E+00 0. -1.
         23    2    1    2    0    0 -0.11257164557E+02  0.30152872152E+02  0.41673219070E+01  0.10221270097E+03  0.96923424492E+02 0.  0.
         23    2    1    2    0    0  0.10195040301E+03 -0.23403516830E+03  0.78270454885E+03  0.82788114513E+03  0.87146055562E+02 0.  0.
        -11    1    3    3    0    0 -0.39888697029E+02  0.43940592863E+02  0.24805179302E+02  0.64320920175E+02  0.00000000000E+00 0.  1.
         11    1    3    3    0    0  0.28631532472E+02 -0.13787720712E+02 -0.20637857396E+02  0.37891780798E+02  0.00000000000E+00 0. -1.
        -13    1    4    4    0    0  0.15755000677E+01 -0.90868914732E+02  0.33893692840E+03  0.35091007865E+03  0.00000000000E+00 0. -1.
         13    1    4    4    0    0  0.10037490294E+03 -0.14316625357E+03  0.44376762045E+03  0.47697106648E+03  0.00000000000E+00 0.  1.
          1    1    1    2  501    0 -0.90693238452E+02  0.20388229615E+03 -0.59598738020E+02  0.23096593636E+03  0.00000000000E+00 0. -1.
<scales pt_clust_5="13000.00000" pt_clust_6="13000.00000" pt_clust_7="13000.00000" pt_clust_8="13000.00000" pt_clust_9="226.23354"></scales>
<clustering>
<clus scale="   87.146">  7  8 -1 -1</clus>
<clus scale="   96.923">  5  6 -1 -1</clus>
<clus scale="  102.128">  1  5  2 -1</clus>
<clus scale="  226.234">  2  9  1 -1</clus>
<clus scale="  226.234">  2  5  1 -1</clus>
</clustering>
</event>
<event>
 9    1  0.1881049E-005  0.1604715E+03  0.7546771E-02  0.1188585E+00
          1   -1    0    0  502    0 -0.00000000000E+00  0.00000000000E+00  0.28165236493E+03  0.28165236493E+03  0.00000000000E+00 0. -1.
         21   -1    0    0  501  502  0.00000000000E+00 -0.00000000000E+00 -0.35772892813E+03  0.35772892813E+03  0.00000000000E+00 0. -1.
         23    2    1    2    0    0  0.85213172037E+02  0.96760447858E+02  0.22073934100E+03  0.27128114319E+03  0.90795005520E+02 0.  0.
         23    2    1    2    0    0 -0.70834404062E+02 -0.13382642341E+03 -0.24595384691E+03  0.30354331921E+03  0.93371448672E+02 0.  0.
        -11    1    3    3    0    0  0.91415019741E+02  0.69583533973E+02  0.11744720522E+03  0.16429370057E+03  0.00000000000E+00 0. -1.
         11    1    3    3    0    0 -0.62018477041E+01  0.27176913885E+02  0.10329213579E+03  0.10698744262E+03  0.00000000000E+00 0.  1.
        -13    1    4    4    0    0  0.16182302503E+02 -0.32283059489E+02 -0.96290771821E+02  0.10283956234E+03  0.00000000000E+00 0.  1.
         13    1    4    4    0    0 -0.87016706566E+02 -0.10154336392E+03 -0.14966307509E+03  0.20070375687E+03  0.00000000000E+00 0. -1.
          1    1    1    2  501    0 -0.14378767975E+02  0.37065975549E+02 -0.50862057289E+02  0.64556830650E+02  0.00000000000E+00 0. -1.
<scales pt_clust_5="13000.00000" pt_clust_6="13000.00000" pt_clust_7="13000.00000" pt_clust_8="13000.00000" pt_clust_9="39.75721"></scales>
<clustering>
<clus scale="   39.757">  2  9  1 -1</clus>
<clus scale="   90.795">  5  6 -1 -1</clus>
<clus scale="   93.371">  7  8 -1 -1</clus>
<clus scale="  158.986">  1  5  2 -1</clus>
<clus scale="   39.757">  2  5  1 -1</clus>
</clustering>
</event>
<event>
 9    1  0.1881049E-005  0.9305149E+02  0.7546771E-02  0.1298061E+00
         -2   -1    0    0    0  501 -0.00000000000E+00  0.00000000000E+00  0.43418737678E+03  0.43418737678E+03  0.00000000000E+00 0. -1.
         21   -1    0    0  501  502  0.00000000000E+00 -0.00000000000E+00 -0.10929000888E+03  0.10929000888E+03  0.00000000000E+00 0. -1.
         23    2    1    2    0    0 -0.18002676290E+02 -0.34122583187E+01  0.33021595078E+03  0.34314480182E+03  0.91487928185E+02 0.  0.
         23    2    1    2    0    0 -0.23247488251E+02  0.66718693743E+02 -0.37209342523E+02  0.11831855217E+03  0.87309305411E+02 0.  0.
        -13    1    3    3    0    0 -0.52720189571E+02  0.69293827426E+01  0.14553776653E+03  0.15494733370E+03  0.00000000000E+00 0.  1.
         13    1    3    3    0    0  0.34717513281E+02 -0.10341641061E+02  0.18467818425E+03  0.18819746812E+03  0.00000000000E+00 0. -1.
        -13    1    4    4    0    0 -0.16721273113E+02 -0.19219163003E+02 -0.13974488421E+02  0.29056213237E+02  0.00000000000E+00 0.  1.
         13    1    4    4    0    0 -0.65262151384E+01  0.85937856746E+02 -0.23234854101E+02  0.89262338930E+02  0.00000000000E+00 0. -1.
         -2    1    1    2    0  502  0.41250164541E+02 -0.63306435424E+02  0.31890759634E+02  0.82014031670E+02  0.00000000000E+00 0. -1.
<scales pt_clust_5="13000.00000" pt_clust_6="13000.00000" pt_clust_7="13000.00000" pt_clust_8="13000.00000" pt_clust_9="75.55978"></scales>
<clustering>
<clus scale="   75.560">  2  9  1 -1</clus>
<clus scale="   87.309">  7  8 -1 -1</clus>
<clus scale="   88.946">  2  7  1 -1</clus>
<clus scale="   91.488">  5  6 -1 -1</clus>
<clus scale="   75.560">  2  5  1 -1</clus>
</clustering>
</event>
<event>
 9    1  0.1881049E-005  0.1931280E+03  0.7546771E-02  0.1155812E+00
          2   -1    0    0  502    0 -0.00000000000E+00  0.00000000000E+00  0.28459169262E+03  0.28459169262E+03  0.00000000000E+00 0. -1.
         21   -1    0    0  501  502  0.00000000000E+00 -0.00000000000E+00 -0.48638370730E+03  0.48638370730E+03  0.00000000000E+00 0. -1.
         23    2    1    2    0    0 -0.14726111551E+03  0.31783060910E+02  0.10472237728E+03  0.20516834255E+03  0.91821965681E+02 0.  0.
         23    2    1    2    0    0  0.18984063077E+03 -0.16310564079E+03 -0.44749058195E+02  0.26986833893E+03  0.90462848744E+02 0.  0.
        -13    1    3    3    0    0 -0.72206325585E+02 -0.29244337227E+02  0.61325947521E+02  0.99145633054E+02  0.00000000000E+00 0.  1.
         13    1    3    3    0    0 -0.75054789925E+02  0.61027398137E+02  0.43396429758E+02  0.10602270950E+03  0.00000000000E+00 0. -1.
        -13    1    4    4    0    0  0.21870405307E+02 -0.69870820874E+02 -0.21805313330E+02  0.76391870820E+02  0.00000000000E+00 0.  1.
         13    1    4    4    0    0  0.16797022546E+03 -0.93234819912E+02 -0.22943744865E+02  0.19347646811E+03  0.00000000000E+00 0. -1.
          2    1    1    2  501    0 -0.42579515257E+02  0.13132257988E+03 -0.26176533376E+03  0.29593871843E+03  0.00000000000E+00 0. -1.
<scales pt_clust_5="13000.00000" pt_clust_6="13000.00000" pt_clust_7="13000.00000" pt_clust_8="13000.00000" pt_clust_9="138.05302"></scales>
<clustering>
<clus scale="   90.463">  7  8 -1 -1</clus>
<clus scale="   91.822">  5  6 -1 -1</clus>
<clus scale="  138.053">  2  9  1 -1</clus>
<clus scale="  192.486">  2  7  1 -1</clus>
<clus scale="  138.053">  2  5  1 -1</clus>
</clustering>
</event>
<event>
 9    1  0.1881049E-005  0.1044690E+03  0.7546771E-02  0.1272398E+00
         21   -1    0    0  501  502  0.00000000000E+00  0.00000000000E+00  0.10221911660E+03  0.10221911660E+03  0.00000000000E+00 0.  1.
         -1   -1    0    0    0  501 -0.00000000000E+00 -0.00000000000E+00 -0.39334969854E+03  0.39334969854E+03  0.00000000000E+00 0.  1.
         23    2    1    2    0    0 -0.43895730880E+02  0.19721560386E+02 -0.25387843303E+03  0.27378479494E+03  0.90488010537E+02 0.  0.
         23    2    1    2    0    0  0.67023665890E+01 -0.68705837203E+02 -0.85085495112E+02  0.14386845865E+03  0.93237214316E+02 0.  0.
        -11    1    3    3    0    0 -0.21646257396E+02  0.38922176512E+02 -0.23424479228E+03  0.23844101785E+03  0.00000000000E+00 0.  1.
         11    1    3    3    0    0 -0.22249473484E+02 -0.19200616126E+02 -0.19633640746E+02  0.35343777089E+02  0.00000000000E+00 0. -1.
        -13    1    4    4    0    0 -0.35403819983E+02 -0.59127870866E+02 -0.69724299877E+02  0.98035777019E+02  0.00000000000E+00 0.  1.
         13    1    4    4    0    0  0.42106186572E+02 -0.95779663370E+01 -0.15361195235E+02  0.45832681635E+02  0.00000000000E+00 0. -1.
         -1    1    1    2    0  502  0.37193364291E+02  0.48984276817E+02  0.47833346197E+02  0.77915561545E+02  0.00000000000E+00 0.  1.
<scales pt_clust_5="13000.00000" pt_clust_6="13000.00000" pt_clust_7="13000.00000" pt_clust_8="13000.00000" pt_clust_9="61.50452"></scales>
<clustering>
<clus scale="   61.505">  1  9  2 -1</clus>
<clus scale="   90.488">  5  6 -1 -1</clus>
<clus scale="   93.237">  7  8 -1 -1</clus>
<clus scale="  102.023">  2  5  1 -1</clus>
<clus scale="   61.505">  1  5  2 -1</clus>
</clustering>
</event>
<event>
 9    1  0.1881049E-005  0.1809350E+03  0.7546771E-02  0.1183352E+00
         21   -1    0    0  501  502  0.00000000000E+00  0.00000000000E+00  0.19595765749E+03  0.19595765749E+03  0.00000000000E+00 0.  1.
          3   -1    0    0  502    0 -0.00000000000E+00 -0.00000000000E+00 -0.36761087061E+03  0.36761087061E+03  0.00000000000E+00 0. -1.
         23    2    1    2    0    0 -0.43425120531E+02  0.69563053360E+02 -0.13646530504E+03  0.18479768681E+03  0.93822417808E+02 0.  0.
         23    2    1    2    0    0  0.66313469027E+02  0.79675703391E+02 -0.12799752985E+03  0.20154299668E+03  0.11614868909E+03 0.  0.
        -11    1    3    3    0    0 -0.14180804180E+02  0.86857427042E+02 -0.80191918933E+02  0.11906322565E+03  0.00000000000E+00 0.  1.
         11    1    3    3    0    0 -0.29244316351E+02 -0.17294373681E+02 -0.56273386107E+02  0.65734461159E+02  0.00000000000E+00 0. -1.
        -13    1    4    4    0    0  0.41703430127E+02  0.10564522955E+03 -0.70059169351E+02  0.13344803416E+03  0.00000000000E+00 0.  1.
         13    1    4    4    0    0  0.24610038900E+02 -0.25969526158E+02 -0.57938360495E+02  0.68094962518E+02  0.00000000000E+00 0. -1.
          3    1    1    2  501    0 -0.22888348496E+02 -0.14923875675E+03  0.92809621764E+02  0.17722784461E+03  0.00000000000E+00 0. -1.
<scales pt_clust_5="13000.00000" pt_clust_6="13000.00000" pt_clust_7="13000.00000" pt_clust_8="13000.00000" pt_clust_9="138.73337"></scales>
<clustering>
<clus scale="   93.822">  5  6 -1 -1</clus>
<clus scale="  116.149">  7  8 -1 -1</clus>
<clus scale="  124.609">  2  5  1 -1</clus>
<clus scale="  138.733">  1  9  2 -1</clus>
<clus scale="  138.733">  1  5  2 -1</clus>
</clustering>
</event>
<event>
 9    1  0.1881049E-005  0.9371740E+02  0.7546771E-02  0.1296242E+00
         -1   -1    0    0    0  501 -0.00000000000E+00  0.00000000000E+00  0.68646265095E+03  0.68646265095E+03  0.00000000000E+00 0.  1.
         21   -1    0    0  501  502  0.00000000000E+00 -0.00000000000E+00 -0.44597151104E+02  0.44597151104E+02  0.00000000000E+00 0.  1.
         23    2    1    2    0    0 -0.81230615371E+01  0.10703359269E+02  0.27688098952E+03  0.29253571225E+03  0.93453274723E+02 0.  0.
         23    2    1    2    0    0  0.22579476267E+01  0.46767745302E+02  0.40682670560E+02  0.10911703053E+03  0.89772636922E+02 0.  0.
        -11    1    3    3    0    0 -0.37530232783E+02  0.36218160965E+02  0.11905094987E+03  0.12997462145E+03  0.00000000000E+00 0.  1.
         11    1    3    3    0    0  0.29407171246E+02 -0.25514801696E+02  0.15783003965E+03  0.16256109080E+03  0.00000000000E+00 0. -1.
        -11    1    4    4    0    0  0.43423951271E+02  0.69561254100E+01  0.17189628349E+02  0.47217693161E+02  0.00000000000E+00 0. -1.
         11    1    4    4    0    0 -0.41166003644E+02  0.39811619892E+02  0.23493042211E+02  0.61899337370E+02  0.00000000000E+00 0.  1.
         -1    1    1    2    0  502  0.58651139104E+01 -0.57471104570E+02  0.32430183977E+03  0.32940705927E+03  0.00000000000E+00 0.  1.
<scales pt_clust_5="13000.00000" pt_clust_6="13000.00000" pt_clust_7="13000.00000" pt_clust_8="13000.00000" pt_clust_9="57.76964"></scales>
<clustering>
<clus scale="   57.770">  2  9  1 -1</clus>
<clus scale="   89.773">  7  8 -1 -1</clus>
<clus scale="   90.048">  2  7  1 -1</clus>
<clus scale="   93.453">  5  6 -1 -1</clus>
<clus scale="   57.770">  2  5  1 -1</clus>
</clustering>
</event>
<event>
 9    1  0.1881049E-005  0.9415646E+02  0.7546771E-02  0.1294697E+00
         -3   -1    0    0    0  501 -0.00000000000E+00  0.00000000000E+00  0.52174604591E+03  0.52174604591E+03  0.00000000000E+00 0.  1.
         21   -1    0    0  501  502  0.00000000000E+00 -0.00000000000E+00 -0.30059393732E+02  0.30059393732E+02  0.00000000000E+00 0.  1.
         23    2    1    2    0    0  0.49699505267E+01 -0.88140377597E+01  0.31053962022E+03  0.32465267660E+03  0.94138817845E+02 0.  0.
         23    2    1    2    0    0  0.50715630078E+01 -0.97128808995E+01  0.18415761283E+03  0.20586562359E+03  0.91359552349E+02 0.  0.
        -13    1    3    3    0    0 -0.59547953100E+01 -0.50876028377E+02  0.16771064213E+03  0.17535874467E+03  0.00000000000E+00 0.  1.
         13    1    3    3    0    0  0.10924745837E+02  0.42061990617E+02  0.14282897809E+03  0.14929393192E+03  0.00000000000E+00 0. -1.
        -13    1    4    4    0    0  0.23060407672E+02 -0.44921590375E+02  0.12390227450E+03  0.13379650709E+03  0.00000000000E+00 0.  1.
         13    1    4    4    0    0 -0.17988844664E+02  0.35208709475E+02  0.60255338331E+02  0.72069116497E+02  0.00000000000E+00 0. -1.
         -3    1    1    2    0  502 -0.10041513535E+02  0.18526918659E+02 -0.30105808713E+01  0.21287139457E+02  0.00000000000E+00 0.  1.
<scales pt_clust_5="13000.00000" pt_clust_6="13000.00000" pt_clust_7="13000.00000" pt_clust_8="13000.00000" pt_clust_9="21.07318"></scales>
<clustering>
<clus scale="   21.073">  2  9  1 -1</clus>
<clus scale="   91.360">  7  8 -1 -1</clus>
<clus scale="   91.378">  2  7  1 -1</clus>
<clus scale="   94.139">  5  6 -1 -1</clus>
<clus scale="   21.073">  2  5  1 -1</clus>
</clustering>
</event>
<event>
 9    1  0.1881049E-005  0.9908220E+02  0.7546771E-02  0.1283034E+00
         21   -1    0    0  501  502  0.00000000000E+00  0.00000000000E+00  0.22455399987E+03  0.22455399987E+03  0.00000000000E+00 0.  1.
          1   -1    0    0  502    0 -0.00000000000E+00 -0.00000000000E+00 -0.18306653611E+03  0.18306653611E+03  0.00000000000E+00 0. -1.
         23    2    1    2    0    0  0.34474648064E+02 -0.80861499028E+01 -0.14679337235E+03  0.17659698616E+03  0.91565900737E+02 0.  0.
         23    2    1    2    0    0 -0.92670941607E+01  0.15867757017E+02  0.17977510265E+03  0.20330493360E+03  0.93145819792E+02 0.  0.
        -13    1    3    3    0    0  0.38054044659E+02  0.20780883825E+02 -0.22312547926E+02  0.48762744411E+02  0.00000000000E+00 0.  1.
         13    1    3    3    0    0 -0.35793965955E+01 -0.28867033728E+02 -0.12448082442E+03  0.12783424175E+03  0.00000000000E+00 0. -1.
        -13    1    4    4    0    0  0.31658924744E+02  0.25704346039E+02  0.39207164161E+02  0.56570333593E+02  0.00000000000E+00 0.  1.
         13    1    4    4    0    0 -0.40926018905E+02 -0.98365890213E+01  0.14056793849E+03  0.14673460001E+03  0.00000000000E+00 0. -1.
          1    1    1    2  501    0 -0.25207553903E+02 -0.77816071146E+01  0.85057334539E+01  0.27718616211E+02  0.00000000000E+00 0. -1.
<scales pt_clust_5="13000.00000" pt_clust_6="13000.00000" pt_clust_7="13000.00000" pt_clust_8="13000.00000" pt_clust_9="26.38132"></scales>
<clustering>
<clus scale="   26.381">  1  9  2 -1</clus>
<clus scale="   91.566">  5  6 -1 -1</clus>
<clus scale="   93.146">  7  8 -1 -1</clus>
<clus scale="   97.598">  2  5  1 -1</clus>
<clus scale="   26.381">  1  5  2 -1</clus>
</clustering>
</event>
<event>
 9    1  0.1881049E-005  0.1071893E+03  0.7546771E-02  0.1268176E+00
         21   -1    0    0  501  502  0.00000000000E+00  0.00000000000E+00  0.95754551086E+02  0.95754551086E+02  0.00000000000E+00 0.  1.
          3   -1    0    0  502    0 -0.00000000000E+00 -0.00000000000E+00 -0.18292861056E+03  0.18292861056E+03  0.00000000000E+00 0. -1.
         23    2    1    2    0    0  0.67355715726E+02  0.82340790729E+01 -0.65287273877E+02  0.13007177795E+03  0.89730968956E+02 0.  0.
         23    2    1    2    0    0 -0.24173809345E+02 -0.19928132938E+02 -0.26742227499E+02  0.10361134758E+03  0.95071873207E+02 0.  0.
        -13    1    3    3    0    0  0.56352308931E+02 -0.31471014281E+02 -0.17298812581E+02  0.66822573869E+02  0.00000000000E+00 0.  1.
         13    1    3    3    0    0  0.11003406795E+02  0.39705093354E+02 -0.47988461296E+02  0.63249204081E+02  0.00000000000E+00 0. -1.
        -13    1    4    4    0    0  0.21791575790E+02  0.24680215173E+02 -0.21548267836E+02  0.39348616789E+02  0.00000000000E+00 0.  1.
         13    1    4    4    0    0 -0.45965385135E+02 -0.44608348111E+02 -0.51939596632E+01  0.64262730792E+02  0.00000000000E+00 0. -1.
          3    1    1    2  501    0 -0.43181906381E+02  0.11694053865E+02  0.48554419010E+01  0.45000036117E+02  0.00000000000E+00 0. -1.
<scales pt_clust_5="13000.00000" pt_clust_6="13000.00000" pt_clust_7="13000.00000" pt_clust_8="13000.00000" pt_clust_9="44.73732"></scales>
<clustering>
<clus scale="   44.737">  1  9  2 -1</clus>
<clus scale="   89.731">  5  6 -1 -1</clus>
<clus scale="   95.072">  7  8 -1 -1</clus>
<clus scale="  102.482">  2  5  1 -1</clus>
<clus scale="   44.737">  1  5  2 -1</clus>
</clustering>
</event>
<event>
 9    1  0.1881049E-005  0.1758732E+03  0.7546771E-02  0.1192921E+00
         21   -1    0    0  501  502  0.00000000000E+00  0.00000000000E+00  0.30219323736E+03  0.30219323736E+03  0.00000000000E+00 0.  1.
         -1   -1    0    0    0  501 -0.00000000000E+00 -0.00000000000E+00 -0.19385986845E+03  0.19385986845E+03  0.00000000000E+00 0.  1.
         23    2    1    2    0    0  0.30563950204E+02  0.52435197923E+02 -0.57114780072E+02  0.12372163045E+03  0.91440355993E+02 0.  0.
         23    2    1    2    0    0 -0.70845244057E+02  0.11017154420E+03  0.43955546344E+02  0.16539190033E+03  0.90915196094E+02 0.  0.
        -11    1    4    4    0    0 -0.53548508297E+02  0.57864077624E+02 -0.19642152594E+02  0.81249666945E+02  0.00000000000E+00 0.  1.
         11    1    4    4    0    0 -0.17296735760E+02  0.52307466581E+02  0.63597698938E+02  0.84142233381E+02  0.00000000000E+00 0. -1.
        -11    1    3    3    0    0  0.46854146277E+02  0.69966740001E+02 -0.35183567296E+02  0.91260830247E+02  0.00000000000E+00 0.  1.
         11    1    3    3    0    0 -0.16290196073E+02 -0.17531542078E+02 -0.21931212776E+02  0.32460800199E+02  0.00000000000E+00 0. -1.
         -1    1    1    2    0  502  0.40281293853E+02 -0.16260674213E+03  0.12149260264E+03  0.20693957503E+03  0.00000000000E+00 0.  1.
<scales pt_clust_5="13000.00000" pt_clust_6="13000.00000" pt_clust_7="13000.00000" pt_clust_8="13000.00000" pt_clust_9="150.55168"></scales>
<clustering>
<clus scale="   90.915">  5  6 -1 -1</clus>
<clus scale="   91.440">  7  8 -1 -1</clus>
<clus scale="  109.749">  2  7  1 -1</clus>
<clus scale="  150.552">  1  9  2 -1</clus>
<clus scale="  150.552">  1  5  2 -1</clus>
</clustering>
</event>
<event>
 9    1  0.1881049E-005  0.2681340E+03  0.7546771E-02  0.1102824E+00
         21   -1    0    0  501  502  0.00000000000E+00  0.00000000000E+00  0.10543536318E+03  0.10543536318E+03  0.00000000000E+00 0.  1.
          2   -1    0    0  502    0 -0.00000000000E+00 -0.00000000000E+00 -0.14982427024E+04  0.14982427024E+04  0.00000000000E+00 0. -1.
         23    2    1    2    0    0 -0.36863443726E+02  0.22916799599E+03 -0.66338204098E+03  0.70889075548E+03  0.92593126352E+02 0.  0.
         23    2    1    2    0    0  0.13371281359E+03 -0.24202037425E+03 -0.74005229022E+03  0.79651260822E+03  0.10149859465E+03 0.  0.
        -11    1    4    4    0    0  0.11141174348E+03 -0.15029234822E+03 -0.59261042303E+03  0.62143984424E+03  0.00000000000E+00 0. -1.
         11    1    4    4    0    0  0.22301070109E+02 -0.91728026029E+02 -0.14744186719E+03  0.17507276398E+03  0.00000000000E+00 0.  1.
        -13    1    3    3    0    0  0.21851351487E+02  0.14040746888E+03 -0.41559806701E+03  0.43921918467E+03  0.00000000000E+00 0. -1.
         13    1    3    3    0    0 -0.58714795213E+02  0.88760527110E+02 -0.24778397397E+03  0.26967157081E+03  0.00000000000E+00 0.  1.
          2    1    1    2  501    0 -0.96849369867E+02  0.12852378258E+02  0.10626991985E+02  0.98274701878E+02  0.00000000000E+00 0. -1.
<scales pt_clust_5="13000.00000" pt_clust_6="13000.00000" pt_clust_7="13000.00000" pt_clust_8="13000.00000" pt_clust_9="97.69843"></scales>
<clustering>
<clus scale="   92.593">  7  8 -1 -1</clus>
<clus scale="   97.698">  1  9  2 -1</clus>
<clus scale="  101.499">  5  6 -1 -1</clus>
<clus scale="  264.891">  2  7  1 -1</clus>
<clus scale="   97.698">  1  5  2 -1</clus>
</clustering>
</event>
<event>
 9    1  0.1881049E-005  0.1046835E+03  0.7546771E-02  0.1272067E+00
          2   -1    0    0  502    0 -0.00000000000E+00  0.00000000000E+00  0.10909062195E+03  0.10909062195E+03  0.00000000000E+00 0. -1.
         21   -1    0    0  501  502  0.00000000000E+00 -0.00000000000E+00 -0.46467120646E+03  0.46467120646E+03  0.00000000000E+00 0. -1.
         23    2    1    2    0    0  0.57505462008E+02  0.16953458995E+02  0.22701547250E+02  0.10999125091E+03  0.89377945246E+02 0.  0.
         23    2    1    2    0    0 -0.12006602758E+02 -0.48127678097E+02 -0.27119884976E+02  0.10830341769E+03  0.92378082973E+02 0.  0.
        -11    1    4    4    0    0  0.32251947668E+02 -0.15241026073E+02 -0.37979425298E+02  0.52104834230E+02  0.00000000000E+00 0.  1.
         11    1    4    4    0    0 -0.44258550426E+02 -0.32886652024E+02  0.10859540322E+02  0.56198583462E+02  0.00000000000E+00 0. -1.
        -11    1    3    3    0    0 -0.46850478327E+01  0.24479257673E+02 -0.21829900989E+02  0.33131983138E+02  0.00000000000E+00 0.  1.
         11    1    3    3    0    0  0.62190509841E+02 -0.75257986785E+01  0.44531448240E+02  0.76859267772E+02  0.00000000000E+00 0. -1.
          2    1    1    2  501    0 -0.45498859250E+02  0.31174219102E+02 -0.35116224679E+03  0.35546715980E+03  0.00000000000E+00 0. -1.
<scales pt_clust_5="13000.00000" pt_clust_6="13000.00000" pt_clust_7="13000.00000" pt_clust_8="13000.00000" pt_clust_9="55.15413"></scales>
<clustering>
<clus scale="   55.154">  2  9  1 -1</clus>
<clus scale="   89.378">  7  8 -1 -1</clus>
<clus scale="   92.378">  5  6 -1 -1</clus>
<clus scale="  102.046">  1  7  2 -1</clus>
<clus scale="   55.154">  2  5  1 -1</clus>
</clustering>
</event>
<event>
 9    1  0.1881049E-005  0.1534114E+03  0.7546771E-02  0.1196358E+00
          1   -1    0    0  502    0 -0.00000000000E+00  0.00000000000E+00  0.74120695189E+03  0.74120695189E+03  0.00000000000E+00 0. -1.
         21   -1    0    0  501  502  0.00000000000E+00 -0.00000000000E+00 -0.46009888552E+02  0.46009888552E+02  0.00000000000E+00 0. -1.
         23    2    1    2    0    0 -0.60267766757E+02  0.92970496505E+02  0.25548941511E+03  0.29345152712E+03  0.92537779363E+02 0.  0.
         23    2    1    2    0    0  0.44122790342E+02 -0.13225524593E+03  0.26086536928E+03  0.30994879463E+03  0.92624206882E+02 0.  0.
        -13    1    3    3    0    0 -0.81880857070E+02  0.52846954244E+02  0.19176617386E+03  0.21510820710E+03  0.00000000000E+00 0. -1.
         13    1    3    3    0    0  0.21613090313E+02  0.40123542261E+02  0.63723241248E+02  0.78343320019E+02  0.00000000000E+00 0.  1.
        -13    1    4    4    0    0  0.27841705700E+02 -0.17713630582E+02  0.13506509007E+03  0.13903780724E+03  0.00000000000E+00 0.  1.
         13    1    4    4    0    0  0.16281084641E+02 -0.11454161535E+03  0.12580027921E+03  0.17091098739E+03  0.00000000000E+00 0. -1.
          1    1    1    2  501    0  0.16144976416E+02  0.39284749428E+02  0.17884227896E+03  0.18381651869E+03  0.00000000000E+00 0. -1.
<scales pt_clust_5="13000.00000" pt_clust_6="13000.00000" pt_clust_7="13000.00000" pt_clust_8="13000.00000" pt_clust_9="42.47297"></scales>
<clustering>
<clus scale="   42.473">  2  9  1 -1</clus>
<clus scale="   92.538">  5  6 -1 -1</clus>
<clus scale="   92.624">  7  8 -1 -1</clus>
<clus scale="  153.359">  1  5  2 -1</clus>
<clus scale="   42.473">  2  5  1 -1</clus>
</clustering>
</event>
<event>
 9    1  0.1881049E-005  0.1091236E+03  0.7546771E-02  0.1263953E+00
          1   -1    0    0  502    0 -0.00000000000E+00  0.00000000000E+00  0.48819688163E+03  0.48819688163E+03  0.00000000000E+00 0. -1.
         21   -1    0    0  501  502  0.00000000000E+00 -0.00000000000E+00 -0.91468425602E+02  0.91468425602E+02  0.00000000000E+00 0.  1.
         23    2    1    2    0    0  0.58469371343E+02 -0.65960716452E+01  0.42021362828E+03  0.43442425560E+03  0.93181354956E+02 0.  0.
         23    2    1    2    0    0 -0.35994357020E+02 -0.12826532635E+02 -0.46832522533E+02  0.10745927572E+03  0.88848731536E+02 0.  0.
        -11    1    3    3    0    0  0.80726312262E+01  0.30421333854E+02  0.50832323586E+02  0.59787540922E+02  0.00000000000E+00 0.  1.
         11    1    3    3    0    0  0.50396740117E+02 -0.37017405499E+02  0.36938130470E+03  0.37463671468E+03  0.00000000000E+00 0. -1.
        -13    1    4    4    0    0 -0.26966862537E+02  0.36051850894E+02 -0.33137490836E+02  0.55902065498E+02  0.00000000000E+00 0.  1.
         13    1    4    4    0    0 -0.90274944825E+01 -0.48878383530E+02 -0.13695031697E+02  0.51557210226E+02  0.00000000000E+00 0. -1.
          1    1    1    2  501    0 -0.22475014323E+02  0.19422604281E+02  0.23347350281E+02  0.37781775912E+02  0.00000000000E+00 0. -1.
<scales pt_clust_5="13000.00000" pt_clust_6="13000.00000" pt_clust_7="13000.00000" pt_clust_8="13000.00000" pt_clust_9="29.70461"></scales>
<clustering>
<clus scale="   29.705">  2  9  1 -1</clus>
<clus scale="   88.849">  7  8 -1 -1</clus>
<clus scale="   93.181">  5  6 -1 -1</clus>
<clus scale="  105.448">  2  7  1 -1</clus>
<clus scale="   29.705">  2  5  1 -1</clus>
</clustering>
</event>
<event>
 9    1  0.1881049E-005  0.1169683E+03  0.7546771E-02  0.1248794E+00
         21   -1    0    0  501  502  0.00000000000E+00  0.00000000000E+00  0.88375354968E+02  0.88375354968E+02  0.00000000000E+00 0.  1.
          2   -1    0    0  502    0 -0.00000000000E+00 -0.00000000000E+00 -0.28824338755E+03  0.28824338755E+03  0.00000000000E+00 0. -1.
         23    2    1    2    0    0 -0.51774851674E+01 -0.82823044128E+02 -0.14669298914E+03  0.19119423367E+03  0.90277012210E+02 0.  0.
         23    2    1    2    0    0 -0.29408434100E+00  0.42534187514E+02  0.18413082529E+02  0.10309596083E+03  0.92089586475E+02 0.  0.
        -11    1    4    4    0    0 -0.83375216878E+01 -0.27249483117E+02 -0.52414112082E+01  0.28974488598E+02  0.00000000000E+00 0.  1.
         11    1    4    4    0    0  0.80434373468E+01  0.69783670632E+02  0.23654493737E+02  0.74121472227E+02  0.00000000000E+00 0. -1.
        -13    1    3    3    0    0 -0.33066080169E+02 -0.40013865226E+01 -0.70943031821E+02  0.78372766417E+02  0.00000000000E+00 0. -1.
         13    1    3    3    0    0  0.27888595002E+02 -0.78821657605E+02 -0.75749957323E+02  0.11282146725E+03  0.00000000000E+00 0.  1.
          2    1    1    2  501    0  0.54715695084E+01  0.40288856614E+02 -0.71588125964E+02  0.82328548020E+02  0.00000000000E+00 0. -1.
<scales pt_clust_5="13000.00000" pt_clust_6="13000.00000" pt_clust_7="13000.00000" pt_clust_8="13000.00000" pt_clust_9="40.65872"></scales>
<clustering>
<clus scale="   40.659">  1  9  2 -1</clus>
<clus scale="   90.277">  7  8 -1 -1</clus>
<clus scale="   92.090">  5  6 -1 -1</clus>
<clus scale="  115.547">  2  7  1 -1</clus>
<clus scale="   40.659">  1  5  2 -1</clus>
</clustering>
</event>
<event>
 9    1  0.1881049E-005  0.1487746E+03  0.7546771E-02  0.1201988E+00
         21   -1    0    0  501  502  0.00000000000E+00  0.00000000000E+00  0.26274242221E+03  0.26274242221E+03  0.00000000000E+00 0. -1.
          1   -1    0    0  502    0 -0.00000000000E+00 -0.00000000000E+00 -0.46053482449E+03  0.46053482449E+03  0.00000000000E+00 0. -1.
         23    2    1    2    0    0 -0.12587041335E+03 -0.35759391015E+02 -0.35385730589E+03  0.38833237659E+03  0.92005145355E+02 0.  0.
         23    2    1    2    0    0  0.45729022363E+02  0.83498581650E+02 -0.21726910781E+02  0.13416737601E+03  0.92009072980E+02 0.  0.
        -11    1    3    3    0    0 -0.80973203187E+02 -0.67131787115E+02 -0.23413745846E+03  0.25667817580E+03  0.00000000000E+00 0. -1.
         11    1    3    3    0    0 -0.44897210166E+02  0.31372396101E+02 -0.11971984742E+03  0.13165420079E+03  0.00000000000E+00 0.  1.
        -11    1    4    4    0    0  0.42033167345E+02  0.12836885444E+02 -0.41762298713E+02  0.60627241227E+02  0.00000000000E+00 0.  1.
         11    1    4    4    0    0  0.36958550180E+01  0.70661696206E+02  0.20035387932E+02  0.73540134787E+02  0.00000000000E+00 0. -1.
          1    1    1    2  501    0  0.80141390990E+02 -0.47739190635E+02  0.17779181439E+03  0.20077749409E+03  0.00000000000E+00 0. -1.
<scales pt_clust_5="13000.00000" pt_clust_6="13000.00000" pt_clust_7="13000.00000" pt_clust_8="13000.00000" pt_clust_9="93.28276"></scales>
<clustering>
<clus scale="   92.005">  5  6 -1 -1</clus>
<clus scale="   92.009">  7  8 -1 -1</clus>
<clus scale="   93.283">  1  9  2 -1</clus>
<clus scale="  148.772">  2  5  1 -1</clus>
<clus scale="   93.283">  1  5  2 -1</clus>
</clustering>
</event>
<event>
 9    1  0.1881049E-005  0.9891820E+02  0.7546771E-02  0.1286262E+00
          4   -1    0    0  502    0 -0.00000000000E+00  0.00000000000E+00  0.24182621748E+03  0.24182621748E+03  0.00000000000E+00 0. -1.
         21   -1    0    0  501  502  0.00000000000E+00 -0.00000000000E+00 -0.87366410982E+02  0.87366410982E+02  0.00000000000E+00 0.  1.
         23    2    1    2    0    0  0.37030176605E+02 -0.13255467460E+02  0.15698165527E+03  0.18237993902E+03  0.84096733989E+02 0.  0.
         23    2    1    2    0    0 -0.12562914386E+02  0.48253387171E+02 -0.34617521356E+00  0.10405482630E+03  0.91329463195E+02 0.  0.
        -11    1    3    3    0    0  0.24698779662E+02  0.30944720648E+02  0.38092021940E+02  0.54941856432E+02  0.00000000000E+00 0.  1.
         11    1    3    3    0    0  0.12331396943E+02 -0.44200188108E+02  0.11888963334E+03  0.12743808259E+03  0.00000000000E+00 0. -1.
        -11    1    4    4    0    0 -0.35489396888E+02  0.64995993334E+02 -0.84431974267E+01  0.74533643570E+02  0.00000000000E+00 0.  1.
         11    1    4    4    0    0  0.22926482502E+02 -0.16742606163E+02  0.80970222132E+01  0.29521182730E+02  0.00000000000E+00 0. -1.
          4    1    1    2  501    0 -0.24467262219E+02 -0.34997919711E+02 -0.21756735666E+01  0.42757863137E+02  0.00000000000E+00 0. -1.
<scales pt_clust_5="13000.00000" pt_clust_6="13000.00000" pt_clust_7="13000.00000" pt_clust_8="13000.00000" pt_clust_9="42.70247"></scales>
<clustering>
<clus scale="   42.702">  2  9  1 -1</clus>
<clus scale="   84.097">  5  6 -1 -1</clus>
<clus scale="   91.329">  7  8 -1 -1</clus>
<clus scale="   92.282">  1  5  2 -1</clus>
<clus scale="   42.702">  2  5  1 -1</clus>
</clustering>
</event>
<event>
 9    1  0.1881049E-005  0.1062718E+03  0.7546771E-02  0.1267882E+00
          1   -1    0    0  502    0 -0.00000000000E+00  0.00000000000E+00  0.22518478438E+03  0.22518478438E+03  0.00000000000E+00 0. -1.
         21   -1    0    0  501  502  0.00000000000E+00 -0.00000000000E+00 -0.15369520838E+03  0.15369520838E+03  0.00000000000E+00 0. -1.
         23    2    1    2    0    0 -0.50325188352E+02  0.76880778520E+01  0.15801123826E+03  0.18971710530E+03  0.91832987011E+02 0.  0.
         23    2    1    2    0    0  0.52205157055E+02 -0.37733723133E+02 -0.17687018850E+02  0.11403311163E+03  0.92420277147E+02 0.  0.
        -11    1    4    4    0    0 -0.19015010468E+02 -0.33119769768E+02 -0.18991568692E+02  0.42651722755E+02  0.00000000000E+00 0. -1.
         11    1    4    4    0    0  0.71220167523E+02 -0.46139533651E+01  0.13045498423E+01  0.71381388877E+02  0.00000000000E+00 0.  1.
        -13    1    3    3    0    0 -0.65737032639E+02 -0.63499611910E+01  0.15521787823E+03  0.16868393281E+03  0.00000000000E+00 0. -1.
         13    1    3    3    0    0  0.15411844287E+02  0.14038039043E+02  0.27933600269E+01  0.21033172484E+02  0.00000000000E+00 0.  1.
          1    1    1    2  501    0 -0.18799687028E+01  0.30045645281E+02 -0.68834643413E+02  0.75129775831E+02  0.00000000000E+00 0. -1.
<scales pt_clust_5="13000.00000" pt_clust_6="13000.00000" pt_clust_7="13000.00000" pt_clust_8="13000.00000" pt_clust_9="30.10440"></scales>
<clustering>
<clus scale="   30.104">  2  9  1 -1</clus>
<clus scale="   91.833">  7  8 -1 -1</clus>
<clus scale="   92.420">  5  6 -1 -1</clus>
<clus scale="  105.761">  1  7  2 -1</clus>
<clus scale="   30.104">  2  5  1 -1</clus>
</clustering>
</event>
<event>
 9    1  0.1881049E-005  0.1173740E+03  0.7546771E-02  0.1258482E+00
         -2   -1    0    0    0  501 -0.00000000000E+00  0.00000000000E+00  0.41741449599E+03  0.41741449599E+03  0.00000000000E+00 0.  1.
         21   -1    0    0  501  502  0.00000000000E+00 -0.00000000000E+00 -0.20335601739E+03  0.20335601739E+03  0.00000000000E+00 0.  1.
         23    2    1    2    0    0 -0.34996834412E+01  0.15246009606E+02  0.26848740251E+03  0.28478836071E+03  0.93670894606E+02 0.  0.
         23    2    1    2    0    0 -0.39953130730E+02  0.11249894996E+02  0.10882758122E+03  0.16497669519E+03  0.11683772820E+03 0.  0.
        -11    1    4    4    0    0 -0.78151682510E+02  0.23490336209E+02  0.87108139016E+02  0.11936209305E+03  0.00000000000E+00 0.  1.
         11    1    4    4    0    0  0.38198551780E+02 -0.12240441213E+02  0.21719442203E+02  0.45614602144E+02  0.00000000000E+00 0. -1.
        -13    1    3    3    0    0 -0.60835495643E+01  0.47094948033E+02  0.22958874059E+03  0.23444814674E+03  0.00000000000E+00 0.  1.
         13    1    3    3    0    0  0.25838661231E+01 -0.31848938428E+02  0.38898661922E+02  0.50340213969E+02  0.00000000000E+00 0. -1.
         -2    1    1    2    0  502  0.43452814171E+02 -0.26495904601E+02 -0.16325650512E+03  0.17100545747E+03  0.00000000000E+00 0.  1.
<scales pt_clust_5="13000.00000" pt_clust_6="13000.00000" pt_clust_7="13000.00000" pt_clust_8="13000.00000" pt_clust_9="50.89381"></scales>
<clustering>
<clus scale="   50.894">  2  9  1 -1</clus>
<clus scale="   93.671">  7  8 -1 -1</clus>
<clus scale="   94.339">  1  7  2 -1</clus>
<clus scale="  116.838">  5  6 -1 -1</clus>
<clus scale="   50.894">  2  5  1 -1</clus>
</clustering>
</event>
<event>
 9    1  0.1881049E-005  0.3207543E+03  0.7546771E-02  0.1101489E+00
         21   -1    0    0  501  502  0.00000000000E+00  0.00000000000E+00  0.95751906061E+03  0.95751906061E+03  0.00000000000E+00 0. -1.
          2   -1    0    0  502    0 -0.00000000000E+00 -0.00000000000E+00 -0.47981987781E+03  0.47981987781E+03  0.00000000000E+00 0. -1.
         23    2    1    2    0    0 -0.50691436540E+02  0.12224710785E+03 -0.20328218862E+03  0.25880218386E+03  0.90227185711E+02 0.  0.
         23    2    1    2    0    0 -0.26285816503E+03 -0.10801754758E+03 -0.11734372908E+03  0.32072628649E+03  0.91288523850E+02 0.  0.
        -11    1    4    4    0    0 -0.45881139734E+02 -0.27055444963E+02  0.13202841379E+02  0.54876143322E+02  0.00000000000E+00 0.  1.
         11    1    4    4    0    0 -0.21697702529E+03 -0.80962102613E+02 -0.13054657046E+03  0.26585014317E+03  0.00000000000E+00 0. -1.
        -13    1    3    3    0    0 -0.71992281520E+02  0.11469997744E+03 -0.18727916382E+03  0.23111135546E+03  0.00000000000E+00 0. -1.
         13    1    3    3    0    0  0.21300844979E+02  0.75471304096E+01 -0.16003024806E+02  0.27690828395E+02  0.00000000000E+00 0.  1.
          2    1    1    2  501    0  0.31354960157E+03 -0.14229560272E+02  0.79832510050E+03  0.85781046806E+03  0.00000000000E+00 0. -1.
<scales pt_clust_5="13000.00000" pt_clust_6="13000.00000" pt_clust_7="13000.00000" pt_clust_8="13000.00000" pt_clust_9="307.48942"></scales>
<clustering>
<clus scale="   90.227">  7  8 -1 -1</clus>
<clus scale="   91.289">  5  6 -1 -1</clus>
<clus scale="  160.172">  2  7  1 -1</clus>
<clus scale="  307.489">  1  9  2 -1</clus>
<clus scale="  307.489">  1  5  2 -1</clus>
</clustering>
</event>
<event>
 9    1  0.1881049E-005  0.9588849E+02  0.7546771E-02  0.1290195E+00
         21   -1    0    0  501  502  0.00000000000E+00  0.00000000000E+00  0.27903921006E+03  0.27903921006E+03  0.00000000000E+00 0.  1.
         -2   -1    0    0    0  501 -0.00000000000E+00 -0.00000000000E+00 -0.18264087819E+03  0.18264087819E+03  0.00000000000E+00 0.  1.
         23    2    1    2    0    0  0.43843724332E+01  0.35703540178E+02 -0.10347118714E+03  0.14342064043E+03  0.92570124936E+02 0.  0.
         23    2    1    2    0    0  0.42953067278E+01 -0.58418138734E+01 -0.22488029099E+02  0.93737870391E+02  0.90711082252E+02 0.  0.
        -13    1    4    4    0    0  0.35163497491E+02 -0.32067128582E+02 -0.23806289842E+02  0.53211950982E+02  0.00000000000E+00 0.  1.
         13    1    4    4    0    0 -0.30868190763E+02  0.26225314709E+02  0.13182607424E+01  0.40525919409E+02  0.00000000000E+00 0. -1.
        -13    1    3    3    0    0  0.28293895307E+02  0.50184203579E+02 -0.99790694922E+02  0.11522665314E+03  0.00000000000E+00 0.  1.
         13    1    3    3    0    0 -0.23909522874E+02 -0.14480663401E+02 -0.36804922207E+01  0.28193987295E+02  0.00000000000E+00 0. -1.
         -2    1    1    2    0  502 -0.86796791610E+01 -0.29861726304E+02  0.22235754811E+03  0.22452157743E+03  0.00000000000E+00 0.  1.
<scales pt_clust_5="13000.00000" pt_clust_6="13000.00000" pt_clust_7="13000.00000" pt_clust_8="13000.00000" pt_clust_9="31.09758"></scales>
<clustering>
<clus scale="   31.098">  1  9  2 -1</clus>
<clus scale="   90.711">  5  6 -1 -1</clus>
<clus scale="   92.570">  7  8 -1 -1</clus>
<clus scale="   94.095">  1  5  2 -1</clus>
<clus scale="   31.098">  1  5  2 -1</clus>
</clustering>
</event>
<event>
 9    1  0.1881049E-005  0.3298829E+03  0.7546771E-02  0.1071190E+00
         21   -1    0    0  501  502  0.00000000000E+00  0.00000000000E+00  0.11080339179E+04  0.11080339179E+04  0.00000000000E+00 0.  1.
         -2   -1    0    0    0  501 -0.00000000000E+00 -0.00000000000E+00 -0.23874463519E+03  0.23874463519E+03  0.00000000000E+00 0.  1.
         23    2    1    2    0    0  0.26310417361E+03 -0.16134251237E+03 -0.30249266960E+02  0.32338502829E+03  0.91693216209E+02 0.  0.
         23    2    1    2    0    0 -0.33515416017E+03  0.11981090250E+03  0.53238491673E+03  0.64693919111E+03  0.91725972273E+02 0.  0.
        -13    1    4    4    0    0 -0.25272650993E+03  0.81456392760E+02  0.45828793510E+03  0.52965428744E+03  0.00000000000E+00 0.  1.
         13    1    4    4    0    0 -0.82427650248E+02  0.38354509740E+02  0.74096981635E+02  0.11728490368E+03  0.00000000000E+00 0. -1.
        -13    1    3    3    0    0  0.24897654317E+03 -0.14016433710E+03 -0.51377633435E+02  0.29030160465E+03  0.00000000000E+00 0.  1.
         13    1    3    3    0    0  0.14127630437E+02 -0.21178175270E+02  0.21128366475E+02  0.33083423636E+02  0.00000000000E+00 0. -1.
         -2    1    1    2    0  502  0.72049986564E+02  0.41531609873E+02  0.36715363293E+03  0.37645433369E+03  0.00000000000E+00 0.  1.
<scales pt_clust_5="13000.00000" pt_clust_6="13000.00000" pt_clust_7="13000.00000" pt_clust_8="13000.00000" pt_clust_9="83.16294"></scales>
<clustering>
<clus scale="   83.163">  1  9  2 -1</clus>
<clus scale="   91.693">  7  8 -1 -1</clus>
<clus scale="   91.726">  5  6 -1 -1</clus>
<clus scale="  329.874">  2  7  1 -1</clus>
<clus scale="   83.163">  1  5  2 -1</clus>
</clustering>
</event>
<event>
 9    1  0.1881049E-005  0.9562566E+02  0.7546771E-02  0.1295517E+00
         21   -1    0    0  501  502  0.00000000000E+00  0.00000000000E+00  0.13165281720E+03  0.13165281720E+03  0.00000000000E+00 0. -1.
         -2   -1    0    0    0  501 -0.00000000000E+00 -0.00000000000E+00 -0.93373207896E+02  0.93373207896E+02  0.00000000000E+00 0.  1.
         23    2    1    2    0    0  0.26019023651E+02  0.26032902422E+02 -0.87489950359E+01  0.89941811129E+02  0.81598301911E+02 0.  0.
         23    2    1    2    0    0 -0.18332655330E+02  0.55866748078E+01  0.30500896247E+02  0.98587048915E+02  0.91770389314E+02 0.  0.
        -11    1    4    4    0    0  0.12636165064E+02  0.29150157001E+02  0.46661377846E+02  0.56450761760E+02  0.00000000000E+00 0. -1.
         11    1    4    4    0    0 -0.30968820394E+02 -0.23563482194E+02 -0.16160481599E+02  0.42136287155E+02  0.00000000000E+00 0.  1.
        -13    1    3    3    0    0  0.35091751600E+01 -0.24511250030E+02 -0.21915695803E+02  0.33066802247E+02  0.00000000000E+00 0.  1.
         13    1    3    3    0    0  0.22509848491E+02  0.50544152452E+02  0.13166700767E+02  0.56875008882E+02  0.00000000000E+00 0. -1.
         -2    1    1    2    0  502 -0.76863683206E+01 -0.31619577230E+02  0.16527708093E+02  0.36497165054E+02  0.00000000000E+00 0.  1.
<scales pt_clust_5="13000.00000" pt_clust_6="13000.00000" pt_clust_7="13000.00000" pt_clust_8="13000.00000" pt_clust_9="32.54040"></scales>
<clustering>
<clus scale="   32.540">  1  9  2 -1</clus>
<clus scale="   81.598">  7  8 -1 -1</clus>
<clus scale="   85.911">  2  7  1 -1</clus>
<clus scale="   91.770">  5  6 -1 -1</clus>
<clus scale="   32.540">  1  5  2 -1</clus>
</clustering>
</event>
<event>
 9    1  0.1881049E-005  0.1358716E+03  0.7546771E-02  0.1220755E+00
         21   -1    0    0  501  502  0.00000000000E+00  0.00000000000E+00  0.53533600034E+02  0.53533600034E+02  0.00000000000E+00 0. -1.
         -4   -1    0    0    0  501 -0.00000000000E+00 -0.00000000000E+00 -0.45050713302E+03  0.45050713302E+03  0.00000000000E+00 0.  1.
         23    2    1    2    0    0  0.10138929173E+02 -0.10376655841E+03 -0.27364133061E+03  0.30390552678E+03  0.81293879592E+02 0.  0.
         23    2    1    2    0    0 -0.31765542093E+02  0.95735762813E+02 -0.10426495504E+03  0.17020588979E+03  0.89019537874E+02 0.  0.
        -13    1    4    4    0    0  0.19851091626E+02  0.19290718205E+02  0.40087571502E+01  0.27969050422E+02  0.00000000000E+00 0.  1.
         13    1    4    4    0    0 -0.51616633719E+02  0.76445044609E+02 -0.10827371219E+03  0.14223683937E+03  0.00000000000E+00 0. -1.
        -13    1    3    3    0    0  0.52600128170E+00 -0.51852027700E+02 -0.22890181738E+03  0.23470183521E+03  0.00000000000E+00 0.  1.
         13    1    3    3    0    0  0.96129278910E+01 -0.51914530714E+02 -0.44739513229E+02  0.69203691563E+02  0.00000000000E+00 0. -1.
         -4    1    1    2    0  502  0.21626612921E+02  0.80307956012E+01 -0.19067247340E+02  0.29929316489E+02  0.00000000000E+00 0.  1.
<scales pt_clust_5="13000.00000" pt_clust_6="13000.00000" pt_clust_7="13000.00000" pt_clust_8="13000.00000" pt_clust_9="23.06955"></scales>
<clustering>
<clus scale="   23.070">  1  9  2 -1</clus>
<clus scale="   81.294">  7  8 -1 -1</clus>
<clus scale="   89.020">  5  6 -1 -1</clus>
<clus scale="  130.940">  2  7  1 -1</clus>
<clus scale="   23.070">  1  5  2 -1</clus>
</clustering>
</event>
<event>
 9    1  0.1881049E-005  0.1076496E+03  0.7546771E-02  0.1265854E+00
          3   -1    0    0  502    0 -0.00000000000E+00  0.00000000000E+00  0.20299164724E+03  0.20299164724E+03  0.00000000000E+00 0. -1.
         21   -1    0    0  501  502  0.00000000000E+00 -0.00000000000E+00 -0.20108217130E+03  0.20108217130E+03  0.00000000000E+00 0. -1.
         23    2    1    2    0    0  0.56938476523E+02 -0.12041102658E+02  0.12017554728E+03  0.16234005655E+03  0.92331757996E+02 0.  0.
         23    2    1    2    0    0 -0.37680067383E+02 -0.27331309759E+02 -0.15449780707E+03  0.18486714738E+03  0.90219187659E+02 0.  0.
        -11    1    4    4    0    0 -0.25747569119E+02 -0.60722593208E+02 -0.10443489313E+03  0.12351849069E+03  0.00000000000E+00 0. -1.
         11    1    4    4    0    0 -0.11932498264E+02  0.33391283448E+02 -0.50062913943E+02  0.61348656690E+02  0.00000000000E+00 0.  1.
        -13    1    3    3    0    0 -0.25382081477E+02 -0.79720197635E+00  0.20935205606E+02  0.32911524195E+02  0.00000000000E+00 0.  1.
         13    1    3    3    0    0  0.82320558000E+02 -0.11243900681E+02  0.99240341672E+02  0.12942853235E+03  0.00000000000E+00 0. -1.
          3    1    1    2  501    0 -0.19258409140E+02  0.39372412417E+02  0.36231735732E+02  0.56866614602E+02  0.00000000000E+00 0. -1.
<scales pt_clust_5="13000.00000" pt_clust_6="13000.00000" pt_clust_7="13000.00000" pt_clust_8="13000.00000" pt_clust_9="43.83007"></scales>
<clustering>
<clus scale="   43.830">  2  9  1 -1</clus>
<clus scale="   90.219">  5  6 -1 -1</clus>
<clus scale="   92.332">  7  8 -1 -1</clus>
<clus scale="  105.843">  2  5  1 -1</clus>
<clus scale="   43.830">  2  5  1 -1</clus>
</clustering>
</event>
<event>
 9    1  0.1881049E-005  0.1112805E+03  0.7546771E-02  0.1260068E+00
          1   -1    0    0  502    0 -0.00000000000E+00  0.00000000000E+00  0.30888340543E+03  0.30888340543E+03  0.00000000000E+00 0. -1.
         21   -1    0    0  501  502  0.00000000000E+00 -0.00000000000E+00 -0.66179683455E+02  0.66179683455E+02  0.00000000000E+00 0.  1.
         23    2    1    2    0    0  0.38892356586E+02  0.39264228111E+02  0.17995652069E+03  0.21103282036E+03  0.95374036921E+02 0.  0.
         23    2    1    2    0    0 -0.56605924697E+02 -0.28066490205E+02  0.80357538399E+02  0.13665721968E+03  0.90696764717E+02 0.  0.
        -11    1    4    4    0    0 -0.12187235770E+02  0.31857956756E+02  0.37238560618E+02  0.50499193273E+02  0.00000000000E+00 0. -1.
         11    1    4    4    0    0 -0.44418688927E+02 -0.59924446961E+02  0.43118977781E+02  0.86158026408E+02  0.00000000000E+00 0.  1.
        -13    1    3    3    0    0  0.69672029002E+01  0.61171264663E+02  0.64100627784E+02  0.88878321423E+02  0.00000000000E+00 0.  1.
         13    1    3    3    0    0  0.31925153686E+02 -0.21907036552E+02  0.11585589291E+03  0.12215449893E+03  0.00000000000E+00 0. -1.
          1    1    1    2  501    0  0.17713568111E+02 -0.11197737906E+02 -0.17610337120E+02  0.27373048842E+02  0.00000000000E+00 0. -1.
<scales pt_clust_5="13000.00000" pt_clust_6="13000.00000" pt_clust_7="13000.00000" pt_clust_8="13000.00000" pt_clust_9="20.95614"></scales>
<clustering>
<clus scale="   20.956">  2  9  1 -1</clus>
<clus scale="   90.697">  5  6 -1 -1</clus>
<clus scale="   95.374">  7  8 -1 -1</clus>
<clus scale="  107.299">  2  5  1 -1</clus>
<clus scale="   20.956">  2  5  1 -1</clus>
</clustering>
</event>
<event>
 9    1  0.1881049E-005  0.1314721E+03  0.7546771E-02  0.1226186E+00
         21   -1    0    0  501  502  0.00000000000E+00  0.00000000000E+00  0.36757362516E+03  0.36757362516E+03  0.00000000000E+00 0. -1.
          2   -1    0    0  502    0 -0.00000000000E+00 -0.00000000000E+00 -0.95575492903E+02  0.95575492903E+02  0.00000000000E+00 0. -1.
         23    2    1    2    0    0  0.67144106056E+01 -0.78468900446E+02  0.17931633835E+02  0.12297180535E+03  0.92725777275E+02 0.  0.
         23    2    1    2    0    0  0.21681123693E+02  0.13191046779E+03  0.15031673857E+03  0.22006769546E+03  0.89242512592E+02 0.  0.
        -11    1    4    4    0    0 -0.17825760212E+02  0.99151584537E+02  0.13094121957E+03  0.16521016139E+03  0.00000000000E+00 0. -1.
         11    1    4    4    0    0  0.39506883905E+02  0.32758883252E+02  0.19375518998E+02  0.54857534070E+02  0.00000000000E+00 0.  1.
        -13    1    3    3    0    0  0.48258612721E+02 -0.57536490038E+02  0.12643254651E+02  0.76152434470E+02  0.00000000000E+00 0. -1.
         13    1    3    3    0    0 -0.41544202115E+02 -0.20932410408E+02  0.52883791840E+01  0.46819370876E+02  0.00000000000E+00 0.  1.
          2    1    1    2  501    0 -0.28395534298E+02 -0.53441567344E+02  0.10374975985E+03  0.12010961726E+03  0.00000000000E+00 0. -1.
<scales pt_clust_5="13000.00000" pt_clust_6="13000.00000" pt_clust_7="13000.00000" pt_clust_8="13000.00000" pt_clust_9="60.51700"></scales>
<clustering>
<clus scale="   60.517">  1  9  2 -1</clus>
<clus scale="   89.243">  5  6 -1 -1</clus>
<clus scale="   92.726">  7  8 -1 -1</clus>
<clus scale="  129.039">  1  5  2 -1</clus>
<clus scale="   60.517">  1  5  2 -1</clus>
</clustering>
</event>
<event>
 9    1  0.1881049E-005  0.1072459E+03  0.7546771E-02  0.1266542E+00
          2   -1    0    0  502    0 -0.00000000000E+00  0.00000000000E+00  0.43006958188E+02  0.43006958188E+02  0.00000000000E+00 0. -1.
         21   -1    0    0  501  502  0.00000000000E+00 -0.00000000000E+00 -0.39996374047E+03  0.39996374047E+03  0.00000000000E+00 0.  1.
         23    2    1    2    0    0  0.59239982778E+02  0.13645904893E+02 -0.64865330610E+02  0.12637134377E+03  0.89814359266E+02 0.  0.
         23    2    1    2    0    0 -0.42922155195E+02 -0.12647153142E+01 -0.23302030341E+03  0.25407763140E+03  0.91722789214E+02 0.  0.
        -11    1    3    3    0    0  0.79905605076E+02 -0.49411395060E+01 -0.53794649953E+02  0.96453019371E+02  0.00000000000E+00 0. -1.
         11    1    3    3    0    0 -0.20665622298E+02  0.18587044399E+02 -0.11070680657E+02  0.29918324396E+02  0.00000000000E+00 0.  1.
        -13    1    4    4    0    0 -0.71993927714E+01  0.31425583116E+02 -0.17751502867E+03  0.18041891236E+03  0.00000000000E+00 0.  1.
         13    1    4    4    0    0 -0.35722762424E+02 -0.32690298431E+02 -0.55505274740E+02  0.73658719040E+02  0.00000000000E+00 0. -1.
          2    1    1    2  501    0 -0.16317827583E+02 -0.12381189579E+02 -0.59071148260E+02  0.62521723498E+02  0.00000000000E+00 0. -1.
<scales pt_clust_5="13000.00000" pt_clust_6="13000.00000" pt_clust_7="13000.00000" pt_clust_8="13000.00000" pt_clust_9="20.48329"></scales>
<clustering>
<clus scale="   20.483">  2  9  1 -1</clus>
<clus scale="   89.814">  5  6 -1 -1</clus>
<clus scale="   91.723">  7  8 -1 -1</clus>
<clus scale="  105.618">  1  5  2 -1</clus>
<clus scale="   20.483">  2  5  1 -1</clus>
</clustering>
</event>
<event>
 9    1  0.1881049E-005  0.1006726E+03  0.7546771E-02  0.1279127E+00
         21   -1    0    0  501  502  0.00000000000E+00  0.00000000000E+00  0.14023482887E+03  0.14023482887E+03  0.00000000000E+00 0. -1.
          2   -1    0    0  502    0 -0.00000000000E+00 -0.00000000000E+00 -0.30305582420E+03  0.30305582420E+03  0.00000000000E+00 0. -1.
         23    2    1    2    0    0  0.32998585202E+02 -0.38987306628E+02 -0.14887999888E+03  0.18232035920E+03  0.92013817497E+02 0.  0.
         23    2    1    2    0    0 -0.16016410648E+02  0.26101857810E+02 -0.11931873184E+03  0.15345798685E+03  0.91512630651E+02 0.  0.
        -11    1    4    4    0    0 -0.45112097143E+02 -0.10626505701E+02 -0.79241183253E+02  0.91799722524E+02  0.00000000000E+00 0. -1.
         11    1    4    4    0    0  0.29095686495E+02  0.36728363511E+02 -0.40077548582E+02  0.61658264322E+02  0.00000000000E+00 0.  1.
        -13    1    3    3    0    0  0.57840528057E+02 -0.43075696544E+02 -0.13623729701E+03  0.15414812167E+03  0.00000000000E+00 0.  1.
         13    1    3    3    0    0 -0.24841942855E+02  0.40883899165E+01 -0.12642701870E+02  0.28172237531E+02  0.00000000000E+00 0. -1.
          2    1    1    2  501    0 -0.16982174554E+02  0.12885448818E+02  0.10537773539E+03  0.10751230701E+03  0.00000000000E+00 0. -1.
<scales pt_clust_5="13000.00000" pt_clust_6="13000.00000" pt_clust_7="13000.00000" pt_clust_8="13000.00000" pt_clust_9="21.31734"></scales>
<clustering>
<clus scale="   21.317">  1  9  2 -1</clus>
<clus scale="   91.513">  5  6 -1 -1</clus>
<clus scale="   92.014">  7  8 -1 -1</clus>
<clus scale="  100.215">  1  5  2 -1</clus>
<clus scale="   21.317">  1  5  2 -1</clus>
</clustering>
</event>
<event>
 9    1  0.1881049E-005  0.9456394E+02  0.7546771E-02  0.1293812E+00
         -2   -1    0    0    0  501 -0.00000000000E+00  0.00000000000E+00  0.11454010090E+03  0.11454010090E+03  0.00000000000E+00 0.  1.
         21   -1    0    0  501  502  0.00000000000E+00 -0.00000000000E+00 -0.28490554301E+03  0.28490554301E+03  0.00000000000E+00 0.  1.
         23    2    1    2    0    0  0.32543805245E+02 -0.17577204182E+02  0.32027871392E+02  0.10209028948E+03  0.89602373254E+02 0.  0.
         23    2    1    2    0    0 -0.41181830233E+00 -0.19163272072E+02 -0.56706802310E+01  0.94668103679E+02  0.92533737896E+02 0.  0.
        -11    1    3    3    0    0  0.39640518793E+02  0.27863644102E+02  0.27904002606E+02  0.55914101569E+02  0.00000000000E+00 0. -1.
         11    1    3    3    0    0 -0.70967135480E+01 -0.45440848283E+02  0.41238687862E+01  0.46176187907E+02  0.00000000000E+00 0.  1.
        -13    1    4    4    0    0  0.45035333092E+02 -0.13024167886E+02  0.62202622081E+01  0.47291667741E+02  0.00000000000E+00 0.  1.
         13    1    4    4    0    0 -0.45447151394E+02 -0.61391041869E+01 -0.11890942439E+02  0.47376435938E+02  0.00000000000E+00 0. -1.
         -2    1    1    2    0  502 -0.32131986942E+02  0.36740476254E+02 -0.19672263327E+03  0.20268725076E+03  0.00000000000E+00 0.  1.
<scales pt_clust_5="13000.00000" pt_clust_6="13000.00000" pt_clust_7="13000.00000" pt_clust_8="13000.00000" pt_clust_9="48.80909"></scales>
<clustering>
<clus scale="   48.809">  2  9  1 -1</clus>
<clus scale="   89.602">  5  6 -1 -1</clus>
<clus scale="   91.697">  1  5  2 -1</clus>
<clus scale="   92.534">  7  8 -1 -1</clus>
<clus scale="   48.809">  2  5  1 -1</clus>
</clustering>
</event>
<event>
 9    1  0.1881049E-005  0.1001250E+03  0.7546771E-02  0.1283295E+00
          1   -1    0    0  502    0 -0.00000000000E+00  0.00000000000E+00  0.31048253843E+03  0.31048253843E+03  0.00000000000E+00 0. -1.
         21   -1    0    0  501  502  0.00000000000E+00 -0.00000000000E+00 -0.63278397476E+02  0.63278397476E+02  0.00000000000E+00 0.  1.
         23    2    1    2    0    0  0.12425818656E+02 -0.16547744916E+02  0.20998972232E+03  0.23269616841E+03  0.98099920905E+02 0.  0.
         23    2    1    2    0    0 -0.26280023896E+02 -0.10787625189E+01  0.56848415674E+02  0.11126331440E+03  0.91956399352E+02 0.  0.
        -11    1    4    4    0    0  0.18198789347E+02  0.29502363641E+02  0.43569172063E+02  0.55676369748E+02  0.00000000000E+00 0. -1.
         11    1    4    4    0    0 -0.44478813243E+02 -0.30581126160E+02  0.13279243611E+02  0.55586944650E+02  0.00000000000E+00 0.  1.
        -11    1    3    3    0    0 -0.37807143188E+02 -0.25151480399E+02  0.13142904352E+03  0.13905240208E+03  0.00000000000E+00 0.  1.
         11    1    3    3    0    0  0.50232961843E+02  0.86037354831E+01  0.78560678797E+02  0.93643766332E+02  0.00000000000E+00 0. -1.
          1    1    1    2  501    0  0.13854205241E+02  0.17626507435E+02 -0.19633997037E+02  0.29801453100E+02  0.00000000000E+00 0. -1.
<scales pt_clust_5="13000.00000" pt_clust_6="13000.00000" pt_clust_7="13000.00000" pt_clust_8="13000.00000" pt_clust_9="22.41947"></scales>
<clustering>
<clus scale="   22.419">  2  9  1 -1</clus>
<clus scale="   91.956">  5  6 -1 -1</clus>
<clus scale="   94.114">  2  5  1 -1</clus>
<clus scale="   98.100">  7  8 -1 -1</clus>
<clus scale="   22.419">  2  5  1 -1</clus>
</clustering>
</event>
<event>
 9    1  0.1881049E-005  0.1019350E+03  0.7546771E-02  0.1286140E+00
         21   -1    0    0  501  502  0.00000000000E+00  0.00000000000E+00  0.24366880191E+03  0.24366880191E+03  0.00000000000E+00 0. -1.
         -2   -1    0    0    0  501 -0.00000000000E+00 -0.00000000000E+00 -0.27726382574E+03  0.27726382574E+03  0.00000000000E+00 0.  1.
         23    2    1    2    0    0  0.60158193430E+01 -0.33425138585E+02 -0.24751063109E+03  0.26776788136E+03  0.96357126432E+02 0.  0.
         23    2    1    2    0    0 -0.44899380931E+02  0.12374140550E+02  0.15449965581E+03  0.17910172470E+03  0.77705922445E+02 0.  0.
        -11    1    4    4    0    0 -0.22005589497E+01  0.28593476434E+02  0.11560708949E+03  0.11911099233E+03  0.00000000000E+00 0. -1.
         11    1    4    4    0    0 -0.42698821982E+02 -0.16219335884E+02  0.38892566323E+02  0.59990732370E+02  0.00000000000E+00 0.  1.
        -13    1    3    3    0    0  0.14536005457E+02 -0.54454168933E+02 -0.23539100480E+03  0.24204437013E+03  0.00000000000E+00 0.  1.
         13    1    3    3    0    0 -0.85201861138E+01  0.21029030348E+02 -0.12119626286E+02  0.25723511232E+02  0.00000000000E+00 0. -1.
         -2    1    1    2    0  502  0.38883561588E+02  0.21050998035E+02  0.59415951453E+02  0.74063021591E+02  0.00000000000E+00 0.  1.
<scales pt_clust_5="13000.00000" pt_clust_6="13000.00000" pt_clust_7="13000.00000" pt_clust_8="13000.00000" pt_clust_9="44.21624"></scales>
<clustering>
<clus scale="   44.216">  1  9  2 -1</clus>
<clus scale="   77.706">  5  6 -1 -1</clus>
<clus scale="   84.524">  1  5  2 -1</clus>
<clus scale="   96.357">  7  8 -1 -1</clus>
<clus scale="   44.216">  1  5  2 -1</clus>
</clustering>
</event>
<event>
 9    1  0.1881049E-005  0.2011746E+03  0.7546771E-02  0.1148917E+00
         21   -1    0    0  501  502  0.00000000000E+00  0.00000000000E+00  0.80362094753E+02  0.80362094753E+02  0.00000000000E+00 0.  1.
          1   -1    0    0  502    0 -0.00000000000E+00 -0.00000000000E+00 -0.97243996494E+03  0.97243996494E+03  0.00000000000E+00 0. -1.
         23    2    1    2    0    0  0.16859317214E+03 -0.72335227276E+01 -0.55890982323E+03  0.59125935884E+03  0.93442267595E+02 0.  0.
         23    2    1    2    0    0 -0.19380872674E+03  0.85335353696E+02 -0.28371699589E+03  0.36572450505E+03  0.91734043245E+02 0.  0.
        -13    1    3    3    0    0  0.68355581097E+02 -0.10756642006E+02 -0.10058549776E+03  0.12208862836E+03  0.00000000000E+00 0.  1.
         13    1    3    3    0    0  0.10023759104E+03  0.35231192784E+01 -0.45832432547E+03  0.46917073049E+03  0.00000000000E+00 0. -1.
        -13    1    4    4    0    0 -0.47529865596E+02  0.23955681961E+01 -0.12793016718E+03  0.13649525466E+03  0.00000000000E+00 0. -1.
         13    1    4    4    0    0 -0.14627886114E+03  0.82939785500E+02 -0.15578682871E+03  0.22922925039E+03  0.00000000000E+00 0.  1.
          1    1    1    2  501    0  0.25215554598E+02 -0.78101830969E+02 -0.49451051074E+02  0.95818195801E+02  0.00000000000E+00 0. -1.
<scales pt_clust_5="13000.00000" pt_clust_6="13000.00000" pt_clust_7="13000.00000" pt_clust_8="13000.00000" pt_clust_9="82.07143"></scales>
<clustering>
<clus scale="   82.071">  1  9  2 -1</clus>
<clus scale="   91.734">  7  8 -1 -1</clus>
<clus scale="   93.442">  5  6 -1 -1</clus>
<clus scale="  200.387">  1  7  2 -1</clus>
<clus scale="   82.071">  1  5  2 -1</clus>
</clustering>
</event>
<event>
 9    1  0.1881049E-005  0.9673724E+02  0.7546771E-02  0.1287653E+00
         21   -1    0    0  501  502  0.00000000000E+00  0.00000000000E+00  0.60206871530E+02  0.60206871530E+02  0.00000000000E+00 0.  1.
          1   -1    0    0  502    0 -0.00000000000E+00 -0.00000000000E+00 -0.29296206303E+03  0.29296206303E+03  0.00000000000E+00 0. -1.
         23    2    1    2    0    0  0.35119676640E+02  0.15751689791E+01 -0.21145301317E+03  0.23287814829E+03  0.91016384938E+02 0.  0.
         23    2    1    2    0    0 -0.13590985223E+02  0.38573116284E+01 -0.52680374887E+01  0.92903013960E+02  0.91671282589E+02 0.  0.
        -11    1    4    4    0    0 -0.35210961027E+02  0.38309411345E+02 -0.14940218158E+01  0.52054345402E+02  0.00000000000E+00 0.  1.
         11    1    4    4    0    0  0.21619975804E+02 -0.34452099717E+02 -0.37740156728E+01  0.40848668558E+02  0.00000000000E+00 0. -1.
        -13    1    3    3    0    0  0.65780914517E+02  0.78856998828E+01 -0.14542914322E+03  0.15980910073E+03  0.00000000000E+00 0. -1.
         13    1    3    3    0    0 -0.30661237877E+02 -0.63105309037E+01 -0.66023869950E+02  0.73069047562E+02  0.00000000000E+00 0.  1.
          1    1    1    2  501    0 -0.21528691417E+02 -0.54324806075E+01 -0.16034140843E+02  0.27387772313E+02  0.00000000000E+00 0. -1.
<scales pt_clust_5="13000.00000" pt_clust_6="13000.00000" pt_clust_7="13000.00000" pt_clust_8="13000.00000" pt_clust_9="22.20352"></scales>
<clustering>
<clus scale="   22.204">  1  9  2 -1</clus>
<clus scale="   91.016">  7  8 -1 -1</clus>
<clus scale="   91.671">  5  6 -1 -1</clus>
<clus scale="   96.117">  2  7  1 -1</clus>
<clus scale="   22.204">  1  5  2 -1</clus>
</clustering>
</event>
<event>
 9    1  0.1881049E-005  0.1560518E+03  0.7546771E-02  0.1203693E+00
          2   -1    0    0  502    0 -0.00000000000E+00  0.00000000000E+00  0.11444322916E+04  0.11444322916E+04  0.00000000000E+00 0. -1.
         21   -1    0    0  501  502  0.00000000000E+00 -0.00000000000E+00 -0.12741908593E+03  0.12741908593E+03  0.00000000000E+00 0. -1.
         23    2    1    2    0    0 -0.74377939395E+02  0.30124349100E+02  0.29288375086E+03  0.31814924335E+03  0.94860398728E+02 0.  0.
         23    2    1    2    0    0  0.14848309404E+03  0.72885725905E+02  0.78905583502E+03  0.81116061629E+03  0.89514671403E+02 0.  0.
        -11    1    4    4    0    0  0.61304160313E+02  0.65133932906E+02  0.53562819210E+03  0.54304529227E+03  0.00000000000E+00 0. -1.
         11    1    4    4    0    0  0.87178933729E+02  0.77517929988E+01  0.25342764292E+03  0.26811532402E+03  0.00000000000E+00 0.  1.
        -11    1    3    3    0    0 -0.21458091420E+02 -0.34554283697E+02  0.94459555608E+02  0.10284481443E+03  0.00000000000E+00 0. -1.
         11    1    3    3    0    0 -0.52919847975E+02  0.64678632797E+02  0.19842419525E+03  0.21530442892E+03  0.00000000000E+00 0.  1.
          2    1    1    2  501    0 -0.74105154646E+02 -0.10301007500E+03 -0.64926380158E+02  0.14254151795E+03  0.00000000000E+00 0. -1.
<scales pt_clust_5="13000.00000" pt_clust_6="13000.00000" pt_clust_7="13000.00000" pt_clust_8="13000.00000" pt_clust_9="127.82518"></scales>
<clustering>
<clus scale="   89.515">  5  6 -1 -1</clus>
<clus scale="   94.860">  7  8 -1 -1</clus>
<clus scale="  124.250">  1  7  2 -1</clus>
<clus scale="  127.825">  2  9  1 -1</clus>
<clus scale="  127.825">  2  5  1 -1</clus>
</clustering>
</event>
<event>
 9    1  0.1881049E-005  0.1078343E+03  0.7546771E-02  0.1266058E+00
         21   -1    0    0  501  502  0.00000000000E+00  0.00000000000E+00  0.32267001499E+03  0.32267001499E+03  0.00000000000E+00 0.  1.
         -2   -1    0    0    0  501 -0.00000000000E+00 -0.00000000000E+00 -0.11283496273E+03  0.11283496273E+03  0.00000000000E+00 0.  1.
         23    2    1    2    0    0 -0.52934963357E+02 -0.38347549405E+02 -0.40077951625E+02  0.12273975691E+03  0.95844461651E+02 0.  0.
         23    2    1    2    0    0  0.97254405950E+01  0.18623957523E+02  0.49901228341E+02  0.10719091967E+03  0.92511213816E+02 0.  0.
        -11    1    3    3    0    0 -0.26659716359E+02  0.73113844093E+01 -0.60282355815E+02  0.66318619112E+02  0.00000000000E+00 0.  1.
         11    1    3    3    0    0 -0.26275246998E+02 -0.45658933815E+02  0.20204404190E+02  0.56421137799E+02  0.00000000000E+00 0. -1.
        -13    1    4    4    0    0  0.10713469629E+02  0.56139741250E+02  0.26824936733E+02  0.63134984040E+02  0.00000000000E+00 0.  1.
         13    1    4    4    0    0 -0.98802903398E+00 -0.37515783727E+02  0.23076291608E+02  0.44055935632E+02  0.00000000000E+00 0. -1.
         -2    1    1    2    0  502  0.43209522762E+02  0.19723591882E+02  0.20001177554E+03  0.20557430114E+03  0.00000000000E+00 0.  1.
<scales pt_clust_5="13000.00000" pt_clust_6="13000.00000" pt_clust_7="13000.00000" pt_clust_8="13000.00000" pt_clust_9="47.49824"></scales>
<clustering>
<clus scale="   47.498">  1  9  2 -1</clus>
<clus scale="   92.511">  7  8 -1 -1</clus>
<clus scale="   95.844">  5  6 -1 -1</clus>
<clus scale="  104.883">  1  7  2 -1</clus>
<clus scale="   47.498">  1  5  2 -1</clus>
</clustering>
</event>
<event>
 9    1  0.1881049E-005  0.3338630E+03  0.7546771E-02  0.1096570E+00
         -1   -1    0    0    0  501 -0.00000000000E+00  0.00000000000E+00  0.49285229313E+03  0.49285229313E+03  0.00000000000E+00 0.  1.
         21   -1    0    0  501  502  0.00000000000E+00 -0.00000000000E+00 -0.36740078123E+03  0.36740078123E+03  0.00000000000E+00 0.  1.
         23    2    1    2    0    0  0.12863084200E+03  0.36437886669E+02 -0.15370812355E+02  0.16213984176E+03  0.90440330132E+02 0.  0.
         23    2    1    2    0    0  0.13036909454E+03  0.22116238518E+03  0.18645083929E+03  0.32998169556E+03  0.90637202642E+02 0.  0.
        -11    1    3    3    0    0  0.56091956844E+02 -0.27176499707E+02 -0.20248090870E+02  0.65535142807E+02  0.00000000000E+00 0.  1.
         11    1    3    3    0    0  0.72538885158E+02  0.63614386376E+02  0.48772785149E+01  0.96604698952E+02  0.00000000000E+00 0. -1.
        -13    1    4    4    0    0  0.13135261883E+03  0.16304924807E+03  0.11857392986E+03  0.24062074851E+03  0.00000000000E+00 0.  1.
         13    1    4    4    0    0 -0.98352428775E+00  0.58113137110E+02  0.67876909422E+02  0.89360947049E+02  0.00000000000E+00 0. -1.
         -1    1    1    2    0  502 -0.25899993654E+03 -0.25760027185E+03 -0.45628515033E+02  0.36813153705E+03  0.00000000000E+00 0.  1.
<scales pt_clust_5="13000.00000" pt_clust_6="13000.00000" pt_clust_7="13000.00000" pt_clust_8="13000.00000" pt_clust_9="321.32447"></scales>
<clustering>
<clus scale="   90.440">  5  6 -1 -1</clus>
<clus scale="   90.637">  7  8 -1 -1</clus>
<clus scale="  161.410">  1  5  2 -1</clus>
<clus scale="  321.324">  2  9  1 -1</clus>
<clus scale="  321.324">  2  5  1 -1</clus>
</clustering>
</event>
<event>
 9    1  0.1881049E-005  0.2195203E+03  0.7546771E-02  0.1134414E+00
         21   -1    0    0  501  502  0.00000000000E+00  0.00000000000E+00  0.14841511840E+03  0.14841511840E+03  0.00000000000E+00 0. -1.
          1   -1    0    0  502    0 -0.00000000000E+00 -0.00000000000E+00 -0.86906877507E+03  0.86906877507E+03  0.00000000000E+00 0. -1.
         23    2    1    2    0    0 -0.37025950734E+02  0.18714663201E+03 -0.60609196016E+03  0.64158964111E+03  0.88853927902E+02 0.  0.
         23    2    1    2    0    0  0.10198931422E+03 -0.22137012633E+03 -0.14328777691E+03  0.29704836563E+03  0.91103191317E+02 0.  0.
        -13    1    3    3    0    0 -0.55146722431E+01  0.16297129769E+03 -0.40465879053E+03  0.43627834261E+03  0.00000000000E+00 0. -1.
         13    1    3    3    0    0 -0.31511278490E+02  0.24175334324E+02 -0.20143316964E+03  0.20531129850E+03  0.00000000000E+00 0.  1.
        -13    1    4    4    0    0 -0.10593165173E+02 -0.51157708123E+02 -0.51228733701E+02  0.73169046771E+02  0.00000000000E+00 0.  1.
         13    1    4    4    0    0  0.11258247939E+03 -0.17021241821E+03 -0.92059043204E+02  0.22387931886E+03  0.00000000000E+00 0. -1.
          1    1    1    2  501    0 -0.64963363488E+02  0.34223494322E+02  0.28726080402E+02  0.78845886732E+02  0.00000000000E+00 0. -1.
<scales pt_clust_5="13000.00000" pt_clust_6="13000.00000" pt_clust_7="13000.00000" pt_clust_8="13000.00000" pt_clust_9="73.42674"></scales>
<clustering>
<clus scale="   73.427">  1  9  2 -1</clus>
<clus scale="   88.854">  5  6 -1 -1</clus>
<clus scale="   91.103">  7  8 -1 -1</clus>
<clus scale="  218.596">  2  5  1 -1</clus>
<clus scale="   73.427">  1  5  2 -1</clus>
</clustering>
</event>
<event>
 9    1  0.1881049E-005  0.9135277E+02  0.7546771E-02  0.1300846E+00
         -2   -1    0    0    0  501 -0.00000000000E+00  0.00000000000E+00  0.59054703255E+02  0.59054703255E+02  0.00000000000E+00 0.  1.
         21   -1    0    0  501  502  0.00000000000E+00 -0.00000000000E+00 -0.57525053638E+03  0.57525053638E+03  0.00000000000E+00 0.  1.
         23    2    1    2    0    0  0.41805559046E+01 -0.98949818385E+01  0.12204277284E+02  0.92419843369E+02  0.90978543355E+02 0.  0.
         23    2    1    2    0    0 -0.27685595971E+01 -0.16582054439E+02 -0.34912950860E+03  0.36066460315E+03  0.88909576198E+02 0.  0.
        -11    1    4    4    0    0  0.43052559904E+02 -0.97089552763E+01 -0.17387407186E+03  0.17938779109E+03  0.00000000000E+00 0.  1.
         11    1    4    4    0    0 -0.45821119502E+02 -0.68730991632E+01 -0.17525543674E+03  0.18127681206E+03  0.00000000000E+00 0. -1.
        -11    1    3    3    0    0 -0.21400372010E+02  0.24136811854E+01  0.44490094880E+02  0.49428436364E+02  0.00000000000E+00 0.  1.
         11    1    3    3    0    0  0.25580927915E+02 -0.12308663024E+02 -0.32285817595E+02  0.42991407004E+02  0.00000000000E+00 0. -1.
         -2    1    1    2    0  502 -0.14119963075E+01  0.26477036278E+02 -0.17927060181E+03  0.18122079311E+03  0.00000000000E+00 0.  1.
<scales pt_clust_5="13000.00000" pt_clust_6="13000.00000" pt_clust_7="13000.00000" pt_clust_8="13000.00000" pt_clust_9="26.51466"></scales>
<clustering>
<clus scale="   26.515">  2  9  1 -1</clus>
<clus scale="   88.910">  5  6 -1 -1</clus>
<clus scale="   89.292">  2  5  1 -1</clus>
<clus scale="   90.979">  7  8 -1 -1</clus>
<clus scale="   26.515">  2  5  1 -1</clus>
</clustering>
</event>
<event>
 9    1  0.1881049E-005  0.9722282E+02  0.7546771E-02  0.1290019E+00
         21   -1    0    0  501  502  0.00000000000E+00  0.00000000000E+00  0.56860693841E+02  0.56860693841E+02  0.00000000000E+00 0. -1.
          2   -1    0    0  502    0 -0.00000000000E+00 -0.00000000000E+00 -0.32998455470E+03  0.32998455470E+03  0.00000000000E+00 0.  1.
         23    2    1    2    0    0  0.11369573132E+02  0.37333031716E+02 -0.15865285730E+03  0.18332008663E+03  0.83141461261E+02 0.  0.
         23    2    1    2    0    0 -0.28184663067E+02 -0.16121480660E+02 -0.11063589672E+02  0.96633766590E+02  0.90340491797E+02 0.  0.
        -11    1    4    4    0    0 -0.21778164263E+02 -0.53344557864E+02 -0.13513281713E+01  0.57634680359E+02  0.00000000000E+00 0.  1.
         11    1    4    4    0    0 -0.64064988040E+01  0.37223077203E+02 -0.97122615007E+01  0.38999086231E+02  0.00000000000E+00 0. -1.
        -13    1    3    3    0    0  0.36255452107E+02 -0.72131742096E+01 -0.93652341432E+02  0.10068390510E+03  0.00000000000E+00 0.  1.
         13    1    3    3    0    0 -0.24885878975E+02  0.44546205926E+02 -0.65000515872E+02  0.82636181533E+02  0.00000000000E+00 0. -1.
          2    1    1    2  501    0  0.16815089935E+02 -0.21211551056E+02 -0.10340741388E+03  0.10689139532E+03  0.00000000000E+00 0.  1.
<scales pt_clust_5="13000.00000" pt_clust_6="13000.00000" pt_clust_7="13000.00000" pt_clust_8="13000.00000" pt_clust_9="27.06802"></scales>
<clustering>
<clus scale="   27.068">  1  9  2 -1</clus>
<clus scale="   83.141">  7  8 -1 -1</clus>
<clus scale="   90.340">  5  6 -1 -1</clus>
<clus scale="   90.572">  2  7  1 -1</clus>
<clus scale="   27.068">  1  5  2 -1</clus>
</clustering>
</event>
<event>
 9    1  0.1881049E-005  0.9502792E+02  0.7546771E-02  0.1298393E+00
          3   -1    0    0  502    0 -0.00000000000E+00  0.00000000000E+00  0.56049317160E+03  0.56049317160E+03  0.00000000000E+00 0. -1.
         21   -1    0    0  501  502  0.00000000000E+00 -0.00000000000E+00 -0.22841169841E+02  0.22841169841E+02  0.00000000000E+00 0. -1.
         23    2    1    2    0    0  0.21340807994E+02  0.84246176812E+01  0.25528439281E+03  0.27228707550E+03  0.91889749165E+02 0.  0.
         23    2    1    2    0    0 -0.21140876335E+02  0.32260877389E+02  0.21403257024E+03  0.23151722762E+03  0.79388819712E+02 0.  0.
        -11    1    4    4    0    0 -0.26603310822E+02 -0.13316770351E+02  0.31611285158E+02  0.43409052842E+02  0.00000000000E+00 0.  1.
         11    1    4    4    0    0  0.54624344870E+01  0.45577647740E+02  0.18242128509E+03  0.18810817477E+03  0.00000000000E+00 0. -1.
        -11    1    3    3    0    0  0.49716459938E+02 -0.79299828654E+01  0.21263243735E+03  0.21851124555E+03  0.00000000000E+00 0. -1.
         11    1    3    3    0    0 -0.28375651943E+02  0.16354600547E+02  0.42651955457E+02  0.53775829948E+02  0.00000000000E+00 0.  1.
          3    1    1    2  501    0 -0.19993165914E+00 -0.40685495070E+02  0.68335038705E+02  0.79530038329E+02  0.00000000000E+00 0. -1.
<scales pt_clust_5="13000.00000" pt_clust_6="13000.00000" pt_clust_7="13000.00000" pt_clust_8="13000.00000" pt_clust_9="40.68599"></scales>
<clustering>
<clus scale="   40.686">  2  9  1 -1</clus>
<clus scale="   79.389">  5  6 -1 -1</clus>
<clus scale="   83.001">  2  5  1 -1</clus>
<clus scale="   91.890">  7  8 -1 -1</clus>
<clus scale="   40.686">  2  5  1 -1</clus>
</clustering>
</event>
<event>
 9    1  0.1881049E-005  0.1579711E+03  0.7546771E-02  0.1191680E+00
          1   -1    0    0  502    0 -0.00000000000E+00  0.00000000000E+00  0.48879139497E+03  0.48879139497E+03  0.00000000000E+00 0. -1.
         21   -1    0    0  501  502  0.00000000000E+00 -0.00000000000E+00 -0.80256278176E+02  0.80256278176E+02  0.00000000000E+00 0.  1.
         23    2    1    2    0    0 -0.40735046903E+02 -0.11665984544E+03  0.31906408693E+03  0.35375621056E+03  0.89848212873E+02 0.  0.
         23    2    1    2    0    0  0.60730351746E+02  0.12590995959E+03  0.60506725184E+02  0.17890042285E+03  0.93823259136E+02 0.  0.
        -13    1    3    3    0    0 -0.18580677333E+02 -0.12247883304E+03  0.29764770664E+03  0.32239798911E+03  0.00000000000E+00 0. -1.
         13    1    3    3    0    0 -0.22154369570E+02  0.58189876014E+01  0.21416380287E+02  0.31358221447E+02  0.00000000000E+00 0.  1.
        -13    1    4    4    0    0  0.79199824581E+02  0.99784126406E+02  0.70216866811E+02  0.14546440280E+03  0.00000000000E+00 0. -1.
         13    1    4    4    0    0 -0.18469472835E+02  0.26125833186E+02 -0.97101416263E+01  0.33436020051E+02  0.00000000000E+00 0.  1.
          1    1    1    2  501    0 -0.19995304843E+02 -0.92501141492E+01  0.28964304680E+02  0.36391039737E+02  0.00000000000E+00 0. -1.
<scales pt_clust_5="13000.00000" pt_clust_6="13000.00000" pt_clust_7="13000.00000" pt_clust_8="13000.00000" pt_clust_9="22.03128"></scales>
<clustering>
<clus scale="   22.031">  2  9  1 -1</clus>
<clus scale="   89.848">  5  6 -1 -1</clus>
<clus scale="   93.823">  7  8 -1 -1</clus>
<clus scale="  155.643">  1  5  2 -1</clus>
<clus scale="   22.031">  2  5  1 -1</clus>
</clustering>
</event>
<event>
 9    1  0.1881049E-005  0.9792524E+02  0.7546771E-02  0.1285911E+00
          2   -1    0    0  502    0 -0.00000000000E+00  0.00000000000E+00  0.17470766435E+03  0.17470766435E+03  0.00000000000E+00 0. -1.
         21   -1    0    0  501  502  0.00000000000E+00 -0.00000000000E+00 -0.10455006294E+03  0.10455006294E+03  0.00000000000E+00 0.  1.
         23    2    1    2    0    0  0.13492535564E+01  0.27936643666E+02  0.10379857701E+03  0.14020461257E+03  0.90005067931E+02 0.  0.
         23    2    1    2    0    0  0.15495322053E+01 -0.52556314709E+02 -0.39901957270E+02  0.11348494989E+03  0.92315222971E+02 0.  0.
        -11    1    3    3    0    0 -0.26989837243E+02  0.50990971968E+02  0.61975624328E+02  0.84672950507E+02  0.00000000000E+00 0.  1.
         11    1    3    3    0    0  0.28339090800E+02 -0.23054328303E+02  0.41822952682E+02  0.55531662067E+02  0.00000000000E+00 0. -1.
        -11    1    4    4    0    0  0.36720931440E+02 -0.58575893259E+02 -0.17368155220E+02  0.71282640893E+02  0.00000000000E+00 0. -1.
         11    1    4    4    0    0 -0.35171399235E+02  0.60195785500E+01 -0.22533802050E+02  0.42202308999E+02  0.00000000000E+00 0.  1.
          2    1    1    2  501    0 -0.28987857618E+01  0.24619671044E+02  0.62609816726E+01  0.25568164828E+02  0.00000000000E+00 0. -1.
<scales pt_clust_5="13000.00000" pt_clust_6="13000.00000" pt_clust_7="13000.00000" pt_clust_8="13000.00000" pt_clust_9="24.78974"></scales>
<clustering>
<clus scale="   24.790">  2  9  1 -1</clus>
<clus scale="   90.005">  5  6 -1 -1</clus>
<clus scale="   92.315">  7  8 -1 -1</clus>
<clus scale="   95.751">  1  5  2 -1</clus>
<clus scale="   24.790">  2  5  1 -1</clus>
</clustering>
</event>
<event>
 9    1  0.1881049E-005  0.1023197E+03  0.7546771E-02  0.1276159E+00
         21   -1    0    0  501  502  0.00000000000E+00  0.00000000000E+00  0.10218065470E+03  0.10218065470E+03  0.00000000000E+00 0. -1.
          1   -1    0    0  502    0 -0.00000000000E+00 -0.00000000000E+00 -0.22547740984E+03  0.22547740984E+03  0.00000000000E+00 0. -1.
         23    2    1    2    0    0  0.29030441061E+02 -0.30699031093E+02 -0.12880336110E+03  0.16361565181E+03  0.91621933333E+02 0.  0.
         23    2    1    2    0    0 -0.61999886724E+02 -0.75195398114E+01  0.13715829609E+02  0.11290500116E+03  0.93053134669E+02 0.  0.
        -11    1    3    3    0    0  0.30675839915E+02  0.66507278920E+01 -0.20406602276E+01  0.31454787079E+02  0.00000000000E+00 0.  1.
         11    1    3    3    0    0 -0.16453988543E+01 -0.37349758985E+02 -0.12676270087E+03  0.13216086473E+03  0.00000000000E+00 0. -1.
        -13    1    4    4    0    0 -0.66831003624E+02 -0.27049833182E+02  0.37895139368E+02  0.81450095815E+02  0.00000000000E+00 0. -1.
         13    1    4    4    0    0  0.48311169003E+01  0.19530293371E+02 -0.24179309759E+02  0.31454905342E+02  0.00000000000E+00 0.  1.
          1    1    1    2  501    0  0.32969445663E+02  0.38218570904E+02 -0.82092236543E+01  0.51137411572E+02  0.00000000000E+00 0. -1.
<scales pt_clust_5="13000.00000" pt_clust_6="13000.00000" pt_clust_7="13000.00000" pt_clust_8="13000.00000" pt_clust_9="50.47419"></scales>
<clustering>
<clus scale="   50.474">  1  9  2 -1</clus>
<clus scale="   91.622">  5  6 -1 -1</clus>
<clus scale="   93.053">  7  8 -1 -1</clus>
<clus scale="  101.020">  2  5  1 -1</clus>
<clus scale="   50.474">  1  5  2 -1</clus>
</clustering>
</event>
<event>
 9    1  0.1881049E-005  0.9248323E+02  0.7546771E-02  0.1299554E+00
         21   -1    0    0  501  502  0.00000000000E+00  0.00000000000E+00  0.83419392781E+02  0.83419392781E+02  0.00000000000E+00 0. -1.
          1   -1    0    0  502    0 -0.00000000000E+00 -0.00000000000E+00 -0.29665612752E+03  0.29665612752E+03  0.00000000000E+00 0. -1.
         23    2    1    2    0    0 -0.99753954421E+01  0.82293955633E+01 -0.11522647595E+03  0.14470724283E+03  0.86578368553E+02 0.  0.
         23    2    1    2    0    0 -0.56168998591E+02  0.48168943440E+02 -0.90451354331E+02  0.14811582456E+03  0.91003551960E+02 0.  0.
        -11    1    4    4    0    0 -0.73807679580E+02  0.11671049339E+02 -0.45062913945E+02  0.87260834117E+02  0.00000000000E+00 0. -1.
         11    1    4    4    0    0  0.17638680989E+02  0.36497894101E+02 -0.45388440386E+02  0.60854990441E+02  0.00000000000E+00 0.  1.
        -11    1    3    3    0    0  0.21418038327E+02  0.13517309695E+02 -0.16984109519E+00  0.25327433213E+02  0.00000000000E+00 0.  1.
         11    1    3    3    0    0 -0.31393433769E+02 -0.52879141322E+01 -0.11505663485E+03  0.11937980961E+03  0.00000000000E+00 0. -1.
          1    1    1    2  501    0  0.66144394033E+02 -0.56398339003E+02 -0.75589044642E+01  0.87252452922E+02  0.00000000000E+00 0. -1.
<scales pt_clust_5="13000.00000" pt_clust_6="13000.00000" pt_clust_7="13000.00000" pt_clust_8="13000.00000" pt_clust_9="86.92441"></scales>
<clustering>
<clus scale="   86.578">  7  8 -1 -1</clus>
<clus scale="   86.924">  1  9  2 -1</clus>
<clus scale="   88.132">  2  7  1 -1</clus>
<clus scale="   91.004">  5  6 -1 -1</clus>
<clus scale="   86.924">  1  5  2 -1</clus>
</clustering>
</event>
<event>
 9    1  0.1881049E-005  0.1195934E+03  0.7546771E-02  0.1244226E+00
          2   -1    0    0  502    0 -0.00000000000E+00  0.00000000000E+00  0.45018604387E+03  0.45018604387E+03  0.00000000000E+00 0. -1.
         21   -1    0    0  501  502  0.00000000000E+00 -0.00000000000E+00 -0.54523851003E+02  0.54523851003E+02  0.00000000000E+00 0. -1.
         23    2    1    2    0    0 -0.25801355025E+02  0.48272837093E+02  0.14348141429E+03  0.17808033553E+03  0.90164920736E+02 0.  0.
         23    2    1    2    0    0  0.73305291456E+02 -0.72084153335E+02  0.23200468856E+03  0.26979051145E+03  0.91602148633E+02 0.  0.
        -13    1    4    4    0    0  0.61374850140E+02 -0.93915420553E+02  0.19917244166E+03  0.22859711276E+03  0.00000000000E+00 0. -1.
         13    1    4    4    0    0  0.11930441316E+02  0.21831267218E+02  0.32832246906E+02  0.41193398686E+02  0.00000000000E+00 0.  1.
        -13    1    3    3    0    0  0.21373249080E+02  0.12308283545E+02  0.20936844303E+01  0.24752638941E+02  0.00000000000E+00 0. -1.
         13    1    3    3    0    0 -0.47174604104E+02  0.35964553548E+02  0.14138772986E+03  0.15332769658E+03  0.00000000000E+00 0.  1.
          2    1    1    2  501    0 -0.47503936432E+02  0.23811316242E+02  0.20176090007E+02  0.56839047896E+02  0.00000000000E+00 0. -1.
<scales pt_clust_5="13000.00000" pt_clust_6="13000.00000" pt_clust_7="13000.00000" pt_clust_8="13000.00000" pt_clust_9="53.13758"></scales>
<clustering>
<clus scale="   53.138">  2  9  1 -1</clus>
<clus scale="   90.165">  7  8 -1 -1</clus>
<clus scale="   91.602">  5  6 -1 -1</clus>
<clus scale="  118.496">  1  7  2 -1</clus>
<clus scale="   53.138">  2  5  1 -1</clus>
</clustering>
</event>
<event>
 9    1  0.1881049E-005  0.2197195E+03  0.7546771E-02  0.1135403E+00
          1   -1    0    0  502    0 -0.00000000000E+00  0.00000000000E+00  0.59704203880E+03  0.59704203880E+03  0.00000000000E+00 0. -1.
         21   -1    0    0  501  502  0.00000000000E+00 -0.00000000000E+00 -0.15389834447E+03  0.15389834447E+03  0.00000000000E+00 0.  1.
         23    2    1    2    0    0 -0.19049768879E+03 -0.80628164773E+02  0.40925045950E+03  0.46662375298E+03  0.86380077850E+02 0.  0.
         23    2    1    2    0    0  0.12157673942E+03  0.11883759831E+03  0.48407436866E+02  0.20418723409E+03  0.10220503062E+03 0.  0.
        -11    1    3    3    0    0 -0.34534971880E+02 -0.41622532157E+02  0.52743878857E+02  0.75544796134E+02  0.00000000000E+00 0.  1.
         11    1    3    3    0    0 -0.15596271691E+03 -0.39005632615E+02  0.35650658065E+03  0.39107895684E+03  0.00000000000E+00 0. -1.
        -13    1    4    4    0    0 -0.14444529870E+02  0.34048880283E+02  0.84616399845E+00  0.36995765774E+02  0.00000000000E+00 0. -1.
         13    1    4    4    0    0  0.13602126929E+03  0.84788718024E+02  0.47561272867E+02  0.16719146832E+03  0.00000000000E+00 0.  1.
          1    1    1    2  501    0  0.68920949378E+02 -0.38209433534E+02 -0.14514202044E+02  0.80129396198E+02  0.00000000000E+00 0. -1.
<scales pt_clust_5="13000.00000" pt_clust_6="13000.00000" pt_clust_7="13000.00000" pt_clust_8="13000.00000" pt_clust_9="78.80392"></scales>
<clustering>
<clus scale="   78.804">  2  9  1 -1</clus>
<clus scale="   86.380">  5  6 -1 -1</clus>
<clus scale="  102.205">  7  8 -1 -1</clus>
<clus scale="  212.820">  1  5  2 -1</clus>
<clus scale="   78.804">  2  5  1 -1</clus>
</clustering>
</event>
<event>
 9    1  0.1881049E-005  0.1539233E+03  0.7546771E-02  0.1195791E+00
          1   -1    0    0  502    0 -0.00000000000E+00  0.00000000000E+00  0.18516265579E+03  0.18516265579E+03  0.00000000000E+00 0. -1.
         21   -1    0    0  501  502  0.00000000000E+00 -0.00000000000E+00 -0.51509577380E+03  0.51509577380E+03  0.00000000000E+00 0. -1.
         23    2    1    2    0    0  0.11299810987E+03  0.70248799550E+01  0.46738400097E+02  0.15211471282E+03  0.90202472484E+02 0.  0.
         23    2    1    2    0    0 -0.13209498684E+03 -0.13618591676E+03 -0.81644408419E+02  0.22551659517E+03  0.90533064678E+02 0.  0.
        -11    1    3    3    0    0  0.67095067645E+01 -0.19207348947E+02  0.36974255037E+02  0.42202313564E+02  0.00000000000E+00 0.  1.
         11    1    3    3    0    0  0.10628860310E+03  0.26232228902E+02  0.97641450603E+01  0.10991239926E+03  0.00000000000E+00 0. -1.
        -13    1    4    4    0    0 -0.36088100781E+02  0.72493258768E+01 -0.22099108912E+02  0.42933371150E+02  0.00000000000E+00 0.  1.
         13    1    4    4    0    0 -0.96006886056E+02 -0.14343524263E+03 -0.59545299507E+02  0.18258322402E+03  0.00000000000E+00 0. -1.
          1    1    1    2  501    0  0.19096876972E+02  0.12916103680E+03 -0.29502710969E+03  0.32262712159E+03  0.00000000000E+00 0. -1.
<scales pt_clust_5="13000.00000" pt_clust_6="13000.00000" pt_clust_7="13000.00000" pt_clust_8="13000.00000" pt_clust_9="130.56517"></scales>
<clustering>
<clus scale="   90.202">  5  6 -1 -1</clus>
<clus scale="   90.533">  7  8 -1 -1</clus>
<clus scale="  130.565">  2  9  1 -1</clus>
<clus scale="  153.729">  1  5  2 -1</clus>
<clus scale="  130.565">  2  5  1 -1</clus>
</clustering>
</event>
<event>
 9    1  0.1881049E-005  0.1733815E+03  0.7546771E-02  0.1174481E+00
          1   -1    0    0  502    0 -0.00000000000E+00  0.00000000000E+00  0.18702759818E+03  0.18702759818E+03  0.00000000000E+00 0. -1.
         21   -1    0    0  501  502  0.00000000000E+00 -0.00000000000E+00 -0.19929531107E+03  0.19929531107E+03  0.00000000000E+00 0.  1.
         23    2    1    2    0    0  0.11573785684E+03  0.77851246630E+02  0.25197415807E+02  0.16780759888E+03  0.89824341755E+02 0.  0.
         23    2    1    2    0    0 -0.12105161904E+03 -0.10508954351E+03 -0.18942328336E+02  0.18514983391E+03  0.90688161122E+02 0.  0.
        -11    1    4    4    0    0 -0.85973007597E+02 -0.11367202578E+03  0.36187092899E+01  0.14256851874E+03  0.00000000000E+00 0.  1.
         11    1    4    4    0    0 -0.35078611441E+02  0.85824822700E+01 -0.22561037626E+02  0.42581315166E+02  0.00000000000E+00 0. -1.
        -13    1    3    3    0    0  0.94458826628E+02  0.96138792911E+02  0.32852775006E+02  0.13872433909E+03  0.00000000000E+00 0. -1.
         13    1    3    3    0    0  0.21279030211E+02 -0.18287546281E+02 -0.76553591987E+01  0.29083259793E+02  0.00000000000E+00 0.  1.
          1    1    1    2  501    0  0.53137621981E+01  0.27238296879E+02 -0.18522800369E+02  0.33365476455E+02  0.00000000000E+00 0. -1.
<scales pt_clust_5="13000.00000" pt_clust_6="13000.00000" pt_clust_7="13000.00000" pt_clust_8="13000.00000" pt_clust_9="27.75177"></scales>
<clustering>
<clus scale="   27.752">  2  9  1 -1</clus>
<clus scale="   89.824">  7  8 -1 -1</clus>
<clus scale="   90.688">  5  6 -1 -1</clus>
<clus scale="  172.931">  1  7  2 -1</clus>
<clus scale="   27.752">  2  5  1 -1</clus>
</clustering>
</event>
<event>
 9    1  0.1881049E-005  0.1078000E+03  0.7546771E-02  0.1264731E+00
          3   -1    0    0  502    0 -0.00000000000E+00  0.00000000000E+00  0.39556747325E+03  0.39556747325E+03  0.00000000000E+00 0. -1.
         21   -1    0    0  501  502  0.00000000000E+00 -0.00000000000E+00 -0.38161321113E+02  0.38161321113E+02  0.00000000000E+00 0. -1.
         23    2    1    2    0    0 -0.44333584518E+02  0.35927760993E+02  0.17855086138E+03  0.20801900698E+03  0.90195490142E+02 0.  0.
         23    2    1    2    0    0  0.62557586916E+02 -0.16322652091E+02  0.14478864791E+03  0.18238530569E+03  0.90115295686E+02 0.  0.
        -11    1    4    4    0    0  0.65917689280E+02  0.19503817808E+02  0.63904240318E+02  0.93857831851E+02  0.00000000000E+00 0. -1.
         11    1    4    4    0    0 -0.33601023637E+01 -0.35826469898E+02  0.80884407590E+02  0.88527473840E+02  0.00000000000E+00 0.  1.
        -13    1    3    3    0    0 -0.28140995366E+02 -0.28211993283E+02  0.55644750642E+02  0.68440999841E+02  0.00000000000E+00 0.  1.
         13    1    3    3    0    0 -0.16192589153E+02  0.64139754277E+02  0.12290611074E+03  0.13957800714E+03  0.00000000000E+00 0. -1.
          3    1    1    2  501    0 -0.18224002398E+02 -0.19605108903E+02  0.34066642852E+02  0.43324481690E+02  0.00000000000E+00 0. -1.
<scales pt_clust_5="13000.00000" pt_clust_6="13000.00000" pt_clust_7="13000.00000" pt_clust_8="13000.00000" pt_clust_9="26.76704"></scales>
<clustering>
<clus scale="   26.767">  2  9  1 -1</clus>
<clus scale="   90.115">  5  6 -1 -1</clus>
<clus scale="   90.195">  7  8 -1 -1</clus>
<clus scale="  107.733">  2  5  1 -1</clus>
<clus scale="   26.767">  2  5  1 -1</clus>
</clustering>
</event>
<event>
 9    1  0.1881049E-005  0.1408275E+03  0.7546771E-02  0.1231611E+00
         -4   -1    0    0    0  501 -0.00000000000E+00  0.00000000000E+00  0.28484189718E+03  0.28484189718E+03  0.00000000000E+00 0.  1.
         21   -1    0    0  501  502  0.00000000000E+00 -0.00000000000E+00 -0.70918478275E+03  0.70918478275E+03  0.00000000000E+00 0.  1.
         23    2    1    2    0    0 -0.19653629830E+01  0.10756626492E+02  0.96360496291E+02  0.13450840457E+03  0.93207285066E+02 0.  0.
         23    2    1    2    0    0  0.10812135528E+03 -0.26354867837E+02  0.13370455850E+03  0.19637262603E+03  0.91107040155E+02 0.  0.
        -13    1    4    4    0    0  0.60363687905E+02  0.11191308486E+02  0.15264512195E+02  0.63261564442E+02  0.00000000000E+00 0. -1.
         13    1    4    4    0    0  0.47757667371E+02 -0.37546176323E+02  0.11844004630E+03  0.13311106159E+03  0.00000000000E+00 0.  1.
        -13    1    3    3    0    0 -0.25831806684E+02  0.44166620683E+02  0.40904150716E+02  0.65506657409E+02  0.00000000000E+00 0. -1.
         13    1    3    3    0    0  0.23866443701E+02 -0.33409994190E+02  0.55456345575E+02  0.69001747161E+02  0.00000000000E+00 0.  1.
         -4    1    1    2    0  502 -0.10615599229E+03  0.15598241345E+02 -0.65440794035E+03  0.66314564933E+03  0.00000000000E+00 0.  1.
<scales pt_clust_5="13000.00000" pt_clust_6="13000.00000" pt_clust_7="13000.00000" pt_clust_8="13000.00000" pt_clust_9="107.38666"></scales>
<clustering>
<clus scale="   91.107">  5  6 -1 -1</clus>
<clus scale="   93.207">  7  8 -1 -1</clus>
<clus scale="   93.847">  1  7  2 -1</clus>
<clus scale="  107.387">  2  9  1 -1</clus>
<clus scale="  107.387">  2  5  1 -1</clus>
</clustering>
</event>
<event>
 9    1  0.1881049E-005  0.1210720E+03  0.7546771E-02  0.1243379E+00
         21   -1    0    0  501  502  0.00000000000E+00  0.00000000000E+00  0.36388574081E+02  0.36388574081E+02  0.00000000000E+00 0.  1.
         -2   -1    0    0    0  501 -0.00000000000E+00 -0.00000000000E+00 -0.86294085673E+03  0.86294085673E+03  0.00000000000E+00 0.  1.
         23    2    1    2    0    0 -0.94717777724E+02  0.43055100316E+02 -0.47227997022E+03  0.49187253390E+03  0.89805457806E+02 0.  0.
         23    2    1    2    0    0  0.96386776691E+01 -0.16123799609E+02 -0.10920231970E+03  0.14664460894E+03  0.96055263684E+02 0.  0.
        -11    1    3    3    0    0 -0.26593299240E+02 -0.27096944723E+02 -0.16922543551E+03  0.17343210775E+03  0.00000000000E+00 0.  1.
         11    1    3    3    0    0 -0.68124478484E+02  0.70152045039E+02 -0.30305453471E+03  0.31844042614E+03  0.00000000000E+00 0. -1.
        -13    1    4    4    0    0 -0.25894781495E+02 -0.12098029700E+02  0.31347763550E+01  0.28752892969E+02  0.00000000000E+00 0.  1.
         13    1    4    4    0    0  0.35533459164E+02 -0.40257699081E+01 -0.11233709606E+03  0.11789171597E+03  0.00000000000E+00 0. -1.
         -2    1    1    2    0  502  0.85079100055E+02 -0.26931300707E+02 -0.24506999272E+03  0.26081228797E+03  0.00000000000E+00 0.  1.
<scales pt_clust_5="13000.00000" pt_clust_6="13000.00000" pt_clust_7="13000.00000" pt_clust_8="13000.00000" pt_clust_9="89.23988"></scales>
<clustering>
<clus scale="   89.240">  1  9  2 -1</clus>
<clus scale="   89.805">  5  6 -1 -1</clus>
<clus scale="   96.055">  7  8 -1 -1</clus>
<clus scale="  116.176">  2  5  1 -1</clus>
<clus scale="   89.240">  1  5  2 -1</clus>
</clustering>
</event>
<event>
 9    1  0.1881049E-005  0.1030591E+03  0.7546771E-02  0.1274581E+00
         21   -1    0    0  501  502  0.00000000000E+00  0.00000000000E+00  0.17023102428E+03  0.17023102428E+03  0.00000000000E+00 0.  1.
         -2   -1    0    0    0  501 -0.00000000000E+00 -0.00000000000E+00 -0.25904054915E+03  0.25904054915E+03  0.00000000000E+00 0.  1.
         23    2    1    2    0    0  0.33591872021E+02 -0.24461689132E+02 -0.12588016149E+03  0.16093393917E+03  0.91253107445E+02 0.  0.
         23    2    1    2    0    0 -0.94399154560E+01  0.68968432468E+02 -0.81159105257E+02  0.13972022069E+03  0.89939885607E+02 0.  0.
        -11    1    3    3    0    0  0.27845496842E+02 -0.57977159716E+02 -0.66555081491E+02  0.92554317108E+02  0.00000000000E+00 0.  1.
         11    1    3    3    0    0  0.57463751789E+01  0.33515470584E+02 -0.59325080000E+02  0.68379622061E+02  0.00000000000E+00 0. -1.
        -13    1    4    4    0    0  0.44151995039E+01  0.89053808004E+02 -0.60531152855E+02  0.10776871147E+03  0.00000000000E+00 0.  1.
         13    1    4    4    0    0 -0.13855114960E+02 -0.20085375537E+02 -0.20627952402E+02  0.31951509218E+02  0.00000000000E+00 0. -1.
         -2    1    1    2    0  502 -0.24151956565E+02 -0.44506743336E+02  0.11822974188E+03  0.12861741357E+03  0.00000000000E+00 0.  1.
<scales pt_clust_5="13000.00000" pt_clust_6="13000.00000" pt_clust_7="13000.00000" pt_clust_8="13000.00000" pt_clust_9="50.63761"></scales>
<clustering>
<clus scale="   50.638">  1  9  2 -1</clus>
<clus scale="   89.940">  7  8 -1 -1</clus>
<clus scale="   91.253">  5  6 -1 -1</clus>
<clus scale="  101.898">  1  7  2 -1</clus>
<clus scale="   50.638">  1  5  2 -1</clus>
</clustering>
</event>
<event>
 9    1  0.1881049E-005  0.1570663E+03  0.7546771E-02  0.1192388E+00
         21   -1    0    0  501  502  0.00000000000E+00  0.00000000000E+00  0.54622909145E+02  0.54622909145E+02  0.00000000000E+00 0.  1.
          1   -1    0    0  502    0 -0.00000000000E+00 -0.00000000000E+00 -0.59391961743E+03  0.59391961743E+03  0.00000000000E+00 0. -1.
         23    2    1    2    0    0  0.95161867152E+02 -0.67785096755E+02 -0.30263333041E+03  0.33715622746E+03  0.91851993679E+02 0.  0.
         23    2    1    2    0    0 -0.12221036891E+03  0.79697066175E+02 -0.21399543676E+03  0.27413912450E+03  0.89839946565E+02 0.  0.
        -11    1    4    4    0    0 -0.91636689444E+02  0.58588884448E+02 -0.79811153221E+02  0.13490648766E+03  0.00000000000E+00 0.  1.
         11    1    4    4    0    0 -0.30573679462E+02  0.21108181727E+02 -0.13418428354E+03  0.13923263684E+03  0.00000000000E+00 0. -1.
        -11    1    3    3    0    0  0.39562532507E+02 -0.71377651731E+02 -0.11220114613E+03  0.13874098291E+03  0.00000000000E+00 0.  1.
         11    1    3    3    0    0  0.55599334645E+02  0.35925549762E+01 -0.19043218428E+03  0.19841524456E+03  0.00000000000E+00 0. -1.
          1    1    1    2  501    0  0.27048501753E+02 -0.11911969420E+02 -0.22667941118E+02  0.37247174619E+02  0.00000000000E+00 0. -1.
<scales pt_clust_5="13000.00000" pt_clust_6="13000.00000" pt_clust_7="13000.00000" pt_clust_8="13000.00000" pt_clust_9="29.55531"></scales>
<clustering>
<clus scale="   29.555">  1  9  2 -1</clus>
<clus scale="   89.840">  5  6 -1 -1</clus>
<clus scale="   91.852">  7  8 -1 -1</clus>
<clus scale="  155.898">  1  5  2 -1</clus>
<clus scale="   29.555">  1  5  2 -1</clus>
</clustering>
</event>
<event>
 9    1  0.1881049E-005  0.1323043E+03  0.7546771E-02  0.1224859E+00
         21   -1    0    0  501  502  0.00000000000E+00  0.00000000000E+00  0.96507479444E+02  0.96507479444E+02  0.00000000000E+00 0. -1.
          3   -1    0    0  502    0 -0.00000000000E+00 -0.00000000000E+00 -0.65949553797E+03  0.65949553797E+03  0.00000000000E+00 0. -1.
         23    2    1    2    0    0 -0.81330051983E+02  0.59417003492E+02 -0.50537422985E+03  0.52376162342E+03  0.93691879660E+02 0.  0.
         23    2    1    2    0    0  0.58197433800E+02 -0.46124909413E+02 -0.11795499974E+03  0.16626522623E+03  0.90643780369E+02 0.  0.
        -11    1    3    3    0    0 -0.79575846915E+02  0.89080246014E+01 -0.22393101893E+03  0.23781667215E+03  0.00000000000E+00 0.  1.
         11    1    3    3    0    0 -0.17542050677E+01  0.50508978890E+02 -0.28144321092E+03  0.28594495127E+03  0.00000000000E+00 0. -1.
        -11    1    4    4    0    0  0.19474800338E+02 -0.69310730313E+02 -0.74857132379E+02  0.10385969118E+03  0.00000000000E+00 0.  1.
         11    1    4    4    0    0  0.38722633462E+02  0.23185820900E+02 -0.43097867360E+02  0.62405535043E+02  0.00000000000E+00 0. -1.
          3    1    1    2  501    0  0.23132618183E+02 -0.13292094079E+02  0.60341171058E+02  0.65976167770E+02  0.00000000000E+00 0. -1.
<scales pt_clust_5="13000.00000" pt_clust_6="13000.00000" pt_clust_7="13000.00000" pt_clust_8="13000.00000" pt_clust_9="26.67954"></scales>
<clustering>
<clus scale="   26.680">  1  9  2 -1</clus>
<clus scale="   90.644">  7  8 -1 -1</clus>
<clus scale="   93.692">  5  6 -1 -1</clus>
<clus scale="  130.164">  1  7  2 -1</clus>
<clus scale="   26.680">  1  5  2 -1</clus>
</clustering>
</event>
<event>
 9    1  0.1881049E-005  0.1052543E+03  0.7546771E-02  0.1273135E+00
          2   -1    0    0  502    0 -0.00000000000E+00  0.00000000000E+00  0.15124240134E+03  0.15124240134E+03  0.00000000000E+00 0. -1.
         21   -1    0    0  501  502  0.00000000000E+00 -0.00000000000E+00 -0.16603181808E+03  0.16603181808E+03  0.00000000000E+00 0. -1.
         23    2    1    2    0    0  0.41309856256E+02  0.80560837623E+01  0.88249600769E+02  0.13894312908E+03  0.98720800106E+02 0.  0.
         23    2    1    2    0    0 -0.46191637864E+01 -0.22837183987E+02 -0.10183441136E+03  0.13875661734E+03  0.91325121795E+02 0.  0.
        -11    1    4    4    0    0  0.75313661402E+01  0.21515052693E+02  0.42006624213E+01  0.23178967473E+02  0.00000000000E+00 0.  1.
         11    1    4    4    0    0 -0.12150529927E+02 -0.44352236681E+02 -0.10603507378E+03  0.11557764986E+03  0.00000000000E+00 0. -1.
        -13    1    3    3    0    0  0.62959227029E+02  0.35491407892E+02  0.62211920554E+02  0.95361561235E+02  0.00000000000E+00 0. -1.
         13    1    3    3    0    0 -0.21649370773E+02 -0.27435324130E+02  0.26037680214E+02  0.43581567846E+02  0.00000000000E+00 0.  1.
          2    1    1    2  501    0 -0.36690692470E+02  0.14781100225E+02 -0.12046061421E+01  0.39574473006E+02  0.00000000000E+00 0. -1.
<scales pt_clust_5="13000.00000" pt_clust_6="13000.00000" pt_clust_7="13000.00000" pt_clust_8="13000.00000" pt_clust_9="39.55616"></scales>
<clustering>
<clus scale="   39.556">  2  9  1 -1</clus>
<clus scale="   91.325">  5  6 -1 -1</clus>
<clus scale="   98.351">  2  5  1 -1</clus>
<clus scale="   98.721">  7  8 -1 -1</clus>
<clus scale="   39.556">  2  5  1 -1</clus>
</clustering>
</event>
<event>
 9    1  0.1881049E-005  0.1676845E+03  0.7546771E-02  0.1181172E+00
          1   -1    0    0  502    0 -0.00000000000E+00  0.00000000000E+00  0.22103573961E+03  0.22103573961E+03  0.00000000000E+00 0. -1.
         21   -1    0    0  501  502  0.00000000000E+00 -0.00000000000E+00 -0.25683650962E+03  0.25683650962E+03  0.00000000000E+00 0.  1.
         23    2    1    2    0    0 -0.39169951703E+02  0.12463330800E+03  0.24304014228E+02  0.15684953462E+03  0.83326735334E+02 0.  0.
         23    2    1    2    0    0 -0.51609955627E+02 -0.17702179369E+03 -0.67715161268E+02  0.21593483308E+03  0.89678348047E+02 0.  0.
        -11    1    4    4    0    0 -0.11521906873E+02 -0.13251229031E+03 -0.11037114506E+02  0.13346939468E+03  0.00000000000E+00 0.  1.
         11    1    4    4    0    0 -0.40088048754E+02 -0.44509503383E+02 -0.56678046763E+02  0.82465438392E+02  0.00000000000E+00 0. -1.
        -13    1    3    3    0    0  0.92153080472E+01  0.22367769842E+02 -0.23778662393E+02  0.33921435926E+02  0.00000000000E+00 0.  1.
         13    1    3    3    0    0 -0.48385259750E+02  0.10226553816E+03  0.48082676620E+02  0.12292809869E+03  0.00000000000E+00 0. -1.
          1    1    1    2  501    0  0.90779907330E+02  0.52388485688E+02  0.76103770277E+01  0.10508788154E+03  0.00000000000E+00 0. -1.
<scales pt_clust_5="13000.00000" pt_clust_6="13000.00000" pt_clust_7="13000.00000" pt_clust_8="13000.00000" pt_clust_9="104.81200"></scales>
<clustering>
<clus scale="   83.327">  7  8 -1 -1</clus>
<clus scale="   89.678">  5  6 -1 -1</clus>
<clus scale="  104.812">  2  9  1 -1</clus>
<clus scale="  164.375">  1  7  2 -1</clus>
<clus scale="  104.812">  2  5  1 -1</clus>
</clustering>
</event>
<event>
 9    1  0.1881049E-005  0.3044513E+03  0.7546771E-02  0.1083048E+00
          3   -1    0    0  502    0 -0.00000000000E+00  0.00000000000E+00  0.56985365970E+03  0.56985365970E+03  0.00000000000E+00 0. -1.
         21   -1    0    0  501  502  0.00000000000E+00 -0.00000000000E+00 -0.46757253140E+03  0.46757253140E+03  0.00000000000E+00 0. -1.
         23    2    1    2    0    0  0.21457183282E+03 -0.19443110889E+03  0.42590890315E+03  0.52294689451E+03  0.90722285862E+02 0.  0.
         23    2    1    2    0    0 -0.26989129358E+03  0.14182975926E+03 -0.22474586696E+03  0.38956021707E+03  0.91046510340E+02 0.  0.
        -13    1    4    4    0    0 -0.22667641719E+03  0.12224230888E+03 -0.14177771398E+03  0.29398350357E+03  0.00000000000E+00 0. -1.
         13    1    4    4    0    0 -0.43214876390E+02  0.19587450384E+02 -0.82968152989E+02  0.95576713504E+02  0.00000000000E+00 0.  1.
        -13    1    3    3    0    0  0.18127447074E+03 -0.18758868733E+03  0.40867359402E+03  0.48483404976E+03  0.00000000000E+00 0. -1.
         13    1    3    3    0    0  0.33297362077E+02 -0.68424215615E+01  0.17235309127E+02  0.38112844749E+02  0.00000000000E+00 0.  1.
          3    1    1    2  501    0  0.55319460762E+02  0.52601349634E+02 -0.98881907880E+02  0.12491907952E+03  0.00000000000E+00 0. -1.
<scales pt_clust_5="13000.00000" pt_clust_6="13000.00000" pt_clust_7="13000.00000" pt_clust_8="13000.00000" pt_clust_9="76.33574"></scales>
<clustering>
<clus scale="   76.336">  2  9  1 -1</clus>
<clus scale="   90.722">  7  8 -1 -1</clus>
<clus scale="   91.047">  5  6 -1 -1</clus>
<clus scale="  304.355">  1  7  2 -1</clus>
<clus scale="   76.336">  2  5  1 -1</clus>
</clustering>
</event>
<event>
 9    1  0.1881049E-005  0.1134760E+03  0.7546771E-02  0.1261572E+00
         21   -1    0    0  501  502  0.00000000000E+00  0.00000000000E+00  0.15829840201E+03  0.15829840201E+03  0.00000000000E+00 0. -1.
          3   -1    0    0  502    0 -0.00000000000E+00 -0.00000000000E+00 -0.21946058291E+03  0.21946058291E+03  0.00000000000E+00 0. -1.
         23    2    1    2    0    0  0.52751259543E+02  0.55824590010E+01 -0.11497141270E+03  0.15037012287E+03  0.81110350033E+02 0.  0.
         23    2    1    2    0    0 -0.57413613447E+02 -0.25769932456E+02 -0.45580901955E+02  0.12586216451E+03  0.99011380175E+02 0.  0.
        -11    1    3    3    0    0  0.50471021748E+02  0.37844477142E+02 -0.62983662247E+02  0.89142976148E+02  0.00000000000E+00 0.  1.
         11    1    3    3    0    0  0.22802377953E+01 -0.32262018141E+02 -0.51987750449E+02  0.61227146721E+02  0.00000000000E+00 0. -1.
        -13    1    4    4    0    0 -0.24020909703E+02  0.16030630751E+01  0.30213364728E+02  0.38631869258E+02  0.00000000000E+00 0.  1.
         13    1    4    4    0    0 -0.33392703744E+02 -0.27372995531E+02 -0.75794266683E+02  0.87230295252E+02  0.00000000000E+00 0. -1.
          3    1    1    2  501    0  0.46623539044E+01  0.20187473455E+02  0.99390133745E+02  0.10152669754E+03  0.00000000000E+00 0. -1.
<scales pt_clust_5="13000.00000" pt_clust_6="13000.00000" pt_clust_7="13000.00000" pt_clust_8="13000.00000" pt_clust_9="20.71887"></scales>
<clustering>
<clus scale="   20.719">  1  9  2 -1</clus>
<clus scale="   81.110">  5  6 -1 -1</clus>
<clus scale="   98.247">  2  5  1 -1</clus>
<clus scale="   99.011">  7  8 -1 -1</clus>
<clus scale="   20.719">  1  5  2 -1</clus>
</clustering>
</event>
<event>
 9    1  0.1881049E-005  0.9824479E+02  0.7546771E-02  0.1285652E+00
         21   -1    0    0  501  502  0.00000000000E+00  0.00000000000E+00  0.14844449208E+03  0.14844449208E+03  0.00000000000E+00 0.  1.
          4   -1    0    0  502    0 -0.00000000000E+00 -0.00000000000E+00 -0.93405478470E+02  0.93405478470E+02  0.00000000000E+00 0. -1.
         23    2    1    2    0    0 -0.37897290029E+02  0.12726196802E+02 -0.18568001281E+02  0.99424257225E+02  0.89119310907E+02 0.  0.
         23    2    1    2    0    0  0.24090463461E+02  0.31967628662E+01  0.41590240374E+02  0.10409500821E+03  0.92279211724E+02 0.  0.
        -11    1    3    3    0    0  0.34929653319E+01 -0.28165202876E+02  0.15155941959E+02  0.32174244926E+02  0.00000000000E+00 0.  1.
         11    1    3    3    0    0 -0.41390255361E+02  0.40891399678E+02 -0.33723943240E+02  0.67250012299E+02  0.00000000000E+00 0. -1.
        -13    1    4    4    0    0  0.28305657164E+02 -0.35472963261E+02  0.46395469838E+02  0.64900546774E+02  0.00000000000E+00 0.  1.
         13    1    4    4    0    0 -0.42151937037E+01  0.38669726127E+02 -0.48052294639E+01  0.39194461432E+02  0.00000000000E+00 0. -1.
          4    1    1    2  501    0  0.13806826568E+02 -0.15922959668E+02  0.32016774520E+02  0.38330705122E+02  0.00000000000E+00 0. -1.
<scales pt_clust_5="13000.00000" pt_clust_6="13000.00000" pt_clust_7="13000.00000" pt_clust_8="13000.00000" pt_clust_9="21.07532"></scales>
<clustering>
<clus scale="   21.075">  1  9  2 -1</clus>
<clus scale="   89.119">  5  6 -1 -1</clus>
<clus scale="   92.279">  7  8 -1 -1</clus>
<clus scale="   95.283">  2  5  1 -1</clus>
<clus scale="   21.075">  1  5  2 -1</clus>
</clustering>
</event>
<event>
 9    1  0.1881049E-005  0.1138126E+03  0.7546771E-02  0.1268088E+00
          2   -1    0    0  502    0 -0.00000000000E+00  0.00000000000E+00  0.35906648119E+03  0.35906648119E+03  0.00000000000E+00 0. -1.
         21   -1    0    0  501  502  0.00000000000E+00 -0.00000000000E+00 -0.63327310979E+02  0.63327310979E+02  0.00000000000E+00 0. -1.
         23    2    1    2    0    0  0.33902341012E+02  0.72830130018E+02  0.22636179896E+03  0.25744254097E+03  0.92646647577E+02 0.  0.
         23    2    1    2    0    0 -0.10488805400E+02 -0.53620129039E+02  0.96965755236E+02  0.12398374312E+03  0.54630372438E+02 0.  0.
        -13    1    3    3    0    0 -0.94600490978E+01 -0.18173307271E+02  0.54145397094E+02  0.57892017175E+02  0.00000000000E+00 0.  1.
         13    1    3    3    0    0  0.43362390110E+02  0.91003437290E+02  0.17221640187E+03  0.19955052379E+03  0.00000000000E+00 0. -1.
        -13    1    4    4    0    0 -0.30253130773E+02 -0.43683243007E+02  0.80290841744E+02  0.96281342477E+02  0.00000000000E+00 0.  1.
         13    1    4    4    0    0  0.19764325372E+02 -0.99368860313E+01  0.16674913492E+02  0.27702400643E+02  0.00000000000E+00 0. -1.
          2    1    1    2  501    0 -0.23413535612E+02 -0.19210000979E+02 -0.27588383985E+02  0.40967508081E+02  0.00000000000E+00 0. -1.
<scales pt_clust_5="13000.00000" pt_clust_6="13000.00000" pt_clust_7="13000.00000" pt_clust_8="13000.00000" pt_clust_9="30.28560"></scales>
<clustering>
<clus scale="   30.286">  2  9  1 -1</clus>
<clus scale="   54.630">  7  8 -1 -1</clus>
<clus scale="   85.758">  2  7  1 -1</clus>
<clus scale="   92.647">  5  6 -1 -1</clus>
<clus scale="   30.286">  2  5  1 -1</clus>
</clustering>
</event>
<event>
 9    1  0.1881049E-005  0.1236132E+03  0.7546771E-02  0.1237348E+00
         21   -1    0    0  501  502  0.00000000000E+00  0.00000000000E+00  0.97325700196E+02  0.97325700196E+02  0.00000000000E+00 0. -1.
          2   -1    0    0  502    0 -0.00000000000E+00 -0.00000000000E+00 -0.50831797630E+03  0.50831797630E+03  0.00000000000E+00 0. -1.
         23    2    1    2    0    0  0.82165404347E+02  0.15583184662E+02 -0.28636665675E+03  0.31179742208E+03  0.90651977359E+02 0.  0.
         23    2    1    2    0    0 -0.76309871121E+02 -0.39417581184E+02 -0.18803286345E+03  0.22585475252E+03  0.90978400512E+02 0.  0.
        -13    1    4    4    0    0 -0.97331818278E+02 -0.34619945469E+02 -0.16069993388E+03  0.19104055125E+03  0.00000000000E+00 0.  1.
         13    1    4    4    0    0  0.21021947157E+02 -0.47976357147E+01 -0.27332929571E+02  0.34814201264E+02  0.00000000000E+00 0. -1.
        -13    1    3    3    0    0 -0.49978743925E+01 -0.19712482331E+02 -0.17060004413E+02  0.26544386576E+02  0.00000000000E+00 0.  1.
         13    1    3    3    0    0  0.87163278740E+02  0.35295666993E+02 -0.26930665234E+03  0.28525303550E+03  0.00000000000E+00 0. -1.
          2    1    1    2  501    0 -0.58555332261E+01  0.23834396522E+02  0.63407244098E+02  0.67991501903E+02  0.00000000000E+00 0. -1.
<scales pt_clust_5="13000.00000" pt_clust_6="13000.00000" pt_clust_7="13000.00000" pt_clust_8="13000.00000" pt_clust_9="24.54314"></scales>
<clustering>
<clus scale="   24.543">  1  9  2 -1</clus>
<clus scale="   90.652">  7  8 -1 -1</clus>
<clus scale="   90.978">  5  6 -1 -1</clus>
<clus scale="  123.373">  2  7  1 -1</clus>
<clus scale="   24.543">  1  5  2 -1</clus>
</clustering>
</event>
<event>
 9    1  0.1881049E-005  0.9700962E+02  0.7546771E-02  0.1287248E+00
          1   -1    0    0  502    0 -0.00000000000E+00  0.00000000000E+00  0.33928954753E+03  0.33928954753E+03  0.00000000000E+00 0. -1.
         21   -1    0    0  501  502  0.00000000000E+00 -0.00000000000E+00 -0.89930717766E+02  0.89930717766E+02  0.00000000000E+00 0. -1.
         23    2    1    2    0    0  0.24331829696E+02  0.17462499736E+02  0.25257508880E+03  0.27052295419E+03  0.92149424468E+02 0.  0.
         23    2    1    2    0    0 -0.24586287235E+01 -0.23637492066E+02  0.44424181781E+02  0.10591304213E+03  0.93162700043E+02 0.  0.
        -11    1    4    4    0    0 -0.44457210754E+02 -0.28053448730E+02  0.33350879871E+02  0.62255287019E+02  0.00000000000E+00 0.  1.
         11    1    4    4    0    0  0.41998582031E+02  0.44159566639E+01  0.11073301910E+02  0.43657755108E+02  0.00000000000E+00 0. -1.
        -13    1    3    3    0    0  0.24841919192E+02  0.44963280286E+02  0.22774919725E+03  0.23347058566E+03  0.00000000000E+00 0. -1.
         13    1    3    3    0    0 -0.51008949629E+00 -0.27500780550E+02  0.24825891547E+02  0.37052368524E+02  0.00000000000E+00 0.  1.
          1    1    1    2  501    0 -0.21873200973E+02  0.61749923296E+01 -0.47640440812E+02  0.52784268980E+02  0.00000000000E+00 0. -1.
<scales pt_clust_5="13000.00000" pt_clust_6="13000.00000" pt_clust_7="13000.00000" pt_clust_8="13000.00000" pt_clust_9="22.72812"></scales>
<clustering>
<clus scale="   22.728">  2  9  1 -1</clus>
<clus scale="   92.149">  7  8 -1 -1</clus>
<clus scale="   93.163">  5  6 -1 -1</clus>
<clus scale="   96.037">  1  7  2 -1</clus>
<clus scale="   22.728">  2  5  1 -1</clus>
</clustering>
</event>
<event>
 9    1  0.1881049E-005  0.4023208E+03  0.7546771E-02  0.1043073E+00
          1   -1    0    0  502    0 -0.00000000000E+00  0.00000000000E+00  0.19014249219E+03  0.19014249219E+03  0.00000000000E+00 0. -1.
         21   -1    0    0  501  502  0.00000000000E+00 -0.00000000000E+00 -0.15180610918E+04  0.15180610918E+04  0.00000000000E+00 0.  1.
         23    2    1    2    0    0 -0.89679327318E+02 -0.35870262888E+03 -0.17807940760E+03  0.42016687701E+03  0.90099785858E+02 0.  0.
         23    2    1    2    0    0  0.57796887121E+02  0.46053096421E+03 -0.93973131444E+03  0.10523869243E+04  0.94836943825E+02 0.  0.
        -13    1    4    4    0    0  0.68393956074E+02  0.23927591456E+03 -0.55930919251E+03  0.61217437821E+03  0.00000000000E+00 0.  1.
         13    1    4    4    0    0 -0.10597068953E+02  0.22125504965E+03 -0.38042212194E+03  0.44021254608E+03  0.00000000000E+00 0. -1.
        -13    1    3    3    0    0  0.16949946894E+02 -0.47389622202E+02 -0.12839245807E+02  0.51941536607E+02  0.00000000000E+00 0. -1.
         13    1    3    3    0    0 -0.10662927421E+03 -0.31131300667E+03 -0.16524016179E+03  0.36822534040E+03  0.00000000000E+00 0.  1.
          1    1    1    2  501    0  0.31882440197E+02 -0.10182833533E+03 -0.21010787755E+03  0.23564978268E+03  0.00000000000E+00 0. -1.
<scales pt_clust_5="13000.00000" pt_clust_6="13000.00000" pt_clust_7="13000.00000" pt_clust_8="13000.00000" pt_clust_9="106.70286"></scales>
<clustering>
<clus scale="   90.100">  7  8 -1 -1</clus>
<clus scale="   94.837">  5  6 -1 -1</clus>
<clus scale="  106.703">  2  9  1 -1</clus>
<clus scale="  401.231">  1  7  2 -1</clus>
<clus scale="  106.703">  2  5  1 -1</clus>
</clustering>
</event>
<event>
 9    1  0.1881049E-005  0.9492196E+02  0.7546771E-02  0.1292099E+00
         21   -1    0    0  501  502  0.00000000000E+00  0.00000000000E+00  0.28651872910E+03  0.28651872910E+03  0.00000000000E+00 0.  1.
         -2   -1    0    0    0  501 -0.00000000000E+00 -0.00000000000E+00 -0.11133153651E+03  0.11133153651E+03  0.00000000000E+00 0.  1.
         23    2    1    2    0    0 -0.27632012381E+02 -0.82380664569E+01 -0.59602386892E+02  0.11397247356E+03  0.92767916647E+02 0.  0.
         23    2    1    2    0    0 -0.14220724929E+02  0.57026288344E+01  0.76675260188E+02  0.12029839839E+03  0.91421333056E+02 0.  0.
        -11    1    4    4    0    0 -0.51197791180E+02  0.14439272221E+01  0.26049223784E+02  0.57461820431E+02  0.00000000000E+00 0. -1.
         11    1    4    4    0    0  0.36977066251E+02  0.42587016123E+01  0.50626036404E+02  0.62836577961E+02  0.00000000000E+00 0.  1.
        -11    1    3    3    0    0 -0.43160124825E+02 -0.37942415169E+02 -0.56036245339E+02  0.80265086031E+02  0.00000000000E+00 0.  1.
         11    1    3    3    0    0  0.15528112445E+02  0.29704348712E+02 -0.35661415531E+01  0.33707387530E+02  0.00000000000E+00 0. -1.
         -2    1    1    2    0  502  0.41852737310E+02  0.25354376224E+01  0.15811431929E+03  0.16357939366E+03  0.00000000000E+00 0.  1.
<scales pt_clust_5="13000.00000" pt_clust_6="13000.00000" pt_clust_7="13000.00000" pt_clust_8="13000.00000" pt_clust_9="41.92947"></scales>
<clustering>
<clus scale="   41.929">  1  9  2 -1</clus>
<clus scale="   91.421">  5  6 -1 -1</clus>
<clus scale="   92.768">  7  8 -1 -1</clus>
<clus scale="   93.606">  1  5  2 -1</clus>
<clus scale="   41.929">  1  5  2 -1</clus>
</clustering>
</event>
<event>
 9    1  0.1881049E-005  0.1262134E+03  0.7546771E-02  0.1234483E+00
          1   -1    0    0  502    0 -0.00000000000E+00  0.00000000000E+00  0.78539423414E+02  0.78539423414E+02  0.00000000000E+00 0. -1.
         21   -1    0    0  501  502  0.00000000000E+00 -0.00000000000E+00 -0.30711998558E+03  0.30711998558E+03  0.00000000000E+00 0.  1.
         23    2    1    2    0    0  0.65957829371E+00 -0.75438744787E+02 -0.25916036868E+02  0.12512412479E+03  0.96400033086E+02 0.  0.
         23    2    1    2    0    0  0.20024289606E+02  0.95045470617E+02 -0.15278236866E+03  0.20308551797E+03  0.92014465047E+02 0.  0.
        -11    1    3    3    0    0  0.32381920850E+02 -0.22160676947E+02  0.23585308308E+02  0.45781559264E+02  0.00000000000E+00 0. -1.
         11    1    3    3    0    0 -0.31722342557E+02 -0.53278067840E+02 -0.49501345175E+02  0.79342565526E+02  0.00000000000E+00 0.  1.
        -13    1    4    4    0    0  0.38450306222E+02  0.70799185162E+02 -0.47586672361E+02  0.93570519153E+02  0.00000000000E+00 0. -1.
         13    1    4    4    0    0 -0.18426016616E+02  0.24246285455E+02 -0.10519569630E+03  0.10951499882E+03  0.00000000000E+00 0.  1.
          1    1    1    2  501    0 -0.20683867899E+02 -0.19606725830E+02 -0.49882156639E+02  0.57449766231E+02  0.00000000000E+00 0. -1.
<scales pt_clust_5="13000.00000" pt_clust_6="13000.00000" pt_clust_7="13000.00000" pt_clust_8="13000.00000" pt_clust_9="28.49993"></scales>
<clustering>
<clus scale="   28.500">  2  9  1 -1</clus>
<clus scale="   92.014">  7  8 -1 -1</clus>
<clus scale="   96.400">  5  6 -1 -1</clus>
<clus scale="  122.896">  2  7  1 -1</clus>
<clus scale="   28.500">  2  5  1 -1</clus>
</clustering>
</event>
<event>
 9    1  0.1881049E-005  0.1418408E+03  0.7546771E-02  0.1214488E+00
         21   -1    0    0  501  502  0.00000000000E+00  0.00000000000E+00  0.70784607258E+02  0.70784607258E+02  0.00000000000E+00 0. -1.
          3   -1    0    0  502    0 -0.00000000000E+00 -0.00000000000E+00 -0.44268972789E+03  0.44268972789E+03  0.00000000000E+00 0. -1.
         23    2    1    2    0    0 -0.24254156520E+02 -0.81421427963E+02 -0.24780110347E+03  0.28226437400E+03  0.10511934600E+03 0.  0.
         23    2    1    2    0    0  0.34556881306E+02  0.10867393616E+03 -0.13649617188E+03  0.19954908878E+03  0.90467847589E+02 0.  0.
        -11    1    4    4    0    0  0.49424165191E+02  0.34686696922E+02 -0.97294936432E+02  0.11450860100E+03  0.00000000000E+00 0. -1.
         11    1    4    4    0    0 -0.14867283884E+02  0.73987239238E+02 -0.39201235447E+02  0.85040487774E+02  0.00000000000E+00 0.  1.
        -11    1    3    3    0    0 -0.26495824570E+02  0.13398270405E+02 -0.20817730162E+02  0.36261829223E+02  0.00000000000E+00 0.  1.
         11    1    3    3    0    0  0.22416680502E+01 -0.94819698369E+02 -0.22698337331E+03  0.24600254477E+03  0.00000000000E+00 0. -1.
          3    1    1    2  501    0 -0.10302724786E+02 -0.27252508197E+02  0.12392154720E+02  0.31660872377E+02  0.00000000000E+00 0. -1.
<scales pt_clust_5="13000.00000" pt_clust_6="13000.00000" pt_clust_7="13000.00000" pt_clust_8="13000.00000" pt_clust_9="29.13495"></scales>
<clustering>
<clus scale="   29.135">  1  9  2 -1</clus>
<clus scale="   90.468">  5  6 -1 -1</clus>
<clus scale="  105.119">  7  8 -1 -1</clus>
<clus scale="  131.351">  1  5  2 -1</clus>
<clus scale="   29.135">  1  5  2 -1</clus>
</clustering>
</event>
<event>
 9    1  0.1881049E-005  0.1917446E+03  0.7546771E-02  0.1157510E+00
         -1   -1    0    0    0  501 -0.00000000000E+00  0.00000000000E+00  0.75309522065E+03  0.75309522065E+03  0.00000000000E+00 0.  1.
         21   -1    0    0  501  502  0.00000000000E+00 -0.00000000000E+00 -0.10892979341E+03  0.10892979341E+03  0.00000000000E+00 0.  1.
         23    2    1    2    0    0 -0.73817774416E+01  0.18208702751E+03  0.56882170391E+03  0.60347531574E+03  0.86105456577E+02 0.  0.
         23    2    1    2    0    0  0.52582357603E+02 -0.12461522719E+03  0.85802458922E+02  0.18468844034E+03  0.91945086106E+02 0.  0.
        -11    1    4    4    0    0  0.72032452502E+02 -0.98828633519E+02  0.90379200876E+02  0.15206634397E+03  0.00000000000E+00 0.  1.
         11    1    4    4    0    0 -0.19450094900E+02 -0.25786593671E+02 -0.45767419538E+01  0.32622096371E+02  0.00000000000E+00 0. -1.
        -13    1    3    3    0    0  0.20397193946E+02  0.16931557117E+03  0.46713024930E+03  0.49728711824E+03  0.00000000000E+00 0.  1.
         13    1    3    3    0    0 -0.27778971387E+02  0.12771456345E+02  0.10169145461E+03  0.10618819750E+03  0.00000000000E+00 0. -1.
         -1    1    1    2    0  502 -0.45200580161E+02 -0.57471800323E+02 -0.10458735593E+02  0.73861257974E+02  0.00000000000E+00 0.  1.
<scales pt_clust_5="13000.00000" pt_clust_6="13000.00000" pt_clust_7="13000.00000" pt_clust_8="13000.00000" pt_clust_9="73.11703"></scales>
<clustering>
<clus scale="   73.117">  2  9  1 -1</clus>
<clus scale="   86.105">  7  8 -1 -1</clus>
<clus scale="   91.945">  5  6 -1 -1</clus>
<clus scale="  189.014">  1  7  2 -1</clus>
<clus scale="   73.117">  2  5  1 -1</clus>
</clustering>
</event>
<event>
 9    1  0.1881049E-005  0.9901551E+02  0.7546771E-02  0.1282500E+00
         -3   -1    0    0    0  501 -0.00000000000E+00  0.00000000000E+00  0.15040052706E+03  0.15040052706E+03  0.00000000000E+00 0.  1.
         21   -1    0    0  501  502  0.00000000000E+00 -0.00000000000E+00 -0.90238976344E+02  0.90238976344E+02  0.00000000000E+00 0. -1.
         23    2    1    2    0    0  0.26559682975E+02  0.68612643239E+01  0.64176987928E+02  0.11824546145E+03  0.95450561368E+02 0.  0.
         23    2    1    2    0    0 -0.23308608823E+02  0.15292800543E+02 -0.64529263300E+01  0.99870422656E+02  0.95683332245E+02 0.  0.
        -11    1    4    4    0    0  0.27117089067E+02  0.34595836073E+02 -0.12072881433E+02  0.45584677899E+02  0.00000000000E+00 0. -1.
         11    1    4    4    0    0 -0.50425697891E+02 -0.19303035530E+02  0.56199551033E+01  0.54285744757E+02  0.00000000000E+00 0.  1.
        -13    1    3    3    0    0 -0.32699026366E+02 -0.15097131500E+02  0.20739540353E+02  0.41560537037E+02  0.00000000000E+00 0.  1.
         13    1    3    3    0    0  0.59258709341E+02  0.21958395824E+02  0.43437447575E+02  0.76684924410E+02  0.00000000000E+00 0. -1.
         -3    1    1    2    0  502 -0.32510741517E+01 -0.22154064867E+02  0.24374891187E+01  0.22523619302E+02  0.00000000000E+00 0.  1.
<scales pt_clust_5="13000.00000" pt_clust_6="13000.00000" pt_clust_7="13000.00000" pt_clust_8="13000.00000" pt_clust_9="22.39134"></scales>
<clustering>
<clus scale="   22.391">  2  9  1 -1</clus>
<clus scale="   95.451">  7  8 -1 -1</clus>
<clus scale="   95.683">  5  6 -1 -1</clus>
<clus scale="   98.791">  1  7  2 -1</clus>
<clus scale="   22.391">  2  5  1 -1</clus>
</clustering>
</event>
<event>
 9    1  0.1881049E-005  0.9580676E+02  0.7546771E-02  0.1289671E+00
         -3   -1    0    0    0  501 -0.00000000000E+00  0.00000000000E+00  0.12487591458E+03  0.12487591458E+03  0.00000000000E+00 0.  1.
         21   -1    0    0  501  502  0.00000000000E+00 -0.00000000000E+00 -0.40687114930E+03  0.40687114930E+03  0.00000000000E+00 0. -1.
         23    2    1    2    0    0  0.29898254227E+02  0.12914515020E+00  0.88003461132E+02  0.13016999505E+03  0.91135592140E+02 0.  0.
         23    2    1    2    0    0 -0.22699208215E+02 -0.45428837951E+02 -0.19808468908E+03  0.22364923471E+03  0.90567117452E+02 0.  0.
        -11    1    3    3    0    0  0.58047007318E+02 -0.19830003239E+02  0.58640509101E+02  0.84861024002E+02  0.00000000000E+00 0.  1.
         11    1    3    3    0    0 -0.28148753091E+02  0.19959148390E+02  0.29362952031E+02  0.45308971043E+02  0.00000000000E+00 0. -1.
        -13    1    4    4    0    0 -0.40633725837E+02 -0.35219017033E+02 -0.19560764756E+03  0.20286406932E+03  0.00000000000E+00 0. -1.
         13    1    4    4    0    0  0.17934517621E+02 -0.10209820918E+02 -0.24770415242E+01  0.20785165388E+02  0.00000000000E+00 0.  1.
         -3    1    1    2    0  502 -0.71990460115E+01  0.45299692801E+02 -0.17191400677E+03  0.17792783412E+03  0.00000000000E+00 0.  1.
<scales pt_clust_5="13000.00000" pt_clust_6="13000.00000" pt_clust_7="13000.00000" pt_clust_8="13000.00000" pt_clust_9="45.86816"></scales>
<clustering>
<clus scale="   45.868">  2  9  1 -1</clus>
<clus scale="   90.567">  7  8 -1 -1</clus>
<clus scale="   91.136">  5  6 -1 -1</clus>
<clus scale="   95.266">  2  7  1 -1</clus>
<clus scale="   45.868">  2  5  1 -1</clus>
</clustering>
</event>
<event>
 9    1  0.1881049E-005  0.1001488E+03  0.7546771E-02  0.1281612E+00
          2   -1    0    0  502    0 -0.00000000000E+00  0.00000000000E+00  0.25487260177E+03  0.25487260177E+03  0.00000000000E+00 0.  1.
         21   -1    0    0  501  502  0.00000000000E+00 -0.00000000000E+00 -0.88091434353E+02  0.88091434353E+02  0.00000000000E+00 0.  1.
         23    2    1    2    0    0 -0.25892435706E+02 -0.10417853031E+02  0.15329135920E+03  0.18033563513E+03  0.90795102300E+02 0.  0.
         23    2    1    2    0    0  0.60503038349E+02 -0.14787842900E+02  0.30019430712E+02  0.11673232989E+03  0.94053031179E+02 0.  0.
        -11    1    3    3    0    0 -0.43775959344E+02 -0.36063528133E+02  0.62927848936E+02  0.84716154596E+02  0.00000000000E+00 0.  1.
         11    1    3    3    0    0  0.17883523638E+02  0.25645675102E+02  0.90363510267E+02  0.95619480530E+02  0.00000000000E+00 0. -1.
        -13    1    4    4    0    0  0.42356622225E+02  0.28963068951E+02 -0.12796498798E+02  0.52883770581E+02  0.00000000000E+00 0. -1.
         13    1    4    4    0    0  0.18146416124E+02 -0.43750911851E+02  0.42815929510E+02  0.63848559308E+02  0.00000000000E+00 0.  1.
          2    1    1    2  501    0 -0.34610602643E+02  0.25205695931E+02 -0.16529622502E+02  0.45896071104E+02  0.00000000000E+00 0.  1.
<scales pt_clust_5="13000.00000" pt_clust_6="13000.00000" pt_clust_7="13000.00000" pt_clust_8="13000.00000" pt_clust_9="42.81613"></scales>
<clustering>
<clus scale="   42.816">  2  9  1 -1</clus>
<clus scale="   90.795">  5  6 -1 -1</clus>
<clus scale="   94.053">  7  8 -1 -1</clus>
<clus scale="   97.096">  1  5  2 -1</clus>
<clus scale="   42.816">  2  5  1 -1</clus>
</clustering>
</event>
<event>
 9    1  0.1881049E-005  0.1450705E+03  0.7546771E-02  0.1206905E+00
         -1   -1    0    0    0  501 -0.00000000000E+00  0.00000000000E+00  0.24313279442E+03  0.24313279442E+03  0.00000000000E+00 0.  1.
         21   -1    0    0  501  502  0.00000000000E+00 -0.00000000000E+00 -0.27846692190E+03  0.27846692190E+03  0.00000000000E+00 0. -1.
         23    2    1    2    0    0  0.21308638894E+02  0.96810199959E+02  0.13015598683E+03  0.18765059415E+03  0.91901532473E+02 0.  0.
         23    2    1    2    0    0 -0.50177168151E+02 -0.14884902928E+03 -0.28763082843E+02  0.18483268152E+03  0.93069992490E+02 0.  0.
        -11    1    4    4    0    0  0.75499861993E+01 -0.10027229673E+03  0.80625139857E+01  0.10087883779E+03  0.00000000000E+00 0.  1.
         11    1    4    4    0    0 -0.57727154350E+02 -0.48576732555E+02 -0.36825596829E+02  0.83953843729E+02  0.00000000000E+00 0. -1.
        -13    1    3    3    0    0  0.25343134751E+02  0.27379645208E+02  0.10861406133E+03  0.11484308325E+03  0.00000000000E+00 0.  1.
         13    1    3    3    0    0 -0.40344958568E+01  0.69430554750E+02  0.21541925493E+02  0.72807510902E+02  0.00000000000E+00 0. -1.
         -1    1    1    2    0  502  0.28868529257E+02  0.52038829325E+02 -0.13672703146E+03  0.14911644065E+03  0.00000000000E+00 0.  1.
<scales pt_clust_5="13000.00000" pt_clust_6="13000.00000" pt_clust_7="13000.00000" pt_clust_8="13000.00000" pt_clust_9="59.50993"></scales>
<clustering>
<clus scale="   59.510">  2  9  1 -1</clus>
<clus scale="   91.902">  7  8 -1 -1</clus>
<clus scale="   93.070">  5  6 -1 -1</clus>
<clus scale="  144.324">  1  7  2 -1</clus>
<clus scale="   59.510">  2  5  1 -1</clus>
</clustering>
</event>
<event>
 9    1  0.4631476E-005  0.1365012E+03  0.7546771E-02  0.1218834E+00
         21   -1    0    0  501  502  0.00000000000E+00  0.00000000000E+00  0.36661407108E+03  0.36661407108E+03  0.00000000000E+00 0. -1.
         -1   -1    0    0    0  501 -0.00000000000E+00 -0.00000000000E+00 -0.29749237518E+03  0.29749237518E+03  0.00000000000E+00 0.  1.
         23    2    1    2    0    0  0.44783962047E+02 -0.90804419903E+02 -0.26617257476E+03  0.29950115075E+03  0.92747257704E+02 0.  0.
         23    2    1    2    0    0 -0.28072553254E+02  0.75991303388E+02  0.28548579637E+03  0.31001973225E+03  0.89707012100E+02 0.  0.
        -11    1    3    3    0    0  0.72162646956E+02 -0.78972016045E+02 -0.21819217081E+03  0.24300586482E+03  0.00000000000E+00 0.  1.
         11    1    3    3    0    0 -0.27378684909E+02 -0.11832403857E+02 -0.47980403957E+02  0.56495285930E+02  0.00000000000E+00 0. -1.
        -13    1    4    4    0    0  0.32721025298E+02  0.21259102673E+02  0.88068613402E+02  0.96325986159E+02  0.00000000000E+00 0.  1.
         13    1    4    4    0    0 -0.60793578552E+02  0.54732200716E+02  0.19741718297E+03  0.21369374610E+03  0.00000000000E+00 0. -1.
         -1    1    1    2    0  502 -0.16711408793E+02  0.14813116514E+02  0.49808474293E+02  0.54585563257E+02  0.00000000000E+00 0.  1.
<scales pt_clust_5="13000.00000" pt_clust_6="13000.00000" pt_clust_7="13000.00000" pt_clust_8="13000.00000" pt_clust_9="22.33158"></scales>
<clustering>
<clus scale="   22.332">  1  9  2 -1</clus>
<clus scale="   89.707">  7  8 -1 -1</clus>
<clus scale="   92.747">  5  6 -1 -1</clus>
<clus scale="  134.454">  1  7  2 -1</clus>
<clus scale="   22.332">  1  5  2 -1</clus>
</clustering>
</event>
<event>
 9    1  0.1881049E-005  0.1618552E+03  0.7546771E-02  0.1187774E+00
          1   -1    0    0  502    0 -0.00000000000E+00  0.00000000000E+00  0.11245100039E+04  0.11245100039E+04  0.00000000000E+00 0. -1.
         21   -1    0    0  501  502  0.00000000000E+00 -0.00000000000E+00 -0.41609655121E+02  0.41609655121E+02  0.00000000000E+00 0. -1.
         23    2    1    2    0    0 -0.12426125186E+03 -0.75539461228E+02  0.83212084931E+03  0.84968497463E+03  0.91609930348E+02 0.  0.
         23    2    1    2    0    0  0.83981475877E+02  0.69275909952E+02  0.23578705177E+03  0.27300121902E+03  0.84155165106E+02 0.  0.
        -11    1    4    4    0    0  0.15221871609E+02  0.66734622238E+02  0.12726390657E+03  0.14450369232E+03  0.00000000000E+00 0.  1.
         11    1    4    4    0    0  0.68759604268E+02  0.25412877141E+01  0.10852314521E+03  0.12849752670E+03  0.00000000000E+00 0. -1.
        -13    1    3    3    0    0 -0.11351663502E+03 -0.24258526502E+02  0.64523948501E+03  0.65559781539E+03  0.00000000000E+00 0. -1.
         13    1    3    3    0    0 -0.10744616845E+02 -0.51280934726E+02  0.18688136430E+03  0.19408715923E+03  0.00000000000E+00 0.  1.
          1    1    1    2  501    0  0.40279775985E+02  0.62635512760E+01  0.14992447733E+02  0.43433465405E+02  0.00000000000E+00 0. -1.
<scales pt_clust_5="13000.00000" pt_clust_6="13000.00000" pt_clust_7="13000.00000" pt_clust_8="13000.00000" pt_clust_9="40.76386"></scales>
<clustering>
<clus scale="   40.764">  2  9  1 -1</clus>
<clus scale="   84.155">  5  6 -1 -1</clus>
<clus scale="   91.610">  7  8 -1 -1</clus>
<clus scale="  157.756">  2  5  1 -1</clus>
<clus scale="   40.764">  2  5  1 -1</clus>
</clustering>
</event>
<event>
 9    1  0.1881049E-005  0.1024814E+03  0.7546771E-02  0.1275936E+00
         -1   -1    0    0    0  501 -0.00000000000E+00  0.00000000000E+00  0.11042403225E+03  0.11042403225E+03  0.00000000000E+00 0.  1.
         21   -1    0    0  501  502  0.00000000000E+00 -0.00000000000E+00 -0.14418656939E+03  0.14418656939E+03  0.00000000000E+00 0. -1.
         23    2    1    2    0    0  0.64936654011E+01  0.35100976521E+02  0.23957793675E+02  0.10182895155E+03  0.92308792931E+02 0.  0.
         23    2    1    2    0    0  0.38372094769E+01 -0.62131218569E+02 -0.33203769112E+02  0.11485510585E+03  0.90632182796E+02 0.  0.
        -11    1    4    4    0    0  0.56896548190E-01 -0.85638714893E+02 -0.21359382631E+02  0.88262200018E+02  0.00000000000E+00 0.  1.
         11    1    4    4    0    0  0.37803129287E+01  0.23507496324E+02 -0.11844386482E+02  0.26592905828E+02  0.00000000000E+00 0. -1.
        -11    1    3    3    0    0  0.23638841915E+02  0.13739962941E+02  0.54395952037E+02  0.60881039961E+02  0.00000000000E+00 0.  1.
         11    1    3    3    0    0 -0.17145176514E+02  0.21361013580E+02 -0.30438158362E+02  0.40947911587E+02  0.00000000000E+00 0. -1.
         -1    1    1    2    0  502 -0.10330874878E+02  0.27030242048E+02 -0.24516561703E+02  0.37926544248E+02  0.00000000000E+00 0.  1.
<scales pt_clust_5="13000.00000" pt_clust_6="13000.00000" pt_clust_7="13000.00000" pt_clust_8="13000.00000" pt_clust_9="28.93719"></scales>
<clustering>
<clus scale="   28.937">  2  9  1 -1</clus>
<clus scale="   90.632">  5  6 -1 -1</clus>
<clus scale="   92.309">  7  8 -1 -1</clus>
<clus scale="  100.974">  2  5  1 -1</clus>
<clus scale="   28.937">  2  5  1 -1</clus>
</clustering>
</event>
<event>
 9    1  0.1881049E-005  0.1107183E+03  0.7546771E-02  0.1266816E+00
         -4   -1    0    0    0  501 -0.00000000000E+00  0.00000000000E+00  0.48855655044E+03  0.48855655044E+03  0.00000000000E+00 0.  1.
         21   -1    0    0  501  502  0.00000000000E+00 -0.00000000000E+00 -0.86682749693E+02  0.86682749693E+02  0.00000000000E+00 0.  1.
         23    2    1    2    0    0  0.51206464585E+02  0.23877723394E+02  0.28763747894E+03  0.30626730699E+03  0.88724835013E+02 0.  0.
         23    2    1    2    0    0 -0.40585544108E+01  0.31023372438E+02  0.15200162661E+03  0.18734311343E+03  0.10494773060E+03 0.  0.
        -11    1    4    4    0    0 -0.20259898497E+02 -0.15817699052E+02 -0.17865223229E+01  0.25765378949E+02  0.00000000000E+00 0. -1.
         11    1    4    4    0    0  0.16201344086E+02  0.46841071490E+02  0.15378814893E+03  0.16157773448E+03  0.00000000000E+00 0.  1.
        -13    1    3    3    0    0 -0.43877161338E+01  0.42217227672E+02  0.16503288639E+03  0.17040363833E+03  0.00000000000E+00 0.  1.
         13    1    3    3    0    0  0.55594180719E+02 -0.18339504278E+02  0.12260459255E+03  0.13586366865E+03  0.00000000000E+00 0. -1.
         -4    1    1    2    0  502 -0.47147910174E+02 -0.54901095832E+02 -0.37765304800E+02  0.81628879717E+02  0.00000000000E+00 0.  1.
<scales pt_clust_5="13000.00000" pt_clust_6="13000.00000" pt_clust_7="13000.00000" pt_clust_8="13000.00000" pt_clust_9="72.36750"></scales>
<clustering>
<clus scale="   72.368">  2  9  1 -1</clus>
<clus scale="   88.725">  7  8 -1 -1</clus>
<clus scale="   95.481">  1  7  2 -1</clus>
<clus scale="  104.948">  5  6 -1 -1</clus>
<clus scale="   72.368">  2  5  1 -1</clus>
</clustering>
</event>
<event>
 9    1  0.1881049E-005  0.1652193E+03  0.7546771E-02  0.1186525E+00
         21   -1    0    0  501  502  0.00000000000E+00  0.00000000000E+00  0.70794591488E+02  0.70794591488E+02  0.00000000000E+00 0. -1.
          2   -1    0    0  502    0 -0.00000000000E+00 -0.00000000000E+00 -0.64097153275E+03  0.64097153275E+03  0.00000000000E+00 0. -1.
         23    2    1    2    0    0 -0.12934096494E+03  0.46033267161E+02 -0.41646263447E+03  0.45110959459E+03  0.10588009034E+03 0.  0.
         23    2    1    2    0    0  0.10852777509E+03 -0.28619704721E+02 -0.17620544225E+03  0.22541064759E+03  0.84641814155E+02 0.  0.
        -11    1    4    4    0    0  0.29442031536E+02  0.17917506535E+02 -0.10115702419E+03  0.10686727191E+03  0.00000000000E+00 0.  1.
         11    1    4    4    0    0  0.79085743555E+02 -0.46537211256E+02 -0.75048418059E+02  0.11854337568E+03  0.00000000000E+00 0. -1.
        -11    1    3    3    0    0 -0.36321120471E-01 -0.24114618799E+02 -0.87322192326E+02  0.90590735904E+02  0.00000000000E+00 0.  1.
         11    1    3    3    0    0 -0.12930464381E+03  0.70147885960E+02 -0.32914044214E+03  0.36051885869E+03  0.00000000000E+00 0. -1.
          2    1    1    2  501    0  0.20813189845E+02 -0.17413562440E+02  0.22491135451E+02  0.35245882061E+02  0.00000000000E+00 0. -1.
<scales pt_clust_5="13000.00000" pt_clust_6="13000.00000" pt_clust_7="13000.00000" pt_clust_8="13000.00000" pt_clust_9="27.13708"></scales>
<clustering>
<clus scale="   27.137">  1  9  2 -1</clus>
<clus scale="   84.642">  5  6 -1 -1</clus>
<clus scale="  105.880">  7  8 -1 -1</clus>
<clus scale="  152.483">  1  5  2 -1</clus>
<clus scale="   27.137">  1  5  2 -1</clus>
</clustering>
</event>
<event>
 9    1  0.1881049E-005  0.1361235E+03  0.7546771E-02  0.1219305E+00
          4   -1    0    0  502    0 -0.00000000000E+00  0.00000000000E+00  0.20409517042E+03  0.20409517042E+03  0.00000000000E+00 0. -1.
         21   -1    0    0  501  502  0.00000000000E+00 -0.00000000000E+00 -0.12468095890E+03  0.12468095890E+03  0.00000000000E+00 0.  1.
         23    2    1    2    0    0  0.27511809289E+02  0.82259485096E+02  0.42353518663E+02  0.13139444285E+03  0.89146825685E+02 0.  0.
         23    2    1    2    0    0 -0.29542672166E+02 -0.11182161879E+03  0.60433362522E+02  0.15964144482E+03  0.91958445450E+02 0.  0.
        -11    1    4    4    0    0 -0.49835266402E+02 -0.91549559264E+02  0.74079298879E+02  0.12787735570E+03  0.00000000000E+00 0. -1.
         11    1    4    4    0    0  0.20292594235E+02 -0.20272059530E+02 -0.13645936357E+02  0.31764089117E+02  0.00000000000E+00 0.  1.
        -13    1    3    3    0    0  0.57375789915E+02  0.34998767461E+02  0.13764049454E+02  0.68602799138E+02  0.00000000000E+00 0.  1.
         13    1    3    3    0    0 -0.29863980627E+02  0.47260717634E+02  0.28589469210E+02  0.62791643710E+02  0.00000000000E+00 0. -1.
          4    1    1    2  501    0  0.20308628777E+01  0.29562133699E+02 -0.23372669661E+02  0.37740241652E+02  0.00000000000E+00 0. -1.
<scales pt_clust_5="13000.00000" pt_clust_6="13000.00000" pt_clust_7="13000.00000" pt_clust_8="13000.00000" pt_clust_9="29.63181"></scales>
<clustering>
<clus scale="   29.632">  2  9  1 -1</clus>
<clus scale="   89.147">  7  8 -1 -1</clus>
<clus scale="   91.958">  5  6 -1 -1</clus>
<clus scale="  134.240">  1  7  2 -1</clus>
<clus scale="   29.632">  2  5  1 -1</clus>
</clustering>
</event>
<event>
 9    1  0.1881049E-005  0.9511620E+02  0.7546771E-02  0.1293576E+00
         21   -1    0    0  501  502  0.00000000000E+00  0.00000000000E+00  0.21453824407E+03  0.21453824407E+03  0.00000000000E+00 0.  1.
         -2   -1    0    0    0  501 -0.00000000000E+00 -0.00000000000E+00 -0.61160233058E+03  0.61160233058E+03  0.00000000000E+00 0.  1.
         23    2    1    2    0    0  0.34342077004E+02 -0.11162979440E+02 -0.40184565515E+03  0.41359423443E+03  0.90974006308E+02 0.  0.
         23    2    1    2    0    0 -0.16716743714E+02 -0.16176659301E+02 -0.19272498779E+03  0.21237904006E+03  0.86144076475E+02 0.  0.
        -11    1    3    3    0    0  0.57254039200E+02  0.16835120096E+02 -0.28876816426E+03  0.29487030872E+03  0.00000000000E+00 0.  1.
         11    1    3    3    0    0 -0.22911962196E+02 -0.27998099536E+02 -0.11307749089E+03  0.11872392571E+03  0.00000000000E+00 0. -1.
        -13    1    4    4    0    0  0.30980333106E+02 -0.17947856486E+02 -0.12130229927E+03  0.12647590443E+03  0.00000000000E+00 0.  1.
         13    1    4    4    0    0 -0.47697076819E+02  0.17711971847E+01 -0.71422688517E+02  0.85903135633E+02  0.00000000000E+00 0. -1.
         -2    1    1    2    0  502 -0.17625333291E+02  0.27339638741E+02  0.19750655643E+03  0.20016730016E+03  0.00000000000E+00 0.  1.
<scales pt_clust_5="13000.00000" pt_clust_6="13000.00000" pt_clust_7="13000.00000" pt_clust_8="13000.00000" pt_clust_9="32.52858"></scales>
<clustering>
<clus scale="   32.529">  1  9  2 -1</clus>
<clus scale="   86.144">  7  8 -1 -1</clus>
<clus scale="   90.508">  1  7  2 -1</clus>
<clus scale="   90.974">  5  6 -1 -1</clus>
<clus scale="   32.529">  1  5  2 -1</clus>
</clustering>
</event>
<event>
 9    1  0.1881049E-005  0.1255960E+03  0.7546771E-02  0.1235640E+00
         -3   -1    0    0    0  501 -0.00000000000E+00  0.00000000000E+00  0.43216792263E+03  0.43216792263E+03  0.00000000000E+00 0.  1.
         21   -1    0    0  501  502  0.00000000000E+00 -0.00000000000E+00 -0.49026522799E+02  0.49026522799E+02  0.00000000000E+00 0.  1.
         23    2    1    2    0    0  0.72005464181E+02 -0.17873736846E+02  0.18863165486E+03  0.22400756650E+03  0.95358435873E+02 0.  0.
         23    2    1    2    0    0 -0.82191628582E+02  0.48982596504E+02  0.13057622358E+03  0.18536060065E+03  0.90297527869E+02 0.  0.
        -13    1    4    4    0    0 -0.23352112384E+02  0.96105134163E+01 -0.10631395780E+02  0.27399082049E+02  0.00000000000E+00 0. -1.
         13    1    4    4    0    0 -0.58839516198E+02  0.39372083088E+02  0.14120761936E+03  0.15796151860E+03  0.00000000000E+00 0.  1.
        -13    1    3    3    0    0  0.69704943186E+02  0.22578745566E+02  0.15463817611E+03  0.17111850971E+03  0.00000000000E+00 0.  1.
         13    1    3    3    0    0  0.23005209954E+01 -0.40452482412E+02  0.33993478757E+02  0.52889056790E+02  0.00000000000E+00 0. -1.
         -3    1    1    2    0  502  0.10186164401E+02 -0.31108859659E+02  0.63933521391E+02  0.71826278283E+02  0.00000000000E+00 0.  1.
<scales pt_clust_5="13000.00000" pt_clust_6="13000.00000" pt_clust_7="13000.00000" pt_clust_8="13000.00000" pt_clust_9="32.73408"></scales>
<clustering>
<clus scale="   32.734">  2  9  1 -1</clus>
<clus scale="   90.298">  5  6 -1 -1</clus>
<clus scale="   95.358">  7  8 -1 -1</clus>
<clus scale="  121.798">  2  5  1 -1</clus>
<clus scale="   32.734">  2  5  1 -1</clus>
</clustering>
</event>
<event>
 9    1  0.1881049E-005  0.1211033E+03  0.7546771E-02  0.1241986E+00
         21   -1    0    0  501  502  0.00000000000E+00  0.00000000000E+00  0.74316736808E+02  0.74316736808E+02  0.00000000000E+00 0.  1.
          2   -1    0    0  502    0 -0.00000000000E+00 -0.00000000000E+00 -0.40014334561E+03  0.40014334561E+03  0.00000000000E+00 0. -1.
         23    2    1    2    0    0 -0.42804319936E+02  0.82045645201E+02 -0.18984520448E+03  0.22880359859E+03  0.88012427316E+02 0.  0.
         23    2    1    2    0    0  0.19779214286E+02 -0.45347429808E+02 -0.31630603724E-01  0.10297062091E+03  0.90306926985E+02 0.  0.
        -11    1    3    3    0    0 -0.51507425397E+02  0.99903171821E+01 -0.10323997343E+03  0.11580722526E+03  0.00000000000E+00 0.  1.
         11    1    3    3    0    0  0.87031054612E+01  0.72055328019E+02 -0.86605231043E+02  0.11299637333E+03  0.00000000000E+00 0. -1.
        -13    1    4    4    0    0 -0.33668664223E+02 -0.32157294959E+02 -0.83292007535E+01  0.47297422285E+02  0.00000000000E+00 0.  1.
         13    1    4    4    0    0  0.53447878508E+02 -0.13190134849E+02  0.82975701498E+01  0.55673198622E+02  0.00000000000E+00 0. -1.
          2    1    1    2  501    0  0.23025105650E+02 -0.36698215393E+02 -0.13594977372E+03  0.14268586292E+03  0.00000000000E+00 0. -1.
<scales pt_clust_5="13000.00000" pt_clust_6="13000.00000" pt_clust_7="13000.00000" pt_clust_8="13000.00000" pt_clust_9="43.32339"></scales>
<clustering>
<clus scale="   43.323">  1  9  2 -1</clus>
<clus scale="   88.012">  5  6 -1 -1</clus>
<clus scale="   90.307">  7  8 -1 -1</clus>
<clus scale="  119.402">  2  5  1 -1</clus>
<clus scale="   43.323">  1  5  2 -1</clus>
</clustering>
</event>
<event>
 9    1  0.1881049E-005  0.1867264E+03  0.7546771E-02  0.1161961E+00
          1   -1    0    0  502    0 -0.00000000000E+00  0.00000000000E+00  0.28078196123E+03  0.28078196123E+03  0.00000000000E+00 0. -1.
         21   -1    0    0  501  502  0.00000000000E+00 -0.00000000000E+00 -0.19542833166E+03  0.19542833166E+03  0.00000000000E+00 0.  1.
         23    2    1    2    0    0  0.12888574374E+03 -0.10223980389E+03  0.17397095361E+03  0.25782222562E+03  0.95613256844E+02 0.  0.
         23    2    1    2    0    0 -0.12427050582E+03  0.78752185408E+02 -0.88573656538E+02  0.19445126402E+03  0.91219165328E+02 0.  0.
        -11    1    4    4    0    0 -0.49638839354E+01  0.46067409689E+02 -0.85365742496E+01  0.47113899002E+02  0.00000000000E+00 0. -1.
         11    1    4    4    0    0 -0.11930662188E+03  0.32684775719E+02 -0.80037082288E+02  0.14733736502E+03  0.00000000000E+00 0.  1.
        -13    1    3    3    0    0  0.36378135808E+02 -0.23880622564E+02 -0.26494206954E+01  0.43596700895E+02  0.00000000000E+00 0.  1.
         13    1    3    3    0    0  0.92507607933E+02 -0.78359181322E+02  0.17662037431E+03  0.21422552472E+03  0.00000000000E+00 0. -1.
          1    1    1    2  501    0 -0.46152379219E+01  0.23487618477E+02 -0.43667508058E-01  0.23936803247E+02  0.00000000000E+00 0. -1.
<scales pt_clust_5="13000.00000" pt_clust_6="13000.00000" pt_clust_7="13000.00000" pt_clust_8="13000.00000" pt_clust_9="23.93676"></scales>
<clustering>
<clus scale="   23.937">  2  9  1 -1</clus>
<clus scale="   91.219">  5  6 -1 -1</clus>
<clus scale="   95.613">  7  8 -1 -1</clus>
<clus scale="  184.515">  2  5  1 -1</clus>
<clus scale="   23.937">  2  5  1 -1</clus>
</clustering>
</event>
<event>
 9    1  0.1881049E-005  0.1672594E+03  0.7546771E-02  0.1183980E+00
         21   -1    0    0  501  502  0.00000000000E+00  0.00000000000E+00  0.31739919983E+03  0.31739919983E+03  0.00000000000E+00 0. -1.
         -3   -1    0    0    0  501 -0.00000000000E+00 -0.00000000000E+00 -0.12843868637E+03  0.12843868637E+03  0.00000000000E+00 0.  1.
         23    2    1    2    0    0 -0.19758180693E+02  0.98512708930E+02  0.10029566672E+03  0.17782072272E+03  0.10707870536E+03 0.  0.
         23    2    1    2    0    0  0.60290046936E+02 -0.14769425150E+03  0.92483875586E+02  0.20417171500E+03  0.87660368907E+02 0.  0.
        -11    1    3    3    0    0 -0.40960604625E+02 -0.35852965288E+01  0.17564213708E+02  0.44711599005E+02  0.00000000000E+00 0. -1.
         11    1    3    3    0    0  0.21202423931E+02  0.10209800546E+03  0.82731453014E+02  0.13310912372E+03  0.00000000000E+00 0.  1.
        -13    1    4    4    0    0  0.37592570242E+02 -0.73460524301E+01  0.91661398942E+01  0.39385072607E+02  0.00000000000E+00 0.  1.
         13    1    4    4    0    0  0.22697476694E+02 -0.14034819907E+03  0.83317735692E+02  0.16478664239E+03  0.00000000000E+00 0. -1.
         -3    1    1    2    0  502 -0.40531866243E+02  0.49181542565E+02 -0.38190288505E+01  0.63845448480E+02  0.00000000000E+00 0.  1.
<scales pt_clust_5="13000.00000" pt_clust_6="13000.00000" pt_clust_7="13000.00000" pt_clust_8="13000.00000" pt_clust_9="63.73116"></scales>
<clustering>
<clus scale="   63.731">  1  9  2 -1</clus>
<clus scale="   87.660">  7  8 -1 -1</clus>
<clus scale="  107.079">  5  6 -1 -1</clus>
<clus scale="  155.545">  1  7  2 -1</clus>
<clus scale="   63.731">  1  5  2 -1</clus>
</clustering>
</event>
<event>
 9    1  0.1881049E-005  0.1073234E+03  0.7546771E-02  0.1266946E+00
          2   -1    0    0  502    0 -0.00000000000E+00  0.00000000000E+00  0.12454437368E+03  0.12454437368E+03  0.00000000000E+00 0. -1.
         21   -1    0    0  501  502  0.00000000000E+00 -0.00000000000E+00 -0.50358694328E+03  0.50358694328E+03  0.00000000000E+00 0.  1.
         23    2    1    2    0    0  0.13122518716E+02 -0.55459012048E+02  0.74023512343E+02  0.13079392424E+03  0.91540525039E+02 0.  0.
         23    2    1    2    0    0 -0.85079122159E+02  0.22835179813E+02 -0.24843892787E+03  0.27798758215E+03  0.88290953587E+02 0.  0.
        -11    1    4    4    0    0 -0.66381549236E+02  0.44796977505E+02 -0.23051350687E+03  0.24402818715E+03  0.00000000000E+00 0.  1.
         11    1    4    4    0    0 -0.18697572923E+02 -0.21961797691E+02 -0.17925420997E+02  0.33959395003E+02  0.00000000000E+00 0. -1.
        -13    1    3    3    0    0 -0.94116028195E+01 -0.58259720450E+02  0.86630246818E+02  0.10482162448E+03  0.00000000000E+00 0. -1.
         13    1    3    3    0    0  0.22534121535E+02  0.28007084022E+01 -0.12606734475E+02  0.25972299764E+02  0.00000000000E+00 0.  1.
          2    1    1    2  501    0  0.71956603443E+02  0.32623832235E+02 -0.20462715407E+03  0.21934981056E+03  0.00000000000E+00 0. -1.
<scales pt_clust_5="13000.00000" pt_clust_6="13000.00000" pt_clust_7="13000.00000" pt_clust_8="13000.00000" pt_clust_9="79.00675"></scales>
<clustering>
<clus scale="   79.007">  2  9  1 -1</clus>
<clus scale="   88.291">  5  6 -1 -1</clus>
<clus scale="   91.541">  7  8 -1 -1</clus>
<clus scale="  104.565">  2  5  1 -1</clus>
<clus scale="   79.007">  2  5  1 -1</clus>
</clustering>
</event>
<event>
 9    1  0.1881049E-005  0.1103254E+03  0.7546771E-02  0.1261097E+00
         21   -1    0    0  501  502  0.00000000000E+00  0.00000000000E+00  0.10827896033E+03  0.10827896033E+03  0.00000000000E+00 0. -1.
          1   -1    0    0  502    0 -0.00000000000E+00 -0.00000000000E+00 -0.24648033148E+03  0.24648033148E+03  0.00000000000E+00 0. -1.
         23    2    1    2    0    0 -0.40048911978E+02 -0.16965832283E+02 -0.10019025103E+03  0.14486730116E+03  0.95166662898E+02 0.  0.
         23    2    1    2    0    0  0.65739258505E+02  0.27837025049E+02 -0.92328689580E+02  0.14882993133E+03  0.92353730119E+02 0.  0.
        -11    1    4    4    0    0  0.20513492419E+02 -0.24175253022E+02  0.22677715101E+01  0.31786616956E+02  0.00000000000E+00 0.  1.
         11    1    4    4    0    0  0.45225766086E+02  0.52012278071E+02 -0.94596461090E+02  0.11704331437E+03  0.00000000000E+00 0. -1.
        -11    1    3    3    0    0 -0.55528825030E+02  0.23537763259E+02 -0.48463589701E+02  0.77370512698E+02  0.00000000000E+00 0.  1.
         11    1    3    3    0    0  0.15479913051E+02 -0.40503595542E+02 -0.51726661328E+02  0.67496788458E+02  0.00000000000E+00 0. -1.
          1    1    1    2  501    0 -0.25690346526E+02 -0.10871192766E+02  0.54317569460E+02  0.61062059324E+02  0.00000000000E+00 0. -1.
<scales pt_clust_5="13000.00000" pt_clust_6="13000.00000" pt_clust_7="13000.00000" pt_clust_8="13000.00000" pt_clust_9="27.89582"></scales>
<clustering>
<clus scale="   27.896">  1  9  2 -1</clus>
<clus scale="   92.354">  5  6 -1 -1</clus>
<clus scale="   95.167">  7  8 -1 -1</clus>
<clus scale="  107.908">  1  5  2 -1</clus>
<clus scale="   27.896">  1  5  2 -1</clus>
</clustering>
</event>
<event>
 9    1  0.1881049E-005  0.2178258E+03  0.7546771E-02  0.1135588E+00
         21   -1    0    0  501  502  0.00000000000E+00  0.00000000000E+00  0.10157417196E+04  0.10157417196E+04  0.00000000000E+00 0.  1.
         -4   -1    0    0    0  501 -0.00000000000E+00 -0.00000000000E+00 -0.13415787752E+03  0.13415787752E+03  0.00000000000E+00 0.  1.
         23    2    1    2    0    0  0.15074203832E+03 -0.10769703927E+03  0.55531472564E+02  0.21396998880E+03  0.91529215443E+02 0.  0.
         23    2    1    2    0    0 -0.13266321843E+03  0.24683583801E+03  0.62314958730E+03  0.68923954349E+03  0.90599556918E+02 0.  0.
        -11    1    3    3    0    0  0.27818418039E+02 -0.27956084039E+02  0.54712439199E+02  0.67445222367E+02  0.00000000000E+00 0. -1.
         11    1    3    3    0    0  0.12292362028E+03 -0.79740955230E+02  0.81903336465E+00  0.14652476644E+03  0.00000000000E+00 0.  1.
        -13    1    4    4    0    0 -0.12641640282E+02  0.76420889483E+02  0.10296174286E+03  0.12884519359E+03  0.00000000000E+00 0. -1.
         13    1    4    4    0    0 -0.12002157815E+03  0.17041494853E+03  0.52018784443E+03  0.56039434990E+03  0.00000000000E+00 0.  1.
         -4    1    1    2    0  502 -0.18078819888E+02 -0.13913879874E+03  0.20290278218E+03  0.24669006478E+03  0.00000000000E+00 0.  1.
<scales pt_clust_5="13000.00000" pt_clust_6="13000.00000" pt_clust_7="13000.00000" pt_clust_8="13000.00000" pt_clust_9="140.30841"></scales>
<clustering>
<clus scale="   90.600">  7  8 -1 -1</clus>
<clus scale="   91.529">  5  6 -1 -1</clus>
<clus scale="  140.308">  1  9  2 -1</clus>
<clus scale="  217.437">  1  7  2 -1</clus>
<clus scale="  140.308">  1  5  2 -1</clus>
</clustering>
</event>
<event>
 9    1  0.1881049E-005  0.1788040E+03  0.7546771E-02  0.1169933E+00
          2   -1    0    0  502    0 -0.00000000000E+00  0.00000000000E+00  0.95235360883E+03  0.95235360883E+03  0.00000000000E+00 0. -1.
         21   -1    0    0  501  502  0.00000000000E+00 -0.00000000000E+00 -0.48635933331E+02  0.48635933331E+02  0.00000000000E+00 0.  1.
         23    2    1    2    0    0 -0.43280894166E+02  0.11970050778E+03  0.30943364644E+03  0.34503496145E+03  0.84252570930E+02 0.  0.
         23    2    1    2    0    0  0.39669436560E+02 -0.17613218360E+03  0.54308380580E+03  0.57967195147E+03  0.92105053653E+02 0.  0.
        -11    1    3    3    0    0  0.24385527066E+02  0.22048171899E+02  0.52180558541E+02  0.61673223558E+02  0.00000000000E+00 0.  1.
         11    1    3    3    0    0 -0.67666421232E+02  0.97652335885E+02  0.25725308790E+03  0.28336173789E+03  0.00000000000E+00 0. -1.
        -13    1    4    4    0    0  0.36395842736E+02 -0.12029242184E+03  0.47607940439E+03  0.49238858984E+03  0.00000000000E+00 0. -1.
         13    1    4    4    0    0  0.32735938243E+01 -0.55839761760E+02  0.67004401407E+02  0.87283361633E+02  0.00000000000E+00 0.  1.
          2    1    1    2  501    0  0.36114576063E+01  0.56431675817E+02  0.51200223258E+02  0.76282629237E+02  0.00000000000E+00 0. -1.
<scales pt_clust_5="13000.00000" pt_clust_6="13000.00000" pt_clust_7="13000.00000" pt_clust_8="13000.00000" pt_clust_9="56.54712"></scales>
<clustering>
<clus scale="   56.547">  2  9  1 -1</clus>
<clus scale="   84.253">  5  6 -1 -1</clus>
<clus scale="   92.105">  7  8 -1 -1</clus>
<clus scale="  174.889">  1  5  2 -1</clus>
<clus scale="   56.547">  2  5  1 -1</clus>
</clustering>
</event>
<event>
 9    1  0.1881049E-005  0.1125237E+03  0.7546771E-02  0.1256680E+00
         21   -1    0    0  501  502  0.00000000000E+00  0.00000000000E+00  0.12626438934E+03  0.12626438934E+03  0.00000000000E+00 0.  1.
          2   -1    0    0  502    0 -0.00000000000E+00 -0.00000000000E+00 -0.22985191703E+03  0.22985191703E+03  0.00000000000E+00 0. -1.
         23    2    1    2    0    0 -0.51321235901E+02  0.42959256637E+02 -0.17468329359E+03  0.20913456174E+03  0.93507458899E+02 0.  0.
         23    2    1    2    0    0  0.35469180632E+02 -0.25081878626E+02  0.43065711799E+02  0.11015007030E+03  0.91603597329E+02 0.  0.
        -11    1    4    4    0    0  0.37505530069E+02 -0.27002796978E+01  0.67303980267E+02  0.77095927623E+02  0.00000000000E+00 0.  1.
         11    1    4    4    0    0 -0.20363494372E+01 -0.22381598928E+02 -0.24238268469E+02  0.33054142675E+02  0.00000000000E+00 0. -1.
        -13    1    3    3    0    0 -0.68812491788E+02  0.45274998710E+01 -0.13292343753E+03  0.14974744581E+03  0.00000000000E+00 0.  1.
         13    1    3    3    0    0  0.17491255887E+02  0.38431756766E+02 -0.41759856057E+02  0.59387115930E+02  0.00000000000E+00 0. -1.
          2    1    1    2  501    0  0.15852055269E+02 -0.17877378011E+02  0.28030054104E+02  0.36831674329E+02  0.00000000000E+00 0. -1.
<scales pt_clust_5="13000.00000" pt_clust_6="13000.00000" pt_clust_7="13000.00000" pt_clust_8="13000.00000" pt_clust_9="23.89327"></scales>
<clustering>
<clus scale="   23.893">  1  9  2 -1</clus>
<clus scale="   91.604">  5  6 -1 -1</clus>
<clus scale="   93.507">  7  8 -1 -1</clus>
<clus scale="  110.947">  1  5  2 -1</clus>
<clus scale="   23.893">  1  5  2 -1</clus>
</clustering>
</event>
<event>
 9    1  0.1881049E-005  0.1327698E+03  0.7546771E-02  0.1224191E+00
          3   -1    0    0  502    0 -0.00000000000E+00  0.00000000000E+00  0.42752043254E+02  0.42752043254E+02  0.00000000000E+00 0. -1.
         21   -1    0    0  501  502  0.00000000000E+00 -0.00000000000E+00 -0.87130255285E+03  0.87130255285E+03  0.00000000000E+00 0. -1.
         23    2    1    2    0    0 -0.55547327464E+02  0.75003218669E+02 -0.92176425037E+02  0.16169473441E+03  0.94539438353E+02 0.  0.
         23    2    1    2    0    0  0.72875319870E+02 -0.60778080753E+02 -0.62273913597E+03  0.63653449569E+03  0.91473194910E+02 0.  0.
        -11    1    4    4    0    0  0.73459867141E+02 -0.32311144404E+01 -0.38195022021E+03  0.38896370383E+03  0.00000000000E+00 0.  1.
         11    1    4    4    0    0 -0.58454727090E+00 -0.57546966313E+02 -0.24078891576E+03  0.24757079185E+03  0.00000000000E+00 0. -1.
        -11    1    3    3    0    0  0.83715951650E+01  0.59298135768E+02 -0.18014615340E+02  0.62537020052E+02  0.00000000000E+00 0. -1.
         11    1    3    3    0    0 -0.63918922629E+02  0.15705082901E+02 -0.74161809698E+02  0.99157714357E+02  0.00000000000E+00 0.  1.
          3    1    1    2  501    0 -0.17327992406E+02 -0.14225137916E+02 -0.11363494859E+03  0.11582536601E+03  0.00000000000E+00 0. -1.
<scales pt_clust_5="13000.00000" pt_clust_6="13000.00000" pt_clust_7="13000.00000" pt_clust_8="13000.00000" pt_clust_9="22.41905"></scales>
<clustering>
<clus scale="   22.419">  2  9  1 -1</clus>
<clus scale="   91.473">  5  6 -1 -1</clus>
<clus scale="   94.539">  7  8 -1 -1</clus>
<clus scale="  130.604">  2  5  1 -1</clus>
<clus scale="   22.419">  2  5  1 -1</clus>
</clustering>
</event>
<event>
 9    1  0.1881049E-005  0.1552439E+03  0.7546771E-02  0.1195615E+00
         -2   -1    0    0    0  501 -0.00000000000E+00  0.00000000000E+00  0.56450656707E+03  0.56450656707E+03  0.00000000000E+00 0.  1.
         21   -1    0    0  501  502  0.00000000000E+00 -0.00000000000E+00 -0.79987869444E+02  0.79987869444E+02  0.00000000000E+00 0. -1.
         23    2    1    2    0    0  0.61496516443E+02 -0.10698072722E+03  0.43524488752E+03  0.46145868273E+03  0.90990693048E+02 0.  0.
         23    2    1    2    0    0 -0.37088757809E+02  0.10065222970E+03  0.57160227217E+02  0.15661636437E+03  0.98767133775E+02 0.  0.
        -11    1    3    3    0    0  0.16962671572E+02 -0.75703208116E+02  0.36194274804E+03  0.37016382968E+03  0.00000000000E+00 0.  1.
         11    1    3    3    0    0  0.44533844871E+02 -0.31277519106E+02  0.73302139480E+02  0.91294853047E+02  0.00000000000E+00 0. -1.
        -11    1    4    4    0    0 -0.12786084072E+02  0.97780056529E+02  0.46946577700E+01  0.98724177446E+02  0.00000000000E+00 0. -1.
         11    1    4    4    0    0 -0.24302673736E+02  0.28721731679E+01  0.52465569447E+02  0.57892186924E+02  0.00000000000E+00 0.  1.
         -2    1    1    2    0  502 -0.24407758634E+02  0.63284975250E+01 -0.78864171084E+01  0.26419389419E+02  0.00000000000E+00 0.  1.
<scales pt_clust_5="13000.00000" pt_clust_6="13000.00000" pt_clust_7="13000.00000" pt_clust_8="13000.00000" pt_clust_9="25.21485"></scales>
<clustering>
<clus scale="   25.215">  2  9  1 -1</clus>
<clus scale="   90.991">  5  6 -1 -1</clus>
<clus scale="   98.767">  7  8 -1 -1</clus>
<clus scale="  150.416">  1  5  2 -1</clus>
<clus scale="   25.215">  2  5  1 -1</clus>
</clustering>
</event>
<event>
 9    1  0.1881049E-005  0.9862113E+02  0.7546771E-02  0.1283228E+00
          1   -1    0    0  502    0 -0.00000000000E+00  0.00000000000E+00  0.32454454402E+03  0.32454454402E+03  0.00000000000E+00 0. -1.
         21   -1    0    0  501  502  0.00000000000E+00 -0.00000000000E+00 -0.11049160977E+03  0.11049160977E+03  0.00000000000E+00 0. -1.
         23    2    1    2    0    0  0.23104788393E+02 -0.50487585120E+01  0.11847935768E+03  0.15154081299E+03  0.91476437370E+02 0.  0.
         23    2    1    2    0    0 -0.10267946511E+03  0.68089759710E+01 -0.24098458247E+02  0.13977121807E+03  0.91464873047E+02 0.  0.
        -11    1    3    3    0    0  0.24005411323E+01  0.32073617120E+02  0.79661979269E+01  0.33135175000E+02  0.00000000000E+00 0. -1.
         11    1    3    3    0    0  0.20704247260E+02 -0.37122375632E+02  0.11051315976E+03  0.11840563799E+03  0.00000000000E+00 0.  1.
        -11    1    4    4    0    0  0.57973161756E+01  0.25278163868E+02 -0.13462882592E+02  0.29220603194E+02  0.00000000000E+00 0.  1.
         11    1    4    4    0    0 -0.10847678129E+03 -0.18469187896E+02 -0.10635575655E+02  0.11055061487E+03  0.00000000000E+00 0. -1.
          1    1    1    2  501    0  0.79574676717E+02 -0.17602174591E+01  0.11967203481E+03  0.14372412273E+03  0.00000000000E+00 0. -1.
<scales pt_clust_5="13000.00000" pt_clust_6="13000.00000" pt_clust_7="13000.00000" pt_clust_8="13000.00000" pt_clust_9="79.59418"></scales>
<clustering>
<clus scale="   79.594">  2  9  1 -1</clus>
<clus scale="   91.465">  7  8 -1 -1</clus>
<clus scale="   91.476">  5  6 -1 -1</clus>
<clus scale="   98.610">  2  7  1 -1</clus>
<clus scale="   79.594">  2  5  1 -1</clus>
</clustering>
</event>
<event>
 9    1  0.1881049E-005  0.1303598E+03  0.7546771E-02  0.1227497E+00
          1   -1    0    0  502    0 -0.00000000000E+00  0.00000000000E+00  0.87654349108E+03  0.87654349108E+03  0.00000000000E+00 0. -1.
         21   -1    0    0  501  502  0.00000000000E+00 -0.00000000000E+00 -0.26012214834E+02  0.26012214834E+02  0.00000000000E+00 0.  1.
         23    2    1    2    0    0 -0.98351202815E+02 -0.31918026473E+02  0.54274851846E+03  0.55975581207E+03  0.89771350353E+02 0.  0.
         23    2    1    2    0    0  0.74266502211E+02  0.17921100362E+02  0.27442775684E+03  0.29934252586E+03  0.91971054569E+02 0.  0.
        -13    1    4    4    0    0  0.80607799888E+02 -0.15127197105E+02  0.15624608966E+03  0.17646328238E+03  0.00000000000E+00 0.  1.
         13    1    4    4    0    0 -0.63412976769E+01  0.33048297467E+02  0.11818166717E+03  0.12287924348E+03  0.00000000000E+00 0. -1.
        -13    1    3    3    0    0 -0.26784163147E+01 -0.37418375238E+02  0.10124182056E+03  0.10796858316E+03  0.00000000000E+00 0.  1.
         13    1    3    3    0    0 -0.95672786500E+02  0.55003487650E+01  0.44150669790E+03  0.45178722890E+03  0.00000000000E+00 0. -1.
          1    1    1    2  501    0  0.24084700604E+02  0.13996926111E+02  0.33355000952E+02  0.43457367986E+02  0.00000000000E+00 0. -1.
<scales pt_clust_5="13000.00000" pt_clust_6="13000.00000" pt_clust_7="13000.00000" pt_clust_8="13000.00000" pt_clust_9="27.85654"></scales>
<clustering>
<clus scale="   27.857">  2  9  1 -1</clus>
<clus scale="   89.771">  7  8 -1 -1</clus>
<clus scale="   91.971">  5  6 -1 -1</clus>
<clus scale="  128.817">  1  7  2 -1</clus>
<clus scale="   27.857">  2  5  1 -1</clus>
</clustering>
</event>
<event>
 9    1  0.1881049E-005  0.1884895E+03  0.7546771E-02  0.1160066E+00
          2   -1    0    0  502    0 -0.00000000000E+00  0.00000000000E+00  0.95502423138E+03  0.95502423138E+03  0.00000000000E+00 0. -1.
         21   -1    0    0  501  502  0.00000000000E+00 -0.00000000000E+00 -0.64872051587E+02  0.64872051587E+02  0.00000000000E+00 0.  1.
         23    2    1    2    0    0  0.74911049794E+02  0.13253259565E+03  0.59255428809E+03  0.61861928167E+03  0.91611555072E+02 0.  0.
         23    2    1    2    0    0 -0.10749103450E+03 -0.16551352910E+03  0.27002884990E+03  0.34733954270E+03  0.93702333654E+02 0.  0.
        -13    1    3    3    0    0  0.93851517182E+02  0.87541565081E+02  0.44964881665E+03  0.46760634214E+03  0.00000000000E+00 0.  1.
         13    1    3    3    0    0 -0.18940467388E+02  0.44991030572E+02  0.14290547144E+03  0.15101293953E+03  0.00000000000E+00 0. -1.
        -13    1    4    4    0    0 -0.17881476528E+02 -0.30758003015E+02  0.37950007800E+01  0.35779938278E+02  0.00000000000E+00 0.  1.
         13    1    4    4    0    0 -0.89609557968E+02 -0.13475552609E+03  0.26623384912E+03  0.31155960443E+03  0.00000000000E+00 0. -1.
          2    1    1    2  501    0  0.32579984702E+02  0.32980933450E+02  0.27569041800E+02  0.53937458600E+02  0.00000000000E+00 0. -1.
<scales pt_clust_5="13000.00000" pt_clust_6="13000.00000" pt_clust_7="13000.00000" pt_clust_8="13000.00000" pt_clust_9="46.35944"></scales>
<clustering>
<clus scale="   46.359">  2  9  1 -1</clus>
<clus scale="   91.612">  5  6 -1 -1</clus>
<clus scale="   93.702">  7  8 -1 -1</clus>
<clus scale="  187.459">  1  5  2 -1</clus>
<clus scale="   46.359">  2  5  1 -1</clus>
</clustering>
</event>
<event>
 9    1  0.1881049E-005  0.1305676E+03  0.7546771E-02  0.1226944E+00
         21   -1    0    0  501  502  0.00000000000E+00  0.00000000000E+00  0.45871696001E+03  0.45871696001E+03  0.00000000000E+00 0. -1.
          1   -1    0    0  502    0 -0.00000000000E+00 -0.00000000000E+00 -0.23211549570E+03  0.23211549570E+03  0.00000000000E+00 0. -1.
         23    2    1    2    0    0 -0.80080936853E+02  0.26535527415E+02 -0.11491704445E+03  0.16846946656E+03  0.89771617989E+02 0.  0.
         23    2    1    2    0    0  0.86975515091E+02 -0.94713260280E+02 -0.15970031421E+02  0.15836601825E+03  0.91046207689E+02 0.  0.
        -13    1    3    3    0    0 -0.99253107892E+02  0.14454134160E+02 -0.97595428051E+02  0.13994630755E+03  0.00000000000E+00 0. -1.
         13    1    3    3    0    0  0.19172171039E+02  0.12081393255E+02 -0.17321616398E+02  0.28523159011E+02  0.00000000000E+00 0.  1.
        -13    1    4    4    0    0  0.27538493918E+02 -0.38850950690E+02  0.37688973889E+02  0.60730748139E+02  0.00000000000E+00 0.  1.
         13    1    4    4    0    0  0.59437021173E+02 -0.55862309591E+02 -0.53659005311E+02  0.97635270111E+02  0.00000000000E+00 0. -1.
          1    1    1    2  501    0 -0.68945782382E+01  0.68177732865E+02  0.35748854017E+03  0.36399697090E+03  0.00000000000E+00 0. -1.
<scales pt_clust_5="13000.00000" pt_clust_6="13000.00000" pt_clust_7="13000.00000" pt_clust_8="13000.00000" pt_clust_9="68.52546"></scales>
<clustering>
<clus scale="   68.525">  1  9  2 -1</clus>
<clus scale="   89.772">  5  6 -1 -1</clus>
<clus scale="   91.046">  7  8 -1 -1</clus>
<clus scale="  129.682">  2  5  1 -1</clus>
<clus scale="   68.525">  1  5  2 -1</clus>
</clustering>
</event>
<event>
 9    1  0.1881049E-005  0.1076759E+03  0.7546771E-02  0.1266284E+00
         21   -1    0    0  501  502  0.00000000000E+00  0.00000000000E+00  0.89783947857E+02  0.89783947857E+02  0.00000000000E+00 0. -1.
          2   -1    0    0  502    0 -0.00000000000E+00 -0.00000000000E+00 -0.50075827273E+03  0.50075827273E+03  0.00000000000E+00 0. -1.
         23    2    1    2    0    0  0.27181578451E+02  0.46963768972E+02 -0.31688081327E+03  0.33450780765E+03  0.92399078778E+02 0.  0.
         23    2    1    2    0    0 -0.56232765571E+02 -0.29654270694E+02 -0.15298599612E+03  0.18812333184E+03  0.89130091885E+02 0.  0.
        -11    1    3    3    0    0  0.43424987272E+02 -0.11334062631E+00 -0.67924514987E+02  0.80619365551E+02  0.00000000000E+00 0.  1.
         11    1    3    3    0    0 -0.16243408821E+02  0.47077109598E+02 -0.24895629828E+03  0.25388844210E+03  0.00000000000E+00 0. -1.
        -13    1    4    4    0    0 -0.24035590421E+02  0.31530121423E+02 -0.45837360205E+02  0.60604634760E+02  0.00000000000E+00 0.  1.
         13    1    4    4    0    0 -0.32197175150E+02 -0.61184392118E+02 -0.10714863591E+03  0.12751869708E+03  0.00000000000E+00 0. -1.
          2    1    1    2  501    0  0.29051187120E+02 -0.17309498277E+02  0.58892484513E+02  0.67911081098E+02  0.00000000000E+00 0. -1.
<scales pt_clust_5="13000.00000" pt_clust_6="13000.00000" pt_clust_7="13000.00000" pt_clust_8="13000.00000" pt_clust_9="33.81701"></scales>
<clustering>
<clus scale="   33.817">  1  9  2 -1</clus>
<clus scale="   89.130">  7  8 -1 -1</clus>
<clus scale="   92.399">  5  6 -1 -1</clus>
<clus scale="  104.884">  1  7  2 -1</clus>
<clus scale="   33.817">  1  5  2 -1</clus>
</clustering>
</event>
<event>
 9    1  0.1881049E-005  0.2158533E+03  0.7546771E-02  0.1170483E+00
         21   -1    0    0  501  502  0.00000000000E+00  0.00000000000E+00  0.73829449342E+02  0.73829449342E+02  0.00000000000E+00 0.  1.
         -1   -1    0    0    0  501 -0.00000000000E+00 -0.00000000000E+00 -0.11695421594E+04  0.11695421594E+04  0.00000000000E+00 0.  1.
         23    2    1    2    0    0 -0.67132908244E+01  0.38824309827E+02 -0.29896645092E+03  0.31466972914E+03  0.89909423036E+02 0.  0.
         23    2    1    2    0    0 -0.17982877541E+03 -0.93779625585E+02 -0.64439734607E+03  0.68166297472E+03  0.91013542085E+02 0.  0.
        -11    1    3    3    0    0  0.17562090351E+02 -0.19716460332E+02 -0.39051173550E+02  0.47139791908E+02  0.00000000000E+00 0. -1.
         11    1    3    3    0    0 -0.24275381175E+02  0.58540770159E+02 -0.25991527737E+03  0.26752993723E+03  0.00000000000E+00 0.  1.
        -13    1    4    4    0    0 -0.11708199971E+03 -0.10116724335E+03 -0.51365050056E+03  0.53645115575E+03  0.00000000000E+00 0.  1.
         13    1    4    4    0    0 -0.62746775703E+02  0.73876177645E+01 -0.13074684551E+03  0.14521181897E+03  0.00000000000E+00 0. -1.
         -1    1    1    2    0  502  0.18654206624E+03  0.54955315758E+02 -0.15234891302E+03  0.24703890484E+03  0.00000000000E+00 0.  1.
<scales pt_clust_5="13000.00000" pt_clust_6="13000.00000" pt_clust_7="13000.00000" pt_clust_8="13000.00000" pt_clust_9="195.72733"></scales>
<clustering>
<clus scale="   89.909">  5  6 -1 -1</clus>
<clus scale="   91.014">  7  8 -1 -1</clus>
<clus scale="   98.164">  2  5  1 -1</clus>
<clus scale="  195.727">  1  9  2 -1</clus>
<clus scale="  195.727">  1  5  2 -1</clus>
</clustering>
</event>
<event>
 9    1  0.1881049E-005  0.1169777E+03  0.7546771E-02  0.1250947E+00
         21   -1    0    0  501  502  0.00000000000E+00  0.00000000000E+00  0.73912932655E+02  0.73912932655E+02  0.00000000000E+00 0.  1.
         -1   -1    0    0    0  501 -0.00000000000E+00 -0.00000000000E+00 -0.51785151892E+03  0.51785151892E+03  0.00000000000E+00 0.  1.
         23    2    1    2    0    0  0.45709894067E+02 -0.36156315200E+02 -0.34344325709E+03  0.36158349647E+03  0.96915842550E+02 0.  0.
         23    2    1    2    0    0 -0.66630926534E+02  0.51231560974E+02 -0.13806872704E+03  0.18460998999E+03  0.89182519621E+02 0.  0.
        -13    1    4    4    0    0 -0.51274174891E+02 -0.13353590055E+02 -0.40923973918E+02  0.66948719326E+02  0.00000000000E+00 0.  1.
         13    1    4    4    0    0 -0.15356751643E+02  0.64585151030E+02 -0.97144753120E+02  0.11766127066E+03  0.00000000000E+00 0. -1.
        -13    1    3    3    0    0  0.31818088416E+02 -0.59209649109E+02 -0.31627968440E+03  0.32334348929E+03  0.00000000000E+00 0.  1.
         13    1    3    3    0    0  0.13891805650E+02  0.23053333909E+02 -0.27163572688E+02  0.38240007188E+02  0.00000000000E+00 0. -1.
         -1    1    1    2    0  502  0.20921032467E+02 -0.15075245774E+02  0.37573397862E+02  0.45570965115E+02  0.00000000000E+00 0.  1.
<scales pt_clust_5="13000.00000" pt_clust_6="13000.00000" pt_clust_7="13000.00000" pt_clust_8="13000.00000" pt_clust_9="25.78668"></scales>
<clustering>
<clus scale="   25.787">  1  9  2 -1</clus>
<clus scale="   89.183">  5  6 -1 -1</clus>
<clus scale="   96.916">  7  8 -1 -1</clus>
<clus scale="  110.655">  1  5  2 -1</clus>
<clus scale="   25.787">  1  5  2 -1</clus>
</clustering>
</event>
<event>
 9    1  0.1881049E-005  0.1008575E+03  0.7546771E-02  0.1283880E+00
         21   -1    0    0  501  502  0.00000000000E+00  0.00000000000E+00  0.24095855621E+03  0.24095855621E+03  0.00000000000E+00 0. -1.
          2   -1    0    0  502    0 -0.00000000000E+00 -0.00000000000E+00 -0.54406520140E+02  0.54406520140E+02  0.00000000000E+00 0. -1.
         23    2    1    2    0    0  0.21247849245E+02  0.39299492144E+02  0.51685153310E+02  0.11357650781E+03  0.90732281320E+02 0.  0.
         23    2    1    2    0    0  0.48808440605E+00 -0.46651629347E+02  0.12799516283E+03  0.15783600567E+03  0.79704643736E+02 0.  0.
        -11    1    3    3    0    0 -0.91994150289E+01  0.41953046969E+02  0.66850082454E+02  0.79458296678E+02  0.00000000000E+00 0. -1.
         11    1    3    3    0    0  0.30447264274E+02 -0.26535548256E+01 -0.15164929144E+02  0.34118211133E+02  0.00000000000E+00 0.  1.
        -13    1    4    4    0    0 -0.22807663591E+02  0.12182099655E+02  0.20085742982E+02  0.32741871382E+02  0.00000000000E+00 0. -1.
         13    1    4    4    0    0  0.23295747997E+02 -0.58833729002E+02  0.10790941985E+03  0.12509413429E+03  0.00000000000E+00 0.  1.
          2    1    1    2  501    0 -0.21735933651E+02  0.73521372034E+01  0.68717199373E+01  0.23952562870E+02  0.00000000000E+00 0. -1.
<scales pt_clust_5="13000.00000" pt_clust_6="13000.00000" pt_clust_7="13000.00000" pt_clust_8="13000.00000" pt_clust_9="22.94570"></scales>
<clustering>
<clus scale="   22.946">  1  9  2 -1</clus>
<clus scale="   79.705">  7  8 -1 -1</clus>
<clus scale="   90.732">  5  6 -1 -1</clus>
<clus scale="   91.064">  1  7  2 -1</clus>
<clus scale="   22.946">  1  5  2 -1</clus>
</clustering>
</event>
<event>
 9    1  0.1881049E-005  0.9403069E+02  0.7546771E-02  0.1293788E+00
          2   -1    0    0  502    0 -0.00000000000E+00  0.00000000000E+00  0.55795752670E+02  0.55795752670E+02  0.00000000000E+00 0. -1.
         21   -1    0    0  501  502  0.00000000000E+00 -0.00000000000E+00 -0.22933462421E+03  0.22933462421E+03  0.00000000000E+00 0.  1.
         23    2    1    2    0    0  0.85869279564E+01 -0.79714528895E+01 -0.33997669137E+02  0.99422306166E+02  0.92691283645E+02 0.  0.
         23    2    1    2    0    0 -0.26142351981E+02 -0.23582893324E+01 -0.86721891134E+02  0.12909732854E+03  0.91958956810E+02 0.  0.
        -13    1    4    4    0    0 -0.41208477699E+02  0.35698335509E+02 -0.53436988221E+02  0.76341479567E+02  0.00000000000E+00 0.  1.
         13    1    4    4    0    0  0.15066125718E+02 -0.38056624842E+02 -0.33284902913E+02  0.52755848969E+02  0.00000000000E+00 0. -1.
        -13    1    3    3    0    0 -0.39921740970E+02 -0.87495321635E+01 -0.30087750847E+02  0.50750098189E+02  0.00000000000E+00 0.  1.
         13    1    3    3    0    0  0.48508668926E+02  0.77807927397E+00 -0.39099182897E+01  0.48672207977E+02  0.00000000000E+00 0. -1.
          2    1    1    2  501    0  0.17555424025E+02  0.10329742222E+02 -0.52819311270E+02  0.56610742180E+02  0.00000000000E+00 0. -1.
<scales pt_clust_5="13000.00000" pt_clust_6="13000.00000" pt_clust_7="13000.00000" pt_clust_8="13000.00000" pt_clust_9="20.36901"></scales>
<clustering>
<clus scale="   20.369">  2  9  1 -1</clus>
<clus scale="   91.959">  5  6 -1 -1</clus>
<clus scale="   92.691">  7  8 -1 -1</clus>
<clus scale="   93.309">  2  5  1 -1</clus>
<clus scale="   20.369">  2  5  1 -1</clus>
</clustering>
</event>
<event>
 9    1  0.1881049E-005  0.1515937E+03  0.7546771E-02  0.1198746E+00
         21   -1    0    0  501  502  0.00000000000E+00  0.00000000000E+00  0.93367224092E+02  0.93367224092E+02  0.00000000000E+00 0. -1.
         -2   -1    0    0    0  501 -0.00000000000E+00 -0.00000000000E+00 -0.67081844263E+03  0.67081844263E+03  0.00000000000E+00 0.  1.
         23    2    1    2    0    0  0.11144556677E+03 -0.33656070663E+01 -0.34462582363E+03  0.37334023272E+03  0.90468388882E+02 0.  0.
         23    2    1    2    0    0 -0.16564511286E+03 -0.51073823753E+02 -0.65507486725E+02  0.20673534514E+03  0.91659332452E+02 0.  0.
        -11    1    3    3    0    0  0.67312209539E+02 -0.17767972710E+01 -0.30998197105E+03  0.31721114883E+03  0.00000000000E+00 0.  1.
         11    1    3    3    0    0  0.44133357228E+02 -0.15888097953E+01 -0.34643852580E+02  0.56129083890E+02  0.00000000000E+00 0. -1.
        -13    1    4    4    0    0 -0.11533031345E+03 -0.63170008480E+02 -0.11597105298E+02  0.13200766653E+03  0.00000000000E+00 0.  1.
         13    1    4    4    0    0 -0.50314799414E+02  0.12096184727E+02 -0.53910381427E+02  0.74727678611E+02  0.00000000000E+00 0. -1.
         -2    1    1    2    0  502  0.54199546094E+02  0.54439430820E+02 -0.16731790818E+03  0.18411008887E+03  0.00000000000E+00 0.  1.
<scales pt_clust_5="13000.00000" pt_clust_6="13000.00000" pt_clust_7="13000.00000" pt_clust_8="13000.00000" pt_clust_9="76.81958"></scales>
<clustering>
<clus scale="   76.820">  1  9  2 -1</clus>
<clus scale="   90.468">  5  6 -1 -1</clus>
<clus scale="   91.659">  7  8 -1 -1</clus>
<clus scale="  150.877">  2  5  1 -1</clus>
<clus scale="   76.820">  1  5  2 -1</clus>
</clustering>
</event>
<event>
 9    1  0.1881049E-005  0.1061346E+03  0.7546771E-02  0.1267932E+00
          4   -1    0    0  502    0 -0.00000000000E+00  0.00000000000E+00  0.16151024248E+03  0.16151024248E+03  0.00000000000E+00 0. -1.
         21   -1    0    0  501  502  0.00000000000E+00 -0.00000000000E+00 -0.12870804495E+03  0.12870804495E+03  0.00000000000E+00 0. -1.
         23    2    1    2    0    0  0.63336510716E+02 -0.12627329958E+02  0.73623850004E+02  0.13232632844E+03  0.88987768027E+02 0.  0.
         23    2    1    2    0    0 -0.43706997633E+02  0.20829949011E+02  0.11039298531E+02  0.10183699505E+03  0.88908486827E+02 0.  0.
        -11    1    3    3    0    0  0.92456092197E+01 -0.42514743918E+02  0.12181967226E+02  0.45181689496E+02  0.00000000000E+00 0.  1.
         11    1    3    3    0    0  0.54090901496E+02  0.29887413960E+02  0.61441882778E+02  0.87144638947E+02  0.00000000000E+00 0. -1.
        -11    1    4    4    0    0 -0.79620978276E+01  0.52666022163E+02  0.34921010843E+01  0.53378831593E+02  0.00000000000E+00 0.  1.
         11    1    4    4    0    0 -0.35744899805E+02 -0.31836073152E+02  0.75471974465E+01  0.48458163452E+02  0.00000000000E+00 0. -1.
          4    1    1    2  501    0 -0.19629513083E+02 -0.82026190534E+01 -0.51860951008E+02  0.56054963944E+02  0.00000000000E+00 0. -1.
<scales pt_clust_5="13000.00000" pt_clust_6="13000.00000" pt_clust_7="13000.00000" pt_clust_8="13000.00000" pt_clust_9="21.27442"></scales>
<clustering>
<clus scale="   21.274">  2  9  1 -1</clus>
<clus scale="   88.908">  7  8 -1 -1</clus>
<clus scale="   88.988">  5  6 -1 -1</clus>
<clus scale="  106.068">  2  7  1 -1</clus>
<clus scale="   21.274">  2  5  1 -1</clus>
</clustering>
</event>
<event>
 9    1  0.1881049E-005  0.1763743E+03  0.7546771E-02  0.1171722E+00
          3   -1    0    0  502    0 -0.00000000000E+00  0.00000000000E+00  0.10353379255E+03  0.10353379255E+03  0.00000000000E+00 0. -1.
         21   -1    0    0  501  502  0.00000000000E+00 -0.00000000000E+00 -0.41211152692E+03  0.41211152692E+03  0.00000000000E+00 0.  1.
         23    2    1    2    0    0 -0.95012188274E+02 -0.14436643630E+03 -0.94894600011E+02  0.21648635081E+03  0.89400062205E+02 0.  0.
         23    2    1    2    0    0  0.51278370268E+02  0.11419094758E+03 -0.14778174815E+03  0.21450555964E+03  0.92217928095E+02 0.  0.
        -11    1    3    3    0    0 -0.14335993227E+02 -0.91970716939E+02 -0.71799025986E+02  0.11755523642E+03  0.00000000000E+00 0.  1.
         11    1    3    3    0    0 -0.80676195047E+02 -0.52395719363E+02 -0.23095574025E+02  0.98931114390E+02  0.00000000000E+00 0. -1.
        -11    1    4    4    0    0 -0.14362202956E+02  0.53022550351E+02 -0.20192086506E+02  0.58526780852E+02  0.00000000000E+00 0.  1.
         11    1    4    4    0    0  0.65640573224E+02  0.61168397231E+02 -0.12758966164E+03  0.15597877878E+03  0.00000000000E+00 0. -1.
          3    1    1    2  501    0  0.43733818006E+02  0.30175488721E+02 -0.65901386202E+02  0.84653409029E+02  0.00000000000E+00 0. -1.
<scales pt_clust_5="13000.00000" pt_clust_6="13000.00000" pt_clust_7="13000.00000" pt_clust_8="13000.00000" pt_clust_9="53.13386"></scales>
<clustering>
<clus scale="   53.134">  2  9  1 -1</clus>
<clus scale="   89.400">  5  6 -1 -1</clus>
<clus scale="   92.218">  7  8 -1 -1</clus>
<clus scale="  174.917">  1  5  2 -1</clus>
<clus scale="   53.134">  2  5  1 -1</clus>
</clustering>
</event>
<event>
 9    1  0.1881049E-005  0.9929627E+02  0.7546771E-02  0.1283208E+00
         21   -1    0    0  501  502  0.00000000000E+00  0.00000000000E+00  0.48405521513E+02  0.48405521513E+02  0.00000000000E+00 0. -1.
          1   -1    0    0  502    0 -0.00000000000E+00 -0.00000000000E+00 -0.44608647775E+03  0.44608647775E+03  0.00000000000E+00 0. -1.
         23    2    1    2    0    0 -0.23360395997E+02  0.29913798209E+02 -0.28058164441E+03  0.29844815761E+03  0.94364718934E+02 0.  0.
         23    2    1    2    0    0  0.50403901052E+01 -0.20210557300E+02 -0.13779172745E+03  0.16675303142E+03  0.91575876607E+02 0.  0.
        -11    1    3    3    0    0  0.19617305182E+02  0.21136736628E+02 -0.22262090000E+02  0.36430769262E+02  0.00000000000E+00 0.  1.
         11    1    3    3    0    0 -0.42977701179E+02  0.87770615809E+01 -0.25831955441E+03  0.26201738835E+03  0.00000000000E+00 0. -1.
        -13    1    4    4    0    0  0.32330989768E+02 -0.10795015336E+02 -0.96865337526E+01  0.35435211183E+02  0.00000000000E+00 0.  1.
         13    1    4    4    0    0 -0.27290599662E+02 -0.94155419632E+01 -0.12810519369E+03  0.13131782024E+03  0.00000000000E+00 0. -1.
          1    1    1    2  501    0  0.18320005891E+02 -0.97032409093E+01  0.20692415615E+02  0.29290810231E+02  0.00000000000E+00 0. -1.
<scales pt_clust_5="13000.00000" pt_clust_6="13000.00000" pt_clust_7="13000.00000" pt_clust_8="13000.00000" pt_clust_9="20.73103"></scales>
<clustering>
<clus scale="   20.731">  1  9  2 -1</clus>
<clus scale="   91.576">  7  8 -1 -1</clus>
<clus scale="   94.365">  5  6 -1 -1</clus>
<clus scale="   96.650">  1  7  2 -1</clus>
<clus scale="   20.731">  1  5  2 -1</clus>
</clustering>
</event>
<event>
 9    1  0.2206988E-005  0.1732493E+03  0.7546771E-02  0.1203305E+00
         21   -1    0    0  501  502  0.00000000000E+00  0.00000000000E+00  0.25118804563E+03  0.25118804563E+03  0.00000000000E+00 0. -1.
          1   -1    0    0  502    0 -0.00000000000E+00 -0.00000000000E+00 -0.62793511922E+03  0.62793511922E+03  0.00000000000E+00 0. -1.
         23    2    1    2    0    0  0.77233124056E+01  0.19015725479E+02 -0.32255105102E+03  0.33529556835E+03  0.89233907633E+02 0.  0.
         23    2    1    2    0    0  0.13456150147E+03 -0.53228829025E+02 -0.24746055238E+03  0.30140919127E+03  0.93116430771E+02 0.  0.
        -11    1    3    3    0    0 -0.16938765578E+02  0.48986953224E+02 -0.20740947378E+03  0.21378805668E+03  0.00000000000E+00 0. -1.
         11    1    3    3    0    0  0.24662077983E+02 -0.29971227745E+02 -0.11514157724E+03  0.12150751167E+03  0.00000000000E+00 0.  1.
        -11    1    4    4    0    0  0.25819357437E+02 -0.45208111775E+02 -0.35395983356E+02  0.62954652143E+02  0.00000000000E+00 0.  1.
         11    1    4    4    0    0  0.10874214403E+03 -0.80207172500E+01 -0.21206456903E+03  0.23845453913E+03  0.00000000000E+00 0. -1.
          1    1    1    2  501    0 -0.14228481387E+03  0.34213103546E+02  0.19326452981E+03  0.24241840524E+03  0.00000000000E+00 0. -1.
<scales pt_clust_5="13000.00000" pt_clust_6="13000.00000" pt_clust_7="13000.00000" pt_clust_8="13000.00000" pt_clust_9="146.09809"></scales>
<clustering>
<clus scale="   89.234">  5  6 -1 -1</clus>
<clus scale="   91.564">  2  5  1 -1</clus>
<clus scale="   93.116">  7  8 -1 -1</clus>
<clus scale="  146.098">  1  9  2 -1</clus>
<clus scale="  146.098">  1  5  2 -1</clus>
</clustering>
</event>
<event>
 9    1  0.1881049E-005  0.9561203E+02  0.7546771E-02  0.1290689E+00
         21   -1    0    0  501  502  0.00000000000E+00  0.00000000000E+00  0.23246018523E+03  0.23246018523E+03  0.00000000000E+00 0.  1.
          1   -1    0    0  502    0 -0.00000000000E+00 -0.00000000000E+00 -0.12662415248E+03  0.12662415248E+03  0.00000000000E+00 0. -1.
         23    2    1    2    0    0 -0.48271906380E+01 -0.26427660441E+02 -0.56267419741E+02  0.11073130238E+03  0.91507790910E+02 0.  0.
         23    2    1    2    0    0  0.72854590554E+02  0.15538010533E+01  0.10165289234E+03  0.15400948100E+03  0.89863251976E+02 0.  0.
        -11    1    3    3    0    0  0.19252069363E+02 -0.50073341254E+02 -0.11837148571E+02  0.54937234781E+02  0.00000000000E+00 0.  1.
         11    1    3    3    0    0 -0.24079260001E+02  0.23645680813E+02 -0.44430271170E+02  0.55794067602E+02  0.00000000000E+00 0. -1.
        -13    1    4    4    0    0  0.89825441090E+02 -0.13641330112E+02  0.91901188219E+02  0.12923050782E+03  0.00000000000E+00 0.  1.
         13    1    4    4    0    0 -0.16970850536E+02  0.15195131166E+02  0.97517041197E+01  0.24778973189E+02  0.00000000000E+00 0. -1.
          1    1    1    2  501    0 -0.68027399916E+02  0.24873859388E+02  0.60450560156E+02  0.94343554329E+02  0.00000000000E+00 0. -1.
<scales pt_clust_5="13000.00000" pt_clust_6="13000.00000" pt_clust_7="13000.00000" pt_clust_8="13000.00000" pt_clust_9="72.43229"></scales>
<clustering>
<clus scale="   72.432">  1  9  2 -1</clus>
<clus scale="   89.863">  7  8 -1 -1</clus>
<clus scale="   91.508">  5  6 -1 -1</clus>
<clus scale="   94.039">  1  7  2 -1</clus>
<clus scale="   72.432">  1  5  2 -1</clus>
</clustering>
</event>
<event>
 9    1  0.1881049E-005  0.9520410E+02  0.7546771E-02  0.1290884E+00
         21   -1    0    0  501  502  0.00000000000E+00  0.00000000000E+00  0.25459362516E+02  0.25459362516E+02  0.00000000000E+00 0. -1.
          2   -1    0    0  502    0 -0.00000000000E+00 -0.00000000000E+00 -0.98754121476E+03  0.98754121476E+03  0.00000000000E+00 0. -1.
         23    2    1    2    0    0 -0.14534556739E+02 -0.20700072283E+02 -0.50095495493E+03  0.50992389233E+03  0.91797400674E+02 0.  0.
         23    2    1    2    0    0 -0.51759445434E+02  0.42221380042E+02 -0.17409953676E+03  0.20770781875E+03  0.91488819779E+02 0.  0.
        -13    1    3    3    0    0  0.33561980479E+02  0.13446776522E+02 -0.18050322286E+03  0.18408866287E+03  0.00000000000E+00 0.  1.
         13    1    3    3    0    0 -0.48096537218E+02 -0.34146848805E+02 -0.32045173207E+03  0.32583522946E+03  0.00000000000E+00 0. -1.
        -13    1    4    4    0    0 -0.64079095175E+02  0.19739561633E+02 -0.57517755969E+02  0.88340664383E+02  0.00000000000E+00 0. -1.
         13    1    4    4    0    0  0.12319649741E+02  0.22481818409E+02 -0.11658178079E+03  0.11936715437E+03  0.00000000000E+00 0.  1.
          2    1    1    2  501    0  0.66294002173E+02 -0.21521307759E+02 -0.28702736055E+03  0.29536886619E+03  0.00000000000E+00 0. -1.
<scales pt_clust_5="13000.00000" pt_clust_6="13000.00000" pt_clust_7="13000.00000" pt_clust_8="13000.00000" pt_clust_9="69.69983"></scales>
<clustering>
<clus scale="   69.700">  1  9  2 -1</clus>
<clus scale="   91.489">  7  8 -1 -1</clus>
<clus scale="   91.797">  5  6 -1 -1</clus>
<clus scale="   94.907">  1  7  2 -1</clus>
<clus scale="   69.700">  1  5  2 -1</clus>
</clustering>
</event>
<event>
 9    1  0.1881049E-005  0.1013055E+03  0.7546771E-02  0.1278370E+00
         21   -1    0    0  501  502  0.00000000000E+00  0.00000000000E+00  0.33969090421E+03  0.33969090421E+03  0.00000000000E+00 0.  1.
         -4   -1    0    0    0  501 -0.00000000000E+00 -0.00000000000E+00 -0.46487342828E+02  0.46487342828E+02  0.00000000000E+00 0.  1.
         23    2    1    2    0    0  0.32973545767E+02 -0.47014785986E+02  0.81916127461E+02  0.13544863440E+03  0.91315036008E+02 0.  0.
         23    2    1    2    0    0 -0.29039683579E+02  0.66926772307E+01  0.14520581387E+03  0.17321749594E+03  0.89618510181E+02 0.  0.
        -11    1    4    4    0    0 -0.45056036893E+02  0.34211681629E+02  0.11979057668E+03  0.13247742404E+03  0.00000000000E+00 0.  1.
         11    1    4    4    0    0  0.16016353314E+02 -0.27519004398E+02  0.25415237191E+02  0.40740071895E+02  0.00000000000E+00 0. -1.
        -11    1    3    3    0    0  0.18932193352E+02  0.19719914422E+02  0.56326474718E+02  0.62609701517E+02  0.00000000000E+00 0. -1.
         11    1    3    3    0    0  0.14041352415E+02 -0.66734700407E+02  0.25589652743E+02  0.72838932883E+02  0.00000000000E+00 0.  1.
         -4    1    1    2    0  502 -0.39338621882E+01  0.40322108755E+02  0.66081620050E+02  0.77512116696E+02  0.00000000000E+00 0.  1.
<scales pt_clust_5="13000.00000" pt_clust_6="13000.00000" pt_clust_7="13000.00000" pt_clust_8="13000.00000" pt_clust_9="40.51355"></scales>
<clustering>
<clus scale="   40.514">  1  9  2 -1</clus>
<clus scale="   89.619">  5  6 -1 -1</clus>
<clus scale="   91.315">  7  8 -1 -1</clus>
<clus scale="   99.779">  1  5  2 -1</clus>
<clus scale="   40.514">  1  5  2 -1</clus>
</clustering>
</event>
<event>
 9    1  0.1881049E-005  0.1023151E+03  0.7546771E-02  0.1277097E+00
         21   -1    0    0  501  502  0.00000000000E+00  0.00000000000E+00  0.76782130175E+02  0.76782130175E+02  0.00000000000E+00 0. -1.
         -2   -1    0    0    0  501 -0.00000000000E+00 -0.00000000000E+00 -0.22151674602E+03  0.22151674602E+03  0.00000000000E+00 0.  1.
         23    2    1    2    0    0  0.36750905210E+02  0.22563708398E+02 -0.80505952670E+02  0.12788549067E+03  0.89519496976E+02 0.  0.
         23    2    1    2    0    0 -0.34713650055E+01 -0.56586126631E+02 -0.34013851586E+02  0.11403974294E+03  0.92919754458E+02 0.  0.
        -13    1    4    4    0    0  0.27435877335E+02 -0.10495926832E+02 -0.48485665650E+02  0.56689960476E+02  0.00000000000E+00 0.  1.
         13    1    4    4    0    0 -0.30907242341E+02 -0.46090199799E+02  0.14471814064E+02  0.57349782466E+02  0.00000000000E+00 0. -1.
        -13    1    3    3    0    0  0.57005713341E+02 -0.60232614293E+01 -0.25659562681E+02  0.62804014113E+02  0.00000000000E+00 0. -1.
         13    1    3    3    0    0 -0.20254808130E+02  0.28586969827E+02 -0.54846389990E+02  0.65081476560E+02  0.00000000000E+00 0.  1.
         -2    1    1    2    0  502 -0.33279540205E+02  0.34022418233E+02 -0.30214811592E+02  0.56373642584E+02  0.00000000000E+00 0.  1.
<scales pt_clust_5="13000.00000" pt_clust_6="13000.00000" pt_clust_7="13000.00000" pt_clust_8="13000.00000" pt_clust_9="47.59259"></scales>
<clustering>
<clus scale="   47.593">  1  9  2 -1</clus>
<clus scale="   89.519">  7  8 -1 -1</clus>
<clus scale="   92.920">  5  6 -1 -1</clus>
<clus scale="   99.237">  2  7  1 -1</clus>
<clus scale="   47.593">  1  5  2 -1</clus>
</clustering>
</event>
<event>
 9    1  0.1881049E-005  0.1108659E+03  0.7546771E-02  0.1259227E+00
         21   -1    0    0  501  502  0.00000000000E+00  0.00000000000E+00  0.57759300565E+03  0.57759300565E+03  0.00000000000E+00 0.  1.
          1   -1    0    0  502    0 -0.00000000000E+00 -0.00000000000E+00 -0.44233503390E+02  0.44233503390E+02  0.00000000000E+00 0. -1.
         23    2    1    2    0    0 -0.53870897268E+02  0.33701647496E+02  0.56342060870E+02  0.12470702358E+03  0.91321078024E+02 0.  0.
         23    2    1    2    0    0  0.37338178700E+02 -0.52111243661E+02  0.33384117312E+03  0.35182086947E+03  0.90654696598E+02 0.  0.
        -11    1    3    3    0    0 -0.23110838484E+02 -0.27717104740E+02  0.40437103006E+02  0.54198782737E+02  0.00000000000E+00 0.  1.
         11    1    3    3    0    0 -0.30760058783E+02  0.61418752236E+02  0.15904957864E+02  0.70508240846E+02  0.00000000000E+00 0. -1.
        -13    1    4    4    0    0  0.35130822052E+02  0.11099879726E+02  0.20508677814E+03  0.20836978801E+03  0.00000000000E+00 0. -1.
         13    1    4    4    0    0  0.22073566490E+01 -0.63211123387E+02  0.12875439499E+03  0.14345108146E+03  0.00000000000E+00 0.  1.
          1    1    1    2  501    0  0.16532718567E+02  0.18409596164E+02  0.14317626827E+03  0.14529861599E+03  0.00000000000E+00 0. -1.
<scales pt_clust_5="13000.00000" pt_clust_6="13000.00000" pt_clust_7="13000.00000" pt_clust_8="13000.00000" pt_clust_9="24.74357"></scales>
<clustering>
<clus scale="   24.744">  1  9  2 -1</clus>
<clus scale="   90.655">  7  8 -1 -1</clus>
<clus scale="   91.321">  5  6 -1 -1</clus>
<clus scale="  110.318">  1  7  2 -1</clus>
<clus scale="   24.744">  1  5  2 -1</clus>
</clustering>
</event>
<event>
 9    1  0.1881049E-005  0.1152982E+03  0.7546771E-02  0.1251414E+00
          3   -1    0    0  502    0 -0.00000000000E+00  0.00000000000E+00  0.16879514388E+03  0.16879514388E+03  0.00000000000E+00 0. -1.
         21   -1    0    0  501  502  0.00000000000E+00 -0.00000000000E+00 -0.36417459346E+03  0.36417459346E+03  0.00000000000E+00 0. -1.
         23    2    1    2    0    0  0.25516729586E+02 -0.60799511527E+02  0.11005357055E+03  0.15750139247E+03  0.91363100593E+02 0.  0.
         23    2    1    2    0    0  0.73455547260E+01  0.11509261782E+03 -0.16082721718E+03  0.21754903203E+03  0.90343343409E+02 0.  0.
        -13    1    4    4    0    0 -0.34167694194E+02  0.54650351845E+02 -0.11273717603E+03  0.12986055268E+03  0.00000000000E+00 0.  1.
         13    1    4    4    0    0  0.41513248920E+02  0.60442265971E+02 -0.48090041153E+02  0.87688479344E+02  0.00000000000E+00 0. -1.
        -13    1    3    3    0    0  0.53961962425E+02 -0.63211352570E+02  0.90651999303E+02  0.12298517577E+03  0.00000000000E+00 0. -1.
         13    1    3    3    0    0 -0.28445232839E+02  0.24118410433E+01  0.19401571245E+02  0.34516216700E+02  0.00000000000E+00 0.  1.
          3    1    1    2  501    0 -0.32862284312E+02 -0.54293106289E+02 -0.14460580294E+03  0.15791931283E+03  0.00000000000E+00 0. -1.
<scales pt_clust_5="13000.00000" pt_clust_6="13000.00000" pt_clust_7="13000.00000" pt_clust_8="13000.00000" pt_clust_9="63.46394"></scales>
<clustering>
<clus scale="   63.464">  2  9  1 -1</clus>
<clus scale="   90.343">  5  6 -1 -1</clus>
<clus scale="   91.363">  7  8 -1 -1</clus>
<clus scale="  114.492">  2  5  1 -1</clus>
<clus scale="   63.464">  2  5  1 -1</clus>
</clustering>
</event>
<event>
 9    1  0.1881049E-005  0.9293766E+02  0.7546771E-02  0.1299424E+00
         -1   -1    0    0    0  501 -0.00000000000E+00  0.00000000000E+00  0.40545898052E+03  0.40545898052E+03  0.00000000000E+00 0.  1.
         21   -1    0    0  501  502  0.00000000000E+00 -0.00000000000E+00 -0.13820443378E+03  0.13820443378E+03  0.00000000000E+00 0.  1.
         23    2    1    2    0    0  0.56184912105E+01  0.13454732850E+02  0.27107682828E+03  0.28422132317E+03  0.84181449452E+02 0.  0.
         23    2    1    2    0    0  0.28994940358E+02 -0.54743004458E+02  0.96265582892E+02  0.14577419054E+03  0.90252695671E+02 0.  0.
        -13    1    4    4    0    0  0.48252405475E+02 -0.16341602649E+02  0.88504189447E+02  0.10211921543E+03  0.00000000000E+00 0.  1.
         13    1    4    4    0    0 -0.19257465117E+02 -0.38401401809E+02  0.77613934452E+01  0.43654975110E+02  0.00000000000E+00 0. -1.
        -13    1    3    3    0    0  0.27607186470E+02  0.38503702088E+02  0.20256536523E+03  0.20803225473E+03  0.00000000000E+00 0.  1.
         13    1    3    3    0    0 -0.21988695259E+02 -0.25048969238E+02  0.68511463057E+02  0.76189068437E+02  0.00000000000E+00 0. -1.
         -1    1    1    2    0  502 -0.34613431568E+02  0.41288271608E+02 -0.10008786444E+03  0.11366790059E+03  0.00000000000E+00 0.  1.
<scales pt_clust_5="13000.00000" pt_clust_6="13000.00000" pt_clust_7="13000.00000" pt_clust_8="13000.00000" pt_clust_9="53.87774"></scales>
<clustering>
<clus scale="   53.878">  2  9  1 -1</clus>
<clus scale="   84.181">  7  8 -1 -1</clus>
<clus scale="   87.054">  1  7  2 -1</clus>
<clus scale="   90.253">  5  6 -1 -1</clus>
<clus scale="   53.878">  2  5  1 -1</clus>
</clustering>
</event>
<event>
 9    1  0.1881049E-005  0.1588785E+03  0.7546771E-02  0.1209307E+00
          2   -1    0    0  502    0 -0.00000000000E+00  0.00000000000E+00  0.49745078665E+03  0.49745078665E+03  0.00000000000E+00 0. -1.
         21   -1    0    0  501  502  0.00000000000E+00 -0.00000000000E+00 -0.96719746497E+02  0.96719746497E+02  0.00000000000E+00 0.  1.
         23    2    1    2    0    0 -0.17631688028E+02 -0.51260413575E+02  0.22551511931E+03  0.24849176722E+03  0.89177255610E+02 0.  0.
         23    2    1    2    0    0  0.94312272770E+02  0.13207555143E+03  0.11326937187E+03  0.21820965785E+03  0.91906191822E+02 0.  0.
        -11    1    3    3    0    0  0.81609194286E+01 -0.55340730156E+02  0.21166635405E+03  0.21893342014E+03  0.00000000000E+00 0. -1.
         11    1    3    3    0    0 -0.25792607457E+02  0.40803165811E+01  0.13848765263E+02  0.29558347081E+02  0.00000000000E+00 0.  1.
        -13    1    4    4    0    0  0.39767703973E+02  0.65838271728E+02  0.10225545242E+01  0.76923298949E+02  0.00000000000E+00 0.  1.
         13    1    4    4    0    0  0.54544568797E+02  0.66237279703E+02  0.11224681735E+03  0.14128635890E+03  0.00000000000E+00 0. -1.
          2    1    1    2  501    0 -0.76680584742E+02 -0.80815137855E+02  0.61946548971E+02  0.12746910807E+03  0.00000000000E+00 0. -1.
<scales pt_clust_5="13000.00000" pt_clust_6="13000.00000" pt_clust_7="13000.00000" pt_clust_8="13000.00000" pt_clust_9="129.59799"></scales>
<clustering>
<clus scale="   89.177">  5  6 -1 -1</clus>
<clus scale="   91.906">  7  8 -1 -1</clus>
<clus scale="  104.360">  1  5  2 -1</clus>
<clus scale="  129.598">  2  9  1 -1</clus>
<clus scale="  129.598">  2  5  1 -1</clus>
</clustering>
</event>
<event>
 9    1  0.1881049E-005  0.1439337E+03  0.7546771E-02  0.1210268E+00
         21   -1    0    0  501  502  0.00000000000E+00  0.00000000000E+00  0.87580226137E+03  0.87580226137E+03  0.00000000000E+00 0.  1.
          3   -1    0    0  502    0 -0.00000000000E+00 -0.00000000000E+00 -0.46185675036E+02  0.46185675036E+02  0.00000000000E+00 0. -1.
         23    2    1    2    0    0  0.92110282296E+02  0.23207726650E+01  0.13518577748E+03  0.19224843723E+03  0.10096819843E+03 0.  0.
         23    2    1    2    0    0 -0.13479593905E+03  0.35824440183E+02  0.50529354294E+03  0.53212870010E+03  0.91575396410E+02 0.  0.
        -11    1    3    3    0    0  0.22927704693E+02 -0.52917391552E+01 -0.14172954079E+02  0.27469160400E+02  0.00000000000E+00 0. -1.
         11    1    3    3    0    0  0.69182577604E+02  0.76125118202E+01  0.14935873156E+03  0.16477927683E+03  0.00000000000E+00 0.  1.
        -13    1    4    4    0    0 -0.49247142579E+02  0.49898245103E+02  0.31950896818E+03  0.32711022097E+03  0.00000000000E+00 0.  1.
         13    1    4    4    0    0 -0.85548796475E+02 -0.14073804920E+02  0.18578457476E+03  0.20501847912E+03  0.00000000000E+00 0. -1.
          3    1    1    2  501    0  0.42685656758E+02 -0.38145212848E+02  0.18913726591E+03  0.19761079908E+03  0.00000000000E+00 0. -1.
<scales pt_clust_5="13000.00000" pt_clust_6="13000.00000" pt_clust_7="13000.00000" pt_clust_8="13000.00000" pt_clust_9="57.24616"></scales>
<clustering>
<clus scale="   57.246">  1  9  2 -1</clus>
<clus scale="   91.575">  7  8 -1 -1</clus>
<clus scale="  100.968">  5  6 -1 -1</clus>
<clus scale="  137.508">  1  7  2 -1</clus>
<clus scale="   57.246">  1  5  2 -1</clus>
</clustering>
</event>
<event>
 9    1  0.1881049E-005  0.1035670E+03  0.7546771E-02  0.1273513E+00
         21   -1    0    0  501  502  0.00000000000E+00  0.00000000000E+00  0.57054213740E+02  0.57054213740E+02  0.00000000000E+00 0.  1.
         -1   -1    0    0    0  501 -0.00000000000E+00 -0.00000000000E+00 -0.36317826683E+03  0.36317826683E+03  0.00000000000E+00 0.  1.
         23    2    1    2    0    0 -0.28091793882E+02  0.51759978531E+02 -0.24507582351E+03  0.26820915486E+03  0.91682862184E+02 0.  0.
         23    2    1    2    0    0  0.12675681160E+02 -0.10762901589E+02 -0.25052408764E+02  0.95330151829E+02  0.90463814419E+02 0.  0.
        -11    1    4    4    0    0 -0.12049426967E+02 -0.45217002555E+02 -0.24715881427E+02  0.52921080913E+02  0.00000000000E+00 0. -1.
         11    1    4    4    0    0  0.24725108128E+02  0.34454100965E+02 -0.33652733663E+00  0.42409070916E+02  0.00000000000E+00 0.  1.
        -13    1    3    3    0    0  0.22767448548E+02  0.50855071009E+02 -0.15573133015E+03  0.16539903915E+03  0.00000000000E+00 0. -1.
         13    1    3    3    0    0 -0.50859242430E+02  0.90490752185E+00 -0.89344493361E+02  0.10281011571E+03  0.00000000000E+00 0.  1.
         -1    1    1    2    0  502  0.15416112722E+02 -0.40997076941E+02 -0.35995820819E+02  0.56693173889E+02  0.00000000000E+00 0.  1.
<scales pt_clust_5="13000.00000" pt_clust_6="13000.00000" pt_clust_7="13000.00000" pt_clust_8="13000.00000" pt_clust_9="43.79974"></scales>
<clustering>
<clus scale="   43.800">  1  9  2 -1</clus>
<clus scale="   90.464">  5  6 -1 -1</clus>
<clus scale="   91.683">  7  8 -1 -1</clus>
<clus scale="  102.489">  1  5  2 -1</clus>
<clus scale="   43.800">  1  5  2 -1</clus>
</clustering>
</event>
<event>
 9    1  0.1881049E-005  0.1136416E+03  0.7546771E-02  0.1256827E+00
          2   -1    0    0  502    0 -0.00000000000E+00  0.00000000000E+00  0.21097436884E+03  0.21097436884E+03  0.00000000000E+00 0. -1.
         21   -1    0    0  501  502  0.00000000000E+00 -0.00000000000E+00 -0.86745220060E+02  0.86745220060E+02  0.00000000000E+00 0. -1.
         23    2    1    2    0    0  0.47862265848E+02 -0.64374871418E+02  0.94882812170E+02  0.15625720361E+03  0.94755712614E+02 0.  0.
         23    2    1    2    0    0 -0.18035643288E+02  0.39379670805E+02  0.31996861018E+02  0.10245709402E+03  0.87164293715E+02 0.  0.
        -13    1    3    3    0    0  0.41947887279E+02  0.14641165941E+02  0.27572026105E+02  0.52289631963E+02  0.00000000000E+00 0.  1.
         13    1    3    3    0    0  0.59143785687E+01 -0.79016037359E+02  0.67310786064E+02  0.10396757165E+03  0.00000000000E+00 0. -1.
        -13    1    4    4    0    0  0.20195177084E+02  0.52544843931E+02  0.12955267902E+02  0.57763697662E+02  0.00000000000E+00 0. -1.
         13    1    4    4    0    0 -0.38230820372E+02 -0.13165173126E+02  0.19041593116E+02  0.44693396360E+02  0.00000000000E+00 0.  1.
          2    1    1    2  501    0 -0.29826622560E+02  0.24995200613E+02 -0.26505244105E+01  0.39005291265E+02  0.00000000000E+00 0. -1.
<scales pt_clust_5="13000.00000" pt_clust_6="13000.00000" pt_clust_7="13000.00000" pt_clust_8="13000.00000" pt_clust_9="38.91513"></scales>
<clustering>
<clus scale="   38.915">  2  9  1 -1</clus>
<clus scale="   87.164">  7  8 -1 -1</clus>
<clus scale="   94.756">  5  6 -1 -1</clus>
<clus scale="  107.394">  2  7  1 -1</clus>
<clus scale="   38.915">  2  5  1 -1</clus>
</clustering>
</event>
<event>
 9    1  0.1881049E-005  0.1872751E+03  0.7546771E-02  0.1160962E+00
          1   -1    0    0  502    0 -0.00000000000E+00  0.00000000000E+00  0.42669727756E+03  0.42669727756E+03  0.00000000000E+00 0. -1.
         21   -1    0    0  501  502  0.00000000000E+00 -0.00000000000E+00 -0.42143630121E+03  0.42143630121E+03  0.00000000000E+00 0.  1.
         23    2    1    2    0    0 -0.69156295583E+02 -0.15042164228E+03  0.37499179375E+03  0.42013074759E+03  0.92096340875E+02 0.  0.
         23    2    1    2    0    0  0.38406680602E+02  0.13107768646E+03 -0.22511592392E+03  0.27889483386E+03  0.91916898071E+02 0.  0.
        -11    1    4    4    0    0  0.50953408762E+02  0.86247336204E+02 -0.20503052641E+03  0.22819371075E+03  0.00000000000E+00 0.  1.
         11    1    4    4    0    0 -0.12546728160E+02  0.44830350255E+02 -0.20085397508E+02  0.50701123110E+02  0.00000000000E+00 0. -1.
        -13    1    3    3    0    0 -0.34286654434E+02  0.70585267194E+00  0.63996915384E+02  0.72606322582E+02  0.00000000000E+00 0.  1.
         13    1    3    3    0    0 -0.34869641149E+02 -0.15112749495E+03  0.31099487837E+03  0.34752442500E+03  0.00000000000E+00 0. -1.
          1    1    1    2  501    0  0.30749614981E+02  0.19343955823E+02 -0.14461489348E+03  0.14910799731E+03  0.00000000000E+00 0. -1.
<scales pt_clust_5="13000.00000" pt_clust_6="13000.00000" pt_clust_7="13000.00000" pt_clust_8="13000.00000" pt_clust_9="36.32805"></scales>
<clustering>
<clus scale="   36.328">  2  9  1 -1</clus>
<clus scale="   91.917">  5  6 -1 -1</clus>
<clus scale="   92.096">  7  8 -1 -1</clus>
<clus scale="  187.187">  2  5  1 -1</clus>
<clus scale="   36.328">  2  5  1 -1</clus>
</clustering>
</event>
<event>
 9    1  0.1881049E-005  0.1308244E+03  0.7546771E-02  0.1242578E+00
         -2   -1    0    0    0  501 -0.00000000000E+00  0.00000000000E+00  0.12435139772E+03  0.12435139772E+03  0.00000000000E+00 0.  1.
         21   -1    0    0  501  502  0.00000000000E+00 -0.00000000000E+00 -0.34814199314E+03  0.34814199314E+03  0.00000000000E+00 0.  1.
         23    2    1    2    0    0 -0.47088728479E+01 -0.15479526989E+02  0.57185318938E+02  0.10967549601E+03  0.92177895847E+02 0.  0.
         23    2    1    2    0    0 -0.83254913823E+02 -0.23379328241E+02 -0.11414873754E+03  0.17025895499E+03  0.92088022068E+02 0.  0.
        -11    1    3    3    0    0 -0.43466014507E+02 -0.25884965299E+02  0.18303857734E+02  0.53799229117E+02  0.00000000000E+00 0.  1.
         11    1    3    3    0    0  0.38757141659E+02  0.10405438310E+02  0.38881461204E+02  0.55876266888E+02  0.00000000000E+00 0. -1.
        -13    1    4    4    0    0 -0.28722527721E+02 -0.14111317348E+02 -0.11025762712E+03  0.11480791442E+03  0.00000000000E+00 0. -1.
         13    1    4    4    0    0 -0.54532386102E+02 -0.92680108927E+01 -0.38911104193E+01  0.55451040569E+02  0.00000000000E+00 0.  1.
         -2    1    1    2    0  502  0.87963786671E+02  0.38858855229E+02 -0.16682717682E+03  0.19255893986E+03  0.00000000000E+00 0.  1.
<scales pt_clust_5="13000.00000" pt_clust_6="13000.00000" pt_clust_7="13000.00000" pt_clust_8="13000.00000" pt_clust_9="92.92369"></scales>
<clustering>
<clus scale="   92.088">  7  8 -1 -1</clus>
<clus scale="   92.178">  5  6 -1 -1</clus>
<clus scale="   93.587">  1  5  2 -1</clus>
<clus scale="   92.924">  2  9  1 -1</clus>
<clus scale="   92.924">  2  5  1 -1</clus>
</clustering>
</event>
<event>
 9    1  0.1881049E-005  0.1177353E+03  0.7546771E-02  0.1248847E+00
          2   -1    0    0  502    0 -0.00000000000E+00  0.00000000000E+00  0.27331119567E+03  0.27331119567E+03  0.00000000000E+00 0. -1.
         21   -1    0    0  501  502  0.00000000000E+00 -0.00000000000E+00 -0.16836932389E+03  0.16836932389E+03  0.00000000000E+00 0. -1.
         23    2    1    2    0    0  0.46661979620E+02  0.95014205702E+02  0.15086760820E+03  0.20325644453E+03  0.85715269418E+02 0.  0.
         23    2    1    2    0    0 -0.13402762641E+02 -0.36665768166E+02  0.57567785876E+02  0.11504812584E+03  0.91640649758E+02 0.  0.
        -11    1    4    4    0    0  0.19417053100E+02 -0.43087295360E+02 -0.13737581061E+01  0.47280272671E+02  0.00000000000E+00 0. -1.
         11    1    4    4    0    0 -0.32819815741E+02  0.64215271943E+01  0.58941543983E+02  0.67767853174E+02  0.00000000000E+00 0.  1.
        -11    1    3    3    0    0 -0.23222575557E+02  0.23548050267E+02  0.58267096262E+02  0.66998904422E+02  0.00000000000E+00 0.  1.
         11    1    3    3    0    0  0.69884555178E+02  0.71466155435E+02  0.92600511941E+02  0.13625754011E+03  0.00000000000E+00 0. -1.
          2    1    1    2  501    0 -0.33259216979E+02 -0.58348437537E+02 -0.10349352231E+03  0.12337594918E+03  0.00000000000E+00 0. -1.
<scales pt_clust_5="13000.00000" pt_clust_6="13000.00000" pt_clust_7="13000.00000" pt_clust_8="13000.00000" pt_clust_9="67.16186"></scales>
<clustering>
<clus scale="   67.162">  2  9  1 -1</clus>
<clus scale="   85.715">  7  8 -1 -1</clus>
<clus scale="   91.641">  5  6 -1 -1</clus>
<clus scale="  113.184">  1  7  2 -1</clus>
<clus scale="   67.162">  2  5  1 -1</clus>
</clustering>
</event>
<event>
 9    1  0.1881049E-005  0.9776752E+02  0.7546771E-02  0.1288043E+00
         -1   -1    0    0    0  501 -0.00000000000E+00  0.00000000000E+00  0.24004763079E+03  0.24004763079E+03  0.00000000000E+00 0.  1.
         21   -1    0    0  501  502  0.00000000000E+00 -0.00000000000E+00 -0.70592002877E+02  0.70592002877E+02  0.00000000000E+00 0.  1.
         23    2    1    2    0    0 -0.26591855392E+02  0.35810657780E+01  0.11749188065E+03  0.15433567284E+03  0.96411654310E+02 0.  0.
         23    2    1    2    0    0  0.15034039300E+01  0.16507241068E+02  0.73053206935E+02  0.11786263178E+03  0.90994943242E+02 0.  0.
        -11    1    3    3    0    0 -0.55674276840E+02  0.27518043945E+02  0.67203865021E+02  0.91505340380E+02  0.00000000000E+00 0.  1.
         11    1    3    3    0    0  0.29082421448E+02 -0.23936978167E+02  0.50288015633E+02  0.62830332463E+02  0.00000000000E+00 0. -1.
        -13    1    4    4    0    0  0.40888466794E+02 -0.55123900391E+01  0.56149020799E+02  0.69677583894E+02  0.00000000000E+00 0.  1.
         13    1    4    4    0    0 -0.39385062864E+02  0.22019631107E+02  0.16904186136E+02  0.48185047886E+02  0.00000000000E+00 0. -1.
         -1    1    1    2    0  502  0.25088451462E+02 -0.20088306846E+02 -0.21089459681E+02  0.38441329039E+02  0.00000000000E+00 0.  1.
<scales pt_clust_5="13000.00000" pt_clust_6="13000.00000" pt_clust_7="13000.00000" pt_clust_8="13000.00000" pt_clust_9="32.13986"></scales>
<clustering>
<clus scale="   32.140">  2  9  1 -1</clus>
<clus scale="   90.995">  7  8 -1 -1</clus>
<clus scale="   92.430">  2  7  1 -1</clus>
<clus scale="   96.412">  5  6 -1 -1</clus>
<clus scale="   32.140">  2  5  1 -1</clus>
</clustering>
</event>
<event>
 9    1  0.1881049E-005  0.1809799E+03  0.7546771E-02  0.1166926E+00
         21   -1    0    0  501  502  0.00000000000E+00  0.00000000000E+00  0.13950540989E+03  0.13950540989E+03  0.00000000000E+00 0. -1.
          3   -1    0    0  502    0 -0.00000000000E+00 -0.00000000000E+00 -0.45069627149E+03  0.45069627149E+03  0.00000000000E+00 0. -1.
         23    2    1    2    0    0  0.72779772939E+02  0.17921720683E+03 -0.24396406824E+03  0.32452160014E+03  0.91542884975E+02 0.  0.
         23    2    1    2    0    0 -0.40876960927E+02 -0.77747558951E+02  0.20109823626E+02  0.12805172835E+03  0.90979290335E+02 0.  0.
        -13    1    3    3    0    0  0.64344367454E+02  0.43523057464E+02 -0.97894832788E+02  0.12497140649E+03  0.00000000000E+00 0.  1.
         13    1    3    3    0    0  0.84354054853E+01  0.13569414936E+03 -0.14606923546E+03  0.19955019365E+03  0.00000000000E+00 0. -1.
        -13    1    4    4    0    0  0.15002153135E+02 -0.58803361098E+02  0.30851732367E+02  0.68078845945E+02  0.00000000000E+00 0. -1.
         13    1    4    4    0    0 -0.55879114062E+02 -0.18944197854E+02 -0.10741908741E+02  0.59972882406E+02  0.00000000000E+00 0.  1.
          3    1    1    2  501    0 -0.31902812012E+02 -0.10146964788E+03 -0.87336616977E+02  0.13762835289E+03  0.00000000000E+00 0. -1.
<scales pt_clust_5="13000.00000" pt_clust_6="13000.00000" pt_clust_7="13000.00000" pt_clust_8="13000.00000" pt_clust_9="106.36677"></scales>
<clustering>
<clus scale="   90.979">  7  8 -1 -1</clus>
<clus scale="   91.543">  5  6 -1 -1</clus>
<clus scale="  106.367">  1  9  2 -1</clus>
<clus scale="  180.695">  1  7  2 -1</clus>
<clus scale="  106.367">  1  5  2 -1</clus>
</clustering>
</event>
<event>
 9    1  0.1881049E-005  0.1290529E+03  0.7546771E-02  0.1228938E+00
          1   -1    0    0  502    0 -0.00000000000E+00  0.00000000000E+00  0.42185890922E+03  0.42185890922E+03  0.00000000000E+00 0. -1.
         21   -1    0    0  501  502  0.00000000000E+00 -0.00000000000E+00 -0.58218326265E+02  0.58218326265E+02  0.00000000000E+00 0.  1.
         23    2    1    2    0    0 -0.33764863340E+02  0.90947895329E+02  0.26578531848E+03  0.29722100004E+03  0.91032421043E+02 0.  0.
         23    2    1    2    0    0  0.50114950770E+02 -0.64998749277E+02  0.86380969397E+02  0.15010958696E+03  0.91295512079E+02 0.  0.
        -11    1    3    3    0    0 -0.64739542226E+02  0.51849224131E+02  0.15775506515E+03  0.17823078003E+03  0.00000000000E+00 0.  1.
         11    1    3    3    0    0  0.30974678886E+02  0.39098671199E+02  0.10803025333E+03  0.11899022000E+03  0.00000000000E+00 0. -1.
        -13    1    4    4    0    0  0.58238197637E+02 -0.41103502863E+02  0.98920343200E+02  0.12192792916E+03  0.00000000000E+00 0.  1.
         13    1    4    4    0    0 -0.81232468668E+01 -0.23895246414E+02 -0.12539373803E+02  0.28181657798E+02  0.00000000000E+00 0. -1.
          1    1    1    2  501    0 -0.16350087430E+02 -0.25949146052E+02  0.11474295081E+02  0.32746648491E+02  0.00000000000E+00 0. -1.
<scales pt_clust_5="13000.00000" pt_clust_6="13000.00000" pt_clust_7="13000.00000" pt_clust_8="13000.00000" pt_clust_9="30.67056"></scales>
<clustering>
<clus scale="   30.671">  2  9  1 -1</clus>
<clus scale="   91.032">  5  6 -1 -1</clus>
<clus scale="   91.296">  7  8 -1 -1</clus>
<clus scale="  128.867">  1  5  2 -1</clus>
<clus scale="   30.671">  2  5  1 -1</clus>
</clustering>
</event>
<event>
 9    1  0.1881049E-005  0.2136168E+03  0.7546771E-02  0.1170508E+00
          1   -1    0    0  502    0 -0.00000000000E+00  0.00000000000E+00  0.49804062819E+03  0.49804062819E+03  0.00000000000E+00 0. -1.
         21   -1    0    0  501  502  0.00000000000E+00 -0.00000000000E+00 -0.21482234549E+03  0.21482234549E+03  0.00000000000E+00 0. -1.
         23    2    1    2    0    0  0.18293836080E+02 -0.46897243519E+02  0.11548781952E+03  0.15356806858E+03  0.87816281758E+02 0.  0.
         23    2    1    2    0    0  0.16865178188E+03 -0.20704145725E+02  0.27320488551E+03  0.33425387402E+03  0.90623714602E+02 0.  0.
        -11    1    4    4    0    0  0.80306258118E+02  0.35291072246E+02  0.11601414888E+03  0.14544358911E+03  0.00000000000E+00 0.  1.
         11    1    4    4    0    0  0.88345523761E+02 -0.55995217971E+02  0.15719073663E+03  0.18881028491E+03  0.00000000000E+00 0. -1.
        -11    1    3    3    0    0 -0.24769617019E+02 -0.39046265049E+02  0.94103946915E+02  0.10485083484E+03  0.00000000000E+00 0.  1.
         11    1    3    3    0    0  0.43063453099E+02 -0.78509784701E+01  0.21383872605E+02  0.48717233741E+02  0.00000000000E+00 0. -1.
          1    1    1    2  501    0 -0.18694561796E+03  0.67601389244E+02 -0.10547442233E+03  0.22504103108E+03  0.00000000000E+00 0. -1.
<scales pt_clust_5="13000.00000" pt_clust_6="13000.00000" pt_clust_7="13000.00000" pt_clust_8="13000.00000" pt_clust_9="193.44115"></scales>
<clustering>
<clus scale="   87.816">  7  8 -1 -1</clus>
<clus scale="   90.624">  5  6 -1 -1</clus>
<clus scale="  101.221">  1  7  2 -1</clus>
<clus scale="  193.441">  2  9  1 -1</clus>
<clus scale="  193.441">  2  5  1 -1</clus>
</clustering>
</event>
<event>
 9    1  0.1881049E-005  0.1291611E+03  0.7546771E-02  0.1230175E+00
         21   -1    0    0  501  502  0.00000000000E+00  0.00000000000E+00  0.28854733062E+02  0.28854733062E+02  0.00000000000E+00 0.  1.
          2   -1    0    0  502    0 -0.00000000000E+00 -0.00000000000E+00 -0.99905406761E+03  0.99905406761E+03  0.00000000000E+00 0. -1.
         23    2    1    2    0    0 -0.86368340890E+02 -0.71261093161E+02 -0.63415870902E+03  0.65016376001E+03  0.89543357650E+02 0.  0.
         23    2    1    2    0    0  0.29272879281E+02  0.43003441683E+02 -0.22677156562E+03  0.25126138932E+03  0.94872257965E+02 0.  0.
        -11    1    4    4    0    0 -0.25312275760E+02 -0.12487358789E+02 -0.84492834375E+02  0.89082458960E+02  0.00000000000E+00 0.  1.
         11    1    4    4    0    0  0.54585155041E+02  0.55490800472E+02 -0.14227873124E+03  0.16217893036E+03  0.00000000000E+00 0. -1.
        -11    1    3    3    0    0 -0.84507957859E+02 -0.22834379714E+02 -0.49805568387E+03  0.50569009094E+03  0.00000000000E+00 0.  1.
         11    1    3    3    0    0 -0.18603830314E+01 -0.48426713447E+02 -0.13610302516E+03  0.14447366908E+03  0.00000000000E+00 0. -1.
          2    1    1    2  501    0  0.57095461609E+02  0.28257651478E+02 -0.10926905990E+03  0.12648365134E+03  0.00000000000E+00 0. -1.
<scales pt_clust_5="13000.00000" pt_clust_6="13000.00000" pt_clust_7="13000.00000" pt_clust_8="13000.00000" pt_clust_9="63.70547"></scales>
<clustering>
<clus scale="   63.705">  1  9  2 -1</clus>
<clus scale="   89.543">  7  8 -1 -1</clus>
<clus scale="   94.872">  5  6 -1 -1</clus>
<clus scale="  125.299">  2  7  1 -1</clus>
<clus scale="   63.705">  1  5  2 -1</clus>
</clustering>
</event>
<event>
 9    1  0.1881049E-005  0.1119437E+03  0.7546771E-02  0.1258021E+00
         21   -1    0    0  501  502  0.00000000000E+00  0.00000000000E+00  0.25761299507E+02  0.25761299507E+02  0.00000000000E+00 0. -1.
          2   -1    0    0  502    0 -0.00000000000E+00 -0.00000000000E+00 -0.72492000399E+03  0.72492000399E+03  0.00000000000E+00 0. -1.
         23    2    1    2    0    0  0.32046056795E+02  0.69415336259E+02 -0.35969593155E+03  0.37869672411E+03  0.90468817907E+02 0.  0.
         23    2    1    2    0    0  0.65407090623E+01 -0.47625969311E+02 -0.20225395953E+03  0.22779729324E+03  0.93133929553E+02 0.  0.
        -11    1    3    3    0    0 -0.24693543899E+02  0.49703606984E+01 -0.15003836424E+03  0.15213805027E+03  0.00000000000E+00 0.  1.
         11    1    3    3    0    0  0.56739600694E+02  0.64444975561E+02 -0.20965756730E+03  0.22655867383E+03  0.00000000000E+00 0. -1.
        -13    1    4    4    0    0 -0.28619162401E+02 -0.58447094924E+02 -0.10184632837E+03  0.12086270709E+03  0.00000000000E+00 0.  1.
         13    1    4    4    0    0  0.35159871463E+02  0.10821125613E+02 -0.10040763116E+03  0.10693458615E+03  0.00000000000E+00 0. -1.
          2    1    1    2  501    0 -0.38586765857E+02 -0.21789366948E+02 -0.13720881341E+03  0.14418728615E+03  0.00000000000E+00 0. -1.
<scales pt_clust_5="13000.00000" pt_clust_6="13000.00000" pt_clust_7="13000.00000" pt_clust_8="13000.00000" pt_clust_9="44.31385"></scales>
<clustering>
<clus scale="   44.314">  1  9  2 -1</clus>
<clus scale="   90.469">  5  6 -1 -1</clus>
<clus scale="   93.134">  7  8 -1 -1</clus>
<clus scale="  109.736">  2  5  1 -1</clus>
<clus scale="   44.314">  1  5  2 -1</clus>
</clustering>
</event>
<event>
 9    1  0.1881049E-005  0.1862967E+03  0.7546771E-02  0.1162169E+00
         21   -1    0    0  501  502  0.00000000000E+00  0.00000000000E+00  0.25132362039E+03  0.25132362039E+03  0.00000000000E+00 0.  1.
         -3   -1    0    0    0  501 -0.00000000000E+00 -0.00000000000E+00 -0.20627380216E+03  0.20627380216E+03  0.00000000000E+00 0.  1.
         23    2    1    2    0    0 -0.13489932407E+03  0.33093456742E+02  0.43531155386E+01  0.16713201476E+03  0.92850181635E+02 0.  0.
         23    2    1    2    0    0  0.17058181481E+03 -0.83463563787E+02 -0.10278783893E+02  0.21040987667E+03  0.90013003399E+02 0.  0.
        -13    1    3    3    0    0 -0.64879990711E+02  0.40255040715E+02 -0.37687018038E+02  0.85148064137E+02  0.00000000000E+00 0. -1.
         13    1    3    3    0    0 -0.70019333357E+02 -0.71615839723E+01  0.42040133576E+02  0.81983950624E+02  0.00000000000E+00 0.  1.
        -13    1    4    4    0    0  0.18937106260E+02 -0.47680113498E+02 -0.18105019060E+02  0.54404034150E+02  0.00000000000E+00 0. -1.
         13    1    4    4    0    0  0.15164470855E+03 -0.35783450289E+02  0.78262351664E+01  0.15600584252E+03  0.00000000000E+00 0.  1.
         -3    1    1    2    0  502 -0.35682490737E+02  0.50370107044E+02  0.50975486591E+02  0.80055531115E+02  0.00000000000E+00 0.  1.
<scales pt_clust_5="13000.00000" pt_clust_6="13000.00000" pt_clust_7="13000.00000" pt_clust_8="13000.00000" pt_clust_9="61.72834"></scales>
<clustering>
<clus scale="   61.728">  1  9  2 -1</clus>
<clus scale="   90.013">  7  8 -1 -1</clus>
<clus scale="   92.850">  5  6 -1 -1</clus>
<clus scale="  184.899">  1  7  2 -1</clus>
<clus scale="   61.728">  1  5  2 -1</clus>
</clustering>
</event>
<event>
 9    1  0.1881049E-005  0.1136896E+03  0.7546771E-02  0.1254246E+00
         21   -1    0    0  501  502  0.00000000000E+00  0.00000000000E+00  0.69232304275E+03  0.69232304275E+03  0.00000000000E+00 0. -1.
         -1   -1    0    0    0  501 -0.00000000000E+00 -0.00000000000E+00 -0.40596417444E+02  0.40596417444E+02  0.00000000000E+00 0.  1.
         23    2    1    2    0    0  0.17739431443E+02 -0.52939355179E+02  0.16477006555E+03  0.19644742247E+03  0.91242273863E+02 0.  0.
         23    2    1    2    0    0 -0.74916393276E+02  0.67349442221E+02  0.44113095265E+03  0.46179378226E+03  0.92241891752E+02 0.  0.
        -11    1    3    3    0    0  0.97270643340E+01 -0.77899036447E+02  0.10432334401E+03  0.13056123378E+03  0.00000000000E+00 0.  1.
         11    1    3    3    0    0  0.80123671090E+01  0.24959681269E+02  0.60446721542E+02  0.65886188696E+02  0.00000000000E+00 0. -1.
        -13    1    4    4    0    0 -0.40131571660E+02  0.11751371937E+02  0.49904111665E+02  0.65108049789E+02  0.00000000000E+00 0.  1.
         13    1    4    4    0    0 -0.34784821616E+02  0.55598070284E+02  0.39122684099E+03  0.39668573247E+03  0.00000000000E+00 0. -1.
         -1    1    1    2    0  502  0.57176961833E+02 -0.14410087042E+02  0.45825607103E+02  0.74678255466E+02  0.00000000000E+00 0.  1.
<scales pt_clust_5="13000.00000" pt_clust_6="13000.00000" pt_clust_7="13000.00000" pt_clust_8="13000.00000" pt_clust_9="58.96490"></scales>
<clustering>
<clus scale="   58.965">  1  9  2 -1</clus>
<clus scale="   91.242">  5  6 -1 -1</clus>
<clus scale="   92.242">  7  8 -1 -1</clus>
<clus scale="  112.880">  2  5  1 -1</clus>
<clus scale="   58.965">  1  5  2 -1</clus>
</clustering>
</event>
<event>
 9    1  0.1881049E-005  0.9687716E+02  0.7546771E-02  0.1287601E+00
         21   -1    0    0  501  502  0.00000000000E+00  0.00000000000E+00  0.86310213545E+02  0.86310213545E+02  0.00000000000E+00 0. -1.
          2   -1    0    0  502    0 -0.00000000000E+00 -0.00000000000E+00 -0.20469963870E+03  0.20469963870E+03  0.00000000000E+00 0. -1.
         23    2    1    2    0    0  0.22352774979E+02  0.30303365088E+02 -0.11914417875E+03  0.15411567629E+03  0.90212891892E+02 0.  0.
         23    2    1    2    0    0 -0.31465861761E+02  0.33129820751E+01 -0.16404897151E+02  0.98066856190E+02  0.91361432376E+02 0.  0.
        -11    1    3    3    0    0  0.26773682573E+02 -0.19713459909E+02 -0.11233235144E+02  0.35094674124E+02  0.00000000000E+00 0.  1.
         11    1    3    3    0    0 -0.44209075939E+01  0.50016824997E+02 -0.10791094360E+03  0.11902100216E+03  0.00000000000E+00 0. -1.
        -13    1    4    4    0    0 -0.12695230079E+02 -0.37890891070E+02  0.15302348792E+02  0.42790774372E+02  0.00000000000E+00 0.  1.
         13    1    4    4    0    0 -0.18770631682E+02  0.41203873145E+02 -0.31707245943E+02  0.55276081818E+02  0.00000000000E+00 0. -1.
          2    1    1    2  501    0  0.91130867819E+01 -0.33616347163E+02  0.17159650736E+02  0.38827319772E+02  0.00000000000E+00 0. -1.
<scales pt_clust_5="13000.00000" pt_clust_6="13000.00000" pt_clust_7="13000.00000" pt_clust_8="13000.00000" pt_clust_9="34.82969"></scales>
<clustering>
<clus scale="   34.830">  1  9  2 -1</clus>
<clus scale="   90.213">  5  6 -1 -1</clus>
<clus scale="   91.361">  7  8 -1 -1</clus>
<clus scale="   95.795">  2  5  1 -1</clus>
<clus scale="   34.830">  1  5  2 -1</clus>
</clustering>
</event>
<event>
 9    1  0.1881049E-005  0.1036085E+03  0.7546771E-02  0.1274074E+00
         21   -1    0    0  501  502  0.00000000000E+00  0.00000000000E+00  0.10981299220E+03  0.10981299220E+03  0.00000000000E+00 0.  1.
         -3   -1    0    0    0  501 -0.00000000000E+00 -0.00000000000E+00 -0.33679472267E+03  0.33679472267E+03  0.00000000000E+00 0.  1.
         23    2    1    2    0    0 -0.34772919938E+02  0.17357040230E+02 -0.22316671911E+03  0.24491276007E+03  0.93104525770E+02 0.  0.
         23    2    1    2    0    0  0.81023688254E+02  0.15857063685E+02 -0.45980116913E+02  0.13084153996E+03  0.90493385948E+02 0.  0.
        -13    1    4    4    0    0  0.79177063499E+02 -0.16342649958E+02 -0.54478038771E+02  0.97488185440E+02  0.00000000000E+00 0.  1.
         13    1    4    4    0    0  0.18466247542E+01  0.32199713643E+02  0.84979218584E+01  0.33353354518E+02  0.00000000000E+00 0. -1.
        -13    1    3    3    0    0 -0.64916784984E+02  0.16180256197E+02 -0.18176336292E+03  0.19368507884E+03  0.00000000000E+00 0. -1.
         13    1    3    3    0    0  0.30143865046E+02  0.11767840331E+01 -0.41403356186E+02  0.51227681228E+02  0.00000000000E+00 0.  1.
         -3    1    1    2    0  502 -0.46250768316E+02 -0.33214103915E+02  0.42165105552E+02  0.70853414843E+02  0.00000000000E+00 0.  1.
<scales pt_clust_5="13000.00000" pt_clust_6="13000.00000" pt_clust_7="13000.00000" pt_clust_8="13000.00000" pt_clust_9="56.94129"></scales>
<clustering>
<clus scale="   56.941">  1  9  2 -1</clus>
<clus scale="   90.493">  5  6 -1 -1</clus>
<clus scale="   93.105">  7  8 -1 -1</clus>
<clus scale="  101.269">  1  5  2 -1</clus>
<clus scale="   56.941">  1  5  2 -1</clus>
</clustering>
</event>
<event>
 9    1  0.1881049E-005  0.1756594E+03  0.7546771E-02  0.1172175E+00
         21   -1    0    0  501  502  0.00000000000E+00  0.00000000000E+00  0.76895723859E+02  0.76895723859E+02  0.00000000000E+00 0.  1.
          3   -1    0    0  502    0 -0.00000000000E+00 -0.00000000000E+00 -0.64309815314E+03  0.64309815314E+03  0.00000000000E+00 0. -1.
         23    2    1    2    0    0  0.98943762772E+02 -0.11577122347E+03 -0.47688201613E+03  0.50917173691E+03  0.92986859248E+02 0.  0.
         23    2    1    2    0    0 -0.75579633091E+02  0.11725107178E+03 -0.82356856230E+02  0.18639748795E+03  0.92202369668E+02 0.  0.
        -11    1    4    4    0    0 -0.66889486823E+02  0.20668344218E+02 -0.29685992500E+02  0.76043685148E+02  0.00000000000E+00 0. -1.
         11    1    4    4    0    0 -0.86901462682E+01  0.96582727567E+02 -0.52670863729E+02  0.11035380280E+03  0.00000000000E+00 0.  1.
        -13    1    3    3    0    0  0.95795547543E+01 -0.80638361504E+02 -0.24825092180E+03  0.26119501027E+03  0.00000000000E+00 0. -1.
         13    1    3    3    0    0  0.89364208018E+02 -0.35132861964E+02 -0.22863109433E+03  0.24797672664E+03  0.00000000000E+00 0.  1.
          3    1    1    2  501    0 -0.23364129681E+02 -0.14798483165E+01 -0.69635569204E+01  0.24424652132E+02  0.00000000000E+00 0. -1.
<scales pt_clust_5="13000.00000" pt_clust_6="13000.00000" pt_clust_7="13000.00000" pt_clust_8="13000.00000" pt_clust_9="23.41095"></scales>
<clustering>
<clus scale="   23.411">  1  9  2 -1</clus>
<clus scale="   92.202">  5  6 -1 -1</clus>
<clus scale="   92.987">  7  8 -1 -1</clus>
<clus scale="  175.245">  1  5  2 -1</clus>
<clus scale="   23.411">  1  5  2 -1</clus>
</clustering>
</event>
<event>
 9    1  0.1881049E-005  0.1246173E+03  0.7546771E-02  0.1247039E+00
         21   -1    0    0  501  502  0.00000000000E+00  0.00000000000E+00  0.45648475536E+02  0.45648475536E+02  0.00000000000E+00 0.  1.
          1   -1    0    0  502    0 -0.00000000000E+00 -0.00000000000E+00 -0.43416700156E+03  0.43416700156E+03  0.00000000000E+00 0. -1.
         23    2    1    2    0    0 -0.35129006370E+02 -0.14960220653E+02 -0.27500353566E+03  0.29237087244E+03  0.91629291924E+02 0.  0.
         23    2    1    2    0    0  0.39306746973E+02 -0.73477514679E+01 -0.10362643412E+03  0.16268813719E+03  0.11886960219E+03 0.  0.
        -11    1    3    3    0    0 -0.41590670547E+02  0.14650928043E+02 -0.24764811179E+03  0.25154327827E+03  0.00000000000E+00 0. -1.
         11    1    3    3    0    0  0.64616641774E+01 -0.29611148696E+02 -0.27355423867E+02  0.40827594173E+02  0.00000000000E+00 0.  1.
        -13    1    4    4    0    0  0.15332843446E+02 -0.24382160865E+02  0.20353195001E+02  0.35268093276E+02  0.00000000000E+00 0.  1.
         13    1    4    4    0    0  0.23973903528E+02  0.17034409397E+02 -0.12397962912E+03  0.12742004391E+03  0.00000000000E+00 0. -1.
          1    1    1    2  501    0 -0.41777406033E+01  0.22307972121E+02 -0.98885562456E+01  0.24756467464E+02  0.00000000000E+00 0. -1.
<scales pt_clust_5="13000.00000" pt_clust_6="13000.00000" pt_clust_7="13000.00000" pt_clust_8="13000.00000" pt_clust_9="22.69580"></scales>
<clustering>
<clus scale="   22.696">  1  9  2 -1</clus>
<clus scale="   91.629">  5  6 -1 -1</clus>
<clus scale="   98.972">  2  5  1 -1</clus>
<clus scale="  118.870">  7  8 -1 -1</clus>
<clus scale="   22.696">  1  5  2 -1</clus>
</clustering>
</event>
<event>
 9    1  0.1881049E-005  0.2805844E+03  0.7546771E-02  0.1095405E+00
         21   -1    0    0  501  502  0.00000000000E+00  0.00000000000E+00  0.99383382813E+02  0.99383382813E+02  0.00000000000E+00 0. -1.
          1   -1    0    0  502    0 -0.00000000000E+00 -0.00000000000E+00 -0.16814371039E+04  0.16814371039E+04  0.00000000000E+00 0. -1.
         23    2    1    2    0    0  0.26539278411E+03 -0.70184909005E+02 -0.84215606617E+03  0.89060061053E+03  0.92646405115E+02 0.  0.
         23    2    1    2    0    0 -0.26388376111E+03 -0.63405459876E+02 -0.69083730089E+03  0.74789776916E+03  0.91869500308E+02 0.  0.
        -13    1    3    3    0    0  0.17786108676E+03 -0.76974111851E+00 -0.53114319094E+03  0.56013234862E+03  0.00000000000E+00 0. -1.
         13    1    3    3    0    0  0.87531697354E+02 -0.69415167887E+02 -0.31101287523E+03  0.33046826192E+03  0.00000000000E+00 0.  1.
        -13    1    4    4    0    0 -0.12298835501E+03 -0.22497120693E+02 -0.20241579124E+03  0.23791680994E+03  0.00000000000E+00 0.  1.
         13    1    4    4    0    0 -0.14089540609E+03 -0.40908339184E+02 -0.48842150965E+03  0.50998095921E+03  0.00000000000E+00 0. -1.
          1    1    1    2  501    0 -0.15090230020E+01  0.13359036888E+03 -0.49060354007E+02  0.14232210701E+03  0.00000000000E+00 0. -1.
<scales pt_clust_5="13000.00000" pt_clust_6="13000.00000" pt_clust_7="13000.00000" pt_clust_8="13000.00000" pt_clust_9="133.59889"></scales>
<clustering>
<clus scale="   91.870">  7  8 -1 -1</clus>
<clus scale="   92.646">  5  6 -1 -1</clus>
<clus scale="  133.599">  1  9  2 -1</clus>
<clus scale="  280.329">  1  7  2 -1</clus>
<clus scale="  133.599">  1  5  2 -1</clus>
</clustering>
</event>
<event>
 9    1  0.1881049E-005  0.9371262E+02  0.7546771E-02  0.1295209E+00
         21   -1    0    0  501  502  0.00000000000E+00  0.00000000000E+00  0.63224012982E+02  0.63224012982E+02  0.00000000000E+00 0. -1.
          3   -1    0    0  502    0 -0.00000000000E+00 -0.00000000000E+00 -0.24527622661E+03  0.24527622661E+03  0.00000000000E+00 0. -1.
         23    2    1    2    0    0  0.25244967809E+02 -0.23540182566E+02 -0.99359784566E+02  0.14033873489E+03  0.92903956459E+02 0.  0.
         23    2    1    2    0    0  0.10725767820E+02 -0.15770868151E+02 -0.48477547068E+02  0.10483764917E+03  0.90978556462E+02 0.  0.
        -13    1    4    4    0    0  0.48548189696E+02 -0.23753689256E+02 -0.24431810698E+02  0.59313386769E+02  0.00000000000E+00 0.  1.
         13    1    4    4    0    0 -0.37822421877E+02  0.79828211047E+01 -0.24045736370E+02  0.45524262399E+02  0.00000000000E+00 0. -1.
        -13    1    3    3    0    0  0.30996449072E+02  0.19048032828E+02 -0.88976792322E+02  0.96127399744E+02  0.00000000000E+00 0.  1.
         13    1    3    3    0    0 -0.57514812625E+01 -0.42588215394E+02 -0.10382992244E+02  0.44211335143E+02  0.00000000000E+00 0. -1.
          3    1    1    2  501    0 -0.35970735629E+02  0.39311050717E+02 -0.34214881997E+02  0.63323855538E+02  0.00000000000E+00 0. -1.
<scales pt_clust_5="13000.00000" pt_clust_6="13000.00000" pt_clust_7="13000.00000" pt_clust_8="13000.00000" pt_clust_9="53.28464"></scales>
<clustering>
<clus scale="   53.285">  1  9  2 -1</clus>
<clus scale="   90.979">  5  6 -1 -1</clus>
<clus scale="   91.804">  1  5  2 -1</clus>
<clus scale="   92.904">  7  8 -1 -1</clus>
<clus scale="   53.285">  1  5  2 -1</clus>
</clustering>
</event>
<event>
 9    1  0.1881049E-005  0.9044291E+02  0.7546771E-02  0.1302029E+00
          2   -1    0    0  502    0 -0.00000000000E+00  0.00000000000E+00  0.19201647597E+03  0.19201647597E+03  0.00000000000E+00 0. -1.
         21   -1    0    0  501  502  0.00000000000E+00 -0.00000000000E+00 -0.60611100271E+02  0.60611100271E+02  0.00000000000E+00 0. -1.
         23    2    1    2    0    0 -0.14201941956E+02 -0.10182130071E+02  0.89447183985E+02  0.12720246086E+03  0.88737232306E+02 0.  0.
         23    2    1    2    0    0 -0.75745943124E+01  0.20248726703E+02  0.43206630195E+02  0.10140194952E+03  0.89152437213E+02 0.  0.
        -13    1    3    3    0    0 -0.37899186082E+02  0.20017508508E+02  0.74615673429E+02  0.86049681427E+02  0.00000000000E+00 0. -1.
         13    1    3    3    0    0  0.23697244126E+02 -0.30199638579E+02  0.14831510556E+02  0.41152779430E+02  0.00000000000E+00 0.  1.
        -13    1    4    4    0    0  0.40610026239E+02  0.12849880831E+02  0.24833851824E+02  0.49305312745E+02  0.00000000000E+00 0. -1.
         13    1    4    4    0    0 -0.48184620551E+02  0.73988458723E+01  0.18372778371E+02  0.52096636772E+02  0.00000000000E+00 0.  1.
          2    1    1    2  501    0  0.21776536268E+02 -0.10066596633E+02 -0.12484384795E+01  0.24023165866E+02  0.00000000000E+00 0. -1.
<scales pt_clust_5="13000.00000" pt_clust_6="13000.00000" pt_clust_7="13000.00000" pt_clust_8="13000.00000" pt_clust_9="23.99070"></scales>
<clustering>
<clus scale="   23.991">  2  9  1 -1</clus>
<clus scale="   88.737">  5  6 -1 -1</clus>
<clus scale="   89.152">  7  8 -1 -1</clus>
<clus scale="   90.034">  1  5  2 -1</clus>
<clus scale="   23.991">  2  5  1 -1</clus>
</clustering>
</event>
<event>
 9    1  0.1881049E-005  0.9893370E+02  0.7546771E-02  0.1283826E+00
         -3   -1    0    0    0  501 -0.00000000000E+00  0.00000000000E+00  0.40414819637E+02  0.40414819637E+02  0.00000000000E+00 0.  1.
         21   -1    0    0  501  502  0.00000000000E+00 -0.00000000000E+00 -0.50777731548E+03  0.50777731548E+03  0.00000000000E+00 0.  1.
         23    2    1    2    0    0 -0.18963141771E+02 -0.25657402923E+01 -0.96643504137E+02  0.13536348887E+03  0.92828462544E+02 0.  0.
         23    2    1    2    0    0  0.51972682388E+02  0.89711468907E+00 -0.11583310515E+03  0.15580874576E+03  0.90316623475E+02 0.  0.
        -11    1    4    4    0    0  0.67188150545E+02  0.15235575488E+02 -0.11598263255E+03  0.13490122826E+03  0.00000000000E+00 0.  1.
         11    1    4    4    0    0 -0.15215468157E+02 -0.14338460799E+02  0.14952739588E+00  0.20907517494E+02  0.00000000000E+00 0. -1.
        -13    1    3    3    0    0  0.85381757489E+01  0.40278911448E+02 -0.59438087264E+02  0.72306136462E+02  0.00000000000E+00 0.  1.
         13    1    3    3    0    0 -0.27501317520E+02 -0.42844651740E+02 -0.37205416873E+02  0.63057352408E+02  0.00000000000E+00 0. -1.
         -3    1    1    2    0  502 -0.33009540617E+02  0.16686256033E+01 -0.25488588655E+03  0.25701990049E+03  0.00000000000E+00 0.  1.
<scales pt_clust_5="13000.00000" pt_clust_6="13000.00000" pt_clust_7="13000.00000" pt_clust_8="13000.00000" pt_clust_9="33.05169"></scales>
<clustering>
<clus scale="   33.052">  2  9  1 -1</clus>
<clus scale="   90.317">  5  6 -1 -1</clus>
<clus scale="   92.828">  7  8 -1 -1</clus>
<clus scale="   96.581">  2  5  1 -1</clus>
<clus scale="   33.052">  2  5  1 -1</clus>
</clustering>
</event>
<event>
 9    1  0.1881049E-005  0.1133048E+03  0.7546771E-02  0.1254864E+00
         21   -1    0    0  501  502  0.00000000000E+00  0.00000000000E+00  0.62216345666E+03  0.62216345666E+03  0.00000000000E+00 0. -1.
          1   -1    0    0  502    0 -0.00000000000E+00 -0.00000000000E+00 -0.73143176541E+02  0.73143176541E+02  0.00000000000E+00 0. -1.
         23    2    1    2    0    0 -0.40603390460E+01  0.48459180583E+02  0.49568940091E+02  0.11445494669E+03  0.90983935202E+02 0.  0.
         23    2    1    2    0    0 -0.56035611346E+02 -0.90596020737E+02  0.92721217470E+02  0.16755224404E+03  0.90160421473E+02 0.  0.
        -11    1    3    3    0    0  0.38134967176E+02  0.11363244352E+01  0.28576344343E+02  0.47667330645E+02  0.00000000000E+00 0.  1.
         11    1    3    3    0    0 -0.42195306223E+02  0.47322856148E+02  0.20992595749E+02  0.66787616048E+02  0.00000000000E+00 0. -1.
        -13    1    4    4    0    0  0.14817146683E+02 -0.39215602210E+02  0.61904753657E+02  0.74763693179E+02  0.00000000000E+00 0.  1.
         13    1    4    4    0    0 -0.70852758028E+02 -0.51380418528E+02  0.30816463814E+02  0.92788550858E+02  0.00000000000E+00 0. -1.
          1    1    1    2  501    0  0.60095950392E+02  0.42136840155E+02  0.40673012256E+03  0.41329944247E+03  0.00000000000E+00 0. -1.
<scales pt_clust_5="13000.00000" pt_clust_6="13000.00000" pt_clust_7="13000.00000" pt_clust_8="13000.00000" pt_clust_9="73.39643"></scales>
<clustering>
<clus scale="   73.396">  1  9  2 -1</clus>
<clus scale="   90.160">  7  8 -1 -1</clus>
<clus scale="   90.984">  5  6 -1 -1</clus>
<clus scale="  112.645">  1  7  2 -1</clus>
<clus scale="   73.396">  1  5  2 -1</clus>
</clustering>
</event>
<event>
 9    1  0.1881049E-005  0.1385640E+03  0.7546771E-02  0.1215605E+00
         21   -1    0    0  501  502  0.00000000000E+00  0.00000000000E+00  0.84962368217E+02  0.84962368217E+02  0.00000000000E+00 0.  1.
          2   -1    0    0  502    0 -0.00000000000E+00 -0.00000000000E+00 -0.39840608235E+03  0.39840608235E+03  0.00000000000E+00 0. -1.
         23    2    1    2    0    0 -0.60707434688E+02 -0.94683465985E+02 -0.27597271468E+03  0.31181994367E+03  0.91762664874E+02 0.  0.
         23    2    1    2    0    0  0.61558290040E+02  0.59103594615E+02 -0.49846679191E+02  0.13386815857E+03  0.90295816528E+02 0.  0.
        -11    1    4    4    0    0  0.42844832952E+02  0.69362768127E+02 -0.67755813442E+02  0.10600812973E+03  0.00000000000E+00 0. -1.
         11    1    4    4    0    0  0.18713457088E+02 -0.10259173512E+02  0.17909134251E+02  0.27860028840E+02  0.00000000000E+00 0.  1.
        -11    1    3    3    0    0 -0.14621352425E+02 -0.94269812239E+02 -0.15089601712E+03  0.17852223791E+03  0.00000000000E+00 0.  1.
         11    1    3    3    0    0 -0.46086082263E+02 -0.41365374652E+00 -0.12507669756E+03  0.13329770576E+03  0.00000000000E+00 0. -1.
          2    1    1    2  501    0 -0.85085535188E+00  0.35579871370E+02  0.12375679737E+02  0.37680348333E+02  0.00000000000E+00 0. -1.
<scales pt_clust_5="13000.00000" pt_clust_6="13000.00000" pt_clust_7="13000.00000" pt_clust_8="13000.00000" pt_clust_9="35.59004"></scales>
<clustering>
<clus scale="   35.590">  1  9  2 -1</clus>
<clus scale="   90.296">  5  6 -1 -1</clus>
<clus scale="   91.763">  7  8 -1 -1</clus>
<clus scale="  137.597">  1  5  2 -1</clus>
<clus scale="   35.590">  1  5  2 -1</clus>
</clustering>
</event>
<event>
 9    1  0.1881049E-005  0.1354242E+03  0.7546771E-02  0.1220794E+00
         21   -1    0    0  501  502  0.00000000000E+00  0.00000000000E+00  0.19983884959E+03  0.19983884959E+03  0.00000000000E+00 0. -1.
          2   -1    0    0  502    0 -0.00000000000E+00 -0.00000000000E+00 -0.30618899039E+03  0.30618899039E+03  0.00000000000E+00 0. -1.
         23    2    1    2    0    0 -0.29703628485E+01  0.10119744040E+03 -0.16735652983E+03  0.21753986100E+03  0.95213644229E+02 0.  0.
         23    2    1    2    0    0  0.20872726270E+02 -0.87887623528E+02 -0.76629761332E+02  0.14905571682E+03  0.90474202529E+02 0.  0.
        -11    1    4    4    0    0 -0.25728637580E+02 -0.17323637820E+02 -0.52736292068E+02  0.61181596254E+02  0.00000000000E+00 0. -1.
         11    1    4    4    0    0  0.46601363850E+02 -0.70563985707E+02 -0.23893469264E+02  0.87874120565E+02  0.00000000000E+00 0.  1.
        -13    1    3    3    0    0  0.40668325234E+02  0.41526842445E+02 -0.10833911585E+03  0.12294614815E+03  0.00000000000E+00 0.  1.
         13    1    3    3    0    0 -0.43638688083E+02  0.59670597959E+02 -0.59017413976E+02  0.94593712851E+02  0.00000000000E+00 0. -1.
          2    1    1    2  501    0 -0.17902363422E+02 -0.13309816876E+02  0.13763615037E+03  0.13943226215E+03  0.00000000000E+00 0. -1.
<scales pt_clust_5="13000.00000" pt_clust_6="13000.00000" pt_clust_7="13000.00000" pt_clust_8="13000.00000" pt_clust_9="22.30798"></scales>
<clustering>
<clus scale="   22.308">  1  9  2 -1</clus>
<clus scale="   90.474">  5  6 -1 -1</clus>
<clus scale="   95.214">  7  8 -1 -1</clus>
<clus scale="  132.135">  1  5  2 -1</clus>
<clus scale="   22.308">  1  5  2 -1</clus>
</clustering>
</event>
<event>
 9    1  0.1881049E-005  0.1331063E+03  0.7546771E-02  0.1223050E+00
         21   -1    0    0  501  502  0.00000000000E+00  0.00000000000E+00  0.29735335555E+02  0.29735335555E+02  0.00000000000E+00 0.  1.
          2   -1    0    0  502    0 -0.00000000000E+00 -0.00000000000E+00 -0.80167800439E+03  0.80167800439E+03  0.00000000000E+00 0. -1.
         23    2    1    2    0    0  0.50463140067E+02 -0.98731297517E+02 -0.45677161515E+03  0.47889202999E+03  0.91667171680E+02 0.  0.
         23    2    1    2    0    0 -0.21320461328E+02  0.76729200150E+02 -0.25200683453E+03  0.27956168692E+03  0.91133747399E+02 0.  0.
        -11    1    4    4    0    0 -0.38840061207E+02  0.81731117786E+01 -0.41253036493E+02  0.57246511951E+02  0.00000000000E+00 0. -1.
         11    1    4    4    0    0  0.17519599879E+02  0.68556088372E+02 -0.21075379804E+03  0.22231517497E+03  0.00000000000E+00 0.  1.
        -13    1    3    3    0    0  0.28426045023E+02 -0.75572631115E+00 -0.33839914163E+02  0.44201255055E+02  0.00000000000E+00 0. -1.
         13    1    3    3    0    0  0.22037095044E+02 -0.97975571206E+02 -0.42293170099E+03  0.43469077493E+03  0.00000000000E+00 0.  1.
          2    1    1    2  501    0 -0.29142678740E+02  0.22002097367E+02 -0.63164219146E+02  0.72959623032E+02  0.00000000000E+00 0. -1.
<scales pt_clust_5="13000.00000" pt_clust_6="13000.00000" pt_clust_7="13000.00000" pt_clust_8="13000.00000" pt_clust_9="36.51559"></scales>
<clustering>
<clus scale="   36.516">  1  9  2 -1</clus>
<clus scale="   91.134">  5  6 -1 -1</clus>
<clus scale="   91.667">  7  8 -1 -1</clus>
<clus scale="  132.739">  1  5  2 -1</clus>
<clus scale="   36.516">  1  5  2 -1</clus>
</clustering>
</event>
<event>
 9    1  0.1881049E-005  0.1217937E+03  0.7546771E-02  0.1241274E+00
          2   -1    0    0  502    0 -0.00000000000E+00  0.00000000000E+00  0.59340654413E+03  0.59340654413E+03  0.00000000000E+00 0. -1.
         21   -1    0    0  501  502  0.00000000000E+00 -0.00000000000E+00 -0.73283354586E+02  0.73283354586E+02  0.00000000000E+00 0.  1.
         23    2    1    2    0    0  0.58040149865E+02 -0.27047697758E+02  0.34224889295E+03  0.35963527015E+03  0.90016586563E+02 0.  0.
         23    2    1    2    0    0 -0.12624077813E+03  0.26374860051E+02  0.17794127765E+03  0.23885064854E+03  0.93563704021E+02 0.  0.
        -13    1    4    4    0    0 -0.34803978268E+02  0.53554373650E+02  0.74861461905E+02  0.98405418137E+02  0.00000000000E+00 0. -1.
         13    1    4    4    0    0 -0.91436799859E+02 -0.27179513599E+02  0.10307981574E+03  0.14044523040E+03  0.00000000000E+00 0.  1.
        -13    1    3    3    0    0  0.59915000043E+02  0.66650480709E+01  0.29766730875E+03  0.30371048187E+03  0.00000000000E+00 0. -1.
         13    1    3    3    0    0 -0.18748501780E+01 -0.33712745828E+02  0.44581584203E+02  0.55924788283E+02  0.00000000000E+00 0.  1.
          2    1    1    2  501    0  0.68200628262E+02  0.67283770648E+00 -0.66981055999E-01  0.68203980033E+02  0.00000000000E+00 0. -1.
<scales pt_clust_5="13000.00000" pt_clust_6="13000.00000" pt_clust_7="13000.00000" pt_clust_8="13000.00000" pt_clust_9="68.20395"></scales>
<clustering>
<clus scale="   68.204">  2  9  1 -1</clus>
<clus scale="   90.017">  7  8 -1 -1</clus>
<clus scale="   93.564">  5  6 -1 -1</clus>
<clus scale="  119.090">  1  7  2 -1</clus>
<clus scale="   68.204">  2  5  1 -1</clus>
</clustering>
</event>
<event>
 9    1  0.1881049E-005  0.1078750E+03  0.7546771E-02  0.1265090E+00
          1   -1    0    0  502    0 -0.00000000000E+00  0.00000000000E+00  0.27654814354E+03  0.27654814354E+03  0.00000000000E+00 0. -1.
         21   -1    0    0  501  502  0.00000000000E+00 -0.00000000000E+00 -0.17511074773E+03  0.17511074773E+03  0.00000000000E+00 0. -1.
         23    2    1    2    0    0  0.17767728870E+01 -0.50753374298E+02  0.18106071864E+03  0.20882292299E+03  0.90801802884E+02 0.  0.
         23    2    1    2    0    0 -0.10889843311E+02  0.72254968456E+02  0.37497578931E+02  0.12340953807E+03  0.92111218142E+02 0.  0.
        -13    1    4    4    0    0 -0.36211265227E+02  0.80144900238E+02  0.16269232738E+02  0.89437960047E+02  0.00000000000E+00 0.  1.
         13    1    4    4    0    0  0.25321421916E+02 -0.78899317826E+01  0.21228346193E+02  0.33971578024E+02  0.00000000000E+00 0. -1.
        -13    1    3    3    0    0  0.27194901445E+02 -0.66904501248E+02  0.10936488390E+03  0.13105896682E+03  0.00000000000E+00 0. -1.
         13    1    3    3    0    0 -0.25418128558E+02  0.16151126950E+02  0.71695834738E+02  0.77763956175E+02  0.00000000000E+00 0.  1.
          1    1    1    2  501    0  0.91130704236E+01 -0.21501594158E+02 -0.11712090175E+03  0.11942643021E+03  0.00000000000E+00 0. -1.
<scales pt_clust_5="13000.00000" pt_clust_6="13000.00000" pt_clust_7="13000.00000" pt_clust_8="13000.00000" pt_clust_9="23.35309"></scales>
<clustering>
<clus scale="   23.353">  2  9  1 -1</clus>
<clus scale="   90.802">  7  8 -1 -1</clus>
<clus scale="   92.111">  5  6 -1 -1</clus>
<clus scale="  106.759">  1  7  2 -1</clus>
<clus scale="   23.353">  2  5  1 -1</clus>
</clustering>
</event>
<event>
 9    1  0.1881049E-005  0.2241556E+03  0.7546771E-02  0.1134498E+00
         -3   -1    0    0    0  501 -0.00000000000E+00  0.00000000000E+00  0.20307520196E+03  0.20307520196E+03  0.00000000000E+00 0.  1.
         21   -1    0    0  501  502  0.00000000000E+00 -0.00000000000E+00 -0.97577230997E+03  0.97577230997E+03  0.00000000000E+00 0.  1.
         23    2    1    2    0    0  0.13292033747E+03 -0.12649062351E+03  0.57489542381E+02  0.21280773294E+03  0.91183275697E+02 0.  0.
         23    2    1    2    0    0 -0.19792169885E+03 -0.88322797942E+02 -0.24458565201E+03  0.33890461627E+03  0.89779074651E+02 0.  0.
        -11    1    4    4    0    0  0.99271170996E+00 -0.24801984402E+02 -0.36280653785E+02  0.43959182725E+02  0.00000000000E+00 0. -1.
         11    1    4    4    0    0 -0.19891441056E+03 -0.63520813541E+02 -0.20830499823E+03  0.29494543354E+03  0.00000000000E+00 0.  1.
        -11    1    3    3    0    0  0.11358378046E+03 -0.84864945479E+02  0.78791066975E+02  0.16220778770E+03  0.00000000000E+00 0.  1.
         11    1    3    3    0    0  0.19336557011E+02 -0.41625678028E+02 -0.21301524594E+02  0.50599945241E+02  0.00000000000E+00 0. -1.
         -3    1    1    2    0  502  0.65001361373E+02  0.21481342145E+03 -0.58560099839E+03  0.62713516272E+03  0.00000000000E+00 0.  1.
<scales pt_clust_5="13000.00000" pt_clust_6="13000.00000" pt_clust_7="13000.00000" pt_clust_8="13000.00000" pt_clust_9="205.39097"></scales>
<clustering>
<clus scale="   89.779">  5  6 -1 -1</clus>
<clus scale="   91.183">  7  8 -1 -1</clus>
<clus scale="  204.895">  1  7  2 -1</clus>
<clus scale="  205.391">  2  9  1 -1</clus>
<clus scale="  205.391">  2  5  1 -1</clus>
</clustering>
</event>
<event>
 9    1  0.2489865E-005  0.9130098E+02  0.7546771E-02  0.1301108E+00
         21   -1    0    0  501  502  0.00000000000E+00  0.00000000000E+00  0.27320058377E+03  0.27320058377E+03  0.00000000000E+00 0. -1.
          2   -1    0    0  502    0 -0.00000000000E+00 -0.00000000000E+00 -0.16833221142E+03  0.16833221142E+03  0.00000000000E+00 0. -1.
         23    2    1    2    0    0  0.47272042785E+01 -0.11943543684E+02 -0.13371830608E+03  0.16211376785E+03  0.90748518717E+02 0.  0.
         23    2    1    2    0    0 -0.23608219234E+01 -0.12305931996E+02  0.83007150604E+02  0.12194323137E+03  0.88447471323E+02 0.  0.
        -11    1    4    4    0    0 -0.17747974523E+02 -0.44600135087E+02  0.25863341313E+02  0.54525911944E+02  0.00000000000E+00 0. -1.
         11    1    4    4    0    0  0.15387152600E+02  0.32294203091E+02  0.57143809292E+02  0.67417319427E+02  0.00000000000E+00 0.  1.
        -13    1    3    3    0    0  0.28713231921E+02  0.26669326274E+02 -0.31621652654E+02  0.50355055038E+02  0.00000000000E+00 0.  1.
         13    1    3    3    0    0 -0.23986027643E+02 -0.38612869958E+02 -0.10209665343E+03  0.11175871281E+03  0.00000000000E+00 0. -1.
          2    1    1    2  501    0 -0.23663823551E+01  0.24249475679E+02  0.15557952783E+03  0.15747579597E+03  0.00000000000E+00 0. -1.
<scales pt_clust_5="13000.00000" pt_clust_6="13000.00000" pt_clust_7="13000.00000" pt_clust_8="13000.00000" pt_clust_9="24.36466"></scales>
<clustering>
<clus scale="   24.365">  1  9  2 -1</clus>
<clus scale="   88.447">  5  6 -1 -1</clus>
<clus scale="   89.014">  1  5  2 -1</clus>
<clus scale="   90.749">  7  8 -1 -1</clus>
<clus scale="   24.365">  1  5  2 -1</clus>
</clustering>
</event>
<event>
 9    1  0.1881049E-005  0.1214655E+03  0.7546771E-02  0.1241171E+00
         21   -1    0    0  501  502  0.00000000000E+00  0.00000000000E+00  0.80528997820E+02  0.80528997820E+02  0.00000000000E+00 0.  1.
         -3   -1    0    0    0  501 -0.00000000000E+00 -0.00000000000E+00 -0.53214634954E+03  0.53214634954E+03  0.00000000000E+00 0.  1.
         23    2    1    2    0    0  0.11611339473E+02 -0.55851156627E+02 -0.18201827179E+03  0.21263710105E+03  0.93966539675E+02 0.  0.
         23    2    1    2    0    0 -0.34976762989E+02  0.14388116990E+03 -0.84937405543E+02  0.19413739580E+03  0.92465131737E+02 0.  0.
        -11    1    3    3    0    0  0.49956239661E+02 -0.50797727106E+02 -0.11883601297E+03  0.13855696640E+03  0.00000000000E+00 0. -1.
         11    1    3    3    0    0 -0.38344900189E+02 -0.50534295217E+01 -0.63182258820E+02  0.74080134652E+02  0.00000000000E+00 0.  1.
        -13    1    4    4    0    0  0.10261199394E+02  0.10196186158E+03 -0.19683749975E+02  0.10435019618E+03  0.00000000000E+00 0.  1.
         13    1    4    4    0    0 -0.45237962382E+02  0.41919308316E+02 -0.65253655568E+02  0.89787199618E+02  0.00000000000E+00 0. -1.
         -3    1    1    2    0  502  0.23365423516E+02 -0.88030013268E+02 -0.18466167439E+03  0.20590085051E+03  0.00000000000E+00 0.  1.
<scales pt_clust_5="13000.00000" pt_clust_6="13000.00000" pt_clust_7="13000.00000" pt_clust_8="13000.00000" pt_clust_9="91.07818"></scales>
<clustering>
<clus scale="   91.078">  1  9  2 -1</clus>
<clus scale="   92.465">  7  8 -1 -1</clus>
<clus scale="   93.967">  5  6 -1 -1</clus>
<clus scale="  120.308">  1  7  2 -1</clus>
<clus scale="   91.078">  1  5  2 -1</clus>
</clustering>
</event>
<event>
 9    1  0.1881049E-005  0.9452329E+02  0.7546771E-02  0.1293457E+00
         21   -1    0    0  501  502  0.00000000000E+00  0.00000000000E+00  0.46066112462E+02  0.46066112462E+02  0.00000000000E+00 0. -1.
         -2   -1    0    0    0  501 -0.00000000000E+00 -0.00000000000E+00 -0.27341459240E+03  0.27341459240E+03  0.00000000000E+00 0.  1.
         23    2    1    2    0    0  0.36549787402E+00  0.11630873780E+02 -0.14801784400E+03  0.17539419320E+03  0.93372533724E+02 0.  0.
         23    2    1    2    0    0  0.23477952313E+02 -0.12923982536E+02 -0.71412921253E+02  0.11892955530E+03  0.91247960160E+02 0.  0.
        -11    1    4    4    0    0 -0.29232608197E+01 -0.47804306677E+02 -0.21321169324E+02  0.52425084187E+02  0.00000000000E+00 0.  1.
         11    1    4    4    0    0  0.26401213133E+02  0.34880324141E+02 -0.50091751929E+02  0.66504471116E+02  0.00000000000E+00 0. -1.
        -13    1    3    3    0    0 -0.46258003036E+02  0.28287896509E+01 -0.80179937607E+02  0.92610082012E+02  0.00000000000E+00 0.  1.
         13    1    3    3    0    0  0.46623500910E+02  0.88020841296E+01 -0.67837906393E+02  0.82784111192E+02  0.00000000000E+00 0. -1.
         -2    1    1    2    0  502 -0.23843450187E+02  0.12931087558E+01 -0.79177146836E+01  0.25156956352E+02  0.00000000000E+00 0.  1.
<scales pt_clust_5="13000.00000" pt_clust_6="13000.00000" pt_clust_7="13000.00000" pt_clust_8="13000.00000" pt_clust_9="23.87849"></scales>
<clustering>
<clus scale="   23.878">  1  9  2 -1</clus>
<clus scale="   91.248">  5  6 -1 -1</clus>
<clus scale="   92.425">  1  5  2 -1</clus>
<clus scale="   93.373">  7  8 -1 -1</clus>
<clus scale="   23.878">  1  5  2 -1</clus>
</clustering>
</event>
<event>
 9    1  0.1881049E-005  0.1658246E+03  0.7546771E-02  0.1184309E+00
          1   -1    0    0  502    0 -0.00000000000E+00  0.00000000000E+00  0.72831648585E+03  0.72831648585E+03  0.00000000000E+00 0. -1.
         21   -1    0    0  501  502  0.00000000000E+00 -0.00000000000E+00 -0.61532936685E+02  0.61532936685E+02  0.00000000000E+00 0. -1.
         23    2    1    2    0    0 -0.10535717448E+03 -0.10426908578E+03  0.47574306375E+03  0.50764354512E+03  0.96944983034E+02 0.  0.
         23    2    1    2    0    0  0.56725130112E+02  0.10164227126E+03  0.18358404744E+03  0.23293545666E+03  0.83707423815E+02 0.  0.
        -11    1    4    4    0    0  0.63219874501E+02  0.28396749653E+02  0.79042424010E+02  0.10512294096E+03  0.00000000000E+00 0. -1.
         11    1    4    4    0    0 -0.64947443887E+01  0.73245521605E+02  0.10454162343E+03  0.12781251570E+03  0.00000000000E+00 0.  1.
        -11    1    3    3    0    0 -0.36002874535E+01 -0.51316724807E+02  0.76045266974E+02  0.91810952199E+02  0.00000000000E+00 0.  1.
         11    1    3    3    0    0 -0.10175688703E+03 -0.52952360971E+02  0.39969779678E+03  0.41583259292E+03  0.00000000000E+00 0. -1.
          1    1    1    2  501    0  0.48632044369E+02  0.26268145199E+01  0.74564379768E+01  0.49270420755E+02  0.00000000000E+00 0. -1.
<scales pt_clust_5="13000.00000" pt_clust_6="13000.00000" pt_clust_7="13000.00000" pt_clust_8="13000.00000" pt_clust_9="48.70294"></scales>
<clustering>
<clus scale="   48.703">  2  9  1 -1</clus>
<clus scale="   83.707">  5  6 -1 -1</clus>
<clus scale="   96.945">  7  8 -1 -1</clus>
<clus scale="  158.450">  2  5  1 -1</clus>
<clus scale="   48.703">  2  5  1 -1</clus>
</clustering>
</event>
<event>
 9    1  0.1881049E-005  0.9850300E+02  0.7546771E-02  0.1283524E+00
         21   -1    0    0  501  502  0.00000000000E+00  0.00000000000E+00  0.61531040911E+02  0.61531040911E+02  0.00000000000E+00 0.  1.
          2   -1    0    0  502    0 -0.00000000000E+00 -0.00000000000E+00 -0.21833796201E+03  0.21833796201E+03  0.00000000000E+00 0. -1.
         23    2    1    2    0    0  0.97896457597E+01 -0.31467859843E+02 -0.61535217650E+02  0.11491905269E+03  0.91289332847E+02 0.  0.
         23    2    1    2    0    0  0.80769712038E+01  0.43658479291E+02 -0.46460194781E+02  0.11156090096E+03  0.91192020735E+02 0.  0.
        -11    1    3    3    0    0  0.44560846617E+02 -0.26899717579E+02 -0.60533671836E+02  0.79834762372E+02  0.00000000000E+00 0.  1.
         11    1    3    3    0    0 -0.34771200857E+02 -0.45681422643E+01 -0.10015458144E+01  0.35084290314E+02  0.00000000000E+00 0. -1.
        -13    1    4    4    0    0  0.39002169005E+02  0.35157937001E+02 -0.57286259052E+02  0.77710779159E+02  0.00000000000E+00 0.  1.
         13    1    4    4    0    0 -0.30925197801E+02  0.85005422899E+01  0.10826064271E+02  0.33850121800E+02  0.00000000000E+00 0. -1.
          2    1    1    2  501    0 -0.17866616964E+02 -0.12190619448E+02 -0.48811508669E+02  0.53389049277E+02  0.00000000000E+00 0. -1.
<scales pt_clust_5="13000.00000" pt_clust_6="13000.00000" pt_clust_7="13000.00000" pt_clust_8="13000.00000" pt_clust_9="21.62932"></scales>
<clustering>
<clus scale="   21.629">  1  9  2 -1</clus>
<clus scale="   91.192">  7  8 -1 -1</clus>
<clus scale="   91.289">  5  6 -1 -1</clus>
<clus scale="   98.413">  1  7  2 -1</clus>
<clus scale="   21.629">  1  5  2 -1</clus>
</clustering>
</event>
<event>
 9    1  0.1881049E-005  0.2330701E+03  0.7546771E-02  0.1163024E+00
          2   -1    0    0  502    0 -0.00000000000E+00  0.00000000000E+00  0.27292227640E+03  0.27292227640E+03  0.00000000000E+00 0. -1.
         21   -1    0    0  501  502  0.00000000000E+00 -0.00000000000E+00 -0.54593372271E+03  0.54593372271E+03  0.00000000000E+00 0. -1.
         23    2    1    2    0    0  0.40975278492E+01  0.72604710800E+01  0.10340728865E+03  0.13879151063E+03  0.92198220713E+02 0.  0.
         23    2    1    2    0    0  0.77945092492E+02 -0.20477754300E+03  0.11257790247E+02  0.23730374786E+03  0.90427049865E+02 0.  0.
        -11    1    3    3    0    0  0.20513808473E+02 -0.85415550544E+01  0.11219157047E+03  0.11437098839E+03  0.00000000000E+00 0. -1.
         11    1    3    3    0    0 -0.16416280624E+02  0.15802026134E+02 -0.87842818200E+01  0.24420522242E+02  0.00000000000E+00 0.  1.
        -13    1    4    4    0    0  0.51685164751E+02 -0.18561819483E+03 -0.18066697001E+02  0.19352487191E+03  0.00000000000E+00 0.  1.
         13    1    4    4    0    0  0.26259927741E+02 -0.19159348170E+02  0.29324487248E+02  0.43778875952E+02  0.00000000000E+00 0. -1.
          2    1    1    2  501    0 -0.82042620341E+02  0.19751707192E+03 -0.38767652519E+03  0.44276074062E+03  0.00000000000E+00 0. -1.
<scales pt_clust_5="13000.00000" pt_clust_6="13000.00000" pt_clust_7="13000.00000" pt_clust_8="13000.00000" pt_clust_9="214.81296"></scales>
<clustering>
<clus scale="   90.427">  7  8 -1 -1</clus>
<clus scale="   92.198">  5  6 -1 -1</clus>
<clus scale="   92.574">  1  5  2 -1</clus>
<clus scale="  214.813">  2  9  1 -1</clus>
<clus scale="  214.813">  2  5  1 -1</clus>
</clustering>
</event>
<event>
 9    1  0.1881049E-005  0.5436519E+03  0.7546771E-02  0.1049060E+00
         21   -1    0    0  501  502  0.00000000000E+00  0.00000000000E+00  0.11490025307E+04  0.11490025307E+04  0.00000000000E+00 0. -1.
          1   -1    0    0  502    0 -0.00000000000E+00 -0.00000000000E+00 -0.67969964491E+03  0.67969964491E+03  0.00000000000E+00 0. -1.
         23    2    1    2    0    0 -0.10107118905E+03  0.16965498705E+02 -0.40663469746E+03  0.42905981642E+03  0.90759768005E+02 0.  0.
         23    2    1    2    0    0 -0.22534688722E+03 -0.46889474740E+03  0.49113166612E+03  0.72224705345E+03  0.98929212227E+02 0.  0.
        -13    1    3    3    0    0 -0.75106509268E+02  0.35339183646E+02 -0.37544634571E+03  0.38451242391E+03  0.00000000000E+00 0. -1.
         13    1    3    3    0    0 -0.25964679784E+02 -0.18373684941E+02 -0.31188351743E+02  0.44547392506E+02  0.00000000000E+00 0.  1.
        -13    1    4    4    0    0 -0.36390705056E+02 -0.18719338101E+02  0.30697780435E+02  0.51157118342E+02  0.00000000000E+00 0.  1.
         13    1    4    4    0    0 -0.18895618216E+03 -0.45017540930E+03  0.46043388569E+03  0.67108993511E+03  0.00000000000E+00 0. -1.
          1    1    1    2  501    0  0.32641807627E+03  0.45192924870E+03  0.38480591708E+03  0.67739530569E+03  0.00000000000E+00 0. -1.
<scales pt_clust_5="13000.00000" pt_clust_6="13000.00000" pt_clust_7="13000.00000" pt_clust_8="13000.00000" pt_clust_9="534.57519"></scales>
<clustering>
<clus scale="   90.760">  5  6 -1 -1</clus>
<clus scale="   98.929">  7  8 -1 -1</clus>
<clus scale="  136.896">  2  5  1 -1</clus>
<clus scale="  534.575">  1  9  2 -1</clus>
<clus scale="  534.575">  1  5  2 -1</clus>
</clustering>
</event>
<event>
 9    1  0.1881049E-005  0.1036632E+03  0.7546771E-02  0.1277750E+00
         21   -1    0    0  501  502  0.00000000000E+00  0.00000000000E+00  0.12706606668E+03  0.12706606668E+03  0.00000000000E+00 0. -1.
          1   -1    0    0  502    0 -0.00000000000E+00 -0.00000000000E+00 -0.99152698769E+02  0.99152698769E+02  0.00000000000E+00 0. -1.
         23    2    1    2    0    0 -0.25413393387E+02  0.11759853423E+02 -0.96477501538E+01  0.10519466946E+03  0.10093911374E+03 0.  0.
         23    2    1    2    0    0  0.67106710218E+01 -0.21483688722E+02  0.30215219492E+02  0.98701304440E+02  0.91227221938E+02 0.  0.
        -11    1    4    4    0    0 -0.42121069857E+02 -0.52260194155E+01  0.12028727448E+02  0.44115599156E+02  0.00000000000E+00 0. -1.
         11    1    4    4    0    0  0.48831740879E+02 -0.16257669306E+02  0.18186492044E+02  0.54585705284E+02  0.00000000000E+00 0.  1.
        -13    1    3    3    0    0 -0.17146413635E+02 -0.43709437907E+02  0.50380037291E+01  0.47221774048E+02  0.00000000000E+00 0. -1.
         13    1    3    3    0    0 -0.82669797527E+01  0.55469291329E+02 -0.14685753883E+02  0.57972895408E+02  0.00000000000E+00 0.  1.
          1    1    1    2  501    0  0.18702722366E+02  0.97238352990E+01  0.73458985687E+01  0.22322791550E+02  0.00000000000E+00 0. -1.
<scales pt_clust_5="13000.00000" pt_clust_6="13000.00000" pt_clust_7="13000.00000" pt_clust_8="13000.00000" pt_clust_9="21.07949"></scales>
<clustering>
<clus scale="   21.079">  1  9  2 -1</clus>
<clus scale="   91.227">  5  6 -1 -1</clus>
<clus scale="   94.233">  1  5  2 -1</clus>
<clus scale="  100.939">  7  8 -1 -1</clus>
<clus scale="   21.079">  1  5  2 -1</clus>
</clustering>
</event>
<event>
 9    1  0.1881049E-005  0.2362822E+03  0.7546771E-02  0.1122574E+00
         21   -1    0    0  501  502  0.00000000000E+00  0.00000000000E+00  0.33118978625E+03  0.33118978625E+03  0.00000000000E+00 0. -1.
          4   -1    0    0  502    0 -0.00000000000E+00 -0.00000000000E+00 -0.38338449545E+03  0.38338449545E+03  0.00000000000E+00 0. -1.
         23    2    1    2    0    0 -0.67010943400E+02 -0.21187665013E+03 -0.25688525713E+03  0.35218204714E+03  0.93059000579E+02 0.  0.
         23    2    1    2    0    0 -0.94362144564E+01  0.19296370192E+03  0.17520488062E+03  0.27830137816E+03  0.97112689645E+02 0.  0.
        -11    1    3    3    0    0  0.16862869463E+02 -0.89391484819E+02 -0.11704830773E+03  0.14824135815E+03  0.00000000000E+00 0.  1.
         11    1    3    3    0    0 -0.83873812863E+02 -0.12248516531E+03 -0.13983694940E+03  0.20394068898E+03  0.00000000000E+00 0. -1.
        -13    1    4    4    0    0  0.37902649819E+02  0.40525016823E+02  0.33230524288E+02  0.64677319025E+02  0.00000000000E+00 0.  1.
         13    1    4    4    0    0 -0.47338864275E+02  0.15243868510E+03  0.14197435633E+03  0.21362405913E+03  0.00000000000E+00 0. -1.
          4    1    1    2  501    0  0.76447157856E+02  0.18912948215E+02  0.29485667312E+02  0.84090856407E+02  0.00000000000E+00 0. -1.
<scales pt_clust_5="13000.00000" pt_clust_6="13000.00000" pt_clust_7="13000.00000" pt_clust_8="13000.00000" pt_clust_9="78.75194"></scales>
<clustering>
<clus scale="   78.752">  1  9  2 -1</clus>
<clus scale="   93.059">  5  6 -1 -1</clus>
<clus scale="   97.113">  7  8 -1 -1</clus>
<clus scale="  234.645">  2  5  1 -1</clus>
<clus scale="   78.752">  1  5  2 -1</clus>
</clustering>
</event>
<event>
 9    1  0.1881049E-005  0.9672505E+02  0.7546771E-02  0.1287486E+00
         21   -1    0    0  501  502  0.00000000000E+00  0.00000000000E+00  0.30316870965E+02  0.30316870965E+02  0.00000000000E+00 0.  1.
          1   -1    0    0  502    0 -0.00000000000E+00 -0.00000000000E+00 -0.59364388395E+03  0.59364388395E+03  0.00000000000E+00 0. -1.
         23    2    1    2    0    0 -0.17622914306E+02  0.33640785587E+02 -0.38926657417E+03  0.40154850293E+03  0.90942096276E+02 0.  0.
         23    2    1    2    0    0  0.24818474039E+02 -0.11479768686E+02 -0.17512818133E+03  0.19908786938E+03  0.90655160331E+02 0.  0.
        -11    1    3    3    0    0 -0.80124520831E+00 -0.30874848586E+02 -0.98150453550E+02  0.10289513983E+03  0.00000000000E+00 0. -1.
         11    1    3    3    0    0 -0.16821669097E+02  0.64515634174E+02 -0.29111612062E+03  0.29865336310E+03  0.00000000000E+00 0.  1.
        -11    1    4    4    0    0  0.40724865493E+02 -0.42492031257E+02 -0.12334484211E+03  0.13666761674E+03  0.00000000000E+00 0. -1.
         11    1    4    4    0    0 -0.15906391454E+02  0.31012262571E+02 -0.51783339224E+02  0.62420252643E+02  0.00000000000E+00 0.  1.
          1    1    1    2  501    0 -0.71955597331E+01 -0.22161016901E+02  0.10677425152E+01  0.23324382608E+02  0.00000000000E+00 0. -1.
<scales pt_clust_5="13000.00000" pt_clust_6="13000.00000" pt_clust_7="13000.00000" pt_clust_8="13000.00000" pt_clust_9="23.29993"></scales>
<clustering>
<clus scale="   23.300">  1  9  2 -1</clus>
<clus scale="   90.655">  7  8 -1 -1</clus>
<clus scale="   90.942">  5  6 -1 -1</clus>
<clus scale="   96.455">  1  7  2 -1</clus>
<clus scale="   23.300">  1  5  2 -1</clus>
</clustering>
</event>
<event>
 9    1  0.1881049E-005  0.1993100E+03  0.7546771E-02  0.1150557E+00
          2   -1    0    0  502    0 -0.00000000000E+00  0.00000000000E+00  0.18757418654E+04  0.18757418654E+04  0.00000000000E+00 0. -1.
         21   -1    0    0  501  502  0.00000000000E+00 -0.00000000000E+00 -0.41585704153E+02  0.41585704153E+02  0.00000000000E+00 0. -1.
         23    2    1    2    0    0 -0.76397901067E+02 -0.11628260895E+03  0.53970256751E+03  0.56481611270E+03  0.91542860771E+02 0.  0.
         23    2    1    2    0    0  0.71270527199E+02  0.23825256121E+03  0.77062799334E+03  0.81464881747E+03  0.89114649246E+02 0.  0.
        -11    1    3    3    0    0 -0.50051640203E+01 -0.69821876742E+02  0.34905767922E+03  0.35600759762E+03  0.00000000000E+00 0.  1.
         11    1    3    3    0    0 -0.71392737047E+02 -0.46460732213E+02  0.19064488829E+03  0.20880851508E+03  0.00000000000E+00 0. -1.
        -13    1    4    4    0    0  0.92649162845E+02  0.19699962642E+03  0.63728594186E+03  0.67344345856E+03  0.00000000000E+00 0. -1.
         13    1    4    4    0    0 -0.21378635647E+02  0.41252934788E+02  0.13334205147E+03  0.14120535890E+03  0.00000000000E+00 0.  1.
          2    1    1    2  501    0  0.51273738686E+01 -0.12196995225E+03  0.52382560044E+03  0.53786263943E+03  0.00000000000E+00 0. -1.
<scales pt_clust_5="13000.00000" pt_clust_6="13000.00000" pt_clust_7="13000.00000" pt_clust_8="13000.00000" pt_clust_9="122.07774"></scales>
<clustering>
<clus scale="   89.115">  7  8 -1 -1</clus>
<clus scale="   91.543">  5  6 -1 -1</clus>
<clus scale="  122.078">  2  9  1 -1</clus>
<clus scale="  198.206">  2  7  1 -1</clus>
<clus scale="  122.078">  2  5  1 -1</clus>
</clustering>
</event>
<event>
 9    1  0.1881049E-005  0.1150765E+03  0.7546771E-02  0.1251634E+00
         -1   -1    0    0    0  501 -0.00000000000E+00  0.00000000000E+00  0.58581716629E+02  0.58581716629E+02  0.00000000000E+00 0.  1.
         21   -1    0    0  501  502  0.00000000000E+00 -0.00000000000E+00 -0.31840702897E+03  0.31840702897E+03  0.00000000000E+00 0. -1.
         23    2    1    2    0    0  0.47147283384E+02  0.38619892525E+02 -0.68022209223E+02  0.12859213500E+03  0.90523774823E+02 0.  0.
         23    2    1    2    0    0 -0.76928970459E+02 -0.40170209216E+02 -0.13691482333E+03  0.18593001452E+03  0.91063654924E+02 0.  0.
        -11    1    3    3    0    0  0.48700128776E+02  0.64472666775E+02 -0.62401115220E+02  0.10208979618E+03  0.00000000000E+00 0.  1.
         11    1    3    3    0    0 -0.15528453919E+01 -0.25852774250E+02 -0.56210940033E+01  0.26502338822E+02  0.00000000000E+00 0. -1.
        -13    1    4    4    0    0 -0.56592525914E+02  0.21050691000E+02 -0.77343126762E+02  0.98121378089E+02  0.00000000000E+00 0.  1.
         13    1    4    4    0    0 -0.20336444546E+02 -0.61220900216E+02 -0.59571696567E+02  0.87808636432E+02  0.00000000000E+00 0. -1.
         -1    1    1    2    0  502  0.29781687075E+02  0.15503166914E+01 -0.54888279787E+02  0.62466596072E+02  0.00000000000E+00 0.  1.
<scales pt_clust_5="13000.00000" pt_clust_6="13000.00000" pt_clust_7="13000.00000" pt_clust_8="13000.00000" pt_clust_9="29.82201"></scales>
<clustering>
<clus scale="   29.822">  2  9  1 -1</clus>
<clus scale="   90.524">  5  6 -1 -1</clus>
<clus scale="   91.064">  7  8 -1 -1</clus>
<clus scale="  114.650">  1  5  2 -1</clus>
<clus scale="   29.822">  2  5  1 -1</clus>
</clustering>
</event>
<event>
 9    1  0.1881049E-005  0.1159101E+03  0.7546771E-02  0.1252174E+00
          3   -1    0    0  502    0 -0.00000000000E+00  0.00000000000E+00  0.97354841691E+02  0.97354841691E+02  0.00000000000E+00 0. -1.
         21   -1    0    0  501  502  0.00000000000E+00 -0.00000000000E+00 -0.29595934729E+03  0.29595934729E+03  0.00000000000E+00 0. -1.
         23    2    1    2    0    0 -0.16919148045E+01  0.66592154592E+02 -0.61770893567E+02  0.12852197895E+03  0.90911375258E+02 0.  0.
         23    2    1    2    0    0 -0.85182305891E+02 -0.32566534370E+02 -0.72968019143E+02  0.15172724195E+03  0.96851534495E+02 0.  0.
        -13    1    3    3    0    0 -0.17977929958E+02  0.85536564787E+02 -0.51949840694E+02  0.10167839411E+03  0.00000000000E+00 0.  1.
         13    1    3    3    0    0  0.16286015153E+02 -0.18944410195E+02 -0.98210528732E+01  0.26843584834E+02  0.00000000000E+00 0. -1.
        -13    1    4    4    0    0  0.15786895680E+02 -0.14091198772E+02  0.62533014103E+01  0.22065623412E+02  0.00000000000E+00 0.  1.
         13    1    4    4    0    0 -0.10096920157E+03 -0.18475335597E+02 -0.79221320553E+02  0.12966161854E+03  0.00000000000E+00 0. -1.
          3    1    1    2  501    0  0.86874220695E+02 -0.34025620222E+02 -0.63865592888E+02  0.11306496808E+03  0.00000000000E+00 0. -1.
<scales pt_clust_5="13000.00000" pt_clust_6="13000.00000" pt_clust_7="13000.00000" pt_clust_8="13000.00000" pt_clust_9="93.29991"></scales>
<clustering>
<clus scale="   90.911">  5  6 -1 -1</clus>
<clus scale="   93.300">  2  9  1 -1</clus>
<clus scale="   96.852">  7  8 -1 -1</clus>
<clus scale="  110.995">  1  5  2 -1</clus>
<clus scale="   93.300">  2  5  1 -1</clus>
</clustering>
</event>
<event>
 9    1  0.1881049E-005  0.2073526E+03  0.7546771E-02  0.1151380E+00
         21   -1    0    0  501  502  0.00000000000E+00  0.00000000000E+00  0.36887250926E+03  0.36887250926E+03  0.00000000000E+00 0. -1.
          2   -1    0    0  502    0 -0.00000000000E+00 -0.00000000000E+00 -0.82609356948E+03  0.82609356948E+03  0.00000000000E+00 0. -1.
         23    2    1    2    0    0  0.58683150271E+02  0.13453882341E+03 -0.23015956945E+03  0.28770822693E+03  0.90874580067E+02 0.  0.
         23    2    1    2    0    0 -0.17026936996E+03  0.18488235125E+02 -0.52184830046E+03  0.55687516354E+03  0.91928373718E+02 0.  0.
        -11    1    4    4    0    0 -0.16285427536E+03  0.42026749565E+02 -0.47545155333E+03  0.50432325174E+03  0.00000000000E+00 0. -1.
         11    1    4    4    0    0 -0.74150945990E+01 -0.23538514440E+02 -0.46396747131E+02  0.52551911804E+02  0.00000000000E+00 0.  1.
        -13    1    3    3    0    0  0.40504668236E+02  0.10182089972E+02 -0.30226995131E+02  0.51555546159E+02  0.00000000000E+00 0.  1.
         13    1    3    3    0    0  0.18178482035E+02  0.12435673344E+03 -0.19993257432E+03  0.23615268077E+03  0.00000000000E+00 0. -1.
          2    1    1    2  501    0  0.11158621969E+03 -0.15302705853E+03  0.29478680970E+03  0.35038268827E+03  0.00000000000E+00 0. -1.
<scales pt_clust_5="13000.00000" pt_clust_6="13000.00000" pt_clust_7="13000.00000" pt_clust_8="13000.00000" pt_clust_9="185.86087"></scales>
<clustering>
<clus scale="   90.875">  7  8 -1 -1</clus>
<clus scale="   91.928">  5  6 -1 -1</clus>
<clus scale="  172.634">  2  7  1 -1</clus>
<clus scale="  185.861">  1  9  2 -1</clus>
<clus scale="  185.861">  1  5  2 -1</clus>
</clustering>
</event>
<event>
 9    1  0.1881049E-005  0.2220882E+03  0.7546771E-02  0.1132383E+00
          1   -1    0    0  502    0 -0.00000000000E+00  0.00000000000E+00  0.13746422556E+04  0.13746422556E+04  0.00000000000E+00 0. -1.
         21   -1    0    0  501  502  0.00000000000E+00 -0.00000000000E+00 -0.60523215962E+02  0.60523215962E+02  0.00000000000E+00 0.  1.
         23    2    1    2    0    0  0.19169901141E+03 -0.33610195675E+01  0.78692773122E+03  0.81514237803E+03  0.91880546782E+02 0.  0.
         23    2    1    2    0    0 -0.22104321665E+03 -0.46754058924E+00  0.53781075635E+03  0.58858246805E+03  0.91261107987E+02 0.  0.
        -11    1    3    3    0    0  0.47256362299E+02  0.30623838637E+02  0.13013470214E+03  0.14179571211E+03  0.00000000000E+00 0.  1.
         11    1    3    3    0    0  0.14444264911E+03 -0.33984858204E+02  0.65679302907E+03  0.67334666592E+03  0.00000000000E+00 0. -1.
        -11    1    4    4    0    0 -0.86414514933E+02  0.26996177403E+02  0.13136399571E+03  0.15953921573E+03  0.00000000000E+00 0.  1.
         11    1    4    4    0    0 -0.13462870172E+03 -0.27463717993E+02  0.40644676064E+03  0.42904325233E+03  0.00000000000E+00 0. -1.
          1    1    1    2  501    0  0.29344205248E+02  0.38285601568E+01 -0.10619447949E+02  0.31440625459E+02  0.00000000000E+00 0. -1.
<scales pt_clust_5="13000.00000" pt_clust_6="13000.00000" pt_clust_7="13000.00000" pt_clust_8="13000.00000" pt_clust_9="29.59291"></scales>
<clustering>
<clus scale="   29.593">  2  9  1 -1</clus>
<clus scale="   91.261">  7  8 -1 -1</clus>
<clus scale="   91.881">  5  6 -1 -1</clus>
<clus scale="  221.833">  2  7  1 -1</clus>
<clus scale="   29.593">  2  5  1 -1</clus>
</clustering>
</event>
<event>
 9    1  0.1881049E-005  0.1063866E+03  0.7546771E-02  0.1267769E+00
          1   -1    0    0  502    0 -0.00000000000E+00  0.00000000000E+00  0.18387113963E+03  0.18387113963E+03  0.00000000000E+00 0. -1.
         21   -1    0    0  501  502  0.00000000000E+00 -0.00000000000E+00 -0.15616208119E+03  0.15616208119E+03  0.00000000000E+00 0.  1.
         23    2    1    2    0    0 -0.99724673665E+01  0.44174095781E+02  0.84175704477E+02  0.13214558750E+03  0.91247499848E+02 0.  0.
         23    2    1    2    0    0  0.25583245632E+02 -0.68553793379E+02  0.27133039972E+02  0.11941744876E+03  0.90389159569E+02 0.  0.
        -11    1    4    4    0    0  0.35995080575E+02 -0.87417495139E+02  0.24855775964E+02  0.97751081226E+02  0.00000000000E+00 0.  1.
         11    1    4    4    0    0 -0.10411834943E+02  0.18863701760E+02  0.22772640075E+01  0.21666367539E+02  0.00000000000E+00 0. -1.
        -11    1    3    3    0    0  0.14930843672E+02  0.59326267144E+02  0.82818523170E+02  0.10296331311E+03  0.00000000000E+00 0. -1.
         11    1    3    3    0    0 -0.24903311038E+02 -0.15152171363E+02  0.13571813066E+01  0.29182274394E+02  0.00000000000E+00 0.  1.
          1    1    1    2  501    0 -0.15610778265E+02  0.24379697598E+02 -0.83599686014E+02  0.88470184552E+02  0.00000000000E+00 0. -1.
<scales pt_clust_5="13000.00000" pt_clust_6="13000.00000" pt_clust_7="13000.00000" pt_clust_8="13000.00000" pt_clust_9="28.94937"></scales>
<clustering>
<clus scale="   28.949">  2  9  1 -1</clus>
<clus scale="   90.389">  5  6 -1 -1</clus>
<clus scale="   91.247">  7  8 -1 -1</clus>
<clus scale="  105.651">  2  5  1 -1</clus>
<clus scale="   28.949">  2  5  1 -1</clus>
</clustering>
</event>
<event>
 9    1  0.1881049E-005  0.9674284E+02  0.7546771E-02  0.1287601E+00
         21   -1    0    0  501  502  0.00000000000E+00  0.00000000000E+00  0.44571303272E+02  0.44571303272E+02  0.00000000000E+00 0.  1.
          1   -1    0    0  502    0 -0.00000000000E+00 -0.00000000000E+00 -0.57544516276E+03  0.57544516276E+03  0.00000000000E+00 0. -1.
         23    2    1    2    0    0 -0.85020599902E+01  0.20838910700E+02 -0.37282149877E+03  0.38442315137E+03  0.90987604307E+02 0.  0.
         23    2    1    2    0    0  0.27693583974E+02 -0.72411420468E+02 -0.11689790990E+03  0.16687848964E+03  0.90404427757E+02 0.  0.
        -11    1    3    3    0    0 -0.16466753165E+02 -0.32621805027E+02 -0.20119756323E+03  0.20448910869E+03  0.00000000000E+00 0. -1.
         11    1    3    3    0    0  0.79646931752E+01  0.53460715727E+02 -0.17162393554E+03  0.17993404267E+03  0.00000000000E+00 0.  1.
        -13    1    4    4    0    0 -0.32805224846E+02 -0.29584503272E+02 -0.34530264279E+02  0.56069285373E+02  0.00000000000E+00 0. -1.
         13    1    4    4    0    0  0.60498808820E+02 -0.42826917196E+02 -0.82367645623E+02  0.11080920427E+03  0.00000000000E+00 0.  1.
          1    1    1    2  501    0 -0.19191523983E+02  0.51572509768E+02 -0.41154450819E+02  0.68714825029E+02  0.00000000000E+00 0. -1.
<scales pt_clust_5="13000.00000" pt_clust_6="13000.00000" pt_clust_7="13000.00000" pt_clust_8="13000.00000" pt_clust_9="55.02761"></scales>
<clustering>
<clus scale="   55.028">  1  9  2 -1</clus>
<clus scale="   90.404">  7  8 -1 -1</clus>
<clus scale="   90.988">  5  6 -1 -1</clus>
<clus scale="   96.195">  1  7  2 -1</clus>
<clus scale="   55.028">  1  5  2 -1</clus>
</clustering>
</event>
<event>
 9    1  0.1881049E-005  0.1087131E+03  0.7546771E-02  0.1269116E+00
         21   -1    0    0  501  502  0.00000000000E+00  0.00000000000E+00  0.93626889757E+02  0.93626889757E+02  0.00000000000E+00 0.  1.
          1   -1    0    0  502    0 -0.00000000000E+00 -0.00000000000E+00 -0.30006937439E+03  0.30006937439E+03  0.00000000000E+00 0. -1.
         23    2    1    2    0    0 -0.75525363742E+02 -0.64948529245E+01 -0.14549173897E+03  0.19413442547E+03  0.10379819537E+03 0.  0.
         23    2    1    2    0    0 -0.14557011350E+02 -0.10266861594E+02 -0.55059463685E+02  0.10774410303E+03  0.90884168975E+02 0.  0.
        -11    1    4    4    0    0 -0.45259999710E+02  0.15764235363E+02 -0.46114017395E+02  0.66509257180E+02  0.00000000000E+00 0.  1.
         11    1    4    4    0    0  0.30702988360E+02 -0.26031096957E+02 -0.89454462904E+01  0.41234845851E+02  0.00000000000E+00 0. -1.
        -13    1    3    3    0    0 -0.50197689894E+02 -0.49817535394E+02 -0.51165563638E+02  0.87289803561E+02  0.00000000000E+00 0.  1.
         13    1    3    3    0    0 -0.25327673847E+02  0.43322682469E+02 -0.94326175333E+02  0.10684462191E+03  0.00000000000E+00 0. -1.
          1    1    1    2  501    0  0.90082375091E+02  0.16761714518E+02 -0.58912819804E+01  0.91817735645E+02  0.00000000000E+00 0. -1.
<scales pt_clust_5="13000.00000" pt_clust_6="13000.00000" pt_clust_7="13000.00000" pt_clust_8="13000.00000" pt_clust_9="91.62854"></scales>
<clustering>
<clus scale="   90.884">  5  6 -1 -1</clus>
<clus scale="   91.629">  1  9  2 -1</clus>
<clus scale="   96.459">  1  5  2 -1</clus>
<clus scale="  103.798">  7  8 -1 -1</clus>
<clus scale="   91.629">  1  5  2 -1</clus>
</clustering>
</event>
<event>
 9    1  0.1881049E-005  0.9672075E+02  0.7546771E-02  0.1288936E+00
          1   -1    0    0  502    0 -0.00000000000E+00  0.00000000000E+00  0.28116635887E+03  0.28116635887E+03  0.00000000000E+00 0. -1.
         21   -1    0    0  501  502  0.00000000000E+00 -0.00000000000E+00 -0.77157755724E+02  0.77157755724E+02  0.00000000000E+00 0. -1.
         23    2    1    2    0    0 -0.12329576713E+02 -0.15531782796E+02  0.19248566115E+03  0.21533452255E+03  0.94472070565E+02 0.  0.
         23    2    1    2    0    0 -0.65907302920E+01  0.30182797669E+02  0.41046270929E+02  0.10498620791E+03  0.91558006164E+02 0.  0.
        -13    1    4    4    0    0  0.33651063694E+02  0.37716579739E+02  0.56420790515E+01  0.50860274586E+02  0.00000000000E+00 0.  1.
         13    1    4    4    0    0 -0.40241793986E+02 -0.75337820694E+01  0.35404191877E+02  0.54125933322E+02  0.00000000000E+00 0. -1.
        -13    1    3    3    0    0 -0.35594216308E+02 -0.15084092485E+02  0.18762125491E+03  0.19156255734E+03  0.00000000000E+00 0. -1.
         13    1    3    3    0    0  0.23264639595E+02 -0.44769031097E+00  0.48644062403E+01  0.23771965215E+02  0.00000000000E+00 0.  1.
          1    1    1    2  501    0  0.18920307005E+02 -0.14651014873E+02 -0.29523328935E+02  0.38003384130E+02  0.00000000000E+00 0. -1.
<scales pt_clust_5="13000.00000" pt_clust_6="13000.00000" pt_clust_7="13000.00000" pt_clust_8="13000.00000" pt_clust_9="23.92969"></scales>
<clustering>
<clus scale="   23.930">  2  9  1 -1</clus>
<clus scale="   91.558">  5  6 -1 -1</clus>
<clus scale="   93.877">  2  5  1 -1</clus>
<clus scale="   94.472">  7  8 -1 -1</clus>
<clus scale="   23.930">  2  5  1 -1</clus>
</clustering>
</event>
<event>
 9    1  0.1881049E-005  0.9102054E+02  0.7546771E-02  0.1300687E+00
          2   -1    0    0  502    0 -0.00000000000E+00  0.00000000000E+00  0.49772799655E+03  0.49772799655E+03  0.00000000000E+00 0. -1.
         21   -1    0    0  501  502  0.00000000000E+00 -0.00000000000E+00 -0.51202848142E+02  0.51202848142E+02  0.00000000000E+00 0. -1.
         23    2    1    2    0    0  0.52706011741E+01 -0.46779571975E+01  0.31291482949E+03  0.32594327400E+03  0.90959687949E+02 0.  0.
         23    2    1    2    0    0  0.18578717010E+02 -0.14620341385E+02  0.15813094379E+03  0.18371321073E+03  0.90477761383E+02 0.  0.
        -11    1    3    3    0    0 -0.34376502476E+02 -0.14475956098E+02  0.67202665966E+02  0.76860233804E+02  0.00000000000E+00 0.  1.
         11    1    3    3    0    0  0.39647103651E+02  0.97979989007E+01  0.24571216353E+03  0.24908304020E+03  0.00000000000E+00 0. -1.
        -13    1    4    4    0    0  0.37084652014E+02  0.12937947920E+02  0.25120274184E+02  0.46622849403E+02  0.00000000000E+00 0. -1.
         13    1    4    4    0    0 -0.18505935004E+02 -0.27558289305E+02  0.13301066960E+03  0.13709036132E+03  0.00000000000E+00 0.  1.
          2    1    1    2  501    0 -0.23849318184E+02  0.19298298582E+02 -0.24520624873E+02  0.39274359959E+02  0.00000000000E+00 0. -1.
<scales pt_clust_5="13000.00000" pt_clust_6="13000.00000" pt_clust_7="13000.00000" pt_clust_8="13000.00000" pt_clust_9="30.67922"></scales>
<clustering>
<clus scale="   30.679">  2  9  1 -1</clus>
<clus scale="   90.478">  7  8 -1 -1</clus>
<clus scale="   90.539">  2  7  1 -1</clus>
<clus scale="   90.960">  5  6 -1 -1</clus>
<clus scale="   30.679">  2  5  1 -1</clus>
</clustering>
</event>
<event>
 9    1  0.1881049E-005  0.1646533E+03  0.7546771E-02  0.1203960E+00
         -3   -1    0    0    0  501 -0.00000000000E+00  0.00000000000E+00  0.16837856265E+03  0.16837856265E+03  0.00000000000E+00 0.  1.
         21   -1    0    0  501  502  0.00000000000E+00 -0.00000000000E+00 -0.27873991491E+03  0.27873991491E+03  0.00000000000E+00 0. -1.
         23    2    1    2    0    0 -0.48813908808E+02  0.22924563438E+02  0.38600760850E+02  0.11202785841E+03  0.90287812133E+02 0.  0.
         23    2    1    2    0    0 -0.86152367940E+02  0.41269279039E+01 -0.12310005501E+02  0.14112805173E+03  0.11102400063E+03 0.  0.
        -13    1    4    4    0    0  0.12983214321E+01  0.41352183131E+02  0.11898498125E+02  0.43049540600E+02  0.00000000000E+00 0.  1.
         13    1    4    4    0    0 -0.87450689373E+02 -0.37225255227E+02 -0.24208503626E+02  0.98078511134E+02  0.00000000000E+00 0. -1.
        -13    1    3    3    0    0  0.18662781872E+02 -0.18065155939E+02  0.12885079099E+02  0.28994388245E+02  0.00000000000E+00 0. -1.
         13    1    3    3    0    0 -0.67476690680E+02  0.40989719378E+02  0.25715681751E+02  0.83033470166E+02  0.00000000000E+00 0.  1.
         -3    1    1    2    0  502  0.13496627675E+03 -0.27051491342E+02 -0.13665210761E+03  0.19396256741E+03  0.00000000000E+00 0.  1.
<scales pt_clust_5="13000.00000" pt_clust_6="13000.00000" pt_clust_7="13000.00000" pt_clust_8="13000.00000" pt_clust_9="121.59103"></scales>
<clustering>
<clus scale="   90.288">  7  8 -1 -1</clus>
<clus scale="  105.168">  1  7  2 -1</clus>
<clus scale="  111.024">  5  6 -1 -1</clus>
<clus scale="  121.591">  2  9  1 -1</clus>
<clus scale="  121.591">  2  5  1 -1</clus>
</clustering>
</event>
<event>
 9    1  0.1881049E-005  0.1007808E+03  0.7546771E-02  0.1279377E+00
         21   -1    0    0  501  502  0.00000000000E+00  0.00000000000E+00  0.12936065528E+03  0.12936065528E+03  0.00000000000E+00 0. -1.
          1   -1    0    0  502    0 -0.00000000000E+00 -0.00000000000E+00 -0.47744425374E+03  0.47744425374E+03  0.00000000000E+00 0. -1.
         23    2    1    2    0    0  0.46247636967E+02  0.54694946454E-01 -0.24606417146E+03  0.26696871353E+03  0.92659973072E+02 0.  0.
         23    2    1    2    0    0 -0.20590138385E+02 -0.42560752080E+02 -0.20289262186E+03  0.22740633484E+03  0.91174852360E+02 0.  0.
        -11    1    4    4    0    0 -0.26532314806E+02  0.51923885332E+01 -0.16204788999E+03  0.16428768450E+03  0.00000000000E+00 0. -1.
         11    1    4    4    0    0  0.59421764209E+01 -0.47753140613E+02 -0.40844731867E+02  0.63118650336E+02  0.00000000000E+00 0.  1.
        -13    1    3    3    0    0 -0.23910974698E+02  0.12217338151E+02 -0.11193875956E+03  0.11511422134E+03  0.00000000000E+00 0. -1.
         13    1    3    3    0    0  0.70158611666E+02 -0.12162643204E+02 -0.13412541190E+03  0.15185449219E+03  0.00000000000E+00 0.  1.
          1    1    1    2  501    0 -0.25657498582E+02  0.42506057133E+02  0.10087319485E+03  0.11242986065E+03  0.00000000000E+00 0. -1.
<scales pt_clust_5="13000.00000" pt_clust_6="13000.00000" pt_clust_7="13000.00000" pt_clust_8="13000.00000" pt_clust_9="49.64949"></scales>
<clustering>
<clus scale="   49.649">  1  9  2 -1</clus>
<clus scale="   91.175">  5  6 -1 -1</clus>
<clus scale="   92.660">  7  8 -1 -1</clus>
<clus scale="   99.417">  1  5  2 -1</clus>
<clus scale="   49.649">  1  5  2 -1</clus>
</clustering>
</event>
<event>
 9    1  0.1881049E-005  0.9768333E+02  0.7546771E-02  0.1287811E+00
          1   -1    0    0  502    0 -0.00000000000E+00  0.00000000000E+00  0.18161600010E+03  0.18161600010E+03  0.00000000000E+00 0. -1.
         21   -1    0    0  501  502  0.00000000000E+00 -0.00000000000E+00 -0.85322724285E+02  0.85322724285E+02  0.00000000000E+00 0. -1.
         23    2    1    2    0    0  0.53264991893E+01 -0.65420054832E+01  0.98317348466E+02  0.13782739989E+03  0.96223290955E+02 0.  0.
         23    2    1    2    0    0 -0.25732306320E+02  0.24456472376E+02  0.11361554901E+02  0.98837571605E+02  0.91539663542E+02 0.  0.
        -11    1    4    4    0    0 -0.30244854622E+02  0.53928962865E+02  0.24169457528E+02  0.66387099228E+02  0.00000000000E+00 0. -1.
         11    1    4    4    0    0  0.45125483015E+01 -0.29472490488E+02 -0.12807902627E+02  0.32450472377E+02  0.00000000000E+00 0.  1.
        -11    1    3    3    0    0  0.11038966585E+02 -0.50613064043E+02  0.58734545312E+02  0.78315310432E+02  0.00000000000E+00 0.  1.
         11    1    3    3    0    0 -0.57124673960E+01  0.44071058560E+02  0.39582803154E+02  0.59512089459E+02  0.00000000000E+00 0. -1.
          1    1    1    2  501    0  0.20405807131E+02 -0.17914466893E+02 -0.13385627554E+02  0.30273752885E+02  0.00000000000E+00 0. -1.
<scales pt_clust_5="13000.00000" pt_clust_6="13000.00000" pt_clust_7="13000.00000" pt_clust_8="13000.00000" pt_clust_9="27.15373"></scales>
<clustering>
<clus scale="   27.154">  2  9  1 -1</clus>
<clus scale="   91.540">  5  6 -1 -1</clus>
<clus scale="   93.073">  2  5  1 -1</clus>
<clus scale="   96.223">  7  8 -1 -1</clus>
<clus scale="   27.154">  2  5  1 -1</clus>
</clustering>
</event>
<event>
 9    1  0.1881049E-005  0.1000811E+03  0.7546771E-02  0.1282356E+00
         21   -1    0    0  501  502  0.00000000000E+00  0.00000000000E+00  0.65438956235E+03  0.65438956235E+03  0.00000000000E+00 0. -1.
         -2   -1    0    0    0  501 -0.00000000000E+00 -0.00000000000E+00 -0.24484705066E+02  0.24484705066E+02  0.00000000000E+00 0.  1.
         23    2    1    2    0    0 -0.88163158973E+01 -0.41382583236E+02  0.14589927893E+03  0.17624204377E+03  0.89355541393E+02 0.  0.
         23    2    1    2    0    0 -0.19965610192E+02  0.19234852640E+02  0.38315274515E+03  0.39543980225E+03  0.93797686225E+02 0.  0.
        -11    1    3    3    0    0  0.22442509816E+02  0.66218634317E+01  0.47019894146E+01  0.23866797577E+02  0.00000000000E+00 0.  1.
         11    1    3    3    0    0 -0.31258825713E+02 -0.48004446667E+02  0.14119728952E+03  0.15237524619E+03  0.00000000000E+00 0. -1.
        -11    1    4    4    0    0 -0.79969500427E+01  0.57102707444E+02  0.24487686596E+03  0.25157374643E+03  0.00000000000E+00 0. -1.
         11    1    4    4    0    0 -0.11968660150E+02 -0.37867854804E+02  0.13827587919E+03  0.14386605582E+03  0.00000000000E+00 0.  1.
         -2    1    1    2    0  502  0.28781926090E+02  0.22147730596E+02  0.10085283320E+03  0.10719242139E+03  0.00000000000E+00 0.  1.
<scales pt_clust_5="13000.00000" pt_clust_6="13000.00000" pt_clust_7="13000.00000" pt_clust_8="13000.00000" pt_clust_9="36.31696"></scales>
<clustering>
<clus scale="   36.317">  1  9  2 -1</clus>
<clus scale="   89.356">  5  6 -1 -1</clus>
<clus scale="   93.798">  7  8 -1 -1</clus>
<clus scale="   95.930">  2  5  1 -1</clus>
<clus scale="   36.317">  1  5  2 -1</clus>
</clustering>
</event>
<event>
 9    1  0.1881049E-005  0.1049133E+03  0.7546771E-02  0.1271481E+00
         21   -1    0    0  501  502  0.00000000000E+00  0.00000000000E+00  0.83249874573E+02  0.83249874573E+02  0.00000000000E+00 0.  1.
          1   -1    0    0  502    0 -0.00000000000E+00 -0.00000000000E+00 -0.23812590333E+03  0.23812590333E+03  0.00000000000E+00 0. -1.
         23    2    1    2    0    0 -0.14343387456E+02  0.36928331972E+02 -0.11915748030E+03  0.15548877614E+03  0.91699617931E+02 0.  0.
         23    2    1    2    0    0  0.40790857655E+02 -0.65272951907E+02 -0.45124200688E+02  0.12599524256E+03  0.88961538543E+02 0.  0.
        -13    1    4    4    0    0  0.27925176382E+02 -0.39027209722E+01 -0.55676436557E+02  0.62409232447E+02  0.00000000000E+00 0. -1.
         13    1    4    4    0    0  0.12865681274E+02 -0.61370230935E+02  0.10552235869E+02  0.63586010108E+02  0.00000000000E+00 0.  1.
        -13    1    3    3    0    0 -0.27620020439E+02  0.13577320082E+01  0.27651024879E+01  0.27791271238E+02  0.00000000000E+00 0.  1.
         13    1    3    3    0    0  0.13276632983E+02  0.35570599963E+02 -0.12192258279E+03  0.12769750490E+03  0.00000000000E+00 0. -1.
          1    1    1    2  501    0 -0.26447470199E+02  0.28344619936E+02  0.94056522247E+01  0.39891759212E+02  0.00000000000E+00 0. -1.
<scales pt_clust_5="13000.00000" pt_clust_6="13000.00000" pt_clust_7="13000.00000" pt_clust_8="13000.00000" pt_clust_9="38.76708"></scales>
<clustering>
<clus scale="   38.767">  1  9  2 -1</clus>
<clus scale="   88.962">  5  6 -1 -1</clus>
<clus scale="   91.700">  7  8 -1 -1</clus>
<clus scale="  102.529">  1  5  2 -1</clus>
<clus scale="   38.767">  1  5  2 -1</clus>
</clustering>
</event>
<event>
 9    1  0.1881049E-005  0.4824407E+03  0.7546771E-02  0.1018697E+00
          2   -1    0    0  502    0 -0.00000000000E+00  0.00000000000E+00  0.21648231353E+04  0.21648231353E+04  0.00000000000E+00 0. -1.
         21   -1    0    0  501  502  0.00000000000E+00 -0.00000000000E+00 -0.24167948946E+03  0.24167948946E+03  0.00000000000E+00 0.  1.
         23    2    1    2    0    0 -0.42221965015E+03  0.21161382041E+03  0.17249112734E+04  0.17907144817E+04  0.91047305705E+02 0.  0.
         23    2    1    2    0    0  0.42389508258E+03 -0.18538356852E+03  0.26510993390E+03  0.54393105277E+03  0.10734805358E+03 0.  0.
        -13    1    4    4    0    0  0.30787279941E+03 -0.14333525709E+03  0.24533257869E+03  0.41894955628E+03  0.00000000000E+00 0.  1.
         13    1    4    4    0    0  0.11602228317E+03 -0.42048311428E+02  0.19777355206E+02  0.12498149649E+03  0.00000000000E+00 0. -1.
        -13    1    3    3    0    0 -0.11441998313E+03  0.95673191009E+02  0.45074146825E+03  0.47477696155E+03  0.00000000000E+00 0.  1.
         13    1    3    3    0    0 -0.30779966702E+03  0.11594062940E+03  0.12741698052E+04  0.13159375202E+04  0.00000000000E+00 0. -1.
          2    1    1    2  501    0 -0.16754324257E+01 -0.26230251893E+02 -0.66877561495E+02  0.71857090253E+02  0.00000000000E+00 0. -1.
<scales pt_clust_5="13000.00000" pt_clust_6="13000.00000" pt_clust_7="13000.00000" pt_clust_8="13000.00000" pt_clust_9="26.28371"></scales>
<clustering>
<clus scale="   26.284">  2  9  1 -1</clus>
<clus scale="   91.047">  7  8 -1 -1</clus>
<clus scale="  107.348">  5  6 -1 -1</clus>
<clus scale="  479.077">  1  7  2 -1</clus>
<clus scale="   26.284">  2  5  1 -1</clus>
</clustering>
</event>
<event>
 9    1  0.1881049E-005  0.1258719E+03  0.7546771E-02  0.1247454E+00
         21   -1    0    0  501  502  0.00000000000E+00  0.00000000000E+00  0.22692215819E+03  0.22692215819E+03  0.00000000000E+00 0.  1.
         -4   -1    0    0    0  501 -0.00000000000E+00 -0.00000000000E+00 -0.12129131391E+03  0.12129131391E+03  0.00000000000E+00 0.  1.
         23    2    1    2    0    0  0.36029706309E+02  0.72521984341E+00  0.65152906677E+01  0.95466941716E+02  0.88163610790E+02 0.  0.
         23    2    1    2    0    0  0.66367898828E+02  0.22229060439E+02  0.88747374006E+02  0.14729669553E+03  0.94453115343E+02 0.  0.
        -11    1    4    4    0    0  0.86922342807E+02  0.27980678452E+02  0.86593097875E+02  0.12584425551E+03  0.00000000000E+00 0.  1.
         11    1    4    4    0    0 -0.20554443979E+02 -0.57516180136E+01  0.21542761307E+01  0.21452440017E+02  0.00000000000E+00 0. -1.
        -13    1    3    3    0    0 -0.20451870231E+02 -0.19419593589E+02 -0.14768109838E+02  0.31835462606E+02  0.00000000000E+00 0. -1.
         13    1    3    3    0    0  0.56481576540E+02  0.20144813433E+02  0.21283400506E+02  0.63631479111E+02  0.00000000000E+00 0.  1.
         -4    1    1    2    0  502 -0.10239760514E+03 -0.22954280282E+02  0.10368179603E+02  0.10544983485E+03  0.00000000000E+00 0.  1.
<scales pt_clust_5="13000.00000" pt_clust_6="13000.00000" pt_clust_7="13000.00000" pt_clust_8="13000.00000" pt_clust_9="83.20062"></scales>
<clustering>
<clus scale="   88.164">  7  8 -1 -1</clus>
<clus scale="   94.453">  5  6 -1 -1</clus>
<clus scale="   95.244">  2  7  1 -1</clus>
<clus scale="   83.201">  1  9  2 -1</clus>
<clus scale="   83.201">  1  5  2 -1</clus>
</clustering>
</event>
<event>
 9    1  0.1881049E-005  0.9905099E+02  0.7546771E-02  0.1283100E+00
          2   -1    0    0  502    0 -0.00000000000E+00  0.00000000000E+00  0.10423523629E+03  0.10423523629E+03  0.00000000000E+00 0. -1.
         21   -1    0    0  501  502  0.00000000000E+00 -0.00000000000E+00 -0.13862929305E+03  0.13862929305E+03  0.00000000000E+00 0.  1.
         23    2    1    2    0    0 -0.54611579212E+01 -0.13708739500E+02  0.17478722479E+02  0.98451711424E+02  0.95757401585E+02 0.  0.
         23    2    1    2    0    0  0.14836906606E+02  0.40233779560E+02 -0.27308704194E+02  0.10706477651E+03  0.94224254999E+02 0.  0.
        -11    1    3    3    0    0  0.18828807883E+02 -0.17793511472E+02 -0.33195824698E+02  0.42108144511E+02  0.00000000000E+00 0.  1.
         11    1    3    3    0    0 -0.24289965805E+02  0.40847719718E+01  0.50674547177E+02  0.56343566912E+02  0.00000000000E+00 0. -1.
        -11    1    4    4    0    0 -0.20660233606E+02  0.50354644482E+02 -0.40525276875E+02  0.67858186974E+02  0.00000000000E+00 0.  1.
         11    1    4    4    0    0  0.35497140212E+02 -0.10120864922E+02  0.13216572681E+02  0.39206589541E+02  0.00000000000E+00 0. -1.
          2    1    1    2  501    0 -0.93757486846E+01 -0.26525040060E+02 -0.24564075045E+02  0.37348041400E+02  0.00000000000E+00 0. -1.
<scales pt_clust_5="13000.00000" pt_clust_6="13000.00000" pt_clust_7="13000.00000" pt_clust_8="13000.00000" pt_clust_9="28.13330"></scales>
<clustering>
<clus scale="   28.133">  2  9  1 -1</clus>
<clus scale="   94.224">  7  8 -1 -1</clus>
<clus scale="   95.757">  5  6 -1 -1</clus>
<clus scale="   97.570">  2  7  1 -1</clus>
<clus scale="   28.133">  2  5  1 -1</clus>
</clustering>
</event>
<event>
 9    1  0.1881049E-005  0.1343911E+03  0.7546771E-02  0.1234733E+00
          1   -1    0    0  502    0 -0.00000000000E+00  0.00000000000E+00  0.33815975531E+03  0.33815975531E+03  0.00000000000E+00 0. -1.
         21   -1    0    0  501  502  0.00000000000E+00 -0.00000000000E+00 -0.13282333773E+03  0.13282333773E+03  0.00000000000E+00 0. -1.
         23    2    1    2    0    0  0.10549893962E+02  0.41944231332E+02  0.18194344658E+03  0.20823235229E+03  0.91578796567E+02 0.  0.
         23    2    1    2    0    0 -0.50966665118E+02  0.56612022875E+02  0.78986226586E+02  0.14259475587E+03  0.91059971037E+02 0.  0.
        -11    1    4    4    0    0  0.17583148030E+02  0.28184966116E+02  0.55633190601E+02  0.64796692092E+02  0.00000000000E+00 0.  1.
         11    1    4    4    0    0 -0.68549813147E+02  0.28427056759E+02  0.23353035985E+02  0.77798063782E+02  0.00000000000E+00 0. -1.
        -13    1    3    3    0    0  0.35849151806E+02  0.21397624743E+01  0.23500557921E+02  0.42918719590E+02  0.00000000000E+00 0.  1.
         13    1    3    3    0    0 -0.25299257843E+02  0.39804468858E+02  0.15844288866E+03  0.16531363270E+03  0.00000000000E+00 0. -1.
          1    1    1    2  501    0  0.40416771155E+02 -0.98556254207E+02 -0.55593255592E+02  0.12015598487E+03  0.00000000000E+00 0. -1.
<scales pt_clust_5="13000.00000" pt_clust_6="13000.00000" pt_clust_7="13000.00000" pt_clust_8="13000.00000" pt_clust_9="98.83848"></scales>
<clustering>
<clus scale="   91.060">  5  6 -1 -1</clus>
<clus scale="   91.579">  7  8 -1 -1</clus>
<clus scale="  101.278">  1  7  2 -1</clus>
<clus scale="   98.838">  2  9  1 -1</clus>
<clus scale="   98.838">  2  5  1 -1</clus>
</clustering>
</event>
<event>
 9    1  0.1881049E-005  0.1032570E+03  0.7546771E-02  0.1276143E+00
         -1   -1    0    0    0  501 -0.00000000000E+00  0.00000000000E+00  0.18144342296E+03  0.18144342296E+03  0.00000000000E+00 0.  1.
         21   -1    0    0  501  502  0.00000000000E+00 -0.00000000000E+00 -0.93248986720E+02  0.93248986720E+02  0.00000000000E+00 0.  1.
         23    2    1    2    0    0 -0.96023262553E+01 -0.44378700415E+02  0.90054200957E+02  0.13225944202E+03  0.85563585551E+02 0.  0.
         23    2    1    2    0    0  0.33479486692E+02  0.47167848698E+02  0.20138150195E+02  0.10984759673E+03  0.91188088223E+02 0.  0.
        -11    1    4    4    0    0 -0.12905215735E+02 -0.21131634324E+02 -0.42413860050E+00  0.24764298010E+02  0.00000000000E+00 0. -1.
         11    1    4    4    0    0  0.46384702427E+02  0.68299483022E+02  0.20562288795E+02  0.85083298718E+02  0.00000000000E+00 0.  1.
        -13    1    3    3    0    0  0.12552830109E+02  0.18295224320E+02  0.49869761224E+02  0.54582798217E+02  0.00000000000E+00 0.  1.
         13    1    3    3    0    0 -0.22155156364E+02 -0.62673924735E+02  0.40184439733E+02  0.77676643799E+02  0.00000000000E+00 0. -1.
         -1    1    1    2    0  502 -0.23877160437E+02 -0.27891482825E+01 -0.21997914910E+02  0.32585370936E+02  0.00000000000E+00 0.  1.
<scales pt_clust_5="13000.00000" pt_clust_6="13000.00000" pt_clust_7="13000.00000" pt_clust_8="13000.00000" pt_clust_9="24.03951"></scales>
<clustering>
<clus scale="   24.040">  2  9  1 -1</clus>
<clus scale="   85.564">  7  8 -1 -1</clus>
<clus scale="   91.188">  5  6 -1 -1</clus>
<clus scale="   98.325">  1  7  2 -1</clus>
<clus scale="   24.040">  2  5  1 -1</clus>
</clustering>
</event>
<event>
 9    1  0.1881049E-005  0.1044048E+03  0.7546771E-02  0.1272057E+00
         21   -1    0    0  501  502  0.00000000000E+00  0.00000000000E+00  0.30778783706E+02  0.30778783706E+02  0.00000000000E+00 0.  1.
          1   -1    0    0  502    0 -0.00000000000E+00 -0.00000000000E+00 -0.47156931655E+03  0.47156931655E+03  0.00000000000E+00 0. -1.
         23    2    1    2    0    0  0.39353175571E+01  0.37634569487E+02 -0.21310616365E+03  0.23518726867E+03  0.92016122579E+02 0.  0.
         23    2    1    2    0    0 -0.93271475325E+01 -0.63428251517E+02 -0.20201027311E+03  0.23037027474E+03  0.90289391794E+02 0.  0.
        -11    1    3    3    0    0 -0.11483024462E+02  0.66015974643E+02 -0.15039913031E+03  0.16465074296E+03  0.00000000000E+00 0. -1.
         11    1    3    3    0    0  0.15418342019E+02 -0.28381405156E+02 -0.62707033340E+02  0.70536525712E+02  0.00000000000E+00 0.  1.
        -11    1    4    4    0    0 -0.41315825983E+02 -0.66804496488E+02 -0.14532367857E+03  0.16519324980E+03  0.00000000000E+00 0.  1.
         11    1    4    4    0    0  0.31988678450E+02  0.33762449709E+01 -0.56686594545E+02  0.65177024941E+02  0.00000000000E+00 0. -1.
          1    1    1    2  501    0  0.53918299753E+01  0.25793682031E+02 -0.25674096079E+02  0.36790556841E+02  0.00000000000E+00 0. -1.
<scales pt_clust_5="13000.00000" pt_clust_6="13000.00000" pt_clust_7="13000.00000" pt_clust_8="13000.00000" pt_clust_9="26.35120"></scales>
<clustering>
<clus scale="   26.351">  1  9  2 -1</clus>
<clus scale="   90.289">  7  8 -1 -1</clus>
<clus scale="   92.016">  5  6 -1 -1</clus>
<clus scale="  102.886">  1  7  2 -1</clus>
<clus scale="   26.351">  1  5  2 -1</clus>
</clustering>
</event>
<event>
 9    1  0.1881049E-005  0.9490708E+02  0.7546771E-02  0.1294620E+00
         21   -1    0    0  501  502  0.00000000000E+00  0.00000000000E+00  0.56625971257E+02  0.56625971257E+02  0.00000000000E+00 0.  1.
          3   -1    0    0  502    0 -0.00000000000E+00 -0.00000000000E+00 -0.25019011919E+03  0.25019011919E+03  0.00000000000E+00 0. -1.
         23    2    1    2    0    0  0.10071847961E+02  0.29787104655E+02 -0.13040751372E+03  0.16126980194E+03  0.89516007837E+02 0.  0.
         23    2    1    2    0    0  0.14936053892E+02 -0.35368264809E+02 -0.18173187279E+02  0.93777040858E+02  0.83605435199E+02 0.  0.
        -11    1    3    3    0    0  0.49422900812E+02  0.24145104165E+02 -0.79656793649E+02  0.96802964594E+02  0.00000000000E+00 0.  1.
         11    1    3    3    0    0 -0.39351052851E+02  0.56420004905E+01 -0.50750720068E+02  0.64466837347E+02  0.00000000000E+00 0. -1.
        -13    1    4    4    0    0 -0.27905674815E+02 -0.20672506390E+02 -0.31161251594E+02  0.46659434290E+02  0.00000000000E+00 0. -1.
         13    1    4    4    0    0  0.42841728707E+02 -0.14695758420E+02  0.12988064315E+02  0.47117606569E+02  0.00000000000E+00 0.  1.
          3    1    1    2  501    0 -0.25007901853E+02  0.55811601543E+01 -0.44983446940E+02  0.51769247651E+02  0.00000000000E+00 0. -1.
<scales pt_clust_5="13000.00000" pt_clust_6="13000.00000" pt_clust_7="13000.00000" pt_clust_8="13000.00000" pt_clust_9="25.62314"></scales>
<clustering>
<clus scale="   25.623">  1  9  2 -1</clus>
<clus scale="   83.605">  7  8 -1 -1</clus>
<clus scale="   89.354">  1  7  2 -1</clus>
<clus scale="   89.516">  5  6 -1 -1</clus>
<clus scale="   25.623">  1  5  2 -1</clus>
</clustering>
</event>
<event>
 9    1  0.1881049E-005  0.1335684E+03  0.7546771E-02  0.1233729E+00
         21   -1    0    0  501  502  0.00000000000E+00  0.00000000000E+00  0.11415102795E+04  0.11415102795E+04  0.00000000000E+00 0.  1.
         -3   -1    0    0    0  501 -0.00000000000E+00 -0.00000000000E+00 -0.41984479367E+02  0.41984479367E+02  0.00000000000E+00 0.  1.
         23    2    1    2    0    0 -0.51569959628E+02 -0.47747765341E+01  0.74645421782E+02  0.12908040731E+03  0.91692711443E+02 0.  0.
         23    2    1    2    0    0 -0.58868033756E+02  0.16596773173E+02  0.27387249249E+03  0.29523772217E+03  0.91751142598E+02 0.  0.
        -11    1    4    4    0    0 -0.59492217651E+02  0.45116507958E+02  0.23781482083E+03  0.24926033030E+03  0.00000000000E+00 0.  1.
         11    1    4    4    0    0  0.62418389455E+00 -0.28519734785E+02  0.36057671660E+02  0.45977391871E+02  0.00000000000E+00 0. -1.
        -13    1    3    3    0    0  0.27091668566E-01 -0.36573259596E+02  0.52568646520E+01  0.36949136355E+02  0.00000000000E+00 0.  1.
         13    1    3    3    0    0 -0.51597051297E+02  0.31798483062E+02  0.69388557130E+02  0.92131270957E+02  0.00000000000E+00 0. -1.
         -3    1    1    2    0  502  0.11043799338E+03 -0.11821996639E+02  0.75100788581E+03  0.75917662934E+03  0.00000000000E+00 0.  1.
<scales pt_clust_5="13000.00000" pt_clust_6="13000.00000" pt_clust_7="13000.00000" pt_clust_8="13000.00000" pt_clust_9="97.06821"></scales>
<clustering>
<clus scale="   91.693">  7  8 -1 -1</clus>
<clus scale="   91.751">  5  6 -1 -1</clus>
<clus scale="  105.308">  2  7  1 -1</clus>
<clus scale="   97.068">  1  9  2 -1</clus>
<clus scale="   97.068">  1  5  2 -1</clus>
</clustering>
</event>
<event>
 9    1  0.1881049E-005  0.1120662E+03  0.7546771E-02  0.1257662E+00
          2   -1    0    0  502    0 -0.00000000000E+00  0.00000000000E+00  0.51148505814E+03  0.51148505814E+03  0.00000000000E+00 0. -1.
         21   -1    0    0  501  502  0.00000000000E+00 -0.00000000000E+00 -0.66704138282E+02  0.66704138282E+02  0.00000000000E+00 0. -1.
         23    2    1    2    0    0 -0.54268221572E+02  0.31395119239E+02  0.27925385979E+03  0.30127143556E+03  0.94080105697E+02 0.  0.
         23    2    1    2    0    0  0.33875145974E+02 -0.52514904566E+02  0.20174905194E+03  0.23029206451E+03  0.91795502599E+02 0.  0.
        -13    1    4    4    0    0 -0.61082611893E+01 -0.52321213964E+02  0.17354054391E+03  0.18135914829E+03  0.00000000000E+00 0. -1.
         13    1    4    4    0    0  0.39983407163E+02 -0.19369060265E+00  0.28208508032E+02  0.48932916220E+02  0.00000000000E+00 0.  1.
        -13    1    3    3    0    0 -0.16468980484E+01 -0.24017135006E+02  0.14334504759E+03  0.14535246030E+03  0.00000000000E+00 0.  1.
         13    1    3    3    0    0 -0.52621323524E+02  0.55412254246E+02  0.13590881220E+03  0.15591897525E+03  0.00000000000E+00 0. -1.
          2    1    1    2  501    0  0.20393075599E+02  0.21119785327E+02 -0.36221991884E+02  0.46625696356E+02  0.00000000000E+00 0. -1.
<scales pt_clust_5="13000.00000" pt_clust_6="13000.00000" pt_clust_7="13000.00000" pt_clust_8="13000.00000" pt_clust_9="29.35852"></scales>
<clustering>
<clus scale="   29.359">  2  9  1 -1</clus>
<clus scale="   91.796">  5  6 -1 -1</clus>
<clus scale="   94.080">  7  8 -1 -1</clus>
<clus scale="  110.155">  2  5  1 -1</clus>
<clus scale="   29.359">  2  5  1 -1</clus>
</clustering>
</event>
<event>
 9    1  0.1881049E-005  0.2233366E+03  0.7546771E-02  0.1131745E+00
          2   -1    0    0  502    0 -0.00000000000E+00  0.00000000000E+00  0.74766653033E+03  0.74766653033E+03  0.00000000000E+00 0. -1.
         21   -1    0    0  501  502  0.00000000000E+00 -0.00000000000E+00 -0.11367135265E+03  0.11367135265E+03  0.00000000000E+00 0. -1.
         23    2    1    2    0    0 -0.12744647866E+03  0.14293808458E+03  0.34862906399E+03  0.40801045429E+03  0.90864765501E+02 0.  0.
         23    2    1    2    0    0  0.17721623132E+03 -0.15010641719E+03  0.11566701613E+03  0.27633534697E+03  0.95104343969E+02 0.  0.
        -13    1    4    4    0    0  0.56672427491E+02  0.15733689585E+01  0.33780980338E+02  0.65995410144E+02  0.00000000000E+00 0.  1.
         13    1    4    4    0    0  0.12054380383E+03 -0.15167978615E+03  0.81886035790E+02  0.21033993683E+03  0.00000000000E+00 0. -1.
        -13    1    3    3    0    0 -0.85210227134E+02  0.28489794230E+02  0.15489566102E+03  0.17906735322E+03  0.00000000000E+00 0.  1.
         13    1    3    3    0    0 -0.42236251523E+02  0.11444829035E+03  0.19373340296E+03  0.22894310108E+03  0.00000000000E+00 0. -1.
          2    1    1    2  501    0 -0.49769752668E+02  0.71683326065E+01  0.16969909756E+03  0.17699208171E+03  0.00000000000E+00 0. -1.
<scales pt_clust_5="13000.00000" pt_clust_6="13000.00000" pt_clust_7="13000.00000" pt_clust_8="13000.00000" pt_clust_9="50.28336"></scales>
<clustering>
<clus scale="   50.283">  2  9  1 -1</clus>
<clus scale="   90.865">  7  8 -1 -1</clus>
<clus scale="   95.104">  5  6 -1 -1</clus>
<clus scale="  221.564">  1  7  2 -1</clus>
<clus scale="   50.283">  2  5  1 -1</clus>
</clustering>
</event>
<event>
 9    1  0.1881049E-005  0.1292653E+03  0.7546771E-02  0.1229992E+00
          2   -1    0    0  502    0 -0.00000000000E+00  0.00000000000E+00  0.93674385099E+03  0.93674385099E+03  0.00000000000E+00 0. -1.
         21   -1    0    0  501  502  0.00000000000E+00 -0.00000000000E+00 -0.27332927271E+02  0.27332927271E+02  0.00000000000E+00 0. -1.
         23    2    1    2    0    0  0.92022145246E+02  0.46252253723E+02  0.51232321782E+03  0.53146073626E+03  0.96788886135E+02 0.  0.
         23    2    1    2    0    0 -0.71796463193E+02  0.22511384680E+00  0.31836282040E+03  0.33898468236E+03  0.91656678206E+02 0.  0.
        -11    1    4    4    0    0 -0.38261367204E+02 -0.45464004708E+02  0.15013307588E+03  0.16146469713E+03  0.00000000000E+00 0.  1.
         11    1    4    4    0    0 -0.33535095990E+02  0.45689118555E+02  0.16822974452E+03  0.17751998523E+03  0.00000000000E+00 0. -1.
        -13    1    3    3    0    0 -0.16979617990E+02  0.13188240834E+02  0.38080912379E+02  0.43730915964E+02  0.00000000000E+00 0.  1.
         13    1    3    3    0    0  0.10900176324E+03  0.33064012888E+02  0.47424230544E+03  0.48772982030E+03  0.00000000000E+00 0. -1.
          2    1    1    2  501    0 -0.20225682052E+02 -0.46477367569E+02  0.78724885494E+02  0.93631359633E+02  0.00000000000E+00 0. -1.
<scales pt_clust_5="13000.00000" pt_clust_6="13000.00000" pt_clust_7="13000.00000" pt_clust_8="13000.00000" pt_clust_9="50.68751"></scales>
<clustering>
<clus scale="   50.688">  2  9  1 -1</clus>
<clus scale="   91.657">  5  6 -1 -1</clus>
<clus scale="   96.789">  7  8 -1 -1</clus>
<clus scale="  125.469">  2  5  1 -1</clus>
<clus scale="   50.688">  2  5  1 -1</clus>
</clustering>
</event>
<event>
 9    1  0.1881049E-005  0.1076094E+03  0.7546771E-02  0.1265569E+00
         21   -1    0    0  501  502  0.00000000000E+00  0.00000000000E+00  0.85213924141E+02  0.85213924141E+02  0.00000000000E+00 0. -1.
         -1   -1    0    0    0  501 -0.00000000000E+00 -0.00000000000E+00 -0.22663437962E+03  0.22663437962E+03  0.00000000000E+00 0.  1.
         23    2    1    2    0    0 -0.38780714663E+02 -0.48569210785E+02 -0.13182394464E+03  0.17232073274E+03  0.91945475615E+02 0.  0.
         23    2    1    2    0    0  0.17525988925E+02  0.33696970581E+02  0.19812655960E+02  0.10031219155E+03  0.90704731541E+02 0.  0.
        -11    1    3    3    0    0  0.24794573107E+02 -0.30874365334E+01 -0.86588065781E+01  0.26443866042E+02  0.00000000000E+00 0. -1.
         11    1    3    3    0    0 -0.63575287771E+02 -0.45481774252E+02 -0.12316513806E+03  0.14587686670E+03  0.00000000000E+00 0.  1.
        -11    1    4    4    0    0 -0.21265743187E+02 -0.14349772908E+02 -0.14702856321E+02  0.29568933018E+02  0.00000000000E+00 0.  1.
         11    1    4    4    0    0  0.38791732113E+02  0.48046743489E+02  0.34515512282E+02  0.70743258536E+02  0.00000000000E+00 0. -1.
         -1    1    1    2    0  502  0.21254725738E+02  0.14872240204E+02 -0.29409166803E+02  0.39215379469E+02  0.00000000000E+00 0.  1.
<scales pt_clust_5="13000.00000" pt_clust_6="13000.00000" pt_clust_7="13000.00000" pt_clust_8="13000.00000" pt_clust_9="25.94123"></scales>
<clustering>
<clus scale="   25.941">  1  9  2 -1</clus>
<clus scale="   90.705">  7  8 -1 -1</clus>
<clus scale="   91.945">  5  6 -1 -1</clus>
<clus scale="  106.551">  1  7  2 -1</clus>
<clus scale="   25.941">  1  5  2 -1</clus>
</clustering>
</event>
<event>
 9    1  0.1881049E-005  0.1059724E+03  0.7546771E-02  0.1276882E+00
         21   -1    0    0  501  502  0.00000000000E+00  0.00000000000E+00  0.93366849147E+02  0.93366849147E+02  0.00000000000E+00 0.  1.
          2   -1    0    0  502    0 -0.00000000000E+00 -0.00000000000E+00 -0.23012144771E+03  0.23012144771E+03  0.00000000000E+00 0. -1.
         23    2    1    2    0    0 -0.16892542225E+02 -0.25775831285E+02 -0.16114350516E+03  0.18520204225E+03  0.85923313105E+02 0.  0.
         23    2    1    2    0    0 -0.83978109312E+01  0.60809431673E+01  0.12450202639E+02  0.10408065224E+03  0.10281183554E+03 0.  0.
        -11    1    3    3    0    0 -0.39947196784E+02 -0.20978825946E+02 -0.35613172794E+02  0.57482064554E+02  0.00000000000E+00 0.  1.
         11    1    3    3    0    0  0.23054654559E+02 -0.47970053389E+01 -0.12553033237E+03  0.12771997769E+03  0.00000000000E+00 0. -1.
        -13    1    4    4    0    0 -0.62396409590E+01  0.38857511837E+02  0.43653660460E+02  0.58774836597E+02  0.00000000000E+00 0.  1.
         13    1    4    4    0    0 -0.21581699721E+01 -0.32776568669E+02 -0.31203457821E+02  0.45305815646E+02  0.00000000000E+00 0. -1.
          2    1    1    2  501    0  0.25290353156E+02  0.19694888117E+02  0.11938703965E+02  0.34205602364E+02  0.00000000000E+00 0. -1.
<scales pt_clust_5="13000.00000" pt_clust_6="13000.00000" pt_clust_7="13000.00000" pt_clust_8="13000.00000" pt_clust_9="32.05449"></scales>
<clustering>
<clus scale="   32.054">  1  9  2 -1</clus>
<clus scale="   85.923">  5  6 -1 -1</clus>
<clus scale="   89.681">  2  5  1 -1</clus>
<clus scale="  102.812">  7  8 -1 -1</clus>
<clus scale="   32.054">  1  5  2 -1</clus>
</clustering>
</event>
<event>
 9    1  0.1881049E-005  0.1030915E+03  0.7546771E-02  0.1280516E+00
         21   -1    0    0  501  502  0.00000000000E+00  0.00000000000E+00  0.64705574061E+02  0.64705574061E+02  0.00000000000E+00 0. -1.
         -1   -1    0    0    0  501 -0.00000000000E+00 -0.00000000000E+00 -0.25797501755E+03  0.25797501755E+03  0.00000000000E+00 0.  1.
         23    2    1    2    0    0 -0.16691412728E+02  0.15987932988E+02 -0.14372342085E+03  0.17647150954E+03  0.99757479497E+02 0.  0.
         23    2    1    2    0    0 -0.25737167898E+01 -0.37256598481E+02 -0.63731766474E+02  0.11419757359E+03  0.87090008659E+02 0.  0.
        -11    1    4    4    0    0  0.20648563931E+02  0.16161126260E+02  0.20900320480E+01  0.26304247345E+02  0.00000000000E+00 0.  1.
         11    1    4    4    0    0 -0.23222280721E+02 -0.53417724741E+02 -0.65821798522E+02  0.87893326249E+02  0.00000000000E+00 0. -1.
        -13    1    3    3    0    0 -0.66088269241E+01  0.52601465120E+02 -0.41204107034E+02  0.67144390402E+02  0.00000000000E+00 0.  1.
         13    1    3    3    0    0 -0.10082585804E+02 -0.36613532132E+02 -0.10251931382E+03  0.10932711913E+03  0.00000000000E+00 0. -1.
         -1    1    1    2    0  502  0.19265129517E+02  0.21268665493E+02  0.14185743837E+02  0.32011508484E+02  0.00000000000E+00 0.  1.
<scales pt_clust_5="13000.00000" pt_clust_6="13000.00000" pt_clust_7="13000.00000" pt_clust_8="13000.00000" pt_clust_9="28.69671"></scales>
<clustering>
<clus scale="   28.697">  1  9  2 -1</clus>
<clus scale="   87.090">  5  6 -1 -1</clus>
<clus scale="   90.890">  1  5  2 -1</clus>
<clus scale="   99.757">  7  8 -1 -1</clus>
<clus scale="   28.697">  1  5  2 -1</clus>
</clustering>
</event>
<event>
 9    1  0.1881049E-005  0.1120409E+03  0.7546771E-02  0.1257039E+00
          1   -1    0    0  502    0 -0.00000000000E+00  0.00000000000E+00  0.72407690376E+03  0.72407690376E+03  0.00000000000E+00 0. -1.
         21   -1    0    0  501  502  0.00000000000E+00 -0.00000000000E+00 -0.67318252681E+02  0.67318252681E+02  0.00000000000E+00 0. -1.
         23    2    1    2    0    0  0.74358295498E+02  0.10787373655E+02  0.44777944949E+03  0.46315730667E+03  0.91447973162E+02 0.  0.
         23    2    1    2    0    0 -0.37304978982E+02  0.73472970093E+02  0.20146612448E+03  0.23588418108E+03  0.90899993286E+02 0.  0.
        -13    1    3    3    0    0  0.64484579082E+02  0.43772277519E+02  0.36965984857E+03  0.37778654934E+03  0.00000000000E+00 0. -1.
         13    1    3    3    0    0  0.98737164161E+01 -0.32984903864E+02  0.78119600920E+02  0.85370757327E+02  0.00000000000E+00 0.  1.
        -13    1    4    4    0    0 -0.48178198419E+02  0.23312356491E+01  0.10482364970E+03  0.11538878195E+03  0.00000000000E+00 0.  1.
         13    1    4    4    0    0  0.10873219437E+02  0.71141734444E+02  0.96642474774E+02  0.12049539913E+03  0.00000000000E+00 0. -1.
          1    1    1    2  501    0 -0.37053316516E+02 -0.84260343748E+02  0.75130771090E+01  0.92353668693E+02  0.00000000000E+00 0. -1.
<scales pt_clust_5="13000.00000" pt_clust_6="13000.00000" pt_clust_7="13000.00000" pt_clust_8="13000.00000" pt_clust_9="92.04756"></scales>
<clustering>
<clus scale="   90.900">  7  8 -1 -1</clus>
<clus scale="   91.448">  5  6 -1 -1</clus>
<clus scale="   92.048">  2  9  1 -1</clus>
<clus scale="  111.594">  2  7  1 -1</clus>
<clus scale="   92.048">  2  5  1 -1</clus>
</clustering>
</event>
<event>
 9    1  0.1881049E-005  0.1378621E+03  0.7546771E-02  0.1216885E+00
         21   -1    0    0  501  502  0.00000000000E+00  0.00000000000E+00  0.43548000974E+03  0.43548000974E+03  0.00000000000E+00 0. -1.
          2   -1    0    0  502    0 -0.00000000000E+00 -0.00000000000E+00 -0.75743681524E+02  0.75743681524E+02  0.00000000000E+00 0. -1.
         23    2    1    2    0    0 -0.65980908918E+02 -0.83102736319E+02  0.55778160584E+02  0.15078457502E+03  0.91461684549E+02 0.  0.
         23    2    1    2    0    0  0.92714287494E+02  0.47068820535E+02  0.16388359260E+03  0.21335409598E+03  0.88604319165E+02 0.  0.
        -11    1    4    4    0    0  0.26705190594E+02  0.57584670662E+02  0.11200913402E+03  0.12874473816E+03  0.00000000000E+00 0. -1.
         11    1    4    4    0    0  0.66009096900E+02 -0.10515850126E+02  0.51874458584E+02  0.84609357821E+02  0.00000000000E+00 0.  1.
        -13    1    3    3    0    0 -0.20820870502E+02 -0.90968739774E+02  0.45427463078E+02  0.10379053264E+03  0.00000000000E+00 0. -1.
         13    1    3    3    0    0 -0.45160038417E+02  0.78660034548E+01  0.10350697507E+02  0.46994042378E+02  0.00000000000E+00 0.  1.
          2    1    1    2  501    0 -0.26733378575E+02  0.36033915784E+02  0.14007457503E+03  0.14708502027E+03  0.00000000000E+00 0. -1.
<scales pt_clust_5="13000.00000" pt_clust_6="13000.00000" pt_clust_7="13000.00000" pt_clust_8="13000.00000" pt_clust_9="44.86777"></scales>
<clustering>
<clus scale="   44.868">  1  9  2 -1</clus>
<clus scale="   88.604">  5  6 -1 -1</clus>
<clus scale="   91.462">  7  8 -1 -1</clus>
<clus scale="  135.983">  1  5  2 -1</clus>
<clus scale="   44.868">  1  5  2 -1</clus>
</clustering>
</event>
<event>
 9    1  0.1881049E-005  0.1274868E+03  0.7546771E-02  0.1231341E+00
         21   -1    0    0  501  502  0.00000000000E+00  0.00000000000E+00  0.37674650313E+03  0.37674650313E+03  0.00000000000E+00 0.  1.
          1   -1    0    0  502    0 -0.00000000000E+00 -0.00000000000E+00 -0.65528028240E+02  0.65528028240E+02  0.00000000000E+00 0. -1.
         23    2    1    2    0    0  0.43209187116E+02 -0.53198889035E+02  0.11042227303E+03  0.15831607835E+03  0.90408775219E+02 0.  0.
         23    2    1    2    0    0 -0.59178423068E+02  0.96689812584E+02  0.10923032299E+03  0.18133882965E+03  0.90008344408E+02 0.  0.
        -11    1    3    3    0    0  0.31811211333E+02  0.39562798176E+01  0.91638019367E+02  0.97083118564E+02  0.00000000000E+00 0.  1.
         11    1    3    3    0    0  0.11397975783E+02 -0.57155168852E+02  0.18784253667E+02  0.61232959787E+02  0.00000000000E+00 0. -1.
        -13    1    4    4    0    0  0.15099107963E+02  0.14178492413E+02 -0.57626969423E+01  0.21499334511E+02  0.00000000000E+00 0.  1.
         13    1    4    4    0    0 -0.74277531031E+02  0.82511320171E+02  0.11499301993E+03  0.15983949514E+03  0.00000000000E+00 0. -1.
          1    1    1    2  501    0  0.15969235952E+02 -0.43490923549E+02  0.91565878864E+02  0.10261962337E+03  0.00000000000E+00 0. -1.
<scales pt_clust_5="13000.00000" pt_clust_6="13000.00000" pt_clust_7="13000.00000" pt_clust_8="13000.00000" pt_clust_9="46.33009"></scales>
<clustering>
<clus scale="   46.330">  1  9  2 -1</clus>
<clus scale="   90.008">  7  8 -1 -1</clus>
<clus scale="   90.409">  5  6 -1 -1</clus>
<clus scale="  127.203">  1  7  2 -1</clus>
<clus scale="   46.330">  1  5  2 -1</clus>
</clustering>
</event>
<event>
 9    1  0.1881049E-005  0.1289731E+03  0.7546771E-02  0.1245759E+00
         -4   -1    0    0    0  501 -0.00000000000E+00  0.00000000000E+00  0.72541268666E+03  0.72541268666E+03  0.00000000000E+00 0.  1.
         21   -1    0    0  501  502  0.00000000000E+00 -0.00000000000E+00 -0.58175960624E+02  0.58175960624E+02  0.00000000000E+00 0.  1.
         23    2    1    2    0    0  0.10280193457E+02  0.16468940143E+02  0.49505044811E+03  0.50345452439E+03  0.89524318460E+02 0.  0.
         23    2    1    2    0    0  0.52710942529E+02  0.59007616184E+02  0.11191569450E+03  0.16482091032E+03  0.91544893746E+02 0.  0.
        -11    1    4    4    0    0  0.32842021465E+02 -0.20712786016E+02  0.34834172413E+02  0.52163564354E+02  0.00000000000E+00 0. -1.
         11    1    4    4    0    0  0.19868921065E+02  0.79720402200E+02  0.77081522091E+02  0.11265734596E+03  0.00000000000E+00 0.  1.
        -13    1    3    3    0    0 -0.39768625201E+02  0.98703474207E+01  0.23610774239E+03  0.23963687805E+03  0.00000000000E+00 0. -1.
         13    1    3    3    0    0  0.50048818658E+02  0.65985927228E+01  0.25894270572E+03  0.26381764634E+03  0.00000000000E+00 0.  1.
         -4    1    1    2    0  502 -0.62991135986E+02 -0.75476556327E+02  0.60270583429E+02  0.11531321258E+03  0.00000000000E+00 0.  1.
<scales pt_clust_5="13000.00000" pt_clust_6="13000.00000" pt_clust_7="13000.00000" pt_clust_8="13000.00000" pt_clust_9="90.84933"></scales>
<clustering>
<clus scale="   89.524">  7  8 -1 -1</clus>
<clus scale="   91.545">  5  6 -1 -1</clus>
<clus scale="   91.605">  1  7  2 -1</clus>
<clus scale="   90.849">  2  9  1 -1</clus>
<clus scale="   90.849">  2  5  1 -1</clus>
</clustering>
</event>
<event>
 9    1  0.1881049E-005  0.1014237E+03  0.7546771E-02  0.1279522E+00
         21   -1    0    0  501  502  0.00000000000E+00  0.00000000000E+00  0.84520409555E+02  0.84520409555E+02  0.00000000000E+00 0.  1.
          1   -1    0    0  502    0 -0.00000000000E+00 -0.00000000000E+00 -0.30048529791E+03  0.30048529791E+03  0.00000000000E+00 0. -1.
         23    2    1    2    0    0  0.74144296768E+01 -0.43486017315E+02 -0.16372944688E+03  0.19253019000E+03  0.91184071072E+02 0.  0.
         23    2    1    2    0    0  0.50384822260E+02 -0.95641146649E+00 -0.10789319071E+02  0.10860857485E+03  0.95602657331E+02 0.  0.
        -11    1    4    4    0    0  0.18022988165E+01  0.41081730537E+02  0.75242924635E+01  0.41803969214E+02  0.00000000000E+00 0. -1.
         11    1    4    4    0    0  0.48582523444E+02 -0.42038142004E+02 -0.18313611534E+02  0.66804605640E+02  0.00000000000E+00 0.  1.
        -13    1    3    3    0    0  0.27532590027E+02  0.18205199816E+02 -0.33493357516E+02  0.47024225795E+02  0.00000000000E+00 0.  1.
         13    1    3    3    0    0 -0.20118160350E+02 -0.61691217131E+02 -0.13023608936E+03  0.14550596421E+03  0.00000000000E+00 0. -1.
          1    1    1    2  501    0 -0.57799251937E+02  0.44442428782E+02 -0.41446122407E+02  0.83866942612E+02  0.00000000000E+00 0. -1.
<scales pt_clust_5="13000.00000" pt_clust_6="13000.00000" pt_clust_7="13000.00000" pt_clust_8="13000.00000" pt_clust_9="72.91010"></scales>
<clustering>
<clus scale="   72.910">  1  9  2 -1</clus>
<clus scale="   91.184">  7  8 -1 -1</clus>
<clus scale="   95.603">  5  6 -1 -1</clus>
<clus scale="   97.270">  2  7  1 -1</clus>
<clus scale="   72.910">  1  5  2 -1</clus>
</clustering>
</event>
<event>
 9    1  0.1881049E-005  0.1049749E+03  0.7546771E-02  0.1272358E+00
         21   -1    0    0  501  502  0.00000000000E+00  0.00000000000E+00  0.28315604187E+03  0.28315604187E+03  0.00000000000E+00 0. -1.
          2   -1    0    0  502    0 -0.00000000000E+00 -0.00000000000E+00 -0.88189860320E+02  0.88189860320E+02  0.00000000000E+00 0. -1.
         23    2    1    2    0    0  0.39607064647E+02  0.46745638101E+02 -0.13209345576E+02  0.11385566864E+03  0.95051313614E+02 0.  0.
         23    2    1    2    0    0  0.12394488757E+01 -0.12566918765E+01  0.11838676188E+03  0.14886378990E+03  0.90232405746E+02 0.  0.
        -11    1    4    4    0    0 -0.49667139510E+01 -0.45389587290E+02  0.58266271614E+02  0.74025950110E+02  0.00000000000E+00 0.  1.
         11    1    4    4    0    0  0.62061628267E+01  0.44132895413E+02  0.60120490263E+02  0.74837839787E+02  0.00000000000E+00 0. -1.
        -13    1    3    3    0    0 -0.17563223559E+02  0.52684003368E+02 -0.44251941599E+01  0.55710442253E+02  0.00000000000E+00 0.  1.
         13    1    3    3    0    0  0.57170288206E+02 -0.59383652672E+01 -0.87841514157E+01  0.58145226388E+02  0.00000000000E+00 0. -1.
          2    1    1    2  501    0 -0.40846513523E+02 -0.45488946224E+02  0.89788765250E+02  0.10862644365E+03  0.00000000000E+00 0. -1.
<scales pt_clust_5="13000.00000" pt_clust_6="13000.00000" pt_clust_7="13000.00000" pt_clust_8="13000.00000" pt_clust_9="61.13658"></scales>
<clustering>
<clus scale="   61.137">  1  9  2 -1</clus>
<clus scale="   90.232">  5  6 -1 -1</clus>
<clus scale="   95.051">  7  8 -1 -1</clus>
<clus scale="  100.632">  1  5  2 -1</clus>
<clus scale="   61.137">  1  5  2 -1</clus>
</clustering>
</event>
<event>
 9    1  0.1881049E-005  0.1120391E+03  0.7546771E-02  0.1257029E+00
         21   -1    0    0  501  502  0.00000000000E+00  0.00000000000E+00  0.45556955359E+03  0.45556955359E+03  0.00000000000E+00 0. -1.
          1   -1    0    0  502    0 -0.00000000000E+00 -0.00000000000E+00 -0.11755655040E+03  0.11755655040E+03  0.00000000000E+00 0. -1.
         23    2    1    2    0    0 -0.60231184512E+02 -0.12515063237E+02 -0.57828726445E+02  0.12438141494E+03  0.91335384079E+02 0.  0.
         23    2    1    2    0    0  0.88050509454E+02 -0.29886467551E+02  0.15343093234E+03  0.20108605443E+03  0.90821017013E+02 0.  0.
        -11    1    4    4    0    0  0.29724736566E+02 -0.46863714036E+02  0.28993640302E+02  0.62613088369E+02  0.00000000000E+00 0. -1.
         11    1    4    4    0    0  0.58325772888E+02  0.16977246484E+02  0.12443729203E+03  0.13847296606E+03  0.00000000000E+00 0.  1.
        -13    1    3    3    0    0 -0.40078512603E+02  0.49767565984E+01  0.17835610093E+02  0.44149340494E+02  0.00000000000E+00 0.  1.
         13    1    3    3    0    0 -0.20152671909E+02 -0.17491819836E+02 -0.75664336538E+02  0.80232074446E+02  0.00000000000E+00 0. -1.
          1    1    1    2  501    0 -0.27819324942E+02  0.42401530789E+02  0.24241079730E+03  0.24765863462E+03  0.00000000000E+00 0. -1.
<scales pt_clust_5="13000.00000" pt_clust_6="13000.00000" pt_clust_7="13000.00000" pt_clust_8="13000.00000" pt_clust_9="50.71296"></scales>
<clustering>
<clus scale="   50.713">  1  9  2 -1</clus>
<clus scale="   90.821">  5  6 -1 -1</clus>
<clus scale="   91.335">  7  8 -1 -1</clus>
<clus scale="  111.620">  1  5  2 -1</clus>
<clus scale="   50.713">  1  5  2 -1</clus>
</clustering>
</event>
<event>
 9    1  0.1881049E-005  0.2751148E+03  0.7546771E-02  0.1140683E+00
         21   -1    0    0  501  502  0.00000000000E+00  0.00000000000E+00  0.15052604025E+03  0.15052604025E+03  0.00000000000E+00 0. -1.
          1   -1    0    0  502    0 -0.00000000000E+00 -0.00000000000E+00 -0.86891645193E+03  0.86891645193E+03  0.00000000000E+00 0. -1.
         23    2    1    2    0    0  0.33369502542E+02  0.86279407881E+01 -0.55568483897E+02  0.11040726185E+03  0.88960339501E+02 0.  0.
         23    2    1    2    0    0 -0.17634614854E+03  0.20567354352E+03 -0.56615135798E+03  0.63387591913E+03  0.88722883721E+02 0.  0.
        -11    1    3    3    0    0  0.57318700388E+02 -0.17437058658E+02 -0.37291908580E+02  0.70570325735E+02  0.00000000000E+00 0. -1.
         11    1    3    3    0    0 -0.23949197846E+02  0.26064999447E+02 -0.18276575318E+02  0.39836936114E+02  0.00000000000E+00 0.  1.
        -13    1    4    4    0    0 -0.10595131114E+02  0.41388451897E+02 -0.41040346188E+02  0.59241630371E+02  0.00000000000E+00 0.  1.
         13    1    4    4    0    0 -0.16575101742E+03  0.16428509162E+03 -0.52511101180E+03  0.57463428876E+03  0.00000000000E+00 0. -1.
          1    1    1    2  501    0  0.14297664600E+03 -0.21430148430E+03 -0.96670569796E+02  0.27515931120E+03  0.00000000000E+00 0. -1.
<scales pt_clust_5="13000.00000" pt_clust_6="13000.00000" pt_clust_7="13000.00000" pt_clust_8="13000.00000" pt_clust_9="260.41579"></scales>
<clustering>
<clus scale="   88.723">  7  8 -1 -1</clus>
<clus scale="   88.960">  5  6 -1 -1</clus>
<clus scale="   95.404">  2  5  1 -1</clus>
<clus scale="  260.416">  1  9  2 -1</clus>
<clus scale="  260.416">  1  5  2 -1</clus>
</clustering>
</event>
<event>
 9    1  0.1881049E-005  0.1000724E+03  0.7546771E-02  0.1281408E+00
         21   -1    0    0  501  502  0.00000000000E+00  0.00000000000E+00  0.48495901965E+02  0.48495901965E+02  0.00000000000E+00 0.  1.
          1   -1    0    0  502    0 -0.00000000000E+00 -0.00000000000E+00 -0.64288957769E+03  0.64288957769E+03  0.00000000000E+00 0. -1.
         23    2    1    2    0    0 -0.31022274104E+01  0.22160401291E+02 -0.39339633122E+03  0.40541777046E+03  0.95405387612E+02 0.  0.
         23    2    1    2    0    0  0.50852923133E+02 -0.29471342317E+02 -0.20980417934E+03  0.23686435758E+03  0.92910442964E+02 0.  0.
        -13    1    4    4    0    0  0.41751177329E+02 -0.60848820483E+02 -0.11550755170E+03  0.13706835617E+03  0.00000000000E+00 0.  1.
         13    1    4    4    0    0  0.91017458033E+01  0.31377478166E+02 -0.94296627644E+02  0.99796001412E+02  0.00000000000E+00 0. -1.
        -13    1    3    3    0    0  0.64246517871E+01 -0.31983575657E+02 -0.68122089119E+02  0.75530419622E+02  0.00000000000E+00 0.  1.
         13    1    3    3    0    0 -0.95268791975E+01  0.54143976948E+02 -0.32527424210E+03  0.32988735084E+03  0.00000000000E+00 0. -1.
          1    1    1    2  501    0 -0.47750695722E+02  0.73109410261E+01  0.88068348366E+01  0.49103351622E+02  0.00000000000E+00 0. -1.
<scales pt_clust_5="13000.00000" pt_clust_6="13000.00000" pt_clust_7="13000.00000" pt_clust_8="13000.00000" pt_clust_9="48.30713"></scales>
<clustering>
<clus scale="   48.307">  1  9  2 -1</clus>
<clus scale="   92.910">  5  6 -1 -1</clus>
<clus scale="   95.405">  7  8 -1 -1</clus>
<clus scale="   97.697">  1  5  2 -1</clus>
<clus scale="   48.307">  1  5  2 -1</clus>
</clustering>
</event>
<event>
 9    1  0.1881049E-005  0.1085535E+03  0.7546771E-02  0.1263461E+00
         21   -1    0    0  501  502  0.00000000000E+00  0.00000000000E+00  0.52527526176E+02  0.52527526176E+02  0.00000000000E+00 0. -1.
         -3   -1    0    0    0  501 -0.00000000000E+00 -0.00000000000E+00 -0.42578991980E+03  0.42578991980E+03  0.00000000000E+00 0.  1.
         23    2    1    2    0    0  0.61053639265E+02 -0.24364770179E+02 -0.21234970287E+03  0.24019674848E+03  0.90999410876E+02 0.  0.
         23    2    1    2    0    0 -0.41957509527E+02  0.33686354305E+02 -0.18066017651E+03  0.20911177999E+03  0.90523113536E+02 0.  0.
        -11    1    4    4    0    0 -0.48084371547E+02 -0.17451106681E+02 -0.11334967123E+03  0.12435753246E+03  0.00000000000E+00 0.  1.
         11    1    4    4    0    0  0.61268620205E+01  0.51137460986E+02 -0.67310505278E+02  0.84754247535E+02  0.00000000000E+00 0. -1.
        -13    1    3    3    0    0  0.15906889959E+02 -0.55291982415E+02 -0.10912243230E+03  0.12336100558E+03  0.00000000000E+00 0.  1.
         13    1    3    3    0    0  0.45146749306E+02  0.30927212236E+02 -0.10322727057E+03  0.11683574290E+03  0.00000000000E+00 0. -1.
         -3    1    1    2    0  502 -0.19096129738E+02 -0.93215841259E+01  0.19747485746E+02  0.29008917506E+02  0.00000000000E+00 0.  1.
<scales pt_clust_5="13000.00000" pt_clust_6="13000.00000" pt_clust_7="13000.00000" pt_clust_8="13000.00000" pt_clust_9="21.24980"></scales>
<clustering>
<clus scale="   21.250">  1  9  2 -1</clus>
<clus scale="   90.523">  5  6 -1 -1</clus>
<clus scale="   90.999">  7  8 -1 -1</clus>
<clus scale="  108.155">  1  5  2 -1</clus>
<clus scale="   21.250">  1  5  2 -1</clus>
</clustering>
</event>
<event>
 9    1  0.1881049E-005  0.1360178E+03  0.7546771E-02  0.1229400E+00
          1   -1    0    0  502    0 -0.00000000000E+00  0.00000000000E+00  0.87149530536E+03  0.87149530536E+03  0.00000000000E+00 0. -1.
         21   -1    0    0  501  502  0.00000000000E+00 -0.00000000000E+00 -0.36207676405E+02  0.36207676405E+02  0.00000000000E+00 0.  1.
         23    2    1    2    0    0  0.55066937792E+02  0.24698891876E+02  0.24497836899E+03  0.26814088268E+03  0.90789475107E+02 0.  0.
         23    2    1    2    0    0  0.63981301124E+02 -0.10924531780E+02  0.39130054471E+03  0.40725479199E+03  0.92343906245E+02 0.  0.
        -11    1    4    4    0    0 -0.22759806855E+02 -0.12229512063E+02  0.78159762451E+02  0.82319610299E+02  0.00000000000E+00 0. -1.
         11    1    4    4    0    0  0.86741107979E+02  0.13049802835E+01  0.31314078226E+03  0.32493518169E+03  0.00000000000E+00 0.  1.
        -13    1    3    3    0    0  0.75165241235E+02 -0.76199730236E+00  0.15008983720E+03  0.16786111331E+03  0.00000000000E+00 0.  1.
         13    1    3    3    0    0 -0.20098303443E+02  0.25460889178E+02  0.94888531793E+02  0.10027976937E+03  0.00000000000E+00 0. -1.
          1    1    1    2  501    0 -0.11904823892E+03 -0.13774360096E+02  0.19900871525E+03  0.23230730710E+03  0.00000000000E+00 0. -1.
<scales pt_clust_5="13000.00000" pt_clust_6="13000.00000" pt_clust_7="13000.00000" pt_clust_8="13000.00000" pt_clust_9="99.86720"></scales>
<clustering>
<clus scale="   90.789">  7  8 -1 -1</clus>
<clus scale="   92.344">  5  6 -1 -1</clus>
<clus scale="  109.019">  1  7  2 -1</clus>
<clus scale="   99.867">  2  9  1 -1</clus>
<clus scale="   99.867">  2  5  1 -1</clus>
</clustering>
</event>
<event>
 9    1  0.1881049E-005  0.1492733E+03  0.7546771E-02  0.1201391E+00
          1   -1    0    0  502    0 -0.00000000000E+00  0.00000000000E+00  0.84179371201E+03  0.84179371201E+03  0.00000000000E+00 0. -1.
         21   -1    0    0  501  502  0.00000000000E+00 -0.00000000000E+00 -0.42313402141E+02  0.42313402141E+02  0.00000000000E+00 0.  1.
         23    2    1    2    0    0 -0.67588001322E+02 -0.10805794009E+03  0.60347526836E+03  0.62354630652E+03  0.91558399489E+02 0.  0.
         23    2    1    2    0    0  0.38134811338E+02  0.89435915510E+02  0.17419623690E+03  0.21945248537E+03  0.91444067978E+02 0.  0.
        -11    1    3    3    0    0 -0.13577243424E+01 -0.84141629933E+02  0.27405759465E+03  0.28668662768E+03  0.00000000000E+00 0.  1.
         11    1    3    3    0    0 -0.66230276980E+02 -0.23916310161E+02  0.32941767371E+03  0.33685967884E+03  0.00000000000E+00 0. -1.
        -11    1    4    4    0    0  0.60299464814E+01 -0.19179871409E+02  0.29494859210E+02  0.35695580142E+02  0.00000000000E+00 0. -1.
         11    1    4    4    0    0  0.32104864857E+02  0.10861578692E+03  0.14470137769E+03  0.18375690523E+03  0.00000000000E+00 0.  1.
          1    1    1    2  501    0  0.29453189984E+02  0.18622024584E+02  0.21808804609E+02  0.41108322251E+02  0.00000000000E+00 0. -1.
<scales pt_clust_5="13000.00000" pt_clust_6="13000.00000" pt_clust_7="13000.00000" pt_clust_8="13000.00000" pt_clust_9="34.84638"></scales>
<clustering>
<clus scale="   34.846">  2  9  1 -1</clus>
<clus scale="   91.444">  7  8 -1 -1</clus>
<clus scale="   91.558">  5  6 -1 -1</clus>
<clus scale="  149.203">  2  7  1 -1</clus>
<clus scale="   34.846">  2  5  1 -1</clus>
</clustering>
</event>
<event>
 9    1  0.1881049E-005  0.1232170E+03  0.7546771E-02  0.1237943E+00
          1   -1    0    0  502    0 -0.00000000000E+00  0.00000000000E+00  0.21350879627E+03  0.21350879627E+03  0.00000000000E+00 0. -1.
         21   -1    0    0  501  502  0.00000000000E+00 -0.00000000000E+00 -0.19676286552E+03  0.19676286552E+03  0.00000000000E+00 0. -1.
         23    2    1    2    0    0  0.32993543337E+02  0.71386831271E+02  0.14360671591E+03  0.18749276678E+03  0.91356418264E+02 0.  0.
         23    2    1    2    0    0 -0.16445182241E+02 -0.10469317013E+03 -0.74732871090E+02  0.15874390544E+03  0.91561572743E+02 0.  0.
        -11    1    4    4    0    0 -0.58842113025E+01 -0.62988693663E+02 -0.92610965882E+02  0.11215609869E+03  0.00000000000E+00 0.  1.
         11    1    4    4    0    0 -0.10560970938E+02 -0.41704476468E+02  0.17878094792E+02  0.46587806753E+02  0.00000000000E+00 0. -1.
        -11    1    3    3    0    0 -0.93942539526E+01 -0.18297980137E+02  0.17212615822E+02  0.26820556069E+02  0.00000000000E+00 0.  1.
         11    1    3    3    0    0  0.42387797290E+02  0.89684811408E+02  0.12639410009E+03  0.16067221071E+03  0.00000000000E+00 0. -1.
          1    1    1    2  501    0 -0.16548361096E+02  0.33306338860E+02 -0.52127914077E+02  0.64034989570E+02  0.00000000000E+00 0. -1.
<scales pt_clust_5="13000.00000" pt_clust_6="13000.00000" pt_clust_7="13000.00000" pt_clust_8="13000.00000" pt_clust_9="37.19087"></scales>
<clustering>
<clus scale="   37.191">  2  9  1 -1</clus>
<clus scale="   91.356">  7  8 -1 -1</clus>
<clus scale="   91.562">  5  6 -1 -1</clus>
<clus scale="  123.065">  1  7  2 -1</clus>
<clus scale="   37.191">  2  5  1 -1</clus>
</clustering>
</event>
<event>
 9    1  0.1881049E-005  0.4721837E+03  0.7546771E-02  0.1061730E+00
          2   -1    0    0  502    0 -0.00000000000E+00  0.00000000000E+00  0.13918330494E+04  0.13918330494E+04  0.00000000000E+00 0. -1.
         21   -1    0    0  501  502  0.00000000000E+00 -0.00000000000E+00 -0.31392553898E+03  0.31392553898E+03  0.00000000000E+00 0. -1.
         23    2    1    2    0    0 -0.11522676446E+03 -0.53803712833E+02  0.51378262256E+03  0.53415148468E+03  0.71924811970E+02 0.  0.
         23    2    1    2    0    0  0.21592979815E+03  0.48300816440E+03  0.48829735091E+03  0.72427347246E+03  0.78836510558E+02 0.  0.
        -11    1    3    3    0    0 -0.66817278576E+01 -0.24365278277E+02  0.40861528176E+02  0.48041406699E+02  0.00000000000E+00 0.  1.
         11    1    3    3    0    0 -0.10854503660E+03 -0.29438434556E+02  0.47292109439E+03  0.48611007798E+03  0.00000000000E+00 0. -1.
        -11    1    4    4    0    0  0.21739113960E+03  0.45592789120E+03  0.47751259071E+03  0.69508806913E+03  0.00000000000E+00 0. -1.
         11    1    4    4    0    0 -0.14613414449E+01  0.27080273201E+02  0.10784760199E+02  0.29185403338E+02  0.00000000000E+00 0.  1.
          2    1    1    2  501    0 -0.10070303370E+03 -0.42920445157E+03  0.75827536893E+02  0.44733363119E+03  0.00000000000E+00 0. -1.
<scales pt_clust_5="13000.00000" pt_clust_6="13000.00000" pt_clust_7="13000.00000" pt_clust_8="13000.00000" pt_clust_9="465.55582"></scales>
<clustering>
<clus scale="   71.925">  5  6 -1 -1</clus>
<clus scale="   78.837">  7  8 -1 -1</clus>
<clus scale="  146.100">  1  5  2 -1</clus>
<clus scale="  465.556">  2  9  1 -1</clus>
<clus scale="  465.556">  2  5  1 -1</clus>
</clustering>
</event>
<event>
 9    1  0.1881049E-005  0.9776473E+02  0.7546771E-02  0.1287522E+00
         -3   -1    0    0    0  501 -0.00000000000E+00  0.00000000000E+00  0.35695249851E+03  0.35695249851E+03  0.00000000000E+00 0.  1.
         21   -1    0    0  501  502  0.00000000000E+00 -0.00000000000E+00 -0.71475017220E+02  0.71475017220E+02  0.00000000000E+00 0. -1.
         23    2    1    2    0    0 -0.95740790970E+01  0.35656014050E+02  0.28413274335E+03  0.30066277823E+03  0.91124508477E+02 0.  0.
         23    2    1    2    0    0 -0.11863747058E+02 -0.32038983560E+02  0.24445126347E+02  0.96042643555E+02  0.86367703553E+02 0.  0.
        -11    1    3    3    0    0 -0.36350371510E+02  0.32168501505E+02  0.25985918733E+03  0.26435385232E+03  0.00000000000E+00 0.  1.
         11    1    3    3    0    0  0.26776292413E+02  0.34875125454E+01  0.24273556015E+02  0.36308925910E+02  0.00000000000E+00 0. -1.
        -13    1    4    4    0    0  0.34699766458E+02 -0.12851690623E+01 -0.94199368108E+00  0.34736332620E+02  0.00000000000E+00 0. -1.
         13    1    4    4    0    0 -0.46563513516E+02 -0.30753814498E+02  0.25387120028E+02  0.61306310935E+02  0.00000000000E+00 0.  1.
         -3    1    1    2    0  502  0.21437826155E+02 -0.36170304900E+01 -0.23100388401E+02  0.31722093943E+02  0.00000000000E+00 0.  1.
<scales pt_clust_5="13000.00000" pt_clust_6="13000.00000" pt_clust_7="13000.00000" pt_clust_8="13000.00000" pt_clust_9="21.74082"></scales>
<clustering>
<clus scale="   21.741">  2  9  1 -1</clus>
<clus scale="   86.368">  7  8 -1 -1</clus>
<clus scale="   91.125">  5  6 -1 -1</clus>
<clus scale="   93.347">  2  7  1 -1</clus>
<clus scale="   21.741">  2  5  1 -1</clus>
</clustering>
</event>
<event>
 9    1  0.1881049E-005  0.9509650E+02  0.7546771E-02  0.1291676E+00
         21   -1    0    0  501  502  0.00000000000E+00  0.00000000000E+00  0.20043760694E+03  0.20043760694E+03  0.00000000000E+00 0.  1.
         -3   -1    0    0    0  501 -0.00000000000E+00 -0.00000000000E+00 -0.64747448070E+02  0.64747448070E+02  0.00000000000E+00 0.  1.
         23    2    1    2    0    0  0.79967356019E-01 -0.14904586818E+02  0.12923916233E+02  0.93822429420E+02  0.91724955975E+02 0.  0.
         23    2    1    2    0    0  0.14662801731E+02  0.29470452579E+02  0.10469938234E+03  0.14386853301E+03  0.93019830139E+02 0.  0.
        -11    1    3    3    0    0 -0.13187565060E+02 -0.39901449402E+02 -0.23145234173E+02  0.47976446320E+02  0.00000000000E+00 0.  1.
         11    1    3    3    0    0  0.13267532416E+02  0.24996862584E+02  0.36069150405E+02  0.45845983100E+02  0.00000000000E+00 0. -1.
        -13    1    4    4    0    0 -0.31745353611E+02  0.24251533581E+02  0.14873019993E+02  0.42627585911E+02  0.00000000000E+00 0. -1.
         13    1    4    4    0    0  0.46408155341E+02  0.52189189980E+01  0.89826362342E+02  0.10124094710E+03  0.00000000000E+00 0.  1.
         -3    1    1    2    0  502 -0.14742769087E+02 -0.14565865761E+02  0.18066860307E+02  0.27494092585E+02  0.00000000000E+00 0.  1.
<scales pt_clust_5="13000.00000" pt_clust_6="13000.00000" pt_clust_7="13000.00000" pt_clust_8="13000.00000" pt_clust_9="20.72471"></scales>
<clustering>
<clus scale="   20.725">  1  9  2 -1</clus>
<clus scale="   91.725">  5  6 -1 -1</clus>
<clus scale="   93.020">  7  8 -1 -1</clus>
<clus scale="   93.830">  2  5  1 -1</clus>
<clus scale="   20.725">  1  5  2 -1</clus>
</clustering>
</event>
<event>
 9    1  0.1881049E-005  0.1308479E+03  0.7546771E-02  0.1226833E+00
          2   -1    0    0  502    0 -0.00000000000E+00  0.00000000000E+00  0.56492538017E+03  0.56492538017E+03  0.00000000000E+00 0. -1.
         21   -1    0    0  501  502  0.00000000000E+00 -0.00000000000E+00 -0.89455419139E+02  0.89455419139E+02  0.00000000000E+00 0. -1.
         23    2    1    2    0    0  0.14920332731E+02  0.12357269616E+03  0.37795628736E+03  0.40830423825E+03  0.91479878968E+02 0.  0.
         23    2    1    2    0    0 -0.34705764933E+02 -0.47386808260E+02  0.12350175897E+03  0.16318426093E+03  0.89030437671E+02 0.  0.
        -11    1    4    4    0    0  0.60900483216E+00 -0.66452541388E+02  0.79889682253E+02  0.10391666120E+03  0.00000000000E+00 0.  1.
         11    1    4    4    0    0 -0.35314769765E+02  0.19065733128E+02  0.43612076715E+02  0.59267599738E+02  0.00000000000E+00 0. -1.
        -13    1    3    3    0    0 -0.12219672311E+01  0.81833553679E+02  0.11260275314E+03  0.13920346162E+03  0.00000000000E+00 0. -1.
         13    1    3    3    0    0  0.16142299962E+02  0.41739142480E+02  0.26535353422E+03  0.26910077663E+03  0.00000000000E+00 0.  1.
          2    1    1    2  501    0  0.19785432203E+02 -0.76185887899E+02 -0.25988085294E+02  0.82892300123E+02  0.00000000000E+00 0. -1.
<scales pt_clust_5="13000.00000" pt_clust_6="13000.00000" pt_clust_7="13000.00000" pt_clust_8="13000.00000" pt_clust_9="78.71310"></scales>
<clustering>
<clus scale="   78.713">  2  9  1 -1</clus>
<clus scale="   89.030">  5  6 -1 -1</clus>
<clus scale="   91.480">  7  8 -1 -1</clus>
<clus scale="  129.147">  2  5  1 -1</clus>
<clus scale="   78.713">  2  5  1 -1</clus>
</clustering>
</event>
<event>
 9    1  0.1881049E-005  0.1953259E+03  0.7546771E-02  0.1182356E+00
         21   -1    0    0  501  502  0.00000000000E+00  0.00000000000E+00  0.20054600679E+03  0.20054600679E+03  0.00000000000E+00 0. -1.
          1   -1    0    0  502    0 -0.00000000000E+00 -0.00000000000E+00 -0.86818787773E+03  0.86818787773E+03  0.00000000000E+00 0. -1.
         23    2    1    2    0    0 -0.25185552415E+02 -0.33630747210E+02  0.47182028492E+02  0.11172768699E+03  0.92149840044E+02 0.  0.
         23    2    1    2    0    0  0.25683175434E+02  0.20236558428E+03 -0.75153657403E+03  0.78432292287E+03  0.93508128182E+02 0.  0.
        -11    1    4    4    0    0 -0.11986740935E+02  0.13771657218E+03 -0.35852470384E+03  0.38425186984E+03  0.00000000000E+00 0.  1.
         11    1    4    4    0    0  0.37669916369E+02  0.64649012102E+02 -0.39301187018E+03  0.40007105303E+03  0.00000000000E+00 0. -1.
        -13    1    3    3    0    0 -0.15500252041E+02 -0.63405253868E+02  0.15298668679E+02  0.67041280527E+02  0.00000000000E+00 0.  1.
         13    1    3    3    0    0 -0.96853003740E+01  0.29774506657E+02  0.31883359813E+02  0.44686406468E+02  0.00000000000E+00 0. -1.
          1    1    1    2  501    0 -0.49762301913E+00 -0.16873483707E+03  0.36712674596E+02  0.17268327466E+03  0.00000000000E+00 0. -1.
<scales pt_clust_5="13000.00000" pt_clust_6="13000.00000" pt_clust_7="13000.00000" pt_clust_8="13000.00000" pt_clust_9="171.48894"></scales>
<clustering>
<clus scale="   92.150">  7  8 -1 -1</clus>
<clus scale="   93.508">  5  6 -1 -1</clus>
<clus scale="  101.277">  2  7  1 -1</clus>
<clus scale="  171.489">  1  9  2 -1</clus>
<clus scale="  171.489">  1  5  2 -1</clus>
</clustering>
</event>
<event>
 9    1  0.1881049E-005  0.1087228E+03  0.7546771E-02  0.1263018E+00
         -4   -1    0    0    0  501 -0.00000000000E+00  0.00000000000E+00  0.40073058093E+03  0.40073058093E+03  0.00000000000E+00 0.  1.
         21   -1    0    0  501  502  0.00000000000E+00 -0.00000000000E+00 -0.24404259746E+03  0.24404259746E+03  0.00000000000E+00 0.  1.
         23    2    1    2    0    0 -0.73976128348E+01  0.60663526618E+02  0.35599408051E+03  0.37258127942E+03  0.91379627270E+02 0.  0.
         23    2    1    2    0    0  0.59470959426E+02 -0.60184454700E+01 -0.12824010763E+03  0.16851888816E+03  0.91542742801E+02 0.  0.
        -13    1    3    3    0    0  0.28240537073E+02  0.35448316873E+01  0.37658994826E+02  0.47204805446E+02  0.00000000000E+00 0. -1.
         13    1    3    3    0    0 -0.35638149908E+02  0.57118694931E+02  0.31833508569E+03  0.32537647398E+03  0.00000000000E+00 0.  1.
        -13    1    4    4    0    0  0.10607859750E+02  0.40496823640E+02 -0.49804351765E+02  0.65061454550E+02  0.00000000000E+00 0.  1.
         13    1    4    4    0    0  0.48863099676E+02 -0.46515269110E+02 -0.78435755864E+02  0.10345743361E+03  0.00000000000E+00 0. -1.
         -4    1    1    2    0  502 -0.52073346591E+02 -0.54645081148E+02 -0.71065989409E+02  0.10367301081E+03  0.00000000000E+00 0.  1.
<scales pt_clust_5="13000.00000" pt_clust_6="13000.00000" pt_clust_7="13000.00000" pt_clust_8="13000.00000" pt_clust_9="75.48323"></scales>
<clustering>
<clus scale="   75.483">  2  9  1 -1</clus>
<clus scale="   91.380">  5  6 -1 -1</clus>
<clus scale="   91.543">  7  8 -1 -1</clus>
<clus scale="  108.586">  1  5  2 -1</clus>
<clus scale="   75.483">  2  5  1 -1</clus>
</clustering>
</event>
<event>
 9    1  0.1881049E-005  0.1219512E+03  0.7546771E-02  0.1240401E+00
         21   -1    0    0  501  502  0.00000000000E+00  0.00000000000E+00  0.84459143023E+02  0.84459143023E+02  0.00000000000E+00 0. -1.
          1   -1    0    0  502    0 -0.00000000000E+00 -0.00000000000E+00 -0.25471577221E+03  0.25471577221E+03  0.00000000000E+00 0. -1.
         23    2    1    2    0    0 -0.67355344503E+02 -0.66186117233E+01 -0.10771842831E+03  0.15757111496E+03  0.92977674834E+02 0.  0.
         23    2    1    2    0    0  0.99920578700E+02 -0.48428924993E+01 -0.55181623704E+02  0.14630536142E+03  0.91392951212E+02 0.  0.
        -11    1    4    4    0    0  0.30013247492E+02 -0.37935663255E+02 -0.48777688007E+02  0.68696232931E+02  0.00000000000E+00 0. -1.
         11    1    4    4    0    0  0.69907331208E+02  0.33092770756E+02 -0.64039356963E+01  0.77609128492E+02  0.00000000000E+00 0.  1.
        -13    1    3    3    0    0 -0.82156355761E+02 -0.25893091586E+02 -0.10019138553E+03  0.13213036259E+03  0.00000000000E+00 0. -1.
         13    1    3    3    0    0  0.14801011258E+02  0.19274479863E+02 -0.75270427870E+01  0.25440752374E+02  0.00000000000E+00 0.  1.
          1    1    1    2  501    0 -0.32565234197E+02  0.11461504223E+02 -0.73565771682E+01  0.35298438846E+02  0.00000000000E+00 0. -1.
<scales pt_clust_5="13000.00000" pt_clust_6="13000.00000" pt_clust_7="13000.00000" pt_clust_8="13000.00000" pt_clust_9="34.52333"></scales>
<clustering>
<clus scale="   34.523">  1  9  2 -1</clus>
<clus scale="   91.393">  5  6 -1 -1</clus>
<clus scale="   92.978">  7  8 -1 -1</clus>
<clus scale="  120.747">  1  5  2 -1</clus>
<clus scale="   34.523">  1  5  2 -1</clus>
</clustering>
</event>
<event>
 9    1  0.1881049E-005  0.9008949E+02  0.7546771E-02  0.1306304E+00
         21   -1    0    0  501  502  0.00000000000E+00  0.00000000000E+00  0.12696413342E+03  0.12696413342E+03  0.00000000000E+00 0. -1.
          2   -1    0    0  502    0 -0.00000000000E+00 -0.00000000000E+00 -0.16859309571E+03  0.16859309571E+03  0.00000000000E+00 0. -1.
         23    2    1    2    0    0  0.39414617316E+01 -0.10878563757E+02 -0.11312523902E+03  0.14447551553E+03  0.89117768226E+02 0.  0.
         23    2    1    2    0    0 -0.37439582068E+02 -0.40991152640E+01  0.31023615597E+02  0.96451216317E+02  0.83197640308E+02 0.  0.
        -11    1    3    3    0    0 -0.34877244308E+02  0.11115595432E+02 -0.21216699557E+02  0.42309892135E+02  0.00000000000E+00 0.  1.
         11    1    3    3    0    0  0.38818706040E+02 -0.21994159189E+02 -0.91908539463E+02  0.10216562339E+03  0.00000000000E+00 0. -1.
        -13    1    4    4    0    0  0.23354358542E+02  0.37030003250E+01 -0.65779015622E+01  0.24543982221E+02  0.00000000000E+00 0.  1.
         13    1    4    4    0    0 -0.60793940610E+02 -0.78021155890E+01  0.37601517159E+02  0.71907234095E+02  0.00000000000E+00 0. -1.
          2    1    1    2  501    0  0.33498120336E+02  0.14977679021E+02  0.40472661133E+02  0.54630497290E+02  0.00000000000E+00 0. -1.
<scales pt_clust_5="13000.00000" pt_clust_6="13000.00000" pt_clust_7="13000.00000" pt_clust_8="13000.00000" pt_clust_9="36.69407"></scales>
<clustering>
<clus scale="   36.694">  1  9  2 -1</clus>
<clus scale="   83.198">  7  8 -1 -1</clus>
<clus scale="   84.238">  1  7  2 -1</clus>
<clus scale="   89.118">  5  6 -1 -1</clus>
<clus scale="   36.694">  1  5  2 -1</clus>
</clustering>
</event>
<event>
 9    1  0.1881049E-005  0.1188642E+03  0.7546771E-02  0.1245681E+00
         21   -1    0    0  501  502  0.00000000000E+00  0.00000000000E+00  0.38293703682E+03  0.38293703682E+03  0.00000000000E+00 0. -1.
          1   -1    0    0  502    0 -0.00000000000E+00 -0.00000000000E+00 -0.53559597064E+02  0.53559597064E+02  0.00000000000E+00 0. -1.
         23    2    1    2    0    0 -0.16906754405E+01  0.72175182366E+02  0.69288371960E+02  0.13530074673E+03  0.91067547692E+02 0.  0.
         23    2    1    2    0    0 -0.17706287683E+02 -0.84301964033E+02  0.18414256877E+03  0.22187898022E+03  0.88890170812E+02 0.  0.
        -11    1    4    4    0    0  0.33382558063E+02 -0.19752090187E+02  0.38928738116E+02  0.54954407475E+02  0.00000000000E+00 0.  1.
         11    1    4    4    0    0 -0.51088845746E+02 -0.64549873846E+02  0.14521383065E+03  0.16692457275E+03  0.00000000000E+00 0. -1.
        -13    1    3    3    0    0  0.39447648140E+02  0.27080118718E+02  0.74754391574E+01  0.48428627527E+02  0.00000000000E+00 0.  1.
         13    1    3    3    0    0 -0.41138323580E+02  0.45095063648E+02  0.61812932803E+02  0.86872119199E+02  0.00000000000E+00 0. -1.
          1    1    1    2  501    0  0.19396963123E+02  0.12126781667E+02  0.75946499029E+02  0.79316906941E+02  0.00000000000E+00 0. -1.
<scales pt_clust_5="13000.00000" pt_clust_6="13000.00000" pt_clust_7="13000.00000" pt_clust_8="13000.00000" pt_clust_9="22.87577"></scales>
<clustering>
<clus scale="   22.876">  1  9  2 -1</clus>
<clus scale="   88.890">  5  6 -1 -1</clus>
<clus scale="   91.068">  7  8 -1 -1</clus>
<clus scale="  117.204">  1  5  2 -1</clus>
<clus scale="   22.876">  1  5  2 -1</clus>
</clustering>
</event>
<event>
 9    1  0.2226667E-005  0.3087694E+03  0.7546771E-02  0.1082126E+00
          2   -1    0    0  502    0 -0.00000000000E+00  0.00000000000E+00  0.13839180366E+04  0.13839180366E+04  0.00000000000E+00 0. -1.
         21   -1    0    0  501  502  0.00000000000E+00 -0.00000000000E+00 -0.24209442777E+03  0.24209442777E+03  0.00000000000E+00 0. -1.
         23    2    1    2    0    0  0.65394769178E+02 -0.29038895959E+03  0.12031047889E+04  0.12450675850E+04  0.11886940091E+03 0.  0.
         23    2    1    2    0    0 -0.11951470300E+02  0.22561565746E+03  0.42807287885E+02  0.24720567030E+03  0.90735423084E+02 0.  0.
        -11    1    3    3    0    0  0.23373782632E+02  0.15414600205E+01  0.13369357808E+03  0.13573018321E+03  0.00000000000E+00 0.  1.
         11    1    3    3    0    0  0.42020986545E+02 -0.29193041961E+03  0.10694112108E+04  0.11093374018E+04  0.00000000000E+00 0. -1.
        -13    1    4    4    0    0 -0.51477219642E+02  0.13300091882E+03  0.20682996056E+02  0.14410737273E+03  0.00000000000E+00 0. -1.
         13    1    4    4    0    0  0.39525749342E+02  0.92614738633E+02  0.22124291829E+02  0.10309829757E+03  0.00000000000E+00 0.  1.
          2    1    1    2  501    0 -0.53443298878E+02  0.64773302138E+02 -0.10408846798E+03  0.13373920903E+03  0.00000000000E+00 0. -1.
<scales pt_clust_5="13000.00000" pt_clust_6="13000.00000" pt_clust_7="13000.00000" pt_clust_8="13000.00000" pt_clust_9="83.97480"></scales>
<clustering>
<clus scale="   83.975">  2  9  1 -1</clus>
<clus scale="   90.735">  7  8 -1 -1</clus>
<clus scale="  118.869">  5  6 -1 -1</clus>
<clus scale="  299.068">  2  7  1 -1</clus>
<clus scale="   83.975">  2  5  1 -1</clus>
</clustering>
</event>
<event>
 9    1  0.1881049E-005  0.2050412E+03  0.7546771E-02  0.1167530E+00
         21   -1    0    0  501  502  0.00000000000E+00  0.00000000000E+00  0.66178630471E+03  0.66178630471E+03  0.00000000000E+00 0. -1.
          1   -1    0    0  502    0 -0.00000000000E+00 -0.00000000000E+00 -0.77690946231E+03  0.77690946231E+03  0.00000000000E+00 0. -1.
         23    2    1    2    0    0  0.80461244246E+02  0.11543079970E+02 -0.46667557993E+02  0.13112882133E+03  0.91704156365E+02 0.  0.
         23    2    1    2    0    0 -0.26017425621E+03 -0.37888727752E+02 -0.64527856502E+03  0.70282270782E+03  0.91919164849E+02 0.  0.
        -13    1    4    4    0    0 -0.27266387571E+02 -0.28431152506E+02 -0.15537116313E+03  0.16028719430E+03  0.00000000000E+00 0.  1.
         13    1    4    4    0    0 -0.23290786864E+03 -0.94575752461E+01 -0.48990740189E+03  0.54253551352E+03  0.00000000000E+00 0. -1.
        -13    1    3    3    0    0  0.82168051676E+02 -0.22037917033E+02 -0.18029300779E+02  0.86961567315E+02  0.00000000000E+00 0.  1.
         13    1    3    3    0    0 -0.17068074298E+01  0.33580997002E+02 -0.28638257214E+02  0.44167254019E+02  0.00000000000E+00 0. -1.
          1    1    1    2  501    0  0.17971301196E+03  0.26345647782E+02  0.57682296541E+03  0.60474423788E+03  0.00000000000E+00 0. -1.
<scales pt_clust_5="13000.00000" pt_clust_6="13000.00000" pt_clust_7="13000.00000" pt_clust_8="13000.00000" pt_clust_9="183.28323"></scales>
<clustering>
<clus scale="   91.704">  7  8 -1 -1</clus>
<clus scale="   91.919">  5  6 -1 -1</clus>
<clus scale="  122.543">  2  7  1 -1</clus>
<clus scale="  183.283">  1  9  2 -1</clus>
<clus scale="  183.283">  1  5  2 -1</clus>
</clustering>
</event>
<event>
 9    1  0.1881049E-005  0.1722129E+03  0.7546771E-02  0.1177520E+00
          1   -1    0    0  502    0 -0.00000000000E+00  0.00000000000E+00  0.89657857275E+03  0.89657857275E+03  0.00000000000E+00 0. -1.
         21   -1    0    0  501  502  0.00000000000E+00 -0.00000000000E+00 -0.13103414979E+03  0.13103414979E+03  0.00000000000E+00 0. -1.
         23    2    1    2    0    0 -0.13923882778E+03 -0.26223557976E+02  0.55901987840E+03  0.58654938318E+03  0.10705992859E+03 0.  0.
         23    2    1    2    0    0  0.11899177305E+03  0.42284959361E+02  0.30276799612E+03  0.34141037249E+03  0.94580775671E+02 0.  0.
        -11    1    4    4    0    0  0.23776518341E+02 -0.27902178800E+02  0.46935240773E+02  0.59554775061E+02  0.00000000000E+00 0.  1.
         11    1    4    4    0    0  0.95215254710E+02  0.70187138161E+02  0.25583275535E+03  0.28185559743E+03  0.00000000000E+00 0. -1.
        -13    1    3    3    0    0 -0.20920796726E+02 -0.51079307292E+02  0.14176415259E+03  0.15213103013E+03  0.00000000000E+00 0.  1.
         13    1    3    3    0    0 -0.11831803105E+03  0.24855749317E+02  0.41725572581E+03  0.43441835305E+03  0.00000000000E+00 0. -1.
          1    1    1    2  501    0  0.20247054725E+02 -0.16061401385E+02 -0.96243451558E+02  0.99652966877E+02  0.00000000000E+00 0. -1.
<scales pt_clust_5="13000.00000" pt_clust_6="13000.00000" pt_clust_7="13000.00000" pt_clust_8="13000.00000" pt_clust_9="25.84399"></scales>
<clustering>
<clus scale="   25.844">  2  9  1 -1</clus>
<clus scale="   94.581">  5  6 -1 -1</clus>
<clus scale="  107.060">  7  8 -1 -1</clus>
<clus scale="  164.745">  2  5  1 -1</clus>
<clus scale="   25.844">  2  5  1 -1</clus>
</clustering>
</event>
<event>
 9    1  0.1881049E-005  0.1103519E+03  0.7546771E-02  0.1260335E+00
          1   -1    0    0  502    0 -0.00000000000E+00  0.00000000000E+00  0.26879176118E+03  0.26879176118E+03  0.00000000000E+00 0. -1.
         21   -1    0    0  501  502  0.00000000000E+00 -0.00000000000E+00 -0.16444537477E+03  0.16444537477E+03  0.00000000000E+00 0. -1.
         23    2    1    2    0    0 -0.63029906775E+02  0.44881233250E+01  0.17744891116E+03  0.21006055952E+03  0.92975320344E+02 0.  0.
         23    2    1    2    0    0  0.48638795069E+02  0.36030396784E+02  0.27789272994E+02  0.11350429452E+03  0.91907884882E+02 0.  0.
        -11    1    3    3    0    0  0.12295424028E+02  0.22653628515E+02  0.14371643808E+02  0.29511158613E+02  0.00000000000E+00 0.  1.
         11    1    3    3    0    0 -0.75325330803E+02 -0.18165505190E+02  0.16307726735E+03  0.18054940090E+03  0.00000000000E+00 0. -1.
        -13    1    4    4    0    0  0.73053238137E+02  0.16989612791E+02  0.52090169176E+01  0.75183484904E+02  0.00000000000E+00 0.  1.
         13    1    4    4    0    0 -0.24414443068E+02  0.19040783993E+02  0.22580256076E+02  0.38320809619E+02  0.00000000000E+00 0. -1.
          1    1    1    2  501    0  0.14391111706E+02 -0.40518520109E+02 -0.10089179774E+03  0.10967228191E+03  0.00000000000E+00 0. -1.
<scales pt_clust_5="13000.00000" pt_clust_6="13000.00000" pt_clust_7="13000.00000" pt_clust_8="13000.00000" pt_clust_9="42.99831"></scales>
<clustering>
<clus scale="   42.998">  2  9  1 -1</clus>
<clus scale="   91.908">  7  8 -1 -1</clus>
<clus scale="   92.975">  5  6 -1 -1</clus>
<clus scale="  109.454">  2  7  1 -1</clus>
<clus scale="   42.998">  2  5  1 -1</clus>
</clustering>
</event>
<event>
 9    1  0.1881049E-005  0.1024061E+03  0.7546771E-02  0.1276374E+00
         -1   -1    0    0    0  501 -0.00000000000E+00  0.00000000000E+00  0.26063518738E+03  0.26063518738E+03  0.00000000000E+00 0.  1.
         21   -1    0    0  501  502  0.00000000000E+00 -0.00000000000E+00 -0.88050428108E+02  0.88050428108E+02  0.00000000000E+00 0.  1.
         23    2    1    2    0    0  0.49681189717E+02  0.14101767822E+01  0.15477972791E+03  0.18545300245E+03  0.89251569936E+02 0.  0.
         23    2    1    2    0    0 -0.36228511649E+02  0.26446550853E+02  0.54202048098E+02  0.11546531617E+03  0.91555732274E+02 0.  0.
        -11    1    3    3    0    0  0.57757745967E+02  0.35050273881E+02  0.10241172161E+03  0.12268919937E+03  0.00000000000E+00 0.  1.
         11    1    3    3    0    0 -0.80765562504E+01 -0.33640097099E+02  0.52368006304E+02  0.62763803087E+02  0.00000000000E+00 0. -1.
        -13    1    4    4    0    0 -0.56306162099E+02  0.46669010535E+02  0.43060300708E+02  0.84867955859E+02  0.00000000000E+00 0.  1.
         13    1    4    4    0    0  0.20077650450E+02 -0.20222459682E+02  0.11141747391E+02  0.30597360313E+02  0.00000000000E+00 0. -1.
         -1    1    1    2    0  502 -0.13452678067E+02 -0.27856727635E+02 -0.36397016742E+02  0.47767296861E+02  0.00000000000E+00 0.  1.
<scales pt_clust_5="13000.00000" pt_clust_6="13000.00000" pt_clust_7="13000.00000" pt_clust_8="13000.00000" pt_clust_9="30.93496"></scales>
<clustering>
<clus scale="   30.935">  2  9  1 -1</clus>
<clus scale="   89.252">  5  6 -1 -1</clus>
<clus scale="   91.556">  7  8 -1 -1</clus>
<clus scale="  100.351">  1  5  2 -1</clus>
<clus scale="   30.935">  2  5  1 -1</clus>
</clustering>
</event>
<event>
 9    1  0.1881049E-005  0.2199759E+03  0.7546771E-02  0.1134228E+00
          3   -1    0    0  502    0 -0.00000000000E+00  0.00000000000E+00  0.36572505745E+03  0.36572505745E+03  0.00000000000E+00 0. -1.
         21   -1    0    0  501  502  0.00000000000E+00 -0.00000000000E+00 -0.61470387728E+03  0.61470387728E+03  0.00000000000E+00 0.  1.
         23    2    1    2    0    0  0.11289216382E+03  0.10259968666E+03  0.80697523090E+02  0.19452170919E+03  0.89751149055E+02 0.  0.
         23    2    1    2    0    0 -0.15332336826E+03 -0.25709407302E+03  0.98572263902E+02  0.32885135702E+03  0.93921808797E+02 0.  0.
        -11    1    3    3    0    0  0.50882818229E+01  0.58145102518E+02  0.41045032266E+02  0.71354314744E+02  0.00000000000E+00 0. -1.
         11    1    3    3    0    0  0.10780388200E+03  0.44454584145E+02  0.39652490823E+02  0.12316739444E+03  0.00000000000E+00 0.  1.
        -13    1    4    4    0    0 -0.90520877736E+02 -0.21850964239E+03  0.53627508027E+02  0.24252093258E+03  0.00000000000E+00 0.  1.
         13    1    4    4    0    0 -0.62802490528E+02 -0.38584430630E+02  0.44944755874E+02  0.86330424441E+02  0.00000000000E+00 0. -1.
          3    1    1    2  501    0  0.40431204442E+02  0.15449438636E+03 -0.42824860682E+03  0.45705586853E+03  0.00000000000E+00 0. -1.
<scales pt_clust_5="13000.00000" pt_clust_6="13000.00000" pt_clust_7="13000.00000" pt_clust_8="13000.00000" pt_clust_9="159.69721"></scales>
<clustering>
<clus scale="   89.751">  5  6 -1 -1</clus>
<clus scale="   93.922">  7  8 -1 -1</clus>
<clus scale="  159.697">  2  9  1 -1</clus>
<clus scale="  218.228">  1  5  2 -1</clus>
<clus scale="  159.697">  2  5  1 -1</clus>
</clustering>
</event>
<event>
 9    1  0.1881049E-005  0.1134892E+03  0.7546771E-02  0.1254637E+00
         21   -1    0    0  501  502  0.00000000000E+00  0.00000000000E+00  0.76268526321E+02  0.76268526321E+02  0.00000000000E+00 0.  1.
          3   -1    0    0  502    0 -0.00000000000E+00 -0.00000000000E+00 -0.39773504470E+03  0.39773504470E+03  0.00000000000E+00 0. -1.
         23    2    1    2    0    0 -0.64356822547E+02  0.16550881080E+02 -0.22266286848E+03  0.24953732211E+03  0.90963673274E+02 0.  0.
         23    2    1    2    0    0  0.55683292777E+02 -0.41340709806E+02 -0.13641841566E+03  0.17858993334E+03  0.92058116296E+02 0.  0.
        -13    1    3    3    0    0 -0.43625680315E+02 -0.32768974608E+02 -0.77092264418E+02  0.94446931728E+02  0.00000000000E+00 0.  1.
         13    1    3    3    0    0 -0.20731142232E+02  0.49319855687E+02 -0.14557060406E+03  0.15509039038E+03  0.00000000000E+00 0. -1.
        -13    1    4    4    0    0  0.49788321081E+02 -0.19789479169E+02 -0.15712440330E+02  0.55833513082E+02  0.00000000000E+00 0.  1.
         13    1    4    4    0    0  0.58949716957E+01 -0.21551230636E+02 -0.12070597533E+03  0.12275642026E+03  0.00000000000E+00 0. -1.
          3    1    1    2  501    0  0.86735297698E+01  0.24789828726E+02  0.37614765762E+02  0.45876315570E+02  0.00000000000E+00 0. -1.
<scales pt_clust_5="13000.00000" pt_clust_6="13000.00000" pt_clust_7="13000.00000" pt_clust_8="13000.00000" pt_clust_9="26.26339"></scales>
<clustering>
<clus scale="   26.263">  1  9  2 -1</clus>
<clus scale="   90.964">  5  6 -1 -1</clus>
<clus scale="   92.058">  7  8 -1 -1</clus>
<clus scale="  112.603">  2  5  1 -1</clus>
<clus scale="   26.263">  1  5  2 -1</clus>
</clustering>
</event>
<event>
 9    1  0.1881049E-005  0.1072485E+03  0.7546771E-02  0.1267579E+00
         21   -1    0    0  501  502  0.00000000000E+00  0.00000000000E+00  0.72307253496E+02  0.72307253496E+02  0.00000000000E+00 0. -1.
         -2   -1    0    0    0  501 -0.00000000000E+00 -0.00000000000E+00 -0.30039147859E+03  0.30039147859E+03  0.00000000000E+00 0.  1.
         23    2    1    2    0    0  0.31213739334E+02  0.34982325241E+02 -0.16595430911E+03  0.19690228267E+03  0.95034812590E+02 0.  0.
         23    2    1    2    0    0 -0.62176925173E+02 -0.10944986462E+02 -0.76038957795E+02  0.13420349357E+03  0.90790373006E+02 0.  0.
        -11    1    3    3    0    0  0.52106695511E+02 -0.11626233274E+02 -0.68231073868E+02  0.86635768932E+02  0.00000000000E+00 0.  1.
         11    1    3    3    0    0 -0.20892956178E+02  0.46608558515E+02 -0.97723235242E+02  0.11026651373E+03  0.00000000000E+00 0. -1.
        -11    1    4    4    0    0 -0.33237953324E+02 -0.24724890547E+01  0.16273892429E+02  0.37090623048E+02  0.00000000000E+00 0. -1.
         11    1    4    4    0    0 -0.28938971849E+02 -0.84724974077E+01 -0.92312850224E+02  0.97112870519E+02  0.00000000000E+00 0.  1.
         -2    1    1    2    0  502  0.30963185840E+02 -0.24037338779E+02  0.13909041807E+02  0.41592955857E+02  0.00000000000E+00 0.  1.
<scales pt_clust_5="13000.00000" pt_clust_6="13000.00000" pt_clust_7="13000.00000" pt_clust_8="13000.00000" pt_clust_9="39.19837"></scales>
<clustering>
<clus scale="   39.198">  1  9  2 -1</clus>
<clus scale="   90.790">  7  8 -1 -1</clus>
<clus scale="   95.035">  5  6 -1 -1</clus>
<clus scale="  103.506">  1  7  2 -1</clus>
<clus scale="   39.198">  1  5  2 -1</clus>
</clustering>
</event>
<event>
 9    1  0.1881049E-005  0.1586107E+03  0.7546771E-02  0.1190638E+00
         -1   -1    0    0    0  501 -0.00000000000E+00  0.00000000000E+00  0.54192947022E+03  0.54192947022E+03  0.00000000000E+00 0.  1.
         21   -1    0    0  501  502  0.00000000000E+00 -0.00000000000E+00 -0.99773530064E+02  0.99773530064E+02  0.00000000000E+00 0. -1.
         23    2    1    2    0    0  0.10233693408E+03  0.61465887133E+02  0.32972402340E+03  0.36236012674E+03  0.91301842727E+02 0.  0.
         23    2    1    2    0    0 -0.15500365332E+03 -0.80062658375E+02  0.65991776849E+02  0.20670466176E+03  0.89082774838E+02 0.  0.
        -11    1    3    3    0    0  0.17378396771E+02  0.62453945664E+02  0.15745649629E+03  0.17027933588E+03  0.00000000000E+00 0. -1.
         11    1    3    3    0    0  0.84958537304E+02 -0.98805853115E+00  0.17226752711E+03  0.19208079086E+03  0.00000000000E+00 0.  1.
        -13    1    4    4    0    0 -0.78146626518E+02 -0.55194536926E+02  0.80007329519E+02  0.12471770091E+03  0.00000000000E+00 0.  1.
         13    1    4    4    0    0 -0.76857026803E+02 -0.24868121449E+02 -0.14015552670E+02  0.81986960854E+02  0.00000000000E+00 0. -1.
         -1    1    1    2    0  502  0.52666719245E+02  0.18596771242E+02  0.46440139902E+02  0.72638211781E+02  0.00000000000E+00 0.  1.
<scales pt_clust_5="13000.00000" pt_clust_6="13000.00000" pt_clust_7="13000.00000" pt_clust_8="13000.00000" pt_clust_9="55.85359"></scales>
<clustering>
<clus scale="   55.854">  2  9  1 -1</clus>
<clus scale="   89.083">  7  8 -1 -1</clus>
<clus scale="   91.302">  5  6 -1 -1</clus>
<clus scale="  157.344">  2  7  1 -1</clus>
<clus scale="   55.854">  2  5  1 -1</clus>
</clustering>
</event>
<event>
 9    1  0.1881049E-005  0.1080552E+03  0.7546771E-02  0.1264252E+00
         21   -1    0    0  501  502  0.00000000000E+00  0.00000000000E+00  0.28098446133E+02  0.28098446133E+02  0.00000000000E+00 0.  1.
          2   -1    0    0  502    0 -0.00000000000E+00 -0.00000000000E+00 -0.78777140264E+03  0.78777140264E+03  0.00000000000E+00 0. -1.
         23    2    1    2    0    0  0.13859844485E+02  0.47314261948E+02 -0.43818165309E+03  0.45022180841E+03  0.90916340606E+02 0.  0.
         23    2    1    2    0    0 -0.18313274178E+01 -0.75799611234E+02 -0.31132425699E+03  0.33309855220E+03  0.91010536003E+02 0.  0.
        -11    1    3    3    0    0  0.50544885694E+02  0.42562804007E+02 -0.29835361689E+03  0.30558347217E+03  0.00000000000E+00 0.  1.
         11    1    3    3    0    0 -0.36685041209E+02  0.47514579408E+01 -0.13982803620E+03  0.14463833623E+03  0.00000000000E+00 0. -1.
        -11    1    4    4    0    0  0.41574625590E+02 -0.54911289593E+02 -0.15730892284E+03  0.17172593404E+03  0.00000000000E+00 0.  1.
         11    1    4    4    0    0 -0.43405953007E+02 -0.20888321642E+02 -0.15401533415E+03  0.16137261816E+03  0.00000000000E+00 0. -1.
          2    1    1    2  501    0 -0.12028517067E+02  0.28485349287E+02 -0.10167046429E+02  0.32549488167E+02  0.00000000000E+00 0. -1.
<scales pt_clust_5="13000.00000" pt_clust_6="13000.00000" pt_clust_7="13000.00000" pt_clust_8="13000.00000" pt_clust_9="30.92087"></scales>
<clustering>
<clus scale="   30.921">  1  9  2 -1</clus>
<clus scale="   90.916">  5  6 -1 -1</clus>
<clus scale="   91.011">  7  8 -1 -1</clus>
<clus scale="  107.976">  2  5  1 -1</clus>
<clus scale="   30.921">  1  5  2 -1</clus>
</clustering>
</event>
<event>
 9    1  0.1881049E-005  0.1081567E+03  0.7546771E-02  0.1269238E+00
         -1   -1    0    0    0  501 -0.00000000000E+00  0.00000000000E+00  0.25753190822E+03  0.25753190822E+03  0.00000000000E+00 0.  1.
         21   -1    0    0  501  502  0.00000000000E+00 -0.00000000000E+00 -0.19134813689E+03  0.19134813689E+03  0.00000000000E+00 0. -1.
         23    2    1    2    0    0  0.10206343273E+02 -0.32193559146E+02  0.21913551808E+03  0.24422112172E+03  0.10238645573E+03 0.  0.
         23    2    1    2    0    0 -0.27143950481E+02  0.43023940776E+02 -0.15208640250E+03  0.18453608748E+03  0.91298632125E+02 0.  0.
        -11    1    4    4    0    0 -0.16430667736E+02  0.68754304289E+02 -0.13342323592E+03  0.15099298356E+03  0.00000000000E+00 0. -1.
         11    1    4    4    0    0 -0.10713282745E+02 -0.25730363513E+02 -0.18663166584E+02  0.33543103920E+02  0.00000000000E+00 0.  1.
        -13    1    3    3    0    0 -0.41708064045E+01 -0.66424972017E+02  0.17052791259E+03  0.18305584259E+03  0.00000000000E+00 0.  1.
         13    1    3    3    0    0  0.14377149677E+02  0.34231412871E+02  0.48607605492E+02  0.61165279134E+02  0.00000000000E+00 0. -1.
         -1    1    1    2    0  502  0.16937607208E+02 -0.10830381630E+02 -0.86534424656E+00  0.20122835905E+02  0.00000000000E+00 0.  1.
<scales pt_clust_5="13000.00000" pt_clust_6="13000.00000" pt_clust_7="13000.00000" pt_clust_8="13000.00000" pt_clust_9="20.10422"></scales>
<clustering>
<clus scale="   20.104">  2  9  1 -1</clus>
<clus scale="   91.299">  5  6 -1 -1</clus>
<clus scale="   97.726">  2  5  1 -1</clus>
<clus scale="  102.386">  7  8 -1 -1</clus>
<clus scale="   20.104">  2  5  1 -1</clus>
</clustering>
</event>
<event>
 9    1  0.1881049E-005  0.1304411E+03  0.7546771E-02  0.1228219E+00
         21   -1    0    0  501  502  0.00000000000E+00  0.00000000000E+00  0.30958781826E+03  0.30958781826E+03  0.00000000000E+00 0.  1.
         -2   -1    0    0    0  501 -0.00000000000E+00 -0.00000000000E+00 -0.14041242388E+03  0.14041242388E+03  0.00000000000E+00 0. -1.
         23    2    1    2    0    0  0.80666113360E+02 -0.10139813189E+02 -0.46865728479E+02  0.13041854358E+03  0.90569102613E+02 0.  0.
         23    2    1    2    0    0 -0.11469650346E+03 -0.44750238219E+02  0.95690720667E+02  0.18299764201E+03  0.95778657502E+02 0.  0.
        -11    1    3    3    0    0  0.61847457329E+01 -0.40686855089E+02 -0.17640056135E+02  0.44775471379E+02  0.00000000000E+00 0.  1.
         11    1    3    3    0    0  0.74481367627E+02  0.30547041899E+02 -0.29225672345E+02  0.85643072203E+02  0.00000000000E+00 0. -1.
        -13    1    4    4    0    0 -0.23796548976E+02 -0.46045752677E+02  0.11564043035E+01  0.51844231634E+02  0.00000000000E+00 0. -1.
         13    1    4    4    0    0 -0.90899954486E+02  0.12955144582E+01  0.94534316364E+02  0.13115341038E+03  0.00000000000E+00 0.  1.
         -2    1    1    2    0  502  0.34030390102E+02  0.54890051409E+02  0.12035040220E+03  0.13658405655E+03  0.00000000000E+00 0. -1.
<scales pt_clust_5="13000.00000" pt_clust_6="13000.00000" pt_clust_7="13000.00000" pt_clust_8="13000.00000" pt_clust_9="64.58316"></scales>
<clustering>
<clus scale="   64.583">  1  9  2 -1</clus>
<clus scale="   90.569">  5  6 -1 -1</clus>
<clus scale="   95.779">  7  8 -1 -1</clus>
<clus scale="  126.665">  2  5  1 -1</clus>
<clus scale="   64.583">  1  5  2 -1</clus>
</clustering>
</event>
<event>
 9    1  0.1881049E-005  0.1209789E+03  0.7546771E-02  0.1242197E+00
         -1   -1    0    0    0  501 -0.00000000000E+00  0.00000000000E+00  0.20853891947E+02  0.20853891947E+02  0.00000000000E+00 0.  1.
         21   -1    0    0  501  502  0.00000000000E+00 -0.00000000000E+00 -0.85492664072E+03  0.85492664072E+03  0.00000000000E+00 0. -1.
         23    2    1    2    0    0 -0.74229697518E+02 -0.20230879345E+02 -0.40421949823E+03  0.42150907627E+03  0.91417515587E+02 0.  0.
         23    2    1    2    0    0  0.82735009295E+02  0.13554800546E+01 -0.39893212466E+03  0.41705940119E+03  0.89133523138E+02 0.  0.
        -11    1    3    3    0    0  0.45505265137E+01 -0.38368090546E+02 -0.13273509947E+03  0.13824407508E+03  0.00000000000E+00 0.  1.
         11    1    3    3    0    0 -0.78780224032E+02  0.18137211200E+02 -0.27148439876E+03  0.28326500119E+03  0.00000000000E+00 0. -1.
        -13    1    4    4    0    0  0.19014991054E+01 -0.27346695946E+02 -0.43451220788E+02  0.51375734213E+02  0.00000000000E+00 0.  1.
         13    1    4    4    0    0  0.80833510189E+02  0.28702176000E+02 -0.35548090387E+03  0.36568366697E+03  0.00000000000E+00 0. -1.
         -1    1    1    2    0  502 -0.85053117762E+01  0.18875399291E+02 -0.30921125890E+02  0.37212055212E+02  0.00000000000E+00 0.  1.
<scales pt_clust_5="13000.00000" pt_clust_6="13000.00000" pt_clust_7="13000.00000" pt_clust_8="13000.00000" pt_clust_9="20.70318"></scales>
<clustering>
<clus scale="   20.703">  2  9  1 -1</clus>
<clus scale="   89.134">  7  8 -1 -1</clus>
<clus scale="   91.418">  5  6 -1 -1</clus>
<clus scale="  119.262">  2  7  1 -1</clus>
<clus scale="   20.703">  2  5  1 -1</clus>
</clustering>
</event>
<event>
 9    1  0.1881049E-005  0.2326430E+03  0.7546771E-02  0.1133521E+00
         21   -1    0    0  501  502  0.00000000000E+00  0.00000000000E+00  0.78371897925E+02  0.78371897925E+02  0.00000000000E+00 0. -1.
          1   -1    0    0  502    0 -0.00000000000E+00 -0.00000000000E+00 -0.17403726531E+04  0.17403726531E+04  0.00000000000E+00 0. -1.
         23    2    1    2    0    0 -0.95594555437E+02  0.13154419206E+03 -0.68724764226E+03  0.71241850666E+03  0.93747604504E+02 0.  0.
         23    2    1    2    0    0  0.11517485052E+03  0.10215036598E+03 -0.77762220219E+03  0.79996493328E+03  0.10746004686E+03 0.  0.
        -11    1    3    3    0    0 -0.39128807983E+02  0.12273829699E+03 -0.51817896426E+03  0.53395242500E+03  0.00000000000E+00 0. -1.
         11    1    3    3    0    0 -0.56465747454E+02  0.88058950737E+01 -0.16906867800E+03  0.17846608166E+03  0.00000000000E+00 0.  1.
        -11    1    4    4    0    0  0.21766318509E+02  0.58246397899E+01 -0.18724952699E+02  0.29297148388E+02  0.00000000000E+00 0.  1.
         11    1    4    4    0    0  0.93408532009E+02  0.96325726191E+02 -0.75889724950E+03  0.77066778489E+03  0.00000000000E+00 0. -1.
          1    1    1    2  501    0 -0.19580295081E+02 -0.23369455805E+03 -0.19713091069E+03  0.30636111105E+03  0.00000000000E+00 0. -1.
<scales pt_clust_5="13000.00000" pt_clust_6="13000.00000" pt_clust_7="13000.00000" pt_clust_8="13000.00000" pt_clust_9="206.33734"></scales>
<clustering>
<clus scale="   93.748">  5  6 -1 -1</clus>
<clus scale="  107.460">  7  8 -1 -1</clus>
<clus scale="  187.699">  2  5  1 -1</clus>
<clus scale="  206.337">  1  9  2 -1</clus>
<clus scale="  206.337">  1  5  2 -1</clus>
</clustering>
</event>
<event>
 9    1  0.1881049E-005  0.1096853E+03  0.7546771E-02  0.1261803E+00
          1   -1    0    0  502    0 -0.00000000000E+00  0.00000000000E+00  0.26633666046E+03  0.26633666046E+03  0.00000000000E+00 0. -1.
         21   -1    0    0  501  502  0.00000000000E+00 -0.00000000000E+00 -0.84553384442E+02  0.84553384442E+02  0.00000000000E+00 0.  1.
         23    2    1    2    0    0  0.46712838570E+02  0.43563915333E+02  0.19008397830E+03  0.22075522918E+03  0.92309524949E+02 0.  0.
         23    2    1    2    0    0 -0.20151680233E+02 -0.42069087571E+02  0.98463064378E+00  0.10195774970E+03  0.90656025063E+02 0.  0.
        -13    1    3    3    0    0  0.65892038512E+02  0.21852879232E+01  0.12439792732E+03  0.14078842475E+03  0.00000000000E+00 0. -1.
         13    1    3    3    0    0 -0.19179199942E+02  0.41378627410E+02  0.65686050984E+02  0.79966804429E+02  0.00000000000E+00 0.  1.
        -13    1    4    4    0    0 -0.36908571366E+02 -0.64255203981E+02  0.21195030023E+01  0.74131411506E+02  0.00000000000E+00 0.  1.
         13    1    4    4    0    0  0.16756891133E+02  0.22186116409E+02 -0.11348723585E+01  0.27826338190E+02  0.00000000000E+00 0. -1.
          1    1    1    2  501    0 -0.26561158337E+02 -0.14948277616E+01 -0.92853329293E+01  0.28177066026E+02  0.00000000000E+00 0. -1.
<scales pt_clust_5="13000.00000" pt_clust_6="13000.00000" pt_clust_7="13000.00000" pt_clust_8="13000.00000" pt_clust_9="26.60319"></scales>
<clustering>
<clus scale="   26.603">  2  9  1 -1</clus>
<clus scale="   90.656">  7  8 -1 -1</clus>
<clus scale="   92.310">  5  6 -1 -1</clus>
<clus scale="  108.297">  2  7  1 -1</clus>
<clus scale="   26.603">  2  5  1 -1</clus>
</clustering>
</event>
<event>
 9    1  0.1881049E-005  0.3048574E+03  0.7546771E-02  0.1082841E+00
          1   -1    0    0  502    0 -0.00000000000E+00  0.00000000000E+00  0.88353116626E+03  0.88353116626E+03  0.00000000000E+00 0. -1.
         21   -1    0    0  501  502  0.00000000000E+00 -0.00000000000E+00 -0.13125005516E+03  0.13125005516E+03  0.00000000000E+00 0. -1.
         23    2    1    2    0    0  0.10996465875E+03  0.24705060543E+03  0.36203728356E+03  0.46080221122E+03  0.90230013661E+02 0.  0.
         23    2    1    2    0    0 -0.12244179263E+03 -0.29211429172E+03  0.38540103028E+03  0.50696978368E+03  0.90341880727E+02 0.  0.
        -11    1    4    4    0    0 -0.38330317838E+02 -0.23531933430E+02  0.79144415754E+02  0.91031882884E+02  0.00000000000E+00 0.  1.
         11    1    4    4    0    0 -0.84111474795E+02 -0.26858235829E+03  0.30625661452E+03  0.41593790079E+03  0.00000000000E+00 0. -1.
        -13    1    3    3    0    0  0.52490730887E+02  0.52006184295E+02  0.14891951881E+03  0.16624362579E+03  0.00000000000E+00 0.  1.
         13    1    3    3    0    0  0.57473927867E+02  0.19504442114E+03  0.21311776474E+03  0.29455858543E+03  0.00000000000E+00 0. -1.
          1    1    1    2  501    0  0.12477133878E+02  0.45063686290E+02  0.48427972694E+01  0.47009226512E+02  0.00000000000E+00 0. -1.
<scales pt_clust_5="13000.00000" pt_clust_6="13000.00000" pt_clust_7="13000.00000" pt_clust_8="13000.00000" pt_clust_9="46.75911"></scales>
<clustering>
<clus scale="   46.759">  2  9  1 -1</clus>
<clus scale="   90.230">  7  8 -1 -1</clus>
<clus scale="   90.342">  5  6 -1 -1</clus>
<clus scale="  304.824">  1  7  2 -1</clus>
<clus scale="   46.759">  2  5  1 -1</clus>
</clustering>
</event>
<event>
 9    1  0.1881049E-005  0.9900962E+02  0.7546771E-02  0.1283673E+00
         -1   -1    0    0    0  501 -0.00000000000E+00  0.00000000000E+00  0.31059153292E+03  0.31059153292E+03  0.00000000000E+00 0.  1.
         21   -1    0    0  501  502  0.00000000000E+00 -0.00000000000E+00 -0.11685377871E+03  0.11685377871E+03  0.00000000000E+00 0. -1.
         23    2    1    2    0    0 -0.20908757770E+02 -0.24192668455E+02  0.22847925056E+03  0.24839123901E+03  0.92048782275E+02 0.  0.
         23    2    1    2    0    0  0.35708234250E+02  0.69859726623E+02 -0.49402375267E+02  0.12885998854E+03  0.89492136910E+02 0.  0.
        -13    1    3    3    0    0 -0.49789614911E+02 -0.23787019368E+02  0.20131606339E+03  0.20874143197E+03  0.00000000000E+00 0.  1.
         13    1    3    3    0    0  0.28880857141E+02 -0.40564908633E+00  0.27163187178E+02  0.39649807037E+02  0.00000000000E+00 0. -1.
        -13    1    4    4    0    0 -0.61152991368E+01  0.29831387203E+02 -0.62483140106E+02  0.69508642221E+02  0.00000000000E+00 0.  1.
         13    1    4    4    0    0  0.41823533386E+02  0.40028339420E+02  0.13080764839E+02  0.59351346323E+02  0.00000000000E+00 0. -1.
         -1    1    1    2    0  502 -0.14799476480E+02 -0.45667058168E+02  0.14660878918E+02  0.50194084078E+02  0.00000000000E+00 0.  1.
<scales pt_clust_5="13000.00000" pt_clust_6="13000.00000" pt_clust_7="13000.00000" pt_clust_8="13000.00000" pt_clust_9="48.00526"></scales>
<clustering>
<clus scale="   48.005">  2  9  1 -1</clus>
<clus scale="   89.492">  7  8 -1 -1</clus>
<clus scale="   92.049">  5  6 -1 -1</clus>
<clus scale="   96.637">  2  7  1 -1</clus>
<clus scale="   48.005">  2  5  1 -1</clus>
</clustering>
</event>
<event>
 9    1  0.1881049E-005  0.1466782E+03  0.7546771E-02  0.1206052E+00
         -2   -1    0    0    0  501 -0.00000000000E+00  0.00000000000E+00  0.49750708611E+03  0.49750708611E+03  0.00000000000E+00 0.  1.
         21   -1    0    0  501  502  0.00000000000E+00 -0.00000000000E+00 -0.11190914316E+03  0.11190914316E+03  0.00000000000E+00 0. -1.
         23    2    1    2    0    0  0.10305847767E+03 -0.27792083227E+02  0.34225584087E+03  0.37010635859E+03  0.91903244511E+02 0.  0.
         23    2    1    2    0    0 -0.15551626181E+03  0.49092125924E+01  0.42226441358E+02  0.18206749490E+03  0.84593689447E+02 0.  0.
        -11    1    3    3    0    0  0.59196345478E+02  0.26517842986E+02  0.21955703813E+03  0.22893819320E+03  0.00000000000E+00 0.  1.
         11    1    3    3    0    0  0.43862132194E+02 -0.54309926213E+02  0.12269880274E+03  0.14116816539E+03  0.00000000000E+00 0. -1.
        -11    1    4    4    0    0 -0.31740456820E+02  0.23261218663E+02 -0.17912904724E+02  0.43236709501E+02  0.00000000000E+00 0.  1.
         11    1    4    4    0    0 -0.12377580499E+03 -0.18352006071E+02  0.60139346082E+02  0.13883078540E+03  0.00000000000E+00 0. -1.
         -2    1    1    2    0  502  0.52457784139E+02  0.22882870635E+02  0.11156607293E+01  0.57242375773E+02  0.00000000000E+00 0.  1.
<scales pt_clust_5="13000.00000" pt_clust_6="13000.00000" pt_clust_7="13000.00000" pt_clust_8="13000.00000" pt_clust_9="57.23150"></scales>
<clustering>
<clus scale="   57.232">  2  9  1 -1</clus>
<clus scale="   84.594">  7  8 -1 -1</clus>
<clus scale="   91.903">  5  6 -1 -1</clus>
<clus scale="  142.212">  2  7  1 -1</clus>
<clus scale="   57.232">  2  5  1 -1</clus>
</clustering>
</event>
<event>
 9    1  0.1881049E-005  0.9810815E+02  0.7546771E-02  0.1284682E+00
          4   -1    0    0  502    0 -0.00000000000E+00  0.00000000000E+00  0.79659076972E+02  0.79659076972E+02  0.00000000000E+00 0. -1.
         21   -1    0    0  501  502  0.00000000000E+00 -0.00000000000E+00 -0.42453128070E+03  0.42453128070E+03  0.00000000000E+00 0.  1.
         23    2    1    2    0    0 -0.32906715496E+02 -0.20341938299E+02  0.11819045289E+02  0.99308042695E+02  0.90695926777E+02 0.  0.
         23    2    1    2    0    0 -0.51991932118E+01  0.55791080896E+02 -0.11000934676E+03  0.15276991368E+03  0.89982852989E+02 0.  0.
        -11    1    3    3    0    0  0.16959234767E+01  0.31116211797E+02  0.19596408134E+02  0.36811873149E+02  0.00000000000E+00 0.  1.
         11    1    3    3    0    0 -0.34602638972E+02 -0.51458150096E+02 -0.77773628452E+01  0.62496169546E+02  0.00000000000E+00 0. -1.
        -11    1    4    4    0    0 -0.19879513475E+02  0.36014448321E+02 -0.11949429024E+03  0.12637690036E+03  0.00000000000E+00 0.  1.
         11    1    4    4    0    0  0.14680320263E+02  0.19776632576E+02  0.94849434815E+01  0.26393013316E+02  0.00000000000E+00 0. -1.
          4    1    1    2  501    0  0.38105908708E+02 -0.35449142597E+02 -0.24668190225E+03  0.25211240130E+03  0.00000000000E+00 0. -1.
<scales pt_clust_5="13000.00000" pt_clust_6="13000.00000" pt_clust_7="13000.00000" pt_clust_8="13000.00000" pt_clust_9="52.04519"></scales>
<clustering>
<clus scale="   52.045">  2  9  1 -1</clus>
<clus scale="   89.983">  7  8 -1 -1</clus>
<clus scale="   90.696">  5  6 -1 -1</clus>
<clus scale="   97.449">  2  7  1 -1</clus>
<clus scale="   52.045">  2  5  1 -1</clus>
</clustering>
</event>
<event>
 9    1  0.1881049E-005  0.2062768E+03  0.7546771E-02  0.1175476E+00
          2   -1    0    0  502    0 -0.00000000000E+00  0.00000000000E+00  0.73030423062E+03  0.73030423062E+03  0.00000000000E+00 0. -1.
         21   -1    0    0  501  502  0.00000000000E+00 -0.00000000000E+00 -0.92104119535E+02  0.92104119535E+02  0.00000000000E+00 0. -1.
         23    2    1    2    0    0 -0.48056773029E+02  0.47712305114E+01  0.18605879507E+03  0.21141911661E+03  0.88022437885E+02 0.  0.
         23    2    1    2    0    0  0.15444618583E+03 -0.14207356292E+03  0.31711614067E+03  0.39098369812E+03  0.90923505862E+02 0.  0.
        -11    1    3    3    0    0  0.23910592103E+01  0.39024501541E+02  0.81112317751E+02  0.90043528227E+02  0.00000000000E+00 0.  1.
         11    1    3    3    0    0 -0.50447832240E+02 -0.34253271030E+02  0.10494647732E+03  0.12137558838E+03  0.00000000000E+00 0. -1.
        -11    1    4    4    0    0  0.14779855352E+03 -0.12313319751E+03  0.22190748350E+03  0.29368201850E+03  0.00000000000E+00 0. -1.
         11    1    4    4    0    0  0.66476323107E+01 -0.18940365409E+02  0.95208657167E+02  0.97301679619E+02  0.00000000000E+00 0.  1.
          2    1    1    2  501    0 -0.10638941280E+03  0.13730233241E+03  0.13502517534E+03  0.22000553543E+03  0.00000000000E+00 0. -1.
<scales pt_clust_5="13000.00000" pt_clust_6="13000.00000" pt_clust_7="13000.00000" pt_clust_8="13000.00000" pt_clust_9="185.15682"></scales>
<clustering>
<clus scale="   88.022">  5  6 -1 -1</clus>
<clus scale="   90.924">  7  8 -1 -1</clus>
<clus scale="  100.400">  1  5  2 -1</clus>
<clus scale="  185.157">  2  9  1 -1</clus>
<clus scale="  185.157">  2  5  1 -1</clus>
</clustering>
</event>
<event>
 9    1  0.1881049E-005  0.1072310E+03  0.7546771E-02  0.1265885E+00
         21   -1    0    0  501  502  0.00000000000E+00  0.00000000000E+00  0.55135131611E+02  0.55135131611E+02  0.00000000000E+00 0. -1.
          4   -1    0    0  502    0 -0.00000000000E+00 -0.00000000000E+00 -0.47042235628E+03  0.47042235628E+03  0.00000000000E+00 0. -1.
         23    2    1    2    0    0 -0.61388796582E+02 -0.22805139315E+02 -0.31522908381E+03  0.33493771341E+03  0.92332214658E+02 0.  0.
         23    2    1    2    0    0  0.37249153089E+02 -0.84577099936E+01 -0.11142696341E+03  0.14951821415E+03  0.92090694012E+02 0.  0.
        -11    1    4    4    0    0  0.46466029276E+02 -0.37167615006E+02 -0.10171284581E+03  0.11783898542E+03  0.00000000000E+00 0.  1.
         11    1    4    4    0    0 -0.92168761867E+01  0.28709905012E+02 -0.97141176076E+01  0.31679228737E+02  0.00000000000E+00 0. -1.
        -13    1    3    3    0    0 -0.42200634158E+02  0.28535480638E+02 -0.21228737403E+03  0.21831421472E+03  0.00000000000E+00 0.  1.
         13    1    3    3    0    0 -0.19188162424E+02 -0.51340619954E+02 -0.10294170978E+03  0.11662349869E+03  0.00000000000E+00 0. -1.
          4    1    1    2  501    0  0.24139643493E+02  0.31262849309E+02  0.11368822553E+02  0.41101560325E+02  0.00000000000E+00 0. -1.
<scales pt_clust_5="13000.00000" pt_clust_6="13000.00000" pt_clust_7="13000.00000" pt_clust_8="13000.00000" pt_clust_9="39.49795"></scales>
<clustering>
<clus scale="   39.498">  1  9  2 -1</clus>
<clus scale="   92.091">  5  6 -1 -1</clus>
<clus scale="   92.332">  7  8 -1 -1</clus>
<clus scale="  107.023">  1  5  2 -1</clus>
<clus scale="   39.498">  1  5  2 -1</clus>
</clustering>
</event>
<event>
 9    1  0.1881049E-005  0.1034179E+03  0.7546771E-02  0.1274837E+00
          4   -1    0    0  502    0 -0.00000000000E+00  0.00000000000E+00  0.28187262304E+03  0.28187262304E+03  0.00000000000E+00 0. -1.
         21   -1    0    0  501  502  0.00000000000E+00 -0.00000000000E+00 -0.91629474858E+02  0.91629474858E+02  0.00000000000E+00 0. -1.
         23    2    1    2    0    0  0.44799789544E+02  0.43761719963E+01  0.17268805939E+03  0.20001834232E+03  0.90332714904E+02 0.  0.
         23    2    1    2    0    0 -0.34750360560E+02 -0.32593709661E+02  0.60360893248E+02  0.12123858978E+03  0.93730575320E+02 0.  0.
        -11    1    3    3    0    0 -0.21989403108E+02  0.19224709982E+02  0.30527666243E+02  0.42249990878E+02  0.00000000000E+00 0.  1.
         11    1    3    3    0    0  0.66789192652E+02 -0.14848537986E+02  0.14216039315E+03  0.15776835144E+03  0.00000000000E+00 0. -1.
        -13    1    4    4    0    0 -0.56095733231E+02 -0.29820104977E+00  0.88309583709E+01  0.56787375678E+02  0.00000000000E+00 0.  1.
         13    1    4    4    0    0  0.21345372671E+02 -0.32295508611E+02  0.51529934878E+02  0.64451214103E+02  0.00000000000E+00 0. -1.
          4    1    1    2  501    0 -0.10049428984E+02  0.28217537664E+02 -0.42805804455E+02  0.52245165803E+02  0.00000000000E+00 0. -1.
<scales pt_clust_5="13000.00000" pt_clust_6="13000.00000" pt_clust_7="13000.00000" pt_clust_8="13000.00000" pt_clust_9="29.95364"></scales>
<clustering>
<clus scale="   29.954">  2  9  1 -1</clus>
<clus scale="   90.333">  5  6 -1 -1</clus>
<clus scale="   93.731">  7  8 -1 -1</clus>
<clus scale="  100.349">  1  5  2 -1</clus>
<clus scale="   29.954">  2  5  1 -1</clus>
</clustering>
</event>
<event>
 9    1  0.1881049E-005  0.1025153E+03  0.7546771E-02  0.1276226E+00
          1   -1    0    0  502    0 -0.00000000000E+00  0.00000000000E+00  0.10190345694E+03  0.10190345694E+03  0.00000000000E+00 0. -1.
         21   -1    0    0  501  502  0.00000000000E+00 -0.00000000000E+00 -0.40862720710E+03  0.40862720710E+03  0.00000000000E+00 0. -1.
         23    2    1    2    0    0 -0.44945769448E+02 -0.33517909399E+02  0.28894599080E+02  0.11049919788E+03  0.90728178837E+02 0.  0.
         23    2    1    2    0    0  0.10048075523E+02  0.17697919747E+02 -0.42458574977E+02  0.10437833434E+03  0.93155385807E+02 0.  0.
        -11    1    4    4    0    0 -0.39116967399E+02  0.64446165626E+01 -0.19565668476E+01  0.39692548104E+02  0.00000000000E+00 0.  1.
         11    1    4    4    0    0  0.49165042923E+02  0.11253303185E+02 -0.40502008130E+02  0.64685786234E+02  0.00000000000E+00 0. -1.
        -13    1    3    3    0    0 -0.11980404805E+02 -0.28398779724E+02  0.58353521785E+02  0.65993592824E+02  0.00000000000E+00 0. -1.
         13    1    3    3    0    0 -0.32965364643E+02 -0.51191296756E+01 -0.29458922705E+02  0.44505605059E+02  0.00000000000E+00 0.  1.
          1    1    1    2  501    0  0.34897693925E+02  0.15819989652E+02 -0.29315977426E+03  0.29565313183E+03  0.00000000000E+00 0. -1.
<scales pt_clust_5="13000.00000" pt_clust_6="13000.00000" pt_clust_7="13000.00000" pt_clust_8="13000.00000" pt_clust_9="38.31607"></scales>
<clustering>
<clus scale="   38.316">  2  9  1 -1</clus>
<clus scale="   90.728">  7  8 -1 -1</clus>
<clus scale="   93.155">  5  6 -1 -1</clus>
<clus scale="  100.315">  1  7  2 -1</clus>
<clus scale="   38.316">  2  5  1 -1</clus>
</clustering>
</event>
<event>
 9    1  0.1881049E-005  0.1106436E+03  0.7546771E-02  0.1259894E+00
         -1   -1    0    0    0  501 -0.00000000000E+00  0.00000000000E+00  0.59807724345E+03  0.59807724345E+03  0.00000000000E+00 0. -1.
         21   -1    0    0  501  502  0.00000000000E+00 -0.00000000000E+00 -0.58760740503E+02  0.58760740503E+02  0.00000000000E+00 0. -1.
         23    2    1    2    0    0  0.52919437102E+02 -0.20781033744E+02  0.29548265583E+03  0.31457248554E+03  0.91725299530E+02 0.  0.
         23    2    1    2    0    0 -0.74788415062E+02 -0.33065498514E+02  0.25541283246E+03  0.28300527453E+03  0.90386039891E+02 0.  0.
        -13    1    4    4    0    0 -0.54070573994E+01 -0.47424034113E+02  0.13626555041E+03  0.14438343226E+03  0.00000000000E+00 0. -1.
         13    1    4    4    0    0 -0.69381357663E+02  0.14358535599E+02  0.11914728204E+03  0.13862184227E+03  0.00000000000E+00 0.  1.
        -13    1    3    3    0    0  0.30025555103E+02 -0.45688866534E+02  0.25944700007E+03  0.26514477617E+03  0.00000000000E+00 0.  1.
         13    1    3    3    0    0  0.22893881999E+02  0.24907832789E+02  0.36035655758E+02  0.49427709366E+02  0.00000000000E+00 0. -1.
         -1    1    1    2    0  502  0.21868977960E+02  0.53846532258E+02 -0.11578985345E+02  0.59260223884E+02  0.00000000000E+00 0. -1.
<scales pt_clust_5="13000.00000" pt_clust_6="13000.00000" pt_clust_7="13000.00000" pt_clust_8="13000.00000" pt_clust_9="58.11799"></scales>
<clustering>
<clus scale="   58.118">  2  9  1 -1</clus>
<clus scale="   90.386">  5  6 -1 -1</clus>
<clus scale="   91.725">  7  8 -1 -1</clus>
<clus scale="  109.536">  2  5  1 -1</clus>
<clus scale="   58.118">  2  5  1 -1</clus>
</clustering>
</event>
<event>
 9    1  0.1881049E-005  0.9405603E+02  0.7546771E-02  0.1294210E+00
          1   -1    0    0  502    0 -0.00000000000E+00  0.00000000000E+00  0.42204355042E+03  0.42204355042E+03  0.00000000000E+00 0. -1.
         21   -1    0    0  501  502  0.00000000000E+00 -0.00000000000E+00 -0.46894491321E+02  0.46894491321E+02  0.00000000000E+00 0.  1.
         23    2    1    2    0    0  0.69887581977E+01 -0.18875811228E+02  0.28066855683E+03  0.29580689691E+03  0.91223585098E+02 0.  0.
         23    2    1    2    0    0 -0.38628063872E+02  0.11048268903E+02  0.99895401330E+02  0.14009121120E+03  0.89622902684E+02 0.  0.
        -11    1    4    4    0    0 -0.13568868970E+02 -0.39412621775E+02  0.38170542316E+02  0.56519547600E+02  0.00000000000E+00 0.  1.
         11    1    4    4    0    0 -0.25059194902E+02  0.50460890677E+02  0.61724859014E+02  0.83571663604E+02  0.00000000000E+00 0. -1.
        -11    1    3    3    0    0  0.22025884492E+02  0.32768419519E+02  0.12704269084E+03  0.13303666487E+03  0.00000000000E+00 0. -1.
         11    1    3    3    0    0 -0.15037126294E+02 -0.51644230746E+02  0.15362586599E+03  0.16277023204E+03  0.00000000000E+00 0.  1.
          1    1    1    2  501    0  0.31639305674E+02  0.78275423249E+01 -0.54148990552E+01  0.33039933629E+02  0.00000000000E+00 0. -1.
<scales pt_clust_5="13000.00000" pt_clust_6="13000.00000" pt_clust_7="13000.00000" pt_clust_8="13000.00000" pt_clust_9="32.59319"></scales>
<clustering>
<clus scale="   32.593">  2  9  1 -1</clus>
<clus scale="   89.623">  5  6 -1 -1</clus>
<clus scale="   91.224">  7  8 -1 -1</clus>
<clus scale="   92.504">  2  5  1 -1</clus>
<clus scale="   32.593">  2  5  1 -1</clus>
</clustering>
</event>
<event>
 9    1  0.1881049E-005  0.9556772E+02  0.7546771E-02  0.1292871E+00
         -1   -1    0    0    0  501 -0.00000000000E+00  0.00000000000E+00  0.25404767061E+03  0.25404767061E+03  0.00000000000E+00 0.  1.
         21   -1    0    0  501  502  0.00000000000E+00 -0.00000000000E+00 -0.95420153528E+02  0.95420153528E+02  0.00000000000E+00 0. -1.
         23    2    1    2    0    0 -0.19245929550E+02 -0.13204838248E+02  0.20017843961E+03  0.22196667283E+03  0.93021624383E+02 0.  0.
         23    2    1    2    0    0 -0.36259101089E+01  0.24413779434E+02 -0.45291545745E+02  0.10175714863E+03  0.87715525032E+02 0.  0.
        -13    1    4    4    0    0  0.13304912378E+02 -0.18898691966E+02 -0.49932496990E+02  0.55022136519E+02  0.00000000000E+00 0. -1.
         13    1    4    4    0    0 -0.16930822487E+02  0.43312471400E+02  0.46409512448E+01  0.46735012115E+02  0.00000000000E+00 0.  1.
        -13    1    3    3    0    0  0.25165142347E+02  0.11404321992E+02  0.18313255783E+02  0.33146919718E+02  0.00000000000E+00 0. -1.
         13    1    3    3    0    0 -0.44411071897E+02 -0.24609160240E+02  0.18186518383E+03  0.18881975311E+03  0.00000000000E+00 0.  1.
         -1    1    1    2    0  502  0.22871839659E+02 -0.11208941186E+02  0.37406232158E+01  0.25744002679E+02  0.00000000000E+00 0.  1.
<scales pt_clust_5="13000.00000" pt_clust_6="13000.00000" pt_clust_7="13000.00000" pt_clust_8="13000.00000" pt_clust_9="25.47080"></scales>
<clustering>
<clus scale="   25.471">  2  9  1 -1</clus>
<clus scale="   87.716">  5  6 -1 -1</clus>
<clus scale="   90.411">  2  5  1 -1</clus>
<clus scale="   93.022">  7  8 -1 -1</clus>
<clus scale="   25.471">  2  5  1 -1</clus>
</clustering>
</event>
<event>
 9    1  0.1881049E-005  0.1573472E+03  0.7546771E-02  0.1205939E+00
          4   -1    0    0  502    0 -0.00000000000E+00  0.00000000000E+00  0.83665247088E+03  0.83665247088E+03  0.00000000000E+00 0. -1.
         21   -1    0    0  501  502  0.00000000000E+00 -0.00000000000E+00 -0.13302963641E+03  0.13302963641E+03  0.00000000000E+00 0. -1.
         23    2    1    2    0    0 -0.38745819783E+02 -0.58930945612E+02  0.15223232379E+03  0.19107710854E+03  0.91442255548E+02 0.  0.
         23    2    1    2    0    0  0.93209282269E+02  0.17073471847E+03  0.60593114404E+03  0.64280723347E+03  0.90610560601E+02 0.  0.
        -13    1    4    4    0    0  0.10533243192E+03  0.14054562516E+03  0.55710911772E+03  0.58413916408E+03  0.00000000000E+00 0. -1.
         13    1    4    4    0    0 -0.12123149648E+02  0.30189093302E+02  0.48822026317E+02  0.58668069386E+02  0.00000000000E+00 0.  1.
        -13    1    3    3    0    0 -0.18434988482E+02 -0.47727653071E+02  0.15890647915E+03  0.16694024914E+03  0.00000000000E+00 0.  1.
         13    1    3    3    0    0 -0.20310831300E+02 -0.11203292541E+02 -0.66741553573E+01  0.24136859398E+02  0.00000000000E+00 0. -1.
          4    1    1    2  501    0 -0.54463462486E+02 -0.11180377285E+03 -0.54540633354E+02  0.13579776529E+03  0.00000000000E+00 0. -1.
<scales pt_clust_5="13000.00000" pt_clust_6="13000.00000" pt_clust_7="13000.00000" pt_clust_8="13000.00000" pt_clust_9="128.63847"></scales>
<clustering>
<clus scale="   90.611">  5  6 -1 -1</clus>
<clus scale="   91.442">  7  8 -1 -1</clus>
<clus scale="  115.481">  1  7  2 -1</clus>
<clus scale="  128.638">  2  9  1 -1</clus>
<clus scale="  128.638">  2  5  1 -1</clus>
</clustering>
</event>
<event>
 9    1  0.2038464E-005  0.1339139E+03  0.7546771E-02  0.1223411E+00
          2   -1    0    0  502    0 -0.00000000000E+00  0.00000000000E+00  0.75027065900E+03  0.75027065900E+03  0.00000000000E+00 0. -1.
         21   -1    0    0  501  502  0.00000000000E+00 -0.00000000000E+00 -0.13349467941E+03  0.13349467941E+03  0.00000000000E+00 0. -1.
         23    2    1    2    0    0 -0.97505208750E+02 -0.33951602392E+02  0.54227015047E+03  0.56068656365E+03  0.98247287611E+02 0.  0.
         23    2    1    2    0    0  0.59155264952E+02  0.36633690036E+02  0.17832864410E+03  0.21236703782E+03  0.91963475516E+02 0.  0.
        -11    1    3    3    0    0 -0.46518337015E+02 -0.64192163463E+02  0.24308811868E+03  0.25568813615E+03  0.00000000000E+00 0. -1.
         11    1    3    3    0    0 -0.50986871735E+02  0.30240561071E+02  0.29918203180E+03  0.30499842749E+03  0.00000000000E+00 0.  1.
        -13    1    4    4    0    0  0.40645694122E+02 -0.16006914030E+02  0.27677545886E+02  0.51714024149E+02  0.00000000000E+00 0.  1.
         13    1    4    4    0    0  0.18509570831E+02  0.52640604066E+02  0.15065109822E+03  0.16065301367E+03  0.00000000000E+00 0. -1.
          2    1    1    2  501    0  0.38349943798E+02 -0.26820876435E+01 -0.10382281499E+03  0.11071173694E+03  0.00000000000E+00 0. -1.
<scales pt_clust_5="13000.00000" pt_clust_6="13000.00000" pt_clust_7="13000.00000" pt_clust_8="13000.00000" pt_clust_9="38.44362"></scales>
<clustering>
<clus scale="   38.444">  2  9  1 -1</clus>
<clus scale="   91.963">  7  8 -1 -1</clus>
<clus scale="   98.247">  5  6 -1 -1</clus>
<clus scale="  129.374">  2  7  1 -1</clus>
<clus scale="   38.444">  2  5  1 -1</clus>
</clustering>
</event>
<event>
 9    1  0.1881049E-005  0.1298354E+03  0.7546771E-02  0.1227720E+00
         -1   -1    0    0    0  501 -0.00000000000E+00  0.00000000000E+00  0.22868578613E+03  0.22868578613E+03  0.00000000000E+00 0.  1.
         21   -1    0    0  501  502  0.00000000000E+00 -0.00000000000E+00 -0.13051174061E+03  0.13051174061E+03  0.00000000000E+00 0.  1.
         23    2    1    2    0    0  0.55409050577E+02  0.88813342501E+02  0.93976315536E+02  0.16805432159E+03  0.91938753704E+02 0.  0.
         23    2    1    2    0    0 -0.53173950071E+02 -0.58002852313E+02  0.54059264572E+02  0.13248781655E+03  0.91863037215E+02 0.  0.
        -11    1    3    3    0    0 -0.39411835854E+01  0.49191700970E+02 -0.87467389065E+00  0.49357080817E+02  0.00000000000E+00 0. -1.
         11    1    3    3    0    0  0.59350234163E+02  0.39621641531E+02  0.94850989427E+02  0.11869724078E+03  0.00000000000E+00 0.  1.
        -11    1    4    4    0    0 -0.29018409580E+02 -0.75321968329E+02  0.12937212659E+02  0.81748629829E+02  0.00000000000E+00 0. -1.
         11    1    4    4    0    0 -0.24155540491E+02  0.17319116015E+02  0.41122051912E+02  0.50739186724E+02  0.00000000000E+00 0.  1.
         -1    1    1    2    0  502 -0.22351005060E+01 -0.30810490187E+02 -0.49861534590E+02  0.58655388597E+02  0.00000000000E+00 0.  1.
<scales pt_clust_5="13000.00000" pt_clust_6="13000.00000" pt_clust_7="13000.00000" pt_clust_8="13000.00000" pt_clust_9="30.89145"></scales>
<clustering>
<clus scale="   30.891">  2  9  1 -1</clus>
<clus scale="   91.863">  7  8 -1 -1</clus>
<clus scale="   91.939">  5  6 -1 -1</clus>
<clus scale="  129.782">  2  7  1 -1</clus>
<clus scale="   30.891">  2  5  1 -1</clus>
</clustering>
</event>
<event>
 9    1  0.1881049E-005  0.1105605E+03  0.7546771E-02  0.1263432E+00
         21   -1    0    0  501  502  0.00000000000E+00  0.00000000000E+00  0.12336374013E+03  0.12336374013E+03  0.00000000000E+00 0. -1.
          4   -1    0    0  502    0 -0.00000000000E+00 -0.00000000000E+00 -0.19842329824E+03  0.19842329824E+03  0.00000000000E+00 0. -1.
         23    2    1    2    0    0  0.64406946291E+02  0.44596260719E+02 -0.87991191362E+02  0.15412582993E+03  0.99374244622E+02 0.  0.
         23    2    1    2    0    0 -0.18199628429E+02  0.86266826938E+01 -0.11258977416E+02  0.93142864558E+02  0.90239583978E+02 0.  0.
        -11    1    4    4    0    0 -0.44561259648E+02 -0.23869785460E+02 -0.78809351198E+01  0.51162307002E+02  0.00000000000E+00 0.  1.
         11    1    4    4    0    0  0.26361631220E+02  0.32496468154E+02 -0.33780422958E+01  0.41980557557E+02  0.00000000000E+00 0. -1.
        -13    1    3    3    0    0  0.33616744636E+02 -0.12204827398E+02  0.96509506199E+01  0.37043004462E+02  0.00000000000E+00 0. -1.
         13    1    3    3    0    0  0.30790201655E+02  0.56801088117E+02 -0.97642141982E+02  0.11708282547E+03  0.00000000000E+00 0.  1.
          4    1    1    2  501    0 -0.46207317862E+02 -0.53222943413E+02  0.24190610668E+02  0.74518343876E+02  0.00000000000E+00 0. -1.
<scales pt_clust_5="13000.00000" pt_clust_6="13000.00000" pt_clust_7="13000.00000" pt_clust_8="13000.00000" pt_clust_9="70.48261"></scales>
<clustering>
<clus scale="   70.483">  1  9  2 -1</clus>
<clus scale="   90.240">  5  6 -1 -1</clus>
<clus scale="   99.374">  7  8 -1 -1</clus>
<clus scale="  102.428">  1  5  2 -1</clus>
<clus scale="   70.483">  1  5  2 -1</clus>
</clustering>
</event>
<event>
 9    1  0.1881049E-005  0.1892000E+03  0.7546771E-02  0.1186983E+00
         21   -1    0    0  501  502  0.00000000000E+00  0.00000000000E+00  0.55523217973E+02  0.55523217973E+02  0.00000000000E+00 0. -1.
          2   -1    0    0  502    0 -0.00000000000E+00 -0.00000000000E+00 -0.94318858260E+03  0.94318858260E+03  0.00000000000E+00 0. -1.
         23    2    1    2    0    0 -0.20289565308E+02 -0.35061197895E+02 -0.17310715796E+03  0.20017265369E+03  0.91989396609E+02 0.  0.
         23    2    1    2    0    0 -0.10917428868E+03  0.13163702365E+03 -0.37207641467E+03  0.41988157406E+03  0.92802729356E+02 0.  0.
        -13    1    3    3    0    0  0.31997540175E+02 -0.32816801636E+02 -0.59641895628E+02  0.75219284502E+02  0.00000000000E+00 0.  1.
         13    1    3    3    0    0 -0.52287105483E+02 -0.22443962585E+01 -0.11346526233E+03  0.12495336918E+03  0.00000000000E+00 0. -1.
        -13    1    4    4    0    0 -0.36004407736E+02  0.10954090348E+03 -0.25765699541E+03  0.28228116161E+03  0.00000000000E+00 0. -1.
         13    1    4    4    0    0 -0.73169880946E+02  0.22096120166E+02 -0.11441941925E+03  0.13760041245E+03  0.00000000000E+00 0.  1.
          2    1    1    2  501    0  0.12946385399E+03 -0.96575825753E+02 -0.34248179200E+03  0.37865757283E+03  0.00000000000E+00 0. -1.
<scales pt_clust_5="13000.00000" pt_clust_6="13000.00000" pt_clust_7="13000.00000" pt_clust_8="13000.00000" pt_clust_9="164.87663"></scales>
<clustering>
<clus scale="   91.989">  5  6 -1 -1</clus>
<clus scale="   92.803">  7  8 -1 -1</clus>
<clus scale="  100.514">  2  5  1 -1</clus>
<clus scale="  164.877">  1  9  2 -1</clus>
<clus scale="  164.877">  1  5  2 -1</clus>
</clustering>
</event>
<event>
 9    1  0.1881049E-005  0.1497541E+03  0.7546771E-02  0.1201667E+00
          1   -1    0    0  502    0 -0.00000000000E+00  0.00000000000E+00  0.35237424994E+02  0.35237424994E+02  0.00000000000E+00 0. -1.
         21   -1    0    0  501  502  0.00000000000E+00 -0.00000000000E+00 -0.10203789241E+04  0.10203789241E+04  0.00000000000E+00 0. -1.
         23    2    1    2    0    0  0.12340502319E+03 -0.13205970085E+02 -0.24402042169E+03  0.28713877917E+03  0.86599739650E+02 0.  0.
         23    2    1    2    0    0 -0.10066942589E+03  0.29937312261E+02 -0.71970238819E+03  0.73304304658E+03  0.91378359554E+02 0.  0.
        -11    1    3    3    0    0  0.10144825434E+03 -0.36874065258E+02 -0.13176629622E+03  0.17033438237E+03  0.00000000000E+00 0. -1.
         11    1    3    3    0    0  0.21956768852E+02  0.23668095173E+02 -0.11225412547E+03  0.11680439680E+03  0.00000000000E+00 0.  1.
        -13    1    4    4    0    0 -0.51500284059E+02 -0.31598205136E+02 -0.30541481427E+03  0.31133412052E+03  0.00000000000E+00 0.  1.
         13    1    4    4    0    0 -0.49169141830E+02  0.61535517398E+02 -0.41428757393E+03  0.42170892606E+03  0.00000000000E+00 0. -1.
          1    1    1    2  501    0 -0.22735597305E+02 -0.16731342176E+02 -0.21418689202E+02  0.35434523321E+02  0.00000000000E+00 0. -1.
<scales pt_clust_5="13000.00000" pt_clust_6="13000.00000" pt_clust_7="13000.00000" pt_clust_8="13000.00000" pt_clust_9="28.22846"></scales>
<clustering>
<clus scale="   28.228">  2  9  1 -1</clus>
<clus scale="   86.600">  5  6 -1 -1</clus>
<clus scale="   91.378">  7  8 -1 -1</clus>
<clus scale="  146.887">  1  5  2 -1</clus>
<clus scale="   28.228">  2  5  1 -1</clus>
</clustering>
</event>
<event>
 9    1  0.1881049E-005  0.1686887E+03  0.7546771E-02  0.1179257E+00
         21   -1    0    0  501  502  0.00000000000E+00  0.00000000000E+00  0.54439226681E+03  0.54439226681E+03  0.00000000000E+00 0. -1.
          2   -1    0    0  502    0 -0.00000000000E+00 -0.00000000000E+00 -0.14758988017E+03  0.14758988017E+03  0.00000000000E+00 0. -1.
         23    2    1    2    0    0 -0.18166099942E+03  0.49048108211E+01 -0.13292175561E+02  0.20440879038E+03  0.92636363124E+02 0.  0.
         23    2    1    2    0    0  0.78470235052E+02 -0.38292087100E+02  0.10962114750E+03  0.16812489908E+03  0.92872622388E+02 0.  0.
        -11    1    3    3    0    0 -0.16154679417E+03  0.22788801918E+02  0.16831964130E+02  0.16401222886E+03  0.00000000000E+00 0. -1.
         11    1    3    3    0    0 -0.20114205255E+02 -0.17883991097E+02 -0.30124139691E+02  0.40396561521E+02  0.00000000000E+00 0.  1.
        -11    1    4    4    0    0 -0.18858238347E+01 -0.46629208117E+02  0.38796958175E+02  0.60688082396E+02  0.00000000000E+00 0.  1.
         11    1    4    4    0    0  0.80356058886E+02  0.83371210172E+01  0.70824189321E+02  0.10743681669E+03  0.00000000000E+00 0. -1.
          2    1    1    2  501    0  0.10319076437E+03  0.33387276279E+02  0.30047341470E+03  0.31944845752E+03  0.00000000000E+00 0. -1.
<scales pt_clust_5="13000.00000" pt_clust_6="13000.00000" pt_clust_7="13000.00000" pt_clust_8="13000.00000" pt_clust_9="108.45757"></scales>
<clustering>
<clus scale="   92.636">  5  6 -1 -1</clus>
<clus scale="   92.873">  7  8 -1 -1</clus>
<clus scale="  108.458">  1  9  2 -1</clus>
<clus scale="  168.559">  2  5  1 -1</clus>
<clus scale="  108.458">  1  5  2 -1</clus>
</clustering>
</event>
<event>
 9    1  0.1881049E-005  0.1814266E+03  0.7546771E-02  0.1166568E+00
         -3   -1    0    0    0  501 -0.00000000000E+00  0.00000000000E+00  0.77558276222E+03  0.77558276222E+03  0.00000000000E+00 0.  1.
         21   -1    0    0  501  502  0.00000000000E+00 -0.00000000000E+00 -0.83811356528E+02  0.83811356528E+02  0.00000000000E+00 0.  1.
         23    2    1    2    0    0  0.16286529533E+03 -0.12298062934E+02  0.31661850330E+03  0.36767451802E+03  0.90889646257E+02 0.  0.
         23    2    1    2    0    0 -0.13922739682E+03 -0.89991642666E+02  0.14483196369E+03  0.23859973007E+03  0.92036784532E+02 0.  0.
        -11    1    4    4    0    0 -0.12830624363E+03 -0.36136294371E+02  0.89110908651E+02  0.16034050632E+03  0.00000000000E+00 0.  1.
         11    1    4    4    0    0 -0.10921153187E+02 -0.53855348295E+02  0.55721055043E+02  0.78259223750E+02  0.00000000000E+00 0. -1.
        -11    1    3    3    0    0  0.85614583259E+02  0.21775927404E+02  0.23150304646E+03  0.24778560975E+03  0.00000000000E+00 0.  1.
         11    1    3    3    0    0  0.77250712069E+02 -0.34073990338E+02  0.85115456840E+02  0.11988890827E+03  0.00000000000E+00 0. -1.
         -3    1    1    2    0  502 -0.23637898507E+02  0.10228970560E+03  0.23032093870E+03  0.25311987065E+03  0.00000000000E+00 0.  1.
<scales pt_clust_5="13000.00000" pt_clust_6="13000.00000" pt_clust_7="13000.00000" pt_clust_8="13000.00000" pt_clust_9="104.98545"></scales>
<clustering>
<clus scale="   90.890">  7  8 -1 -1</clus>
<clus scale="   92.037">  5  6 -1 -1</clus>
<clus scale="  104.985">  2  9  1 -1</clus>
<clus scale="  180.847">  1  7  2 -1</clus>
<clus scale="  104.985">  2  5  1 -1</clus>
</clustering>
</event>
<event>
 9    1  0.1881049E-005  0.1029874E+03  0.7546771E-02  0.1274149E+00
          3   -1    0    0  502    0 -0.00000000000E+00  0.00000000000E+00  0.60964496674E+02  0.60964496674E+02  0.00000000000E+00 0. -1.
         21   -1    0    0  501  502  0.00000000000E+00 -0.00000000000E+00 -0.65381598843E+03  0.65381598843E+03  0.00000000000E+00 0. -1.
         23    2    1    2    0    0 -0.40759945272E+02  0.20878008684E+02 -0.40876839758E+01  0.10122206298E+03  0.90177228217E+02 0.  0.
         23    2    1    2    0    0  0.76278732607E+02 -0.43199899808E+02 -0.49700222933E+03  0.51266224600E+03  0.90148134308E+02 0.  0.
        -13    1    4    4    0    0  0.76749852850E+02 -0.14533949273E+02 -0.45593171887E+03  0.46257486731E+03  0.00000000000E+00 0. -1.
         13    1    4    4    0    0 -0.47112024274E+00 -0.28665950535E+02 -0.41070510462E+02  0.50087378689E+02  0.00000000000E+00 0.  1.
        -13    1    3    3    0    0 -0.25203103782E+02 -0.27267583778E+02 -0.26768876166E+02  0.45774341028E+02  0.00000000000E+00 0.  1.
         13    1    3    3    0    0 -0.15556841490E+02  0.48145592462E+02  0.22681192190E+02  0.55447721954E+02  0.00000000000E+00 0. -1.
          3    1    1    2  501    0 -0.35518787335E+02  0.22321891124E+02 -0.91761578455E+02  0.10089617613E+03  0.00000000000E+00 0. -1.
<scales pt_clust_5="13000.00000" pt_clust_6="13000.00000" pt_clust_7="13000.00000" pt_clust_8="13000.00000" pt_clust_9="41.95058"></scales>
<clustering>
<clus scale="   41.951">  2  9  1 -1</clus>
<clus scale="   90.148">  5  6 -1 -1</clus>
<clus scale="   90.177">  7  8 -1 -1</clus>
<clus scale="  102.962">  2  5  1 -1</clus>
<clus scale="   41.951">  2  5  1 -1</clus>
</clustering>
</event>
<event>
 9    1  0.2053109E-005  0.8838411E+02  0.7546771E-02  0.1306886E+00
         21   -1    0    0  501  502  0.00000000000E+00  0.00000000000E+00  0.22427475155E+03  0.22427475155E+03  0.00000000000E+00 0. -1.
          1   -1    0    0  502    0 -0.00000000000E+00 -0.00000000000E+00 -0.15312725318E+03  0.15312725318E+03  0.00000000000E+00 0. -1.
         23    2    1    2    0    0 -0.12716983480E+01  0.10435852576E+01 -0.10190945072E+03  0.13466323153E+03  0.88011041882E+02 0.  0.
         23    2    1    2    0    0 -0.48629940352E+02  0.74909803338E+01  0.56523018892E+02  0.11568300103E+03  0.88128991701E+02 0.  0.
        -11    1    4    4    0    0  0.15897683234E+02  0.26474634022E+02  0.30956410870E+02  0.43725758459E+02  0.00000000000E+00 0.  1.
         11    1    4    4    0    0 -0.64527623586E+02 -0.18983653689E+02  0.25566608022E+02  0.71957242574E+02  0.00000000000E+00 0. -1.
        -13    1    3    3    0    0  0.36166764547E+02  0.21860559134E+02 -0.67857713501E+02  0.79941154514E+02  0.00000000000E+00 0.  1.
         13    1    3    3    0    0 -0.37438462895E+02 -0.20816973876E+02 -0.34051737214E+02  0.54722077013E+02  0.00000000000E+00 0. -1.
          1    1    1    2  501    0  0.49901638700E+02 -0.85345655914E+01  0.11653393019E+03  0.12705577216E+03  0.00000000000E+00 0. -1.
<scales pt_clust_5="13000.00000" pt_clust_6="13000.00000" pt_clust_7="13000.00000" pt_clust_8="13000.00000" pt_clust_9="50.62620"></scales>
<clustering>
<clus scale="   50.626">  1  9  2 -1</clus>
<clus scale="   88.011">  7  8 -1 -1</clus>
<clus scale="   88.129">  5  6 -1 -1</clus>
<clus scale="   88.266">  2  7  1 -1</clus>
<clus scale="   50.626">  1  5  2 -1</clus>
</clustering>
</event>
<event>
 9    1  0.1881049E-005  0.1019903E+03  0.7546771E-02  0.1277977E+00
          2   -1    0    0  502    0 -0.00000000000E+00  0.00000000000E+00  0.17768872269E+03  0.17768872269E+03  0.00000000000E+00 0. -1.
         21   -1    0    0  501  502  0.00000000000E+00 -0.00000000000E+00 -0.17081369723E+03  0.17081369723E+03  0.00000000000E+00 0.  1.
         23    2    1    2    0    0  0.31726351668E+02  0.42045789702E+02  0.53132366864E+02  0.11839451621E+03  0.91759485827E+02 0.  0.
         23    2    1    2    0    0  0.71882160417E+02 -0.36231992590E+02 -0.31011722501E+02  0.12522247617E+03  0.90769704922E+02 0.  0.
        -11    1    4    4    0    0  0.96914046626E+00  0.26565615082E+02 -0.76574877435E+01  0.27664205328E+02  0.00000000000E+00 0.  1.
         11    1    4    4    0    0  0.70913019950E+02 -0.62797607672E+02 -0.23354234757E+02  0.97558270838E+02  0.00000000000E+00 0. -1.
        -13    1    3    3    0    0  0.50098962282E+02  0.55565113626E+02  0.18743133095E+02  0.77127770046E+02  0.00000000000E+00 0.  1.
         13    1    3    3    0    0 -0.18372610614E+02 -0.13519323925E+02  0.34389233769E+02  0.41266746168E+02  0.00000000000E+00 0. -1.
          2    1    1    2  501    0 -0.10360851208E+03 -0.58137971114E+01 -0.15245618908E+02  0.10488542753E+03  0.00000000000E+00 0. -1.
<scales pt_clust_5="13000.00000" pt_clust_6="13000.00000" pt_clust_7="13000.00000" pt_clust_8="13000.00000" pt_clust_9="103.77150"></scales>
<clustering>
<clus scale="   90.770">  5  6 -1 -1</clus>
<clus scale="   91.759">  7  8 -1 -1</clus>
<clus scale="  103.771">  2  9  1 -1</clus>
<clus scale="  103.771">  2  5  1 -1</clus>
<clus scale="  101.990">  2  5  1 -1</clus>
</clustering>
</event>
<event>
 9    1  0.1881049E-005  0.2250900E+03  0.7546771E-02  0.1130298E+00
          2   -1    0    0  502    0 -0.00000000000E+00  0.00000000000E+00  0.70752930181E+03  0.70752930181E+03  0.00000000000E+00 0. -1.
         21   -1    0    0  501  502  0.00000000000E+00 -0.00000000000E+00 -0.11883222554E+03  0.11883222554E+03  0.00000000000E+00 0. -1.
         23    2    1    2    0    0  0.16543237013E+03  0.82085595826E+02  0.33642584291E+03  0.39488196133E+03  0.92970433361E+02 0.  0.
         23    2    1    2    0    0 -0.22995004589E+03 -0.80639536933E+02  0.25844062201E+03  0.36665146310E+03  0.90895444126E+02 0.  0.
        -11    1    3    3    0    0  0.84700694209E+01  0.44435960226E+02  0.79039949641E+02  0.91069260876E+02  0.00000000000E+00 0.  1.
         11    1    3    3    0    0  0.15696230071E+03  0.37649635600E+02  0.25738589326E+03  0.30381270045E+03  0.00000000000E+00 0. -1.
        -13    1    4    4    0    0 -0.21392236894E+03 -0.98947696848E+02  0.23630931046E+03  0.33375966930E+03  0.00000000000E+00 0. -1.
         13    1    4    4    0    0 -0.16027676958E+02  0.18308159915E+02  0.22131311556E+02  0.32891793799E+02  0.00000000000E+00 0.  1.
          2    1    1    2  501    0  0.64517675759E+02 -0.14460588928E+01 -0.61693886498E+01  0.64828102919E+02  0.00000000000E+00 0. -1.
<scales pt_clust_5="13000.00000" pt_clust_6="13000.00000" pt_clust_7="13000.00000" pt_clust_8="13000.00000" pt_clust_9="64.53388"></scales>
<clustering>
<clus scale="   64.534">  2  9  1 -1</clus>
<clus scale="   90.895">  7  8 -1 -1</clus>
<clus scale="   92.970">  5  6 -1 -1</clus>
<clus scale="  224.241">  2  7  1 -1</clus>
<clus scale="   64.534">  2  5  1 -1</clus>
</clustering>
</event>
<event>
 9    1  0.1881049E-005  0.9488955E+02  0.7546771E-02  0.1292073E+00
          2   -1    0    0  502    0 -0.00000000000E+00  0.00000000000E+00  0.33035033057E+03  0.33035033057E+03  0.00000000000E+00 0. -1.
         21   -1    0    0  501  502  0.00000000000E+00 -0.00000000000E+00 -0.65076456850E+02  0.65076456850E+02  0.00000000000E+00 0.  1.
         23    2    1    2    0    0 -0.14994415519E+02 -0.11689843242E+02  0.16323627312E+03  0.18804944281E+03  0.91405837605E+02 0.  0.
         23    2    1    2    0    0  0.57198431619E+02  0.12620748783E+00  0.12289261254E+02  0.10752915453E+03  0.90220932289E+02 0.  0.
        -11    1    3    3    0    0 -0.50996017877E+02 -0.14266029346E+01  0.12263680949E+03  0.13282475702E+03  0.00000000000E+00 0. -1.
         11    1    3    3    0    0  0.36001602357E+02 -0.10263240308E+02  0.40599463627E+02  0.55224685791E+02  0.00000000000E+00 0.  1.
        -11    1    4    4    0    0  0.63791082926E+02 -0.25943608612E+02 -0.13607388128E+02  0.70196396634E+02  0.00000000000E+00 0.  1.
         11    1    4    4    0    0 -0.65926513069E+01  0.26069816100E+02  0.25896649382E+02  0.37332757893E+02  0.00000000000E+00 0. -1.
          2    1    1    2  501    0 -0.42204016100E+02  0.11563635754E+02  0.89748339344E+02  0.99848190078E+02  0.00000000000E+00 0. -1.
<scales pt_clust_5="13000.00000" pt_clust_6="13000.00000" pt_clust_7="13000.00000" pt_clust_8="13000.00000" pt_clust_9="43.75955"></scales>
<clustering>
<clus scale="   43.760">  2  9  1 -1</clus>
<clus scale="   90.221">  7  8 -1 -1</clus>
<clus scale="   91.406">  5  6 -1 -1</clus>
<clus scale="   93.749">  2  7  1 -1</clus>
<clus scale="   43.760">  2  5  1 -1</clus>
</clustering>
</event>
<event>
 9    1  0.1881049E-005  0.1030078E+03  0.7546771E-02  0.1281144E+00
         21   -1    0    0  501  502  0.00000000000E+00  0.00000000000E+00  0.17292414550E+03  0.17292414550E+03  0.00000000000E+00 0. -1.
         -1   -1    0    0    0  501 -0.00000000000E+00 -0.00000000000E+00 -0.78171128546E+02  0.78171128546E+02  0.00000000000E+00 0.  1.
         23    2    1    2    0    0  0.85877052937E-01 -0.53160499089E+02 -0.67191075198E+01  0.92715873390E+02  0.75663998931E+02 0.  0.
         23    2    1    2    0    0  0.14839632703E+02  0.37898675338E+02  0.76039501911E+02  0.12517529856E+03  0.90721139913E+02 0.  0.
        -11    1    3    3    0    0 -0.33351134290E+02 -0.48423182413E+01 -0.31603103077E+01  0.33848689275E+02  0.00000000000E+00 0.  1.
         11    1    3    3    0    0  0.33437011343E+02 -0.48318180848E+02 -0.35587972121E+01  0.58867184115E+02  0.00000000000E+00 0. -1.
        -11    1    4    4    0    0 -0.26317411181E+02 -0.10183017607E+02  0.48586572026E+02  0.56186786347E+02  0.00000000000E+00 0.  1.
         11    1    4    4    0    0  0.41157043884E+02  0.48081692945E+02  0.27452929885E+02  0.68988512210E+02  0.00000000000E+00 0. -1.
         -1    1    1    2    0  502 -0.14925509756E+02  0.15261823751E+02  0.25432622563E+02  0.33204102098E+02  0.00000000000E+00 0.  1.
<scales pt_clust_5="13000.00000" pt_clust_6="13000.00000" pt_clust_7="13000.00000" pt_clust_8="13000.00000" pt_clust_9="21.34699"></scales>
<clustering>
<clus scale="   21.347">  1  9  2 -1</clus>
<clus scale="   75.664">  5  6 -1 -1</clus>
<clus scale="   90.030">  2  5  1 -1</clus>
<clus scale="   90.721">  7  8 -1 -1</clus>
<clus scale="   21.347">  1  5  2 -1</clus>
</clustering>
</event>
<event>
 9    1  0.1881049E-005  0.1171516E+03  0.7546771E-02  0.1248349E+00
         21   -1    0    0  501  502  0.00000000000E+00  0.00000000000E+00  0.11316472910E+03  0.11316472910E+03  0.00000000000E+00 0.  1.
          2   -1    0    0  502    0 -0.00000000000E+00 -0.00000000000E+00 -0.34026839666E+03  0.34026839666E+03  0.00000000000E+00 0. -1.
         23    2    1    2    0    0  0.97628106139E+02  0.43074087643E+02 -0.21279461564E+03  0.25438874125E+03  0.89696483178E+02 0.  0.
         23    2    1    2    0    0 -0.25208953449E+02 -0.16599599067E+02 -0.56250813114E+02  0.11126885515E+03  0.91134878767E+02 0.  0.
        -11    1    3    3    0    0  0.97597332852E+02  0.63272592160E+02 -0.19689205870E+03  0.22868131336E+03  0.00000000000E+00 0.  1.
         11    1    3    3    0    0  0.30773287350E-01 -0.20198504517E+02 -0.15902556939E+02  0.25707427894E+02  0.00000000000E+00 0. -1.
        -13    1    4    4    0    0  0.32283897502E+02  0.71772576924E+01 -0.13191019758E+02  0.35605702748E+02  0.00000000000E+00 0.  1.
         13    1    4    4    0    0 -0.57492850952E+02 -0.23776856760E+02 -0.43059793356E+02  0.75663152405E+02  0.00000000000E+00 0. -1.
          2    1    1    2  501    0 -0.72419152690E+02 -0.26474488575E+02  0.41941761200E+02  0.87775529358E+02  0.00000000000E+00 0. -1.
<scales pt_clust_5="13000.00000" pt_clust_6="13000.00000" pt_clust_7="13000.00000" pt_clust_8="13000.00000" pt_clust_9="77.10663"></scales>
<clustering>
<clus scale="   77.107">  1  9  2 -1</clus>
<clus scale="   89.696">  5  6 -1 -1</clus>
<clus scale="   91.135">  7  8 -1 -1</clus>
<clus scale="  116.036">  2  5  1 -1</clus>
<clus scale="   77.107">  1  5  2 -1</clus>
</clustering>
</event>
<event>
 9    1  0.1881049E-005  0.9401435E+02  0.7546771E-02  0.1294618E+00
         21   -1    0    0  501  502  0.00000000000E+00  0.00000000000E+00  0.14644972878E+03  0.14644972878E+03  0.00000000000E+00 0. -1.
          1   -1    0    0  502    0 -0.00000000000E+00 -0.00000000000E+00 -0.14689906682E+03  0.14689906682E+03  0.00000000000E+00 0. -1.
         23    2    1    2    0    0  0.77412421917E+01  0.13229367264E+02 -0.62332432371E+02  0.11107884770E+03  0.90654483026E+02 0.  0.
         23    2    1    2    0    0  0.18879121586E+02 -0.18089244654E+02 -0.17891582121E+02  0.98030638918E+02  0.92769905960E+02 0.  0.
        -11    1    4    4    0    0  0.35905249610E+02  0.25796517676E+02  0.70315017393E+01  0.44767055862E+02  0.00000000000E+00 0.  1.
         11    1    4    4    0    0 -0.17026128025E+02 -0.43885762331E+02 -0.24923083860E+02  0.53263583056E+02  0.00000000000E+00 0. -1.
        -13    1    3    3    0    0 -0.29157705910E+02 -0.24782277690E+02 -0.19470890370E+02  0.42935401166E+02  0.00000000000E+00 0. -1.
         13    1    3    3    0    0  0.36898948102E+02  0.38011644954E+02 -0.42861542000E+02  0.68143446536E+02  0.00000000000E+00 0.  1.
          1    1    1    2  501    0 -0.26620363777E+02  0.48598773903E+01  0.79774676446E+02  0.84239308983E+02  0.00000000000E+00 0. -1.
<scales pt_clust_5="13000.00000" pt_clust_6="13000.00000" pt_clust_7="13000.00000" pt_clust_8="13000.00000" pt_clust_9="27.06034"></scales>
<clustering>
<clus scale="   27.060">  1  9  2 -1</clus>
<clus scale="   90.654">  7  8 -1 -1</clus>
<clus scale="   91.928">  2  7  1 -1</clus>
<clus scale="   92.770">  5  6 -1 -1</clus>
<clus scale="   27.060">  1  5  2 -1</clus>
</clustering>
</event>
<event>
 9    1  0.1881049E-005  0.1071889E+03  0.7546771E-02  0.1272222E+00
          1   -1    0    0  502    0 -0.00000000000E+00  0.00000000000E+00  0.54908692590E+03  0.54908692590E+03  0.00000000000E+00 0. -1.
         21   -1    0    0  501  502  0.00000000000E+00 -0.00000000000E+00 -0.30252733033E+02  0.30252733033E+02  0.00000000000E+00 0. -1.
         23    2    1    2    0    0  0.17845841150E+02 -0.13887585642E+02  0.25338681907E+03  0.26920145473E+03  0.88052280322E+02 0.  0.
         23    2    1    2    0    0 -0.49720964074E+02  0.25633156269E+02  0.24377039532E+03  0.26984089304E+03  0.10129594738E+03 0.  0.
        -11    1    3    3    0    0 -0.19207325789E+02 -0.32296359070E+02  0.55423313368E+02  0.66960584211E+02  0.00000000000E+00 0. -1.
         11    1    3    3    0    0  0.37053166938E+02  0.18408773428E+02  0.19796350570E+03  0.20224087052E+03  0.00000000000E+00 0.  1.
        -13    1    4    4    0    0  0.30726526994E+02  0.14140110617E+02  0.84982793725E+02  0.91466591817E+02  0.00000000000E+00 0.  1.
         13    1    4    4    0    0 -0.80447491068E+02  0.11493045651E+02  0.15878760160E+03  0.17837430123E+03  0.00000000000E+00 0. -1.
          1    1    1    2  501    0  0.31875122924E+02 -0.11745570627E+02  0.21676978481E+02  0.40297311162E+02  0.00000000000E+00 0. -1.
<scales pt_clust_5="13000.00000" pt_clust_6="13000.00000" pt_clust_7="13000.00000" pt_clust_8="13000.00000" pt_clust_9="33.97031"></scales>
<clustering>
<clus scale="   33.970">  2  9  1 -1</clus>
<clus scale="   88.052">  5  6 -1 -1</clus>
<clus scale="   94.772">  1  5  2 -1</clus>
<clus scale="  101.296">  7  8 -1 -1</clus>
<clus scale="   33.970">  2  5  1 -1</clus>
</clustering>
</event>
<event>
 9    1  0.1881049E-005  0.2304286E+03  0.7546771E-02  0.1143090E+00
         21   -1    0    0  501  502  0.00000000000E+00  0.00000000000E+00  0.17258800964E+04  0.17258800964E+04  0.00000000000E+00 0. -1.
          3   -1    0    0  502    0 -0.00000000000E+00 -0.00000000000E+00 -0.10038522396E+03  0.10038522396E+03  0.00000000000E+00 0. -1.
         23    2    1    2    0    0 -0.11755811314E+03  0.34122802482E+02  0.25672828018E+03  0.29898423332E+03  0.92183980775E+02 0.  0.
         23    2    1    2    0    0  0.23094011133E+03 -0.20000154831E+03  0.29238162116E+03  0.43230353392E+03  0.89807453486E+02 0.  0.
        -11    1    4    4    0    0  0.97288053206E+02 -0.38443549000E+02  0.13141400949E+03  0.16796581094E+03  0.00000000000E+00 0.  1.
         11    1    4    4    0    0  0.13365205812E+03 -0.16155799931E+03  0.16096761167E+03  0.26433772298E+03  0.00000000000E+00 0. -1.
        -13    1    3    3    0    0 -0.88866823948E+02  0.10375280507E+01  0.23256441462E+03  0.24896705768E+03  0.00000000000E+00 0.  1.
         13    1    3    3    0    0 -0.28691289194E+02  0.33085274431E+02  0.24163865568E+02  0.50017175640E+02  0.00000000000E+00 0. -1.
          3    1    1    2  501    0 -0.11338199819E+03  0.16587874583E+03  0.10763849711E+04  0.10949775531E+04  0.00000000000E+00 0. -1.
<scales pt_clust_5="13000.00000" pt_clust_6="13000.00000" pt_clust_7="13000.00000" pt_clust_8="13000.00000" pt_clust_9="212.20739"></scales>
<clustering>
<clus scale="   89.807">  5  6 -1 -1</clus>
<clus scale="   92.184">  7  8 -1 -1</clus>
<clus scale="  153.239">  2  7  1 -1</clus>
<clus scale="  212.207">  1  9  2 -1</clus>
<clus scale="  212.207">  1  5  2 -1</clus>
</clustering>
</event>
<event>
 9    1  0.1881049E-005  0.2449237E+03  0.7546771E-02  0.1128568E+00
          1   -1    0    0  502    0 -0.00000000000E+00  0.00000000000E+00  0.75508500976E+03  0.75508500976E+03  0.00000000000E+00 0. -1.
         21   -1    0    0  501  502  0.00000000000E+00 -0.00000000000E+00 -0.44883536676E+03  0.44883536676E+03  0.00000000000E+00 0. -1.
         23    2    1    2    0    0  0.15709354242E+02 -0.15622698583E+03  0.57608733373E+03  0.60403800308E+03  0.91277807659E+02 0.  0.
         23    2    1    2    0    0  0.14941336269E+03  0.27198083586E+03 -0.10645327754E+03  0.34034637995E+03  0.90583828685E+02 0.  0.
        -13    1    4    4    0    0  0.15834086147E+03  0.23897516319E+03 -0.81546903297E+02  0.29804505443E+03  0.00000000000E+00 0.  1.
         13    1    4    4    0    0 -0.89274987773E+01  0.33005672665E+02 -0.24906374240E+02  0.42301325514E+02  0.00000000000E+00 0. -1.
        -13    1    3    3    0    0  0.39894056026E+02 -0.29438236744E+02  0.11516347991E+03  0.12538250513E+03  0.00000000000E+00 0.  1.
         13    1    3    3    0    0 -0.24184701784E+02 -0.12678874909E+03  0.46092385382E+03  0.47865549794E+03  0.00000000000E+00 0. -1.
          1    1    1    2  501    0 -0.16512271694E+03 -0.11575385003E+03 -0.16338441319E+03  0.25953599349E+03  0.00000000000E+00 0. -1.
<scales pt_clust_5="13000.00000" pt_clust_6="13000.00000" pt_clust_7="13000.00000" pt_clust_8="13000.00000" pt_clust_9="227.55703"></scales>
<clustering>
<clus scale="   90.584">  5  6 -1 -1</clus>
<clus scale="   91.278">  7  8 -1 -1</clus>
<clus scale="  181.619">  1  7  2 -1</clus>
<clus scale="  227.557">  2  9  1 -1</clus>
<clus scale="  227.557">  2  5  1 -1</clus>
</clustering>
</event>
<event>
 9    1  0.1881049E-005  0.1579631E+03  0.7546771E-02  0.1205554E+00
         21   -1    0    0  501  502  0.00000000000E+00  0.00000000000E+00  0.19250127014E+03  0.19250127014E+03  0.00000000000E+00 0.  1.
          1   -1    0    0  502    0 -0.00000000000E+00 -0.00000000000E+00 -0.36683522508E+03  0.36683522508E+03  0.00000000000E+00 0. -1.
         23    2    1    2    0    0  0.21848606156E+02  0.34269792345E+02 -0.18055779208E+03  0.21411604096E+03  0.10766978433E+03 0.  0.
         23    2    1    2    0    0 -0.91731636599E+02  0.75999685404E+02 -0.96209385086E+02  0.17928202989E+03  0.93247815674E+02 0.  0.
        -11    1    3    3    0    0  0.10669177976E+02 -0.19790001099E+02  0.27740153106E+01  0.22653270473E+02  0.00000000000E+00 0.  1.
         11    1    3    3    0    0  0.11179428180E+02  0.54059793444E+02 -0.18333180739E+03  0.19146277049E+03  0.00000000000E+00 0. -1.
        -11    1    4    4    0    0 -0.50675604495E+02 -0.13203942022E+02 -0.25305472168E+02  0.58161223315E+02  0.00000000000E+00 0.  1.
         11    1    4    4    0    0 -0.41056032104E+02  0.89203627426E+02 -0.70903912918E+02  0.12112080657E+03  0.00000000000E+00 0. -1.
          1    1    1    2  501    0  0.69883030443E+02 -0.11026947775E+03  0.10243322223E+03  0.16593842437E+03  0.00000000000E+00 0. -1.
<scales pt_clust_5="13000.00000" pt_clust_6="13000.00000" pt_clust_7="13000.00000" pt_clust_8="13000.00000" pt_clust_9="127.50369"></scales>
<clustering>
<clus scale="   93.248">  7  8 -1 -1</clus>
<clus scale="  107.670">  5  6 -1 -1</clus>
<clus scale="  115.085">  2  5  1 -1</clus>
<clus scale="  127.504">  1  9  2 -1</clus>
<clus scale="  127.504">  1  5  2 -1</clus>
</clustering>
</event>
<event>
 9    1  0.1881049E-005  0.1344466E+03  0.7546771E-02  0.1221419E+00
         -2   -1    0    0    0  501 -0.00000000000E+00  0.00000000000E+00  0.25687258064E+03  0.25687258064E+03  0.00000000000E+00 0.  1.
         21   -1    0    0  501  502  0.00000000000E+00 -0.00000000000E+00 -0.15649840184E+03  0.15649840184E+03  0.00000000000E+00 0. -1.
         23    2    1    2    0    0 -0.75495158420E+02 -0.68473212455E+02  0.17081059961E+03  0.21819282540E+03  0.89686946372E+02 0.  0.
         23    2    1    2    0    0  0.88154428531E+02  0.31064090101E+02 -0.21825266798E+02  0.13254634527E+03  0.91411216003E+02 0.  0.
        -13    1    3    3    0    0 -0.89039474585E+02 -0.43057872533E+02  0.15860085818E+03  0.18691238759E+03  0.00000000000E+00 0.  1.
         13    1    3    3    0    0  0.13544316165E+02 -0.25415339922E+02  0.12209741435E+02  0.31280437811E+02  0.00000000000E+00 0. -1.
        -13    1    4    4    0    0  0.36341602225E+02  0.60854739522E+02 -0.14292173338E+02  0.72306829507E+02  0.00000000000E+00 0.  1.
         13    1    4    4    0    0  0.51812826305E+02 -0.29790649421E+02 -0.75330934599E+01  0.60239515766E+02  0.00000000000E+00 0. -1.
         -2    1    1    2    0  502 -0.12659270111E+02  0.37409122354E+02 -0.48611154010E+02  0.62631811799E+02  0.00000000000E+00 0.  1.
<scales pt_clust_5="13000.00000" pt_clust_6="13000.00000" pt_clust_7="13000.00000" pt_clust_8="13000.00000" pt_clust_9="39.49303"></scales>
<clustering>
<clus scale="   39.493">  2  9  1 -1</clus>
<clus scale="   89.687">  5  6 -1 -1</clus>
<clus scale="   91.411">  7  8 -1 -1</clus>
<clus scale="  133.280">  1  5  2 -1</clus>
<clus scale="   39.493">  2  5  1 -1</clus>
</clustering>
</event>
<event>
 9    1  0.1881049E-005  0.1113483E+03  0.7546771E-02  0.1259886E+00
         21   -1    0    0  501  502  0.00000000000E+00  0.00000000000E+00  0.22284490389E+03  0.22284490389E+03  0.00000000000E+00 0. -1.
          2   -1    0    0  502    0 -0.00000000000E+00 -0.00000000000E+00 -0.27888233819E+03  0.27888233819E+03  0.00000000000E+00 0. -1.
         23    2    1    2    0    0 -0.49149360543E+02  0.31461236618E+02 -0.19725013227E+03  0.22347335694E+03  0.87334171610E+02 0.  0.
         23    2    1    2    0    0  0.75515690322E+02 -0.32064721221E+02 -0.10984435464E+02  0.12378863026E+03  0.92044561635E+02 0.  0.
        -13    1    4    4    0    0  0.43935002271E+02  0.91014707122E+01 -0.43552526443E+02  0.62529543044E+02  0.00000000000E+00 0. -1.
         13    1    4    4    0    0  0.31580688051E+02 -0.41166191933E+02  0.32568090980E+02  0.61259087213E+02  0.00000000000E+00 0.  1.
        -13    1    3    3    0    0 -0.66348179084E+02  0.16110848532E+02 -0.18536013263E+03  0.19753485535E+03  0.00000000000E+00 0. -1.
         13    1    3    3    0    0  0.17198818541E+02  0.15350388087E+02 -0.11889999643E+02  0.25938501597E+02  0.00000000000E+00 0.  1.
          2    1    1    2  501    0 -0.26366329779E+02  0.60348460289E+00  0.15219713343E+03  0.15446525488E+03  0.00000000000E+00 0. -1.
<scales pt_clust_5="13000.00000" pt_clust_6="13000.00000" pt_clust_7="13000.00000" pt_clust_8="13000.00000" pt_clust_9="26.37324"></scales>
<clustering>
<clus scale="   26.373">  1  9  2 -1</clus>
<clus scale="   87.334">  7  8 -1 -1</clus>
<clus scale="   92.045">  5  6 -1 -1</clus>
<clus scale="  107.487">  2  7  1 -1</clus>
<clus scale="   26.373">  1  5  2 -1</clus>
</clustering>
</event>
<event>
 9    1  0.1881049E-005  0.1447357E+03  0.7546771E-02  0.1226214E+00
         21   -1    0    0  501  502  0.00000000000E+00  0.00000000000E+00  0.93900355924E+03  0.93900355924E+03  0.00000000000E+00 0. -1.
          1   -1    0    0  502    0 -0.00000000000E+00 -0.00000000000E+00 -0.77472812353E+02  0.77472812353E+02  0.00000000000E+00 0. -1.
         23    2    1    2    0    0  0.20469694994E+02  0.25095133268E+02  0.25911306821E+02  0.10007146735E+03  0.91072106759E+02 0.  0.
         23    2    1    2    0    0 -0.12461620679E+03 -0.55135248796E+02  0.15174764178E+03  0.22399639696E+03  0.92617192852E+02 0.  0.
        -11    1    3    3    0    0 -0.18355608685E+02 -0.20245303982E+02  0.29574137301E+02  0.40266987727E+02  0.00000000000E+00 0.  1.
         11    1    3    3    0    0  0.38825303679E+02  0.45340437250E+02 -0.36628304794E+01  0.59804479623E+02  0.00000000000E+00 0. -1.
        -11    1    4    4    0    0 -0.65063767371E+02 -0.18830662128E+02  0.13682358632E+03  0.15267148206E+03  0.00000000000E+00 0.  1.
         11    1    4    4    0    0 -0.59552439421E+02 -0.36304586669E+02  0.14924055453E+02  0.71324914899E+02  0.00000000000E+00 0. -1.
          1    1    1    2  501    0  0.10414651180E+03  0.30040115529E+02  0.68387179829E+03  0.69240850728E+03  0.00000000000E+00 0. -1.
<scales pt_clust_5="13000.00000" pt_clust_6="13000.00000" pt_clust_7="13000.00000" pt_clust_8="13000.00000" pt_clust_9="111.22270"></scales>
<clustering>
<clus scale="   91.072">  5  6 -1 -1</clus>
<clus scale="   92.617">  7  8 -1 -1</clus>
<clus scale="   96.659">  2  5  1 -1</clus>
<clus scale="  111.223">  1  9  2 -1</clus>
<clus scale="  111.223">  1  5  2 -1</clus>
</clustering>
</event>
<event>
 9    1  0.1881049E-005  0.9407094E+02  0.7546771E-02  0.1296353E+00
         -1   -1    0    0    0  501 -0.00000000000E+00  0.00000000000E+00  0.38525410926E+03  0.38525410926E+03  0.00000000000E+00 0.  1.
         21   -1    0    0  501  502  0.00000000000E+00 -0.00000000000E+00 -0.41896147230E+02  0.41896147230E+02  0.00000000000E+00 0. -1.
         23    2    1    2    0    0 -0.75279955485E+01  0.57188920781E+01  0.21496411972E+03  0.23231284025E+03  0.87580286220E+02 0.  0.
         23    2    1    2    0    0 -0.39505675324E+01 -0.30798950025E+02  0.13471007743E+03  0.16654145286E+03  0.92871245582E+02 0.  0.
        -11    1    3    3    0    0  0.56396897948E+01 -0.26225878040E+02  0.17915556384E+02  0.32257866335E+02  0.00000000000E+00 0. -1.
         11    1    3    3    0    0 -0.13167685343E+02  0.31944770118E+02  0.19704856334E+03  0.20005497392E+03  0.00000000000E+00 0.  1.
        -13    1    4    4    0    0 -0.39211713271E+02 -0.38840731386E+02  0.50156428656E+02  0.74577665610E+02  0.00000000000E+00 0. -1.
         13    1    4    4    0    0  0.35261145738E+02  0.80417813607E+01  0.84553648769E+02  0.91963787255E+02  0.00000000000E+00 0.  1.
         -1    1    1    2    0  502  0.11478563081E+02  0.25080057947E+02 -0.63162351190E+01  0.28295963371E+02  0.00000000000E+00 0.  1.
<scales pt_clust_5="13000.00000" pt_clust_6="13000.00000" pt_clust_7="13000.00000" pt_clust_8="13000.00000" pt_clust_9="27.58200"></scales>
<clustering>
<clus scale="   27.582">  2  9  1 -1</clus>
<clus scale="   87.580">  5  6 -1 -1</clus>
<clus scale="   88.851">  1  5  2 -1</clus>
<clus scale="   92.871">  7  8 -1 -1</clus>
<clus scale="   27.582">  2  5  1 -1</clus>
</clustering>
</event>
<event>
 9    1  0.1881049E-005  0.1526708E+03  0.7546771E-02  0.1197369E+00
         21   -1    0    0  501  502  0.00000000000E+00  0.00000000000E+00  0.10496905888E+03  0.10496905888E+03  0.00000000000E+00 0. -1.
         -1   -1    0    0    0  501 -0.00000000000E+00 -0.00000000000E+00 -0.33239396228E+03  0.33239396228E+03  0.00000000000E+00 0.  1.
         23    2    1    2    0    0 -0.83706757086E+02  0.93767764020E+02 -0.15662235524E+03  0.22098905346E+03  0.92230064718E+02 0.  0.
         23    2    1    2    0    0  0.11099241706E+03 -0.49571183799E+02 -0.46824248988E+02  0.15916554371E+03  0.91457865184E+02 0.  0.
        -11    1    4    4    0    0  0.15858552906E+02 -0.54108550437E+02 -0.23656686467E+02  0.61146281533E+02  0.00000000000E+00 0.  1.
         11    1    4    4    0    0  0.95133864158E+02  0.45373666379E+01 -0.23167562521E+02  0.98019262182E+02  0.00000000000E+00 0. -1.
        -11    1    3    3    0    0 -0.10032011279E+03  0.72086089809E+02 -0.14703351072E+03  0.19204005480E+03  0.00000000000E+00 0.  1.
         11    1    3    3    0    0  0.16613355701E+02  0.21681674211E+02 -0.95888445196E+01  0.28948998660E+02  0.00000000000E+00 0. -1.
         -1    1    1    2    0  502 -0.27285659977E+02 -0.44196580221E+02 -0.23978299177E+02  0.57208423986E+02  0.00000000000E+00 0.  1.
<scales pt_clust_5="13000.00000" pt_clust_6="13000.00000" pt_clust_7="13000.00000" pt_clust_8="13000.00000" pt_clust_9="51.94078"></scales>
<clustering>
<clus scale="   51.941">  1  9  2 -1</clus>
<clus scale="   91.458">  5  6 -1 -1</clus>
<clus scale="   92.230">  7  8 -1 -1</clus>
<clus scale="  152.206">  1  5  2 -1</clus>
<clus scale="   51.941">  1  5  2 -1</clus>
</clustering>
</event>
<event>
 9    1  0.1881049E-005  0.9657259E+02  0.7546771E-02  0.1288530E+00
         -2   -1    0    0    0  501 -0.00000000000E+00  0.00000000000E+00  0.14023446793E+03  0.14023446793E+03  0.00000000000E+00 0.  1.
         21   -1    0    0  501  502  0.00000000000E+00 -0.00000000000E+00 -0.95770589843E+02  0.95770589843E+02  0.00000000000E+00 0. -1.
         23    2    1    2    0    0  0.27199039994E+02 -0.13255513176E+02  0.60676711719E+02  0.11274789186E+03  0.90082891645E+02 0.  0.
         23    2    1    2    0    0 -0.14355188361E+02  0.32911732255E+02 -0.10170205959E+02  0.99011654525E+02  0.91709438389E+02 0.  0.
        -11    1    3    3    0    0 -0.20635412402E+02  0.88777558315E+01 -0.99939882861E+01  0.24586878523E+02  0.00000000000E+00 0. -1.
         11    1    3    3    0    0  0.47834452396E+02 -0.22133269008E+02  0.70670700005E+02  0.88161013335E+02  0.00000000000E+00 0.  1.
        -11    1    4    4    0    0 -0.44663013154E+02 -0.48247592125E+01  0.10895978997E+02  0.46225376189E+02  0.00000000000E+00 0.  1.
         11    1    4    4    0    0  0.30307824793E+02  0.37736491467E+02 -0.21066184956E+02  0.52786278336E+02  0.00000000000E+00 0. -1.
         -2    1    1    2    0  502 -0.12843851633E+02 -0.19656219078E+02 -0.60426276759E+01  0.24245511388E+02  0.00000000000E+00 0.  1.
<scales pt_clust_5="13000.00000" pt_clust_6="13000.00000" pt_clust_7="13000.00000" pt_clust_8="13000.00000" pt_clust_9="23.48045"></scales>
<clustering>
<clus scale="   23.480">  2  9  1 -1</clus>
<clus scale="   90.083">  5  6 -1 -1</clus>
<clus scale="   91.709">  7  8 -1 -1</clus>
<clus scale="   95.029">  1  5  2 -1</clus>
<clus scale="   23.480">  2  5  1 -1</clus>
</clustering>
</event>
<event>
 9    1  0.1881049E-005  0.1488875E+03  0.7546771E-02  0.1202098E+00
         21   -1    0    0  501  502  0.00000000000E+00  0.00000000000E+00  0.10007293094E+03  0.10007293094E+03  0.00000000000E+00 0.  1.
          1   -1    0    0  502    0 -0.00000000000E+00 -0.00000000000E+00 -0.75648034109E+03  0.75648034109E+03  0.00000000000E+00 0. -1.
         23    2    1    2    0    0 -0.74567382937E+02  0.77469312735E+02 -0.34292404196E+03  0.37070057217E+03  0.90885789002E+02 0.  0.
         23    2    1    2    0    0  0.68580187754E+02 -0.16630936107E+03 -0.50716190772E+02  0.20840902949E+03  0.92196235462E+02 0.  0.
        -13    1    3    3    0    0 -0.60263296149E+01  0.45000492666E+02 -0.47548872333E+02  0.65743868527E+02  0.00000000000E+00 0.  1.
         13    1    3    3    0    0 -0.68541053322E+02  0.32468820069E+02 -0.29537516962E+03  0.30495670364E+03  0.00000000000E+00 0. -1.
        -13    1    4    4    0    0  0.44633341294E+00 -0.28573391297E+02  0.24205824890E+02  0.37450765844E+02  0.00000000000E+00 0. -1.
         13    1    4    4    0    0  0.68133854341E+02 -0.13773596978E+03 -0.74922015662E+02  0.17095826365E+03  0.00000000000E+00 0.  1.
          1    1    1    2  501    0  0.59871951828E+01  0.88840048340E+02 -0.26276717742E+03  0.27744367036E+03  0.00000000000E+00 0. -1.
<scales pt_clust_5="13000.00000" pt_clust_6="13000.00000" pt_clust_7="13000.00000" pt_clust_8="13000.00000" pt_clust_9="89.04161"></scales>
<clustering>
<clus scale="   89.042">  1  9  2 -1</clus>
<clus scale="   90.886">  5  6 -1 -1</clus>
<clus scale="   92.196">  7  8 -1 -1</clus>
<clus scale="  148.080">  2  5  1 -1</clus>
<clus scale="   89.042">  1  5  2 -1</clus>
</clustering>
</event>
<event>
 9    1  0.1881049E-005  0.9670599E+02  0.7546771E-02  0.1288501E+00
         21   -1    0    0  501  502  0.00000000000E+00  0.00000000000E+00  0.12945577323E+03  0.12945577323E+03  0.00000000000E+00 0. -1.
         -2   -1    0    0    0  501 -0.00000000000E+00 -0.00000000000E+00 -0.23748051339E+03  0.23748051339E+03  0.00000000000E+00 0.  1.
         23    2    1    2    0    0  0.20053852907E+02 -0.19956337399E+02 -0.96364477463E+02  0.13483097172E+03  0.89960357936E+02 0.  0.
         23    2    1    2    0    0 -0.38470597338E+02 -0.83428542614E+01 -0.97559485090E+02  0.13980852659E+03  0.92081381934E+02 0.  0.
        -11    1    4    4    0    0 -0.43628484942E+02 -0.33656700127E+02 -0.20932579359E+02  0.58943965259E+02  0.00000000000E+00 0.  1.
         11    1    4    4    0    0  0.51578876047E+01  0.25313845865E+02 -0.76626905731E+02  0.80864561329E+02  0.00000000000E+00 0. -1.
        -11    1    3    3    0    0 -0.25831611124E+01  0.31684683980E+02 -0.13351726920E+02  0.34479856903E+02  0.00000000000E+00 0. -1.
         11    1    3    3    0    0  0.22637014019E+02 -0.51641021379E+02 -0.83012750542E+02  0.10035111482E+03  0.00000000000E+00 0.  1.
         -2    1    1    2    0  502  0.18416744431E+02  0.28299191660E+02  0.85899222397E+02  0.92296788311E+02  0.00000000000E+00 0.  1.
<scales pt_clust_5="13000.00000" pt_clust_6="13000.00000" pt_clust_7="13000.00000" pt_clust_8="13000.00000" pt_clust_9="33.76419"></scales>
<clustering>
<clus scale="   33.764">  1  9  2 -1</clus>
<clus scale="   89.960">  7  8 -1 -1</clus>
<clus scale="   92.081">  5  6 -1 -1</clus>
<clus scale="   94.689">  2  7  1 -1</clus>
<clus scale="   33.764">  1  5  2 -1</clus>
</clustering>
</event>
<event>
 9    1  0.1881049E-005  0.9919100E+02  0.7546771E-02  0.1292481E+00
         -4   -1    0    0    0  501 -0.00000000000E+00  0.00000000000E+00  0.42238409734E+03  0.42238409734E+03  0.00000000000E+00 0.  1.
         21   -1    0    0  501  502  0.00000000000E+00 -0.00000000000E+00 -0.88613042792E+02  0.88613042792E+02  0.00000000000E+00 0.  1.
         23    2    1    2    0    0 -0.97563595192E+01 -0.32856755789E+02  0.30861062076E+03  0.31882202293E+03  0.72334045314E+02 0.  0.
         23    2    1    2    0    0  0.42531542899E+02  0.72318624591E+02 -0.17281718026E+02  0.12559593137E+03  0.91851862226E+02 0.  0.
        -11    1    4    4    0    0 -0.16997116161E+02  0.61452364702E+02 -0.60043626701E+01  0.64041763376E+02  0.00000000000E+00 0.  1.
         11    1    4    4    0    0  0.59528659060E+02  0.10866259890E+02 -0.11277355356E+02  0.61554167993E+02  0.00000000000E+00 0. -1.
        -13    1    3    3    0    0 -0.28750958814E+02 -0.47034091522E+02  0.18850482842E+03  0.19639983130E+03  0.00000000000E+00 0.  1.
         13    1    3    3    0    0  0.18994599295E+02  0.14177335733E+02  0.12010579234E+03  0.12242219163E+03  0.00000000000E+00 0. -1.
         -4    1    1    2    0  502 -0.32775183380E+02 -0.39461868802E+02  0.42442151818E+02  0.66579185831E+02  0.00000000000E+00 0.  1.
<scales pt_clust_5="13000.00000" pt_clust_6="13000.00000" pt_clust_7="13000.00000" pt_clust_8="13000.00000" pt_clust_9="51.29768"></scales>
<clustering>
<clus scale="   51.298">  2  9  1 -1</clus>
<clus scale="   72.334">  7  8 -1 -1</clus>
<clus scale="   81.451">  1  7  2 -1</clus>
<clus scale="   91.852">  5  6 -1 -1</clus>
<clus scale="   51.298">  2  5  1 -1</clus>
</clustering>
</event>
<event>
 9    1  0.1881049E-005  0.1294458E+03  0.7546771E-02  0.1228880E+00
          2   -1    0    0  502    0 -0.00000000000E+00  0.00000000000E+00  0.12301640900E+04  0.12301640900E+04  0.00000000000E+00 0. -1.
         21   -1    0    0  501  502  0.00000000000E+00 -0.00000000000E+00 -0.45507843053E+02  0.45507843053E+02  0.00000000000E+00 0. -1.
         23    2    1    2    0    0 -0.58412907045E+02  0.75879756060E+02  0.58132082479E+03  0.59600187440E+03  0.90080674211E+02 0.  0.
         23    2    1    2    0    0  0.13003930039E+03  0.31943537704E+02  0.21021890459E+03  0.26578988362E+03  0.92312865514E+02 0.  0.
        -11    1    4    4    0    0  0.93286320419E+02  0.49880939335E+02  0.19557392221E+03  0.22235018492E+03  0.00000000000E+00 0.  1.
         11    1    4    4    0    0  0.36752979968E+02 -0.17937401631E+02  0.14644982382E+02  0.43439698695E+02  0.00000000000E+00 0. -1.
        -13    1    3    3    0    0 -0.63581017505E+02  0.96549721632E+01  0.31744625195E+03  0.32389487052E+03  0.00000000000E+00 0. -1.
         13    1    3    3    0    0  0.51681104600E+01  0.66224783896E+02  0.26387457284E+03  0.27210700388E+03  0.00000000000E+00 0.  1.
          2    1    1    2  501    0 -0.71626393341E+02 -0.10782329376E+03  0.39311651752E+03  0.41388017498E+03  0.00000000000E+00 0. -1.
<scales pt_clust_5="13000.00000" pt_clust_6="13000.00000" pt_clust_7="13000.00000" pt_clust_8="13000.00000" pt_clust_9="129.44582"></scales>
<clustering>
<clus scale="   90.081">  7  8 -1 -1</clus>
<clus scale="   92.313">  5  6 -1 -1</clus>
<clus scale="  129.446">  2  9  1 -1</clus>
<clus scale="  127.849">  1  7  2 -1</clus>
<clus scale="  129.446">  2  5  1 -1</clus>
</clustering>
</event>
<event>
 9    1  0.1881049E-005  0.1365488E+03  0.7546771E-02  0.1218784E+00
          1   -1    0    0  502    0 -0.00000000000E+00  0.00000000000E+00  0.56250769699E+03  0.56250769699E+03  0.00000000000E+00 0. -1.
         21   -1    0    0  501  502  0.00000000000E+00 -0.00000000000E+00 -0.58804766438E+02  0.58804766438E+02  0.00000000000E+00 0. -1.
         23    2    1    2    0    0 -0.58364819652E+02 -0.86024639282E+02  0.42269534961E+03  0.44473315091E+03  0.91156602606E+02 0.  0.
         23    2    1    2    0    0  0.72093682662E+02  0.63090359113E+02  0.64854680543E+02  0.14534825301E+03  0.87989161680E+02 0.  0.
        -13    1    4    4    0    0  0.46740470579E+02  0.84227959799E+02  0.41359114749E+02  0.10483127956E+03  0.00000000000E+00 0. -1.
         13    1    4    4    0    0  0.25353212084E+02 -0.21137600686E+02  0.23495565794E+02  0.40516973452E+02  0.00000000000E+00 0.  1.
        -13    1    3    3    0    0 -0.19376558056E+02 -0.18851117674E+02  0.17596727033E+02  0.32256169052E+02  0.00000000000E+00 0.  1.
         13    1    3    3    0    0 -0.38988261596E+02 -0.67173521608E+02  0.40509862258E+03  0.41247698186E+03  0.00000000000E+00 0. -1.
          1    1    1    2  501    0 -0.13728863010E+02  0.22934280169E+02  0.16152900399E+02  0.31231059504E+02  0.00000000000E+00 0. -1.
<scales pt_clust_5="13000.00000" pt_clust_6="13000.00000" pt_clust_7="13000.00000" pt_clust_8="13000.00000" pt_clust_9="26.72944"></scales>
<clustering>
<clus scale="   26.729">  2  9  1 -1</clus>
<clus scale="   87.989">  5  6 -1 -1</clus>
<clus scale="   91.157">  7  8 -1 -1</clus>
<clus scale="  134.455">  2  5  1 -1</clus>
<clus scale="   26.729">  2  5  1 -1</clus>
</clustering>
</event>
<event>
 9    1  0.1881049E-005  0.9985129E+02  0.7546771E-02  0.1281679E+00
          2   -1    0    0  502    0 -0.00000000000E+00  0.00000000000E+00  0.15122615739E+03  0.15122615739E+03  0.00000000000E+00 0. -1.
         21   -1    0    0  501  502  0.00000000000E+00 -0.00000000000E+00 -0.21443218764E+03  0.21443218764E+03  0.00000000000E+00 0. -1.
         23    2    1    2    0    0 -0.53567756570E+02 -0.84869729398E+01  0.10491422320E+03  0.14547951921E+03  0.84945647478E+02 0.  0.
         23    2    1    2    0    0  0.25012812805E+02 -0.32493820027E+01 -0.62785048751E+02  0.11041256422E+03  0.87251204591E+02 0.  0.
        -11    1    3    3    0    0 -0.24224074497E+02 -0.37231966051E+02  0.92426827577E+02  0.10254629948E+03  0.00000000000E+00 0.  1.
         11    1    3    3    0    0 -0.29343682073E+02  0.28744993111E+02  0.12487395621E+02  0.42933219725E+02  0.00000000000E+00 0. -1.
        -11    1    4    4    0    0 -0.92669379902E+01  0.22690146902E+02  0.95201590664E+01  0.26293579726E+02  0.00000000000E+00 0. -1.
         11    1    4    4    0    0  0.34279750795E+02 -0.25939528905E+02 -0.72305207817E+02  0.84118984491E+02  0.00000000000E+00 0.  1.
          2    1    1    2  501    0  0.28554943765E+02  0.11736354943E+02 -0.10533520470E+03  0.10976626162E+03  0.00000000000E+00 0. -1.
<scales pt_clust_5="13000.00000" pt_clust_6="13000.00000" pt_clust_7="13000.00000" pt_clust_8="13000.00000" pt_clust_9="30.87275"></scales>
<clustering>
<clus scale="   30.873">  2  9  1 -1</clus>
<clus scale="   84.946">  5  6 -1 -1</clus>
<clus scale="   87.251">  7  8 -1 -1</clus>
<clus scale="   97.843">  1  5  2 -1</clus>
<clus scale="   30.873">  2  5  1 -1</clus>
</clustering>
</event>
<event>
 9    1  0.1881049E-005  0.9247962E+02  0.7546771E-02  0.1299928E+00
         21   -1    0    0  501  502  0.00000000000E+00  0.00000000000E+00  0.40840352652E+03  0.40840352652E+03  0.00000000000E+00 0. -1.
         -1   -1    0    0    0  501 -0.00000000000E+00 -0.00000000000E+00 -0.11068651735E+03  0.11068651735E+03  0.00000000000E+00 0.  1.
         23    2    1    2    0    0  0.94321252743E+01 -0.40494499112E+01 -0.80331043155E+02  0.12235907407E+03  0.91724061631E+02 0.  0.
         23    2    1    2    0    0 -0.23818321641E+02  0.19792734152E+02  0.24036934713E+03  0.25741033418E+03  0.86738643815E+02 0.  0.
        -11    1    4    4    0    0  0.17518914326E+02  0.38470279120E+02  0.15593110532E+03  0.16155922859E+03  0.00000000000E+00 0.  1.
         11    1    4    4    0    0 -0.41337235967E+02 -0.18677544968E+02  0.84438241810E+02  0.95851105593E+02  0.00000000000E+00 0. -1.
        -13    1    3    3    0    0  0.45807419953E+02 -0.18306865397E+02 -0.61922599992E+02  0.79169877057E+02  0.00000000000E+00 0.  1.
         13    1    3    3    0    0 -0.36375294679E+02  0.14257415485E+02 -0.18408443163E+02  0.43189197017E+02  0.00000000000E+00 0. -1.
         -1    1    1    2    0  502  0.14386196367E+02 -0.15743284241E+02  0.13767870519E+03  0.13932063561E+03  0.00000000000E+00 0.  1.
<scales pt_clust_5="13000.00000" pt_clust_6="13000.00000" pt_clust_7="13000.00000" pt_clust_8="13000.00000" pt_clust_9="21.32636"></scales>
<clustering>
<clus scale="   21.326">  1  9  2 -1</clus>
<clus scale="   86.739">  5  6 -1 -1</clus>
<clus scale="   87.537">  1  5  2 -1</clus>
<clus scale="   91.724">  7  8 -1 -1</clus>
<clus scale="   21.326">  1  5  2 -1</clus>
</clustering>
</event>
<event>
 9    1  0.1881049E-005  0.9483820E+02  0.7546771E-02  0.1293944E+00
         21   -1    0    0  501  502  0.00000000000E+00  0.00000000000E+00  0.25711784328E+03  0.25711784328E+03  0.00000000000E+00 0.  1.
         -3   -1    0    0    0  501 -0.00000000000E+00 -0.00000000000E+00 -0.53053132159E+02  0.53053132159E+02  0.00000000000E+00 0.  1.
         23    2    1    2    0    0 -0.18107567603E+02 -0.16418340144E+02  0.56616304722E+02  0.11277156753E+03  0.94417024875E+02 0.  0.
         23    2    1    2    0    0 -0.81015300214E+01 -0.43145757097E+01  0.75306166826E+02  0.11789297214E+03  0.90241253121E+02 0.  0.
        -11    1    4    4    0    0 -0.23218937942E+02 -0.35576157861E+02  0.95678401803E+01  0.43546821388E+02  0.00000000000E+00 0.  1.
         11    1    4    4    0    0  0.15117407921E+02  0.31261582151E+02  0.65738326645E+02  0.74346150748E+02  0.00000000000E+00 0. -1.
        -11    1    3    3    0    0 -0.18754914380E+01  0.39278432041E+02  0.19418358498E+02  0.43856417301E+02  0.00000000000E+00 0. -1.
         11    1    3    3    0    0 -0.16232076165E+02 -0.55696772185E+02  0.37197946224E+02  0.68915150234E+02  0.00000000000E+00 0.  1.
         -3    1    1    2    0  502  0.26209097625E+02  0.20732915854E+02  0.72142239574E+02  0.79506435770E+02  0.00000000000E+00 0.  1.
<scales pt_clust_5="13000.00000" pt_clust_6="13000.00000" pt_clust_7="13000.00000" pt_clust_8="13000.00000" pt_clust_9="33.41812"></scales>
<clustering>
<clus scale="   33.418">  1  9  2 -1</clus>
<clus scale="   90.241">  5  6 -1 -1</clus>
<clus scale="   90.682">  1  5  2 -1</clus>
<clus scale="   94.417">  7  8 -1 -1</clus>
<clus scale="   33.418">  1  5  2 -1</clus>
</clustering>
</event>
<event>
 9    1  0.1881049E-005  0.1054185E+03  0.7546771E-02  0.1270190E+00
          2   -1    0    0  502    0 -0.00000000000E+00  0.00000000000E+00  0.76782039505E+03  0.76782039505E+03  0.00000000000E+00 0. -1.
         21   -1    0    0  501  502  0.00000000000E+00 -0.00000000000E+00 -0.43880165951E+02  0.43880165951E+02  0.00000000000E+00 0. -1.
         23    2    1    2    0    0 -0.29292095440E+02 -0.32053727040E+02  0.36347488630E+03  0.37750685282E+03  0.92260298514E+02 0.  0.
         23    2    1    2    0    0  0.50787775403E+02  0.31943778779E+02  0.38594409942E+03  0.40085839081E+03  0.90193117618E+02 0.  0.
        -11    1    3    3    0    0  0.72690598287E+01 -0.53667870732E+02  0.26134666264E+03  0.26689915259E+03  0.00000000000E+00 0.  1.
         11    1    3    3    0    0 -0.36561155269E+02  0.21614143692E+02  0.10212822366E+03  0.11060770023E+03  0.00000000000E+00 0. -1.
        -13    1    4    4    0    0  0.82788543877E+01 -0.21084644031E+02  0.25692868112E+02  0.34252373870E+02  0.00000000000E+00 0.  1.
         13    1    4    4    0    0  0.42508921016E+02  0.53028422810E+02  0.36025123131E+03  0.36660601694E+03  0.00000000000E+00 0. -1.
          2    1    1    2  501    0 -0.21495679963E+02  0.10994826103E+00 -0.25478756623E+02  0.33335317379E+02  0.00000000000E+00 0. -1.
<scales pt_clust_5="13000.00000" pt_clust_6="13000.00000" pt_clust_7="13000.00000" pt_clust_8="13000.00000" pt_clust_9="21.49596"></scales>
<clustering>
<clus scale="   21.496">  2  9  1 -1</clus>
<clus scale="   90.193">  7  8 -1 -1</clus>
<clus scale="   92.260">  5  6 -1 -1</clus>
<clus scale="  103.614">  2  7  1 -1</clus>
<clus scale="   21.496">  2  5  1 -1</clus>
</clustering>
</event>
<event>
 9    1  0.1881049E-005  0.1309911E+03  0.7546771E-02  0.1227653E+00
         21   -1    0    0  501  502  0.00000000000E+00  0.00000000000E+00  0.56084886486E+02  0.56084886486E+02  0.00000000000E+00 0. -1.
          2   -1    0    0  502    0 -0.00000000000E+00 -0.00000000000E+00 -0.82844692840E+03  0.82844692840E+03  0.00000000000E+00 0. -1.
         23    2    1    2    0    0 -0.10156687750E+03 -0.53796591062E+02 -0.41091578089E+03  0.43602263166E+03  0.89744373162E+02 0.  0.
         23    2    1    2    0    0 -0.22110607165E+02  0.96953699113E+02 -0.19223470394E+03  0.23452038156E+03  0.90314612603E+02 0.  0.
        -13    1    4    4    0    0 -0.23204475557E+02  0.39885584538E+02 -0.16489891445E+03  0.17123364017E+03  0.00000000000E+00 0. -1.
         13    1    4    4    0    0  0.10938683914E+01  0.57068114575E+02 -0.27335789491E+02  0.63286741394E+02  0.00000000000E+00 0.  1.
        -13    1    3    3    0    0 -0.59099291029E+02 -0.19181752160E+02 -0.34386993771E+03  0.34943840641E+03  0.00000000000E+00 0. -1.
         13    1    3    3    0    0 -0.42467586471E+02 -0.34614838902E+02 -0.67045843188E+02  0.86584225247E+02  0.00000000000E+00 0.  1.
          2    1    1    2  501    0  0.12367748467E+03 -0.43157108051E+02 -0.16921155708E+03  0.21398880167E+03  0.00000000000E+00 0. -1.
<scales pt_clust_5="13000.00000" pt_clust_6="13000.00000" pt_clust_7="13000.00000" pt_clust_8="13000.00000" pt_clust_9="130.99105"></scales>
<clustering>
<clus scale="   89.744">  7  8 -1 -1</clus>
<clus scale="   90.315">  5  6 -1 -1</clus>
<clus scale="  130.991">  1  9  2 -1</clus>
<clus scale="  126.554">  2  7  1 -1</clus>
<clus scale="  130.991">  1  5  2 -1</clus>
</clustering>
</event>
<event>
 9    1  0.1881049E-005  0.1980206E+03  0.7546771E-02  0.1163465E+00
          1   -1    0    0  502    0 -0.00000000000E+00  0.00000000000E+00  0.13995515734E+04  0.13995515734E+04  0.00000000000E+00 0. -1.
         21   -1    0    0  501  502  0.00000000000E+00 -0.00000000000E+00 -0.15192181618E+03  0.15192181618E+03  0.00000000000E+00 0. -1.
         23    2    1    2    0    0 -0.72587072412E+02  0.93271965143E+02  0.19437355956E+03  0.24516373413E+03  0.91409153327E+02 0.  0.
         23    2    1    2    0    0  0.14665328874E+03 -0.24530869550E+03  0.10922881863E+04  0.11327456386E+04  0.91299817562E+02 0.  0.
        -11    1    4    4    0    0 -0.60776029147E+01 -0.51767906020E+02  0.15277821386E+03  0.16142501659E+03  0.00000000000E+00 0.  1.
         11    1    4    4    0    0  0.15273089166E+03 -0.19354078948E+03  0.93950997247E+03  0.97132062205E+03  0.00000000000E+00 0. -1.
        -11    1    3    3    0    0 -0.94544943863E+02  0.72791706116E+02  0.15815991516E+03  0.19812101770E+03  0.00000000000E+00 0.  1.
         11    1    3    3    0    0  0.21957871451E+02  0.20480259026E+02  0.36213644396E+02  0.47042716427E+02  0.00000000000E+00 0. -1.
          1    1    1    2  501    0 -0.74066216332E+02  0.15203673036E+03 -0.39031988699E+02  0.17356401678E+03  0.00000000000E+00 0. -1.
<scales pt_clust_5="13000.00000" pt_clust_6="13000.00000" pt_clust_7="13000.00000" pt_clust_8="13000.00000" pt_clust_9="175.71707"></scales>
<clustering>
<clus scale="   91.300">  5  6 -1 -1</clus>
<clus scale="   91.409">  7  8 -1 -1</clus>
<clus scale="  149.413">  1  7  2 -1</clus>
<clus scale="  175.717">  2  9  1 -1</clus>
<clus scale="  175.717">  2  5  1 -1</clus>
</clustering>
</event>
<event>
 9    1  0.1881049E-005  0.2841661E+03  0.7546771E-02  0.1093441E+00
         21   -1    0    0  501  502  0.00000000000E+00  0.00000000000E+00  0.96762091106E+02  0.96762091106E+02  0.00000000000E+00 0. -1.
          2   -1    0    0  502    0 -0.00000000000E+00 -0.00000000000E+00 -0.17985177469E+04  0.17985177469E+04  0.00000000000E+00 0. -1.
         23    2    1    2    0    0 -0.17344092499E+03  0.17241207348E+03 -0.63215512808E+03  0.68386086219E+03  0.90762852150E+02 0.  0.
         23    2    1    2    0    0  0.33785552847E+03 -0.48621012277E+02 -0.77908077157E+03  0.85538791343E+03  0.90616073920E+02 0.  0.
        -11    1    3    3    0    0 -0.82141644771E+02  0.13243077078E+03 -0.31546799093E+03  0.35185964838E+03  0.00000000000E+00 0. -1.
         11    1    3    3    0    0 -0.91299280220E+02  0.39981302697E+02 -0.31668713716E+03  0.33200121381E+03  0.00000000000E+00 0.  1.
        -13    1    4    4    0    0  0.27401109962E+03 -0.14076902473E+02 -0.54273985136E+03  0.60815030063E+03  0.00000000000E+00 0. -1.
         13    1    4    4    0    0  0.63844428855E+02 -0.34544109805E+02 -0.23634092021E+03  0.24723761280E+03  0.00000000000E+00 0.  1.
          2    1    1    2  501    0 -0.16441460348E+03 -0.12379106120E+03 -0.29051975610E+03  0.35603106235E+03  0.00000000000E+00 0. -1.
<scales pt_clust_5="13000.00000" pt_clust_6="13000.00000" pt_clust_7="13000.00000" pt_clust_8="13000.00000" pt_clust_9="205.80668"></scales>
<clustering>
<clus scale="   90.616">  7  8 -1 -1</clus>
<clus scale="   90.763">  5  6 -1 -1</clus>
<clus scale="  205.807">  1  9  2 -1</clus>
<clus scale="  284.119">  1  7  2 -1</clus>
<clus scale="  205.807">  1  5  2 -1</clus>
</clustering>
</event>
<event>
 9    1  0.1881049E-005  0.1497046E+03  0.7546771E-02  0.1202613E+00
         21   -1    0    0  501  502  0.00000000000E+00  0.00000000000E+00  0.25758000540E+03  0.25758000540E+03  0.00000000000E+00 0.  1.
         -3   -1    0    0    0  501 -0.00000000000E+00 -0.00000000000E+00 -0.16706409465E+03  0.16706409465E+03  0.00000000000E+00 0.  1.
         23    2    1    2    0    0 -0.88274188572E+02 -0.96740875546E+02 -0.35626122316E+02  0.16625418447E+03  0.96021372064E+02 0.  0.
         23    2    1    2    0    0 -0.17570421426E+00  0.10533271821E+03  0.79237733788E+02  0.15790500832E+03  0.86950335252E+02 0.  0.
        -11    1    4    4    0    0 -0.23679502251E+02  0.27929852432E+02  0.66639758621E+02  0.76037181121E+02  0.00000000000E+00 0.  1.
         11    1    4    4    0    0  0.23503798037E+02  0.77402865776E+02  0.12597975167E+02  0.81867827202E+02  0.00000000000E+00 0. -1.
        -13    1    3    3    0    0 -0.34801679792E+02  0.14914515995E+02 -0.17479381889E+01  0.37903231941E+02  0.00000000000E+00 0. -1.
         13    1    3    3    0    0 -0.53472508780E+02 -0.11165539154E+03 -0.33878184127E+02  0.12835095253E+03  0.00000000000E+00 0.  1.
         -3    1    1    2    0  502  0.88449892786E+02 -0.85918426625E+01  0.46904299280E+02  0.10048490725E+03  0.00000000000E+00 0.  1.
<scales pt_clust_5="13000.00000" pt_clust_6="13000.00000" pt_clust_7="13000.00000" pt_clust_8="13000.00000" pt_clust_9="88.86621"></scales>
<clustering>
<clus scale="   86.950">  5  6 -1 -1</clus>
<clus scale="   88.866">  1  9  2 -1</clus>
<clus scale="   96.021">  7  8 -1 -1</clus>
<clus scale="  144.055">  1  5  2 -1</clus>
<clus scale="   88.866">  1  5  2 -1</clus>
</clustering>
</event>
<event>
 9    1  0.1881049E-005  0.9393383E+02  0.7546771E-02  0.1294075E+00
         21   -1    0    0  501  502  0.00000000000E+00  0.00000000000E+00  0.13560439856E+03  0.13560439856E+03  0.00000000000E+00 0.  1.
          3   -1    0    0  502    0 -0.00000000000E+00 -0.00000000000E+00 -0.27125294948E+03  0.27125294948E+03  0.00000000000E+00 0. -1.
         23    2    1    2    0    0  0.18562597875E+02 -0.69712261709E+01 -0.22004892461E+03  0.23865774480E+03  0.90237585827E+02 0.  0.
         23    2    1    2    0    0 -0.52481819859E+02 -0.39428458057E+01  0.43208557410E+02  0.11373496961E+03  0.91097620329E+02 0.  0.
        -11    1    4    4    0    0 -0.18184246683E+02  0.24258163251E+02  0.59223433290E+02  0.66532250544E+02  0.00000000000E+00 0.  1.
         11    1    4    4    0    0 -0.34297573176E+02 -0.28201009057E+02 -0.16014875881E+02  0.47202719065E+02  0.00000000000E+00 0. -1.
        -13    1    3    3    0    0 -0.26190801383E+02  0.52342994918E+01 -0.20177033338E+02  0.33473402016E+02  0.00000000000E+00 0.  1.
         13    1    3    3    0    0  0.44753399257E+02 -0.12205525663E+02 -0.19987189127E+03  0.20518434278E+03  0.00000000000E+00 0. -1.
          3    1    1    2  501    0  0.33919221984E+02  0.10914071977E+02  0.41191816287E+02  0.54464633628E+02  0.00000000000E+00 0. -1.
<scales pt_clust_5="13000.00000" pt_clust_6="13000.00000" pt_clust_7="13000.00000" pt_clust_8="13000.00000" pt_clust_9="35.63188"></scales>
<clustering>
<clus scale="   35.632">  1  9  2 -1</clus>
<clus scale="   90.238">  7  8 -1 -1</clus>
<clus scale="   91.098">  5  6 -1 -1</clus>
<clus scale="   93.100">  2  7  1 -1</clus>
<clus scale="   35.632">  1  5  2 -1</clus>
</clustering>
</event>
<event>
 9    1  0.1881049E-005  0.1239461E+03  0.7546771E-02  0.1238547E+00
         21   -1    0    0  501  502  0.00000000000E+00  0.00000000000E+00  0.16558697241E+03  0.16558697241E+03  0.00000000000E+00 0. -1.
         -4   -1    0    0    0  501 -0.00000000000E+00 -0.00000000000E+00 -0.24334113474E+03  0.24334113474E+03  0.00000000000E+00 0.  1.
         23    2    1    2    0    0  0.81068073463E+02 -0.54593190038E+02 -0.15628505187E+03  0.20468662022E+03  0.88989584381E+02 0.  0.
         23    2    1    2    0    0 -0.45591476187E+02 -0.26027565355E+01  0.63762610567E+01  0.10556902030E+03  0.94967385454E+02 0.  0.
        -11    1    3    3    0    0  0.11260533625E+02  0.20599566894E+02 -0.89029123606E+01  0.25107839856E+02  0.00000000000E+00 0.  1.
         11    1    3    3    0    0  0.69807539838E+02 -0.75192756932E+02 -0.14738213951E+03  0.17957878037E+03  0.00000000000E+00 0. -1.
        -13    1    4    4    0    0 -0.73334004408E+02 -0.52051505105E+01  0.17489663223E+02  0.75570219756E+02  0.00000000000E+00 0.  1.
         13    1    4    4    0    0  0.27742528221E+02  0.26023939750E+01 -0.11113402166E+02  0.29998800546E+02  0.00000000000E+00 0. -1.
         -4    1    1    2    0  502 -0.35476597276E+02  0.57195946574E+02  0.72154628482E+02  0.98672466626E+02  0.00000000000E+00 0.  1.
<scales pt_clust_5="13000.00000" pt_clust_6="13000.00000" pt_clust_7="13000.00000" pt_clust_8="13000.00000" pt_clust_9="67.30502"></scales>
<clustering>
<clus scale="   67.305">  1  9  2 -1</clus>
<clus scale="   88.990">  5  6 -1 -1</clus>
<clus scale="   94.967">  7  8 -1 -1</clus>
<clus scale="  119.428">  2  5  1 -1</clus>
<clus scale="   67.305">  1  5  2 -1</clus>
</clustering>
</event>
<event>
 9    1  0.1881049E-005  0.9556547E+02  0.7546771E-02  0.1290946E+00
         21   -1    0    0  501  502  0.00000000000E+00  0.00000000000E+00  0.22672595488E+03  0.22672595488E+03  0.00000000000E+00 0.  1.
          2   -1    0    0  502    0 -0.00000000000E+00 -0.00000000000E+00 -0.70748041355E+02  0.70748041355E+02  0.00000000000E+00 0. -1.
         23    2    1    2    0    0  0.16731137684E+02  0.31233106172E+02  0.20231205486E+02  0.10156867630E+03  0.93013205734E+02 0.  0.
         23    2    1    2    0    0 -0.26095143681E+01 -0.44856333958E+01  0.48062100615E+02  0.10315060079E+03  0.91121624519E+02 0.  0.
        -11    1    4    4    0    0  0.23537244013E+02  0.15445598265E+02 -0.15098281071E+02  0.31945679720E+02  0.00000000000E+00 0. -1.
         11    1    4    4    0    0 -0.26146758381E+02 -0.19931231661E+02  0.63160381686E+02  0.71204921066E+02  0.00000000000E+00 0.  1.
        -13    1    3    3    0    0  0.15513153431E+02 -0.21298338778E+02 -0.21865397320E+02  0.34239929381E+02  0.00000000000E+00 0.  1.
         13    1    3    3    0    0  0.12179842536E+01  0.52531444950E+02  0.42096602806E+02  0.67328746921E+02  0.00000000000E+00 0. -1.
          2    1    1    2  501    0 -0.14121623316E+02 -0.26747472776E+02  0.87684607426E+02  0.92754719149E+02  0.00000000000E+00 0. -1.
<scales pt_clust_5="13000.00000" pt_clust_6="13000.00000" pt_clust_7="13000.00000" pt_clust_8="13000.00000" pt_clust_9="30.24645"></scales>
<clustering>
<clus scale="   30.246">  1  9  2 -1</clus>
<clus scale="   91.122">  5  6 -1 -1</clus>
<clus scale="   93.013">  7  8 -1 -1</clus>
<clus scale="   93.725">  1  5  2 -1</clus>
<clus scale="   30.246">  1  5  2 -1</clus>
</clustering>
</event>
<event>
 9    1  0.1881049E-005  0.1639846E+03  0.7546771E-02  0.1184452E+00
         21   -1    0    0  501  502  0.00000000000E+00  0.00000000000E+00  0.23677113980E+03  0.23677113980E+03  0.00000000000E+00 0. -1.
         -3   -1    0    0    0  501 -0.00000000000E+00 -0.00000000000E+00 -0.32856532283E+03  0.32856532283E+03  0.00000000000E+00 0.  1.
         23    2    1    2    0    0 -0.12061778782E+03 -0.62837084141E+02 -0.24439458492E+03  0.29407593792E+03  0.90855898240E+02 0.  0.
         23    2    1    2    0    0  0.10593908356E+03  0.96147840045E+02  0.73409865164E+02  0.18410427466E+03  0.89654219507E+02 0.  0.
        -11    1    3    3    0    0 -0.52992007434E+01 -0.45641557047E+02 -0.54969754378E+02  0.71644309994E+02  0.00000000000E+00 0.  1.
         11    1    3    3    0    0 -0.11531858707E+03 -0.17195527095E+02 -0.18942483054E+03  0.22243162792E+03  0.00000000000E+00 0. -1.
        -11    1    4    4    0    0  0.33988237824E+02  0.23225315323E+02 -0.19730117828E+02  0.45649678331E+02  0.00000000000E+00 0.  1.
         11    1    4    4    0    0  0.71950845737E+02  0.72922524722E+02  0.93139982992E+02  0.13845459633E+03  0.00000000000E+00 0. -1.
         -3    1    1    2    0  502  0.14678704255E+02 -0.33310755903E+02  0.79190536720E+02  0.87156250054E+02  0.00000000000E+00 0.  1.
<scales pt_clust_5="13000.00000" pt_clust_6="13000.00000" pt_clust_7="13000.00000" pt_clust_8="13000.00000" pt_clust_9="36.40152"></scales>
<clustering>
<clus scale="   36.402">  1  9  2 -1</clus>
<clus scale="   89.654">  7  8 -1 -1</clus>
<clus scale="   90.856">  5  6 -1 -1</clus>
<clus scale="  163.322">  1  7  2 -1</clus>
<clus scale="   36.402">  1  5  2 -1</clus>
</clustering>
</event>
<event>
 9    1  0.1881049E-005  0.1912395E+03  0.7546771E-02  0.1187671E+00
          2   -1    0    0  502    0 -0.00000000000E+00  0.00000000000E+00  0.10054782169E+04  0.10054782169E+04  0.00000000000E+00 0. -1.
         21   -1    0    0  501  502  0.00000000000E+00 -0.00000000000E+00 -0.13107684273E+03  0.13107684273E+03  0.00000000000E+00 0. -1.
         23    2    1    2    0    0 -0.95881443945E+01  0.33786844720E+02  0.25886536990E+03  0.27604261804E+03  0.89189482859E+02 0.  0.
         23    2    1    2    0    0  0.41873103487E+02  0.12673622662E+03  0.66772225621E+03  0.68865965598E+03  0.10287702561E+03 0.  0.
        -13    1    4    4    0    0  0.38703369156E+02  0.10649929271E+03  0.65459569377E+03  0.66433092088E+03  0.00000000000E+00 0. -1.
         13    1    4    4    0    0  0.31697343313E+01  0.20236933916E+02  0.13126562440E+02  0.24328735100E+02  0.00000000000E+00 0.  1.
        -13    1    3    3    0    0 -0.91877357583E+01  0.64001989077E+02  0.15709577079E+03  0.16988157727E+03  0.00000000000E+00 0. -1.
         13    1    3    3    0    0 -0.40040863625E+00 -0.30215144357E+02  0.10176959911E+03  0.10616104078E+03  0.00000000000E+00 0.  1.
          2    1    1    2  501    0 -0.32284959093E+02 -0.16052307134E+03 -0.52186251964E+02  0.17185278558E+03  0.00000000000E+00 0. -1.
<scales pt_clust_5="13000.00000" pt_clust_6="13000.00000" pt_clust_7="13000.00000" pt_clust_8="13000.00000" pt_clust_9="161.21065"></scales>
<clustering>
<clus scale="   89.189">  7  8 -1 -1</clus>
<clus scale="   95.855">  1  7  2 -1</clus>
<clus scale="  102.877">  5  6 -1 -1</clus>
<clus scale="  161.211">  2  9  1 -1</clus>
<clus scale="  161.211">  2  5  1 -1</clus>
</clustering>
</event>
<event>
 9    1  0.1881049E-005  0.1626693E+03  0.7546771E-02  0.1186194E+00
          1   -1    0    0  502    0 -0.00000000000E+00  0.00000000000E+00  0.50400673696E+03  0.50400673696E+03  0.00000000000E+00 0. -1.
         21   -1    0    0  501  502  0.00000000000E+00 -0.00000000000E+00 -0.95972708063E+02  0.95972708063E+02  0.00000000000E+00 0. -1.
         23    2    1    2    0    0  0.98688563017E+01 -0.11605158531E+03  0.19240487696E+03  0.24427913248E+03  0.95327294679E+02 0.  0.
         23    2    1    2    0    0  0.77471927694E+01  0.14398176836E+03  0.25205145320E+03  0.30653727420E+03  0.98205889836E+02 0.  0.
        -11    1    3    3    0    0  0.37727931020E+02 -0.11099489166E+03  0.17625883208E+03  0.21168476241E+03  0.00000000000E+00 0.  1.
         11    1    3    3    0    0 -0.27859074719E+02 -0.50566936587E+01  0.16146044879E+02  0.32594370069E+02  0.00000000000E+00 0. -1.
        -11    1    4    4    0    0  0.47906306821E+02  0.10938048050E+03  0.15184479450E+03  0.19317335573E+03  0.00000000000E+00 0. -1.
         11    1    4    4    0    0 -0.40159114052E+02  0.34601287862E+02  0.10020665871E+03  0.11336391848E+03  0.00000000000E+00 0.  1.
          1    1    1    2  501    0 -0.17616049071E+02 -0.27930183049E+02 -0.36422301257E+02  0.49163038341E+02  0.00000000000E+00 0. -1.
<scales pt_clust_5="13000.00000" pt_clust_6="13000.00000" pt_clust_7="13000.00000" pt_clust_8="13000.00000" pt_clust_9="33.02151"></scales>
<clustering>
<clus scale="   33.022">  2  9  1 -1</clus>
<clus scale="   95.327">  5  6 -1 -1</clus>
<clus scale="   98.206">  7  8 -1 -1</clus>
<clus scale="  160.948">  1  5  2 -1</clus>
<clus scale="   33.022">  2  5  1 -1</clus>
</clustering>
</event>
<event>
 9    1  0.1881049E-005  0.1035576E+03  0.7546771E-02  0.1273193E+00
         21   -1    0    0  501  502  0.00000000000E+00  0.00000000000E+00  0.26042283957E+03  0.26042283957E+03  0.00000000000E+00 0.  1.
          2   -1    0    0  502    0 -0.00000000000E+00 -0.00000000000E+00 -0.27527275850E+03  0.27527275850E+03  0.00000000000E+00 0.  1.
         23    2    1    2    0    0  0.38914383044E+02  0.28169633658E+02 -0.23051214314E+03  0.25241380002E+03  0.90934156593E+02 0.  0.
         23    2    1    2    0    0 -0.29831804778E+02 -0.49858584668E+02  0.56047205240E+02  0.12194408360E+03  0.91396144713E+02 0.  0.
        -11    1    4    4    0    0 -0.77919464295E+01  0.25390282505E+02  0.18441617457E+01  0.26622956399E+02  0.00000000000E+00 0.  1.
         11    1    4    4    0    0 -0.22039858348E+02 -0.75248867173E+02  0.54203043495E+02  0.95321127202E+02  0.00000000000E+00 0. -1.
        -11    1    3    3    0    0 -0.18873646396E+02 -0.10147052002E+02 -0.15359726245E+02  0.26364718526E+02  0.00000000000E+00 0. -1.
         11    1    3    3    0    0  0.57788029440E+02  0.38316685660E+02 -0.21515241690E+03  0.22604908149E+03  0.00000000000E+00 0.  1.
          2    1    1    2  501    0 -0.90825782663E+01  0.21688951010E+02  0.15961501897E+03  0.16133771445E+03  0.00000000000E+00 0.  1.
<scales pt_clust_5="13000.00000" pt_clust_6="13000.00000" pt_clust_7="13000.00000" pt_clust_8="13000.00000" pt_clust_9="23.51391"></scales>
<clustering>
<clus scale="   23.514">  1  9  2 -1</clus>
<clus scale="   90.934">  7  8 -1 -1</clus>
<clus scale="   91.396">  5  6 -1 -1</clus>
<clus scale="  103.150">  2  7  1 -1</clus>
<clus scale="   23.514">  1  5  2 -1</clus>
</clustering>
</event>
<event>
 9    1  0.1881049E-005  0.1205215E+03  0.7546771E-02  0.1250591E+00
         21   -1    0    0  501  502  0.00000000000E+00  0.00000000000E+00  0.45433687181E+02  0.45433687181E+02  0.00000000000E+00 0.  1.
          1   -1    0    0  502    0 -0.00000000000E+00 -0.00000000000E+00 -0.49236811806E+03  0.49236811806E+03  0.00000000000E+00 0. -1.
         23    2    1    2    0    0 -0.35945120797E+02 -0.40838347163E+02 -0.22819788887E+03  0.24726770734E+03  0.78148706339E+02 0.  0.
         23    2    1    2    0    0  0.61659344082E+02  0.61341429538E+02 -0.22033567277E+03  0.25760759057E+03  0.10123841332E+03 0.  0.
        -11    1    3    3    0    0  0.21855093218E+02  0.19580362889E+01 -0.72785143134E+02  0.76020760761E+02  0.00000000000E+00 0.  1.
         11    1    3    3    0    0 -0.57800214015E+02 -0.42796383452E+02 -0.15541274573E+03  0.17124694658E+03  0.00000000000E+00 0. -1.
        -13    1    4    4    0    0  0.16727472175E+02  0.57019557123E+02 -0.19899524290E+03  0.20767798370E+03  0.00000000000E+00 0. -1.
         13    1    4    4    0    0  0.44931871907E+02  0.43218724144E+01 -0.21340429876E+02  0.49929606863E+02  0.00000000000E+00 0.  1.
          1    1    1    2  501    0 -0.25714223285E+02 -0.20503082375E+02  0.15991307589E+01  0.32926507334E+02  0.00000000000E+00 0. -1.
<scales pt_clust_5="13000.00000" pt_clust_6="13000.00000" pt_clust_7="13000.00000" pt_clust_8="13000.00000" pt_clust_9="32.88765"></scales>
<clustering>
<clus scale="   32.888">  1  9  2 -1</clus>
<clus scale="   78.149">  5  6 -1 -1</clus>
<clus scale="  101.238">  7  8 -1 -1</clus>
<clus scale="  101.899">  2  5  1 -1</clus>
<clus scale="   32.888">  1  5  2 -1</clus>
</clustering>
</event>
<event>
 9    1  0.1881049E-005  0.1313242E+03  0.7546771E-02  0.1227192E+00
          1   -1    0    0  502    0 -0.00000000000E+00  0.00000000000E+00  0.24629116635E+03  0.24629116635E+03  0.00000000000E+00 0. -1.
         21   -1    0    0  501  502  0.00000000000E+00 -0.00000000000E+00 -0.10287660705E+03  0.10287660705E+03  0.00000000000E+00 0.  1.
         23    2    1    2    0    0  0.79199316860E+02  0.12393782561E+02  0.98914172588E+02  0.15843852452E+03  0.94300662123E+02 0.  0.
         23    2    1    2    0    0 -0.10372331824E+03 -0.36158641350E+02  0.60353583209E+02  0.15307929541E+03  0.87890509079E+02 0.  0.
        -11    1    3    3    0    0 -0.13386283145E+02  0.26774661868E+02  0.20794343317E+02  0.36448316951E+02  0.00000000000E+00 0.  1.
         11    1    3    3    0    0  0.92585600004E+02 -0.14380879307E+02  0.78119829271E+02  0.12199020757E+03  0.00000000000E+00 0. -1.
        -11    1    4    4    0    0 -0.45186333528E+02 -0.33713694942E+02 -0.14317511823E+02  0.58167079255E+02  0.00000000000E+00 0.  1.
         11    1    4    4    0    0 -0.58536984712E+02 -0.24449464082E+01  0.74671095032E+02  0.94912216155E+02  0.00000000000E+00 0. -1.
          1    1    1    2  501    0  0.24524001380E+02  0.23764858789E+02 -0.15853196495E+02  0.37649953467E+02  0.00000000000E+00 0. -1.
<scales pt_clust_5="13000.00000" pt_clust_6="13000.00000" pt_clust_7="13000.00000" pt_clust_8="13000.00000" pt_clust_9="34.14960"></scales>
<clustering>
<clus scale="   34.150">  2  9  1 -1</clus>
<clus scale="   87.891">  7  8 -1 -1</clus>
<clus scale="   94.301">  5  6 -1 -1</clus>
<clus scale="  126.800">  2  7  1 -1</clus>
<clus scale="   34.150">  2  5  1 -1</clus>
</clustering>
</event>
<event>
 9    1  0.1881049E-005  0.1911875E+03  0.7546771E-02  0.1157844E+00
         -3   -1    0    0    0  501 -0.00000000000E+00  0.00000000000E+00  0.59531640373E+03  0.59531640373E+03  0.00000000000E+00 0.  1.
         21   -1    0    0  501  502  0.00000000000E+00 -0.00000000000E+00 -0.13199718750E+03  0.13199718750E+03  0.00000000000E+00 0.  1.
         23    2    1    2    0    0  0.15263795331E+03 -0.88818651309E+02  0.42860961011E+03  0.47222606134E+03  0.90023094377E+02 0.  0.
         23    2    1    2    0    0 -0.13287580508E+03  0.52159554669E+02  0.84034572972E+02  0.19053224952E+03  0.94149508401E+02 0.  0.
        -13    1    3    3    0    0  0.14454586727E+03 -0.68160973684E+02  0.41824794824E+03  0.44773962554E+03  0.00000000000E+00 0.  1.
         13    1    3    3    0    0  0.80920860361E+01 -0.20657677625E+02  0.10361661874E+02  0.24486435798E+02  0.00000000000E+00 0. -1.
        -13    1    4    4    0    0 -0.12016943397E+03  0.71549405815E+02  0.90353068459E+02  0.16650431620E+03  0.00000000000E+00 0.  1.
         13    1    4    4    0    0 -0.12706371111E+02 -0.19389851146E+02 -0.63184954868E+01  0.24027933317E+02  0.00000000000E+00 0. -1.
         -3    1    1    2    0  502 -0.19762148224E+02  0.36659096639E+02 -0.49324966855E+02  0.64555280373E+02  0.00000000000E+00 0.  1.
<scales pt_clust_5="13000.00000" pt_clust_6="13000.00000" pt_clust_7="13000.00000" pt_clust_8="13000.00000" pt_clust_9="41.64651"></scales>
<clustering>
<clus scale="   41.647">  2  9  1 -1</clus>
<clus scale="   90.023">  5  6 -1 -1</clus>
<clus scale="   94.150">  7  8 -1 -1</clus>
<clus scale="  189.190">  1  5  2 -1</clus>
<clus scale="   41.647">  2  5  1 -1</clus>
</clustering>
</event>
<event>
 9    1  0.1881049E-005  0.1503833E+03  0.7546771E-02  0.1200083E+00
         21   -1    0    0  501  502  0.00000000000E+00  0.00000000000E+00  0.13755427125E+03  0.13755427125E+03  0.00000000000E+00 0.  1.
          2   -1    0    0  502    0 -0.00000000000E+00 -0.00000000000E+00 -0.31473224241E+03  0.31473224241E+03  0.00000000000E+00 0. -1.
         23    2    1    2    0    0 -0.10900410896E+03 -0.61852281445E+02 -0.17163031668E+03  0.23097060870E+03  0.90459139894E+02 0.  0.
         23    2    1    2    0    0  0.11470609101E+03  0.15058797300E+02 -0.51116424069E+02  0.15575177209E+03  0.90892634515E+02 0.  0.
        -11    1    4    4    0    0  0.98189254929E+02 -0.13445702734E+02 -0.66544837368E+02  0.11937391711E+03  0.00000000000E+00 0. -1.
         11    1    4    4    0    0  0.16516836084E+02  0.28504500034E+02  0.15428413298E+02  0.36377854985E+02  0.00000000000E+00 0.  1.
        -11    1    3    3    0    0 -0.67912675082E+02  0.11726920848E+02 -0.62087458940E+02  0.92760469312E+02  0.00000000000E+00 0. -1.
         11    1    3    3    0    0 -0.41091433874E+02 -0.73579202293E+02 -0.10954285774E+03  0.13821013939E+03  0.00000000000E+00 0.  1.
          2    1    1    2  501    0 -0.57019820570E+01  0.46793484144E+02  0.45568769586E+02  0.65564132872E+02  0.00000000000E+00 0. -1.
<scales pt_clust_5="13000.00000" pt_clust_6="13000.00000" pt_clust_7="13000.00000" pt_clust_8="13000.00000" pt_clust_9="47.13961"></scales>
<clustering>
<clus scale="   47.140">  1  9  2 -1</clus>
<clus scale="   90.459">  7  8 -1 -1</clus>
<clus scale="   90.893">  5  6 -1 -1</clus>
<clus scale="  150.122">  2  7  1 -1</clus>
<clus scale="   47.140">  1  5  2 -1</clus>
</clustering>
</event>
<event>
 9    1  0.1881049E-005  0.1074719E+03  0.7546771E-02  0.1268168E+00
          1   -1    0    0  502    0 -0.00000000000E+00  0.00000000000E+00  0.22530487218E+03  0.22530487218E+03  0.00000000000E+00 0. -1.
         21   -1    0    0  501  502  0.00000000000E+00 -0.00000000000E+00 -0.86857255372E+02  0.86857255372E+02  0.00000000000E+00 0.  1.
         23    2    1    2    0    0 -0.41543305748E+02 -0.60559750734E-01  0.12872438508E+03  0.16333078240E+03  0.91548496682E+02 0.  0.
         23    2    1    2    0    0  0.48855609166E+02  0.30100335463E+02  0.21912265684E+02  0.11559837275E+03  0.97928216836E+02 0.  0.
        -11    1    4    4    0    0  0.22573856977E+02  0.40984212634E+02  0.54837797284E+02  0.72086536295E+02  0.00000000000E+00 0. -1.
         11    1    4    4    0    0  0.26281752189E+02 -0.10883877171E+02 -0.32925531600E+02  0.43511836453E+02  0.00000000000E+00 0.  1.
        -13    1    3    3    0    0 -0.67149577901E+01  0.39880473400E+02  0.26988080538E+02  0.48619947633E+02  0.00000000000E+00 0.  1.
         13    1    3    3    0    0 -0.34828347958E+02 -0.39941033151E+02  0.10173630454E+03  0.11471083477E+03  0.00000000000E+00 0. -1.
          1    1    1    2  501    0 -0.73123034180E+01 -0.30039775712E+02 -0.12189033957E+02  0.33232972405E+02  0.00000000000E+00 0. -1.
<scales pt_clust_5="13000.00000" pt_clust_6="13000.00000" pt_clust_7="13000.00000" pt_clust_8="13000.00000" pt_clust_9="30.91695"></scales>
<clustering>
<clus scale="   30.917">  2  9  1 -1</clus>
<clus scale="   91.548">  7  8 -1 -1</clus>
<clus scale="   97.928">  5  6 -1 -1</clus>
<clus scale="  101.693">  1  7  2 -1</clus>
<clus scale="   30.917">  2  5  1 -1</clus>
</clustering>
</event>
<event>
 9    1  0.1881049E-005  0.1032511E+03  0.7546771E-02  0.1273819E+00
         21   -1    0    0  501  502  0.00000000000E+00  0.00000000000E+00  0.31038311357E+03  0.31038311357E+03  0.00000000000E+00 0.  1.
          2   -1    0    0  502    0 -0.00000000000E+00 -0.00000000000E+00 -0.49624467556E+03  0.49624467556E+03  0.00000000000E+00 0.  1.
         23    2    1    2    0    0  0.37430226039E+02 -0.37171040275E+02 -0.43246337982E+03  0.44502943906E+03  0.90796027902E+02 0.  0.
         23    2    1    2    0    0 -0.30364336194E+02 -0.55667303011E+01 -0.14046890449E+02  0.97374594587E+02  0.91277133725E+02 0.  0.
        -11    1    3    3    0    0  0.46531177805E+02 -0.61876282398E+02 -0.29015582328E+03  0.30030688740E+03  0.00000000000E+00 0.  1.
         11    1    3    3    0    0 -0.91009517656E+01  0.24705242123E+02 -0.14230755654E+03  0.14472255166E+03  0.00000000000E+00 0. -1.
        -11    1    4    4    0    0 -0.12428176532E+02 -0.31378892967E+02 -0.42983886966E+02  0.54650791710E+02  0.00000000000E+00 0.  1.
         11    1    4    4    0    0 -0.17936159662E+02  0.25812162666E+02  0.28936996517E+02  0.42723802878E+02  0.00000000000E+00 0. -1.
          2    1    1    2  501    0 -0.70658898456E+01  0.42737770577E+02  0.26064870828E+03  0.26422375548E+03  0.00000000000E+00 0.  1.
<scales pt_clust_5="13000.00000" pt_clust_6="13000.00000" pt_clust_7="13000.00000" pt_clust_8="13000.00000" pt_clust_9="43.31794"></scales>
<clustering>
<clus scale="   43.318">  1  9  2 -1</clus>
<clus scale="   90.796">  5  6 -1 -1</clus>
<clus scale="   91.277">  7  8 -1 -1</clus>
<clus scale="  102.826">  2  5  1 -1</clus>
<clus scale="   43.318">  1  5  2 -1</clus>
</clustering>
</event>
<event>
 9    1  0.1881049E-005  0.1229639E+03  0.7546771E-02  0.1238393E+00
          2   -1    0    0  502    0 -0.00000000000E+00  0.00000000000E+00  0.46759143119E+03  0.46759143119E+03  0.00000000000E+00 0. -1.
         21   -1    0    0  501  502  0.00000000000E+00 -0.00000000000E+00 -0.18794289015E+03  0.18794289015E+03  0.00000000000E+00 0. -1.
         23    2    1    2    0    0  0.69863025857E+02 -0.63248477462E+02  0.40067102201E+03  0.42172221023E+03  0.91821252636E+02 0.  0.
         23    2    1    2    0    0 -0.22248728695E+02  0.12806679199E+02 -0.78293740537E+00  0.94999128505E+02  0.91461491705E+02 0.  0.
        -11    1    4    4    0    0 -0.54071841271E+02  0.28424888840E+01  0.17582471804E+02  0.56929667804E+02  0.00000000000E+00 0.  1.
         11    1    4    4    0    0  0.31823112576E+02  0.99641903150E+01 -0.18365409209E+02  0.38069460701E+02  0.00000000000E+00 0. -1.
        -11    1    3    3    0    0 -0.10472614347E+02 -0.34701608811E+02  0.20651558888E+03  0.20967252027E+03  0.00000000000E+00 0. -1.
         11    1    3    3    0    0  0.80335640204E+02 -0.28546868651E+02  0.19415543313E+03  0.21204968995E+03  0.00000000000E+00 0.  1.
          2    1    1    2  501    0 -0.47614297162E+02  0.50441798263E+02 -0.12023954356E+03  0.13881298261E+03  0.00000000000E+00 0. -1.
<scales pt_clust_5="13000.00000" pt_clust_6="13000.00000" pt_clust_7="13000.00000" pt_clust_8="13000.00000" pt_clust_9="69.36495"></scales>
<clustering>
<clus scale="   69.365">  2  9  1 -1</clus>
<clus scale="   91.461">  5  6 -1 -1</clus>
<clus scale="   91.821">  7  8 -1 -1</clus>
<clus scale="  122.696">  2  5  1 -1</clus>
<clus scale="   69.365">  2  5  1 -1</clus>
</clustering>
</event>
<event>
 9    1  0.1881049E-005  0.9317524E+02  0.7546771E-02  0.1297385E+00
         21   -1    0    0  501  502  0.00000000000E+00  0.00000000000E+00  0.83295049056E+02  0.83295049056E+02  0.00000000000E+00 0.  1.
          2   -1    0    0  502    0 -0.00000000000E+00 -0.00000000000E+00 -0.33251630486E+03  0.33251630486E+03  0.00000000000E+00 0. -1.
         23    2    1    2    0    0  0.41903273300E+01 -0.12884874588E+02 -0.23262285161E+03  0.24899063018E+03  0.87746019787E+02 0.  0.
         23    2    1    2    0    0 -0.62391809637E+01  0.35122504653E+02 -0.62174477528E+02  0.11606751249E+03  0.91287918631E+02 0.  0.
        -11    1    3    3    0    0 -0.29309762184E+02  0.20997791281E+02 -0.60829588356E+02  0.70712150423E+02  0.00000000000E+00 0. -1.
         11    1    3    3    0    0  0.33500089514E+02 -0.33882665869E+02 -0.17179326325E+03  0.17827847975E+03  0.00000000000E+00 0.  1.
        -13    1    4    4    0    0  0.41276093483E+02  0.92354896033E+01 -0.17021611398E+02  0.45593260643E+02  0.00000000000E+00 0.  1.
         13    1    4    4    0    0 -0.47515274447E+02  0.25887015049E+02 -0.45152866131E+02  0.70474251850E+02  0.00000000000E+00 0. -1.
          2    1    1    2  501    0  0.20488536336E+01 -0.22237630065E+02  0.45576073330E+02  0.50753211251E+02  0.00000000000E+00 0. -1.
<scales pt_clust_5="13000.00000" pt_clust_6="13000.00000" pt_clust_7="13000.00000" pt_clust_8="13000.00000" pt_clust_9="22.33182"></scales>
<clustering>
<clus scale="   22.332">  1  9  2 -1</clus>
<clus scale="   87.746">  5  6 -1 -1</clus>
<clus scale="   89.708">  2  5  1 -1</clus>
<clus scale="   91.288">  7  8 -1 -1</clus>
<clus scale="   22.332">  1  5  2 -1</clus>
</clustering>
</event>
<event>
 9    1  0.1881049E-005  0.1833357E+03  0.7546771E-02  0.1164716E+00
         21   -1    0    0  501  502  0.00000000000E+00  0.00000000000E+00  0.57229490950E+02  0.57229490950E+02  0.00000000000E+00 0. -1.
          1   -1    0    0  502    0 -0.00000000000E+00 -0.00000000000E+00 -0.19825321301E+04  0.19825321301E+04  0.00000000000E+00 0. -1.
         23    2    1    2    0    0 -0.85735593614E+01 -0.12298202546E+03 -0.74892357194E+03  0.76441318733E+03  0.90790527274E+02 0.  0.
         23    2    1    2    0    0 -0.86479693763E+02  0.22373515374E+03 -0.10708689114E+04  0.11012257564E+04  0.91661249304E+02 0.  0.
        -11    1    4    4    0    0 -0.68061341662E+02  0.89753382101E+02 -0.34678582406E+03  0.36462093137E+03  0.00000000000E+00 0.  1.
         11    1    4    4    0    0 -0.18418352102E+02  0.13398177164E+03 -0.72408308737E+03  0.73660482502E+03  0.00000000000E+00 0. -1.
        -13    1    3    3    0    0 -0.22493976733E+02  0.47724549824E+01 -0.79163542947E+02  0.82435561791E+02  0.00000000000E+00 0. -1.
         13    1    3    3    0    0  0.13920417371E+02 -0.12775448044E+03 -0.66976002900E+03  0.68197762554E+03  0.00000000000E+00 0.  1.
          1    1    1    2  501    0  0.95053253125E+02 -0.10075312828E+03 -0.10551015578E+03  0.17412267733E+03  0.00000000000E+00 0. -1.
<scales pt_clust_5="13000.00000" pt_clust_6="13000.00000" pt_clust_7="13000.00000" pt_clust_8="13000.00000" pt_clust_9="138.51467"></scales>
<clustering>
<clus scale="   90.791">  7  8 -1 -1</clus>
<clus scale="   91.661">  5  6 -1 -1</clus>
<clus scale="  138.515">  1  9  2 -1</clus>
<clus scale="  182.902">  2  7  1 -1</clus>
<clus scale="  138.515">  1  5  2 -1</clus>
</clustering>
</event>
<event>
 9    1  0.1881049E-005  0.9735124E+02  0.7546771E-02  0.1286076E+00
          1   -1    0    0  502    0 -0.00000000000E+00  0.00000000000E+00  0.12804001193E+03  0.12804001193E+03  0.00000000000E+00 0. -1.
         21   -1    0    0  501  502  0.00000000000E+00 -0.00000000000E+00 -0.11944132112E+03  0.11944132112E+03  0.00000000000E+00 0.  1.
         23    2    1    2    0    0 -0.20268542309E+02 -0.36591811334E+02  0.60367029798E+02  0.11379735824E+03  0.86924599465E+02 0.  0.
         23    2    1    2    0    0  0.40932580468E+02  0.30127122391E+02 -0.36915260049E+02  0.10742738267E+03  0.87148072133E+02 0.  0.
        -13    1    4    4    0    0  0.10804900377E+02 -0.27654440442E+02  0.47696133350E+01  0.30070968718E+02  0.00000000000E+00 0. -1.
         13    1    4    4    0    0  0.30127680092E+02  0.57781562833E+02 -0.41684873384E+02  0.77356413956E+02  0.00000000000E+00 0.  1.
        -13    1    3    3    0    0 -0.26232371199E+02  0.23447677912E+01 -0.13863453731E+02  0.29762906176E+02  0.00000000000E+00 0.  1.
         13    1    3    3    0    0  0.59638288895E+01 -0.38936579126E+02  0.74230483529E+02  0.84034452066E+02  0.00000000000E+00 0. -1.
          1    1    1    2  501    0 -0.20664038159E+02  0.64646889437E+01 -0.14853078937E+02  0.26256592126E+02  0.00000000000E+00 0. -1.
<scales pt_clust_5="13000.00000" pt_clust_6="13000.00000" pt_clust_7="13000.00000" pt_clust_8="13000.00000" pt_clust_9="21.65167"></scales>
<clustering>
<clus scale="   21.652">  2  9  1 -1</clus>
<clus scale="   86.925">  7  8 -1 -1</clus>
<clus scale="   87.148">  5  6 -1 -1</clus>
<clus scale="   97.151">  1  7  2 -1</clus>
<clus scale="   21.652">  2  5  1 -1</clus>
</clustering>
</event>
<event>
 9    1  0.1881049E-005  0.9803964E+02  0.7546771E-02  0.1286394E+00
         -1   -1    0    0    0  501 -0.00000000000E+00  0.00000000000E+00  0.19894342954E+03  0.19894342954E+03  0.00000000000E+00 0.  1.
         21   -1    0    0  501  502  0.00000000000E+00 -0.00000000000E+00 -0.12652058475E+03  0.12652058475E+03  0.00000000000E+00 0.  1.
         23    2    1    2    0    0  0.29126063726E+02  0.81947661165E+01  0.95019445407E+02  0.13409354323E+03  0.89648767697E+02 0.  0.
         23    2    1    2    0    0 -0.31449610714E+02  0.12858887040E+02  0.53202903611E+02  0.11266710377E+03  0.93321478392E+02 0.  0.
        -11    1    4    4    0    0  0.33464855354E+02  0.24312583061E+01  0.17066827556E+02  0.37644178350E+02  0.00000000000E+00 0.  1.
         11    1    4    4    0    0 -0.64914466068E+02  0.10427628734E+02  0.36136076055E+02  0.75022925420E+02  0.00000000000E+00 0. -1.
        -11    1    3    3    0    0  0.47574669597E+02 -0.78489186248E+01  0.98238293285E+02  0.10943361905E+03  0.00000000000E+00 0.  1.
         11    1    3    3    0    0 -0.18448605872E+02  0.16043684741E+02 -0.32188478785E+01  0.24659924176E+02  0.00000000000E+00 0. -1.
         -1    1    1    2    0  502  0.23235469880E+01 -0.21053653157E+02 -0.75799504232E+02  0.78703367295E+02  0.00000000000E+00 0.  1.
<scales pt_clust_5="13000.00000" pt_clust_6="13000.00000" pt_clust_7="13000.00000" pt_clust_8="13000.00000" pt_clust_9="21.18148"></scales>
<clustering>
<clus scale="   21.181">  2  9  1 -1</clus>
<clus scale="   89.649">  7  8 -1 -1</clus>
<clus scale="   93.321">  5  6 -1 -1</clus>
<clus scale="   94.550">  1  7  2 -1</clus>
<clus scale="   21.181">  2  5  1 -1</clus>
</clustering>
</event>
<event>
 9    1  0.1881049E-005  0.9862400E+02  0.7546771E-02  0.1283687E+00
         21   -1    0    0  501  502  0.00000000000E+00  0.00000000000E+00  0.65624645291E+03  0.65624645291E+03  0.00000000000E+00 0.  1.
         -1   -1    0    0    0  501 -0.00000000000E+00 -0.00000000000E+00 -0.15636411692E+03  0.15636411692E+03  0.00000000000E+00 0.  1.
         23    2    1    2    0    0  0.31850513626E+02  0.52339745738E+00 -0.12357332363E+03  0.15749603979E+03  0.92303342692E+02 0.  0.
         23    2    1    2    0    0 -0.79322513409E+02 -0.18388272701E+02  0.25129315354E+03  0.27951144771E+03  0.91368543136E+02 0.  0.
        -11    1    4    4    0    0 -0.79515615562E+02 -0.47812959863E+02  0.19703182684E+03  0.21778510747E+03  0.00000000000E+00 0.  1.
         11    1    4    4    0    0  0.19310215211E+00  0.29424687162E+02  0.54261326703E+02  0.61726340234E+02  0.00000000000E+00 0. -1.
        -13    1    3    3    0    0 -0.17100801801E+02 -0.33777555782E+02 -0.49170974437E+02  0.62057597633E+02  0.00000000000E+00 0. -1.
         13    1    3    3    0    0  0.48951315426E+02  0.34300953240E+02 -0.74402349197E+02  0.95438442156E+02  0.00000000000E+00 0.  1.
         -1    1    1    2    0  502  0.47471999784E+02  0.17864875243E+02  0.37216250607E+03  0.37560308233E+03  0.00000000000E+00 0.  1.
<scales pt_clust_5="13000.00000" pt_clust_6="13000.00000" pt_clust_7="13000.00000" pt_clust_8="13000.00000" pt_clust_9="50.72223"></scales>
<clustering>
<clus scale="   50.722">  1  9  2 -1</clus>
<clus scale="   91.369">  5  6 -1 -1</clus>
<clus scale="   92.303">  7  8 -1 -1</clus>
<clus scale="   97.750">  1  5  2 -1</clus>
<clus scale="   50.722">  1  5  2 -1</clus>
</clustering>
</event>
<event>
 9    1  0.1881049E-005  0.2103332E+03  0.7546771E-02  0.1172846E+00
         21   -1    0    0  501  502  0.00000000000E+00  0.00000000000E+00  0.51697386656E+02  0.51697386656E+02  0.00000000000E+00 0. -1.
          1   -1    0    0  502    0 -0.00000000000E+00 -0.00000000000E+00 -0.17490067952E+04  0.17490067952E+04  0.00000000000E+00 0. -1.
         23    2    1    2    0    0 -0.40271945747E+02  0.15771665335E+02 -0.20924820027E+03  0.23214442346E+03  0.90750476496E+02 0.  0.
         23    2    1    2    0    0  0.56299721484E+02  0.17892844934E+03 -0.30845802477E+03  0.37288894468E+03  0.93352897096E+02 0.  0.
        -13    1    3    3    0    0  0.19506455305E+02 -0.19946743078E+02 -0.88058198572E+02  0.92372185714E+02  0.00000000000E+00 0.  1.
         13    1    3    3    0    0 -0.59778401053E+02  0.35718408413E+02 -0.12119000170E+03  0.13977223774E+03  0.00000000000E+00 0. -1.
        -13    1    4    4    0    0  0.32819127274E+02  0.18186246677E+03 -0.26027168904E+03  0.31920589601E+03  0.00000000000E+00 0. -1.
         13    1    4    4    0    0  0.23480594210E+02 -0.29340174299E+01 -0.48186335738E+02  0.53683048671E+02  0.00000000000E+00 0.  1.
          1    1    1    2  501    0 -0.16027775737E+02 -0.19470011468E+03 -0.11796031835E+04  0.11956708137E+04  0.00000000000E+00 0. -1.
<scales pt_clust_5="13000.00000" pt_clust_6="13000.00000" pt_clust_7="13000.00000" pt_clust_8="13000.00000" pt_clust_9="188.48163"></scales>
<clustering>
<clus scale="   90.750">  5  6 -1 -1</clus>
<clus scale="   93.353">  7  8 -1 -1</clus>
<clus scale="  100.530">  2  5  1 -1</clus>
<clus scale="  188.482">  1  9  2 -1</clus>
<clus scale="  188.482">  1  5  2 -1</clus>
</clustering>
</event>
<event>
 9    1  0.1881049E-005  0.1402258E+03  0.7546771E-02  0.1214211E+00
          2   -1    0    0  502    0 -0.00000000000E+00  0.00000000000E+00  0.30076042312E+03  0.30076042312E+03  0.00000000000E+00 0. -1.
         21   -1    0    0  501  502  0.00000000000E+00 -0.00000000000E+00 -0.12902316947E+03  0.12902316947E+03  0.00000000000E+00 0. -1.
         23    2    1    2    0    0 -0.56652498153E+02  0.84370425931E+02  0.20123162786E+03  0.24158505083E+03  0.86840626519E+02 0.  0.
         23    2    1    2    0    0  0.85164197618E+02 -0.89584581184E+02 -0.12804574433E+02  0.15475225890E+03  0.92227798226E+02 0.  0.
        -11    1    4    4    0    0  0.57073015942E+02 -0.10596541240E+03 -0.16345250121E+01  0.12036888903E+03  0.00000000000E+00 0. -1.
         11    1    4    4    0    0  0.28091181676E+02  0.16380831219E+02 -0.11170049421E+02  0.34383369867E+02  0.00000000000E+00 0.  1.
        -13    1    3    3    0    0 -0.22515209217E+02  0.90755182826E+02  0.17369071224E+03  0.19726099811E+03  0.00000000000E+00 0.  1.
         13    1    3    3    0    0 -0.34137288936E+02 -0.63847568946E+01  0.27540915618E+02  0.44324052721E+02  0.00000000000E+00 0. -1.
          2    1    1    2  501    0 -0.28511699465E+02  0.52141552525E+01 -0.16689799765E+02  0.33446282866E+02  0.00000000000E+00 0. -1.
<scales pt_clust_5="13000.00000" pt_clust_6="13000.00000" pt_clust_7="13000.00000" pt_clust_8="13000.00000" pt_clust_9="28.98455"></scales>
<clustering>
<clus scale="   28.985">  2  9  1 -1</clus>
<clus scale="   86.841">  7  8 -1 -1</clus>
<clus scale="   92.228">  5  6 -1 -1</clus>
<clus scale="  136.743">  1  7  2 -1</clus>
<clus scale="   28.985">  2  5  1 -1</clus>
</clustering>
</event>
<event>
 9    1  0.1881049E-005  0.9995916E+02  0.7546771E-02  0.1282062E+00
         21   -1    0    0  501  502  0.00000000000E+00  0.00000000000E+00  0.30904851183E+02  0.30904851183E+02  0.00000000000E+00 0. -1.
          2   -1    0    0  502    0 -0.00000000000E+00 -0.00000000000E+00 -0.62401411078E+03  0.62401411078E+03  0.00000000000E+00 0. -1.
         23    2    1    2    0    0 -0.13175898597E+02  0.29434468359E+02 -0.31545939171E+03  0.32966404461E+03  0.90131915851E+02 0.  0.
         23    2    1    2    0    0 -0.14170261769E+02 -0.43198208718E+02 -0.27561724055E+03  0.29457292574E+03  0.93495795278E+02 0.  0.
        -11    1    4    4    0    0 -0.36850492198E+02  0.16169961955E+02 -0.98797751902E+02  0.10667906180E+03  0.00000000000E+00 0. -1.
         11    1    4    4    0    0  0.22680230429E+02 -0.59368170673E+02 -0.17681948865E+03  0.18789386394E+03  0.00000000000E+00 0.  1.
        -11    1    3    3    0    0 -0.44547976076E+02 -0.26760162708E+01 -0.21571206440E+03  0.22028022599E+03  0.00000000000E+00 0. -1.
         11    1    3    3    0    0  0.31372077479E+02  0.32110484630E+02 -0.99747327311E+02  0.10938381861E+03  0.00000000000E+00 0.  1.
          2    1    1    2  501    0  0.27346160367E+02  0.13763740359E+02 -0.20326273282E+01  0.30681991612E+02  0.00000000000E+00 0. -1.
<scales pt_clust_5="13000.00000" pt_clust_6="13000.00000" pt_clust_7="13000.00000" pt_clust_8="13000.00000" pt_clust_9="30.61459"></scales>
<clustering>
<clus scale="   30.615">  1  9  2 -1</clus>
<clus scale="   90.132">  7  8 -1 -1</clus>
<clus scale="   93.496">  5  6 -1 -1</clus>
<clus scale="   96.820">  2  7  1 -1</clus>
<clus scale="   30.615">  1  5  2 -1</clus>
</clustering>
</event>
<event>
 9    1  0.1881049E-005  0.1276243E+03  0.7546771E-02  0.1231112E+00
          1   -1    0    0  502    0 -0.00000000000E+00  0.00000000000E+00  0.44069685965E+03  0.44069685965E+03  0.00000000000E+00 0. -1.
         21   -1    0    0  501  502  0.00000000000E+00 -0.00000000000E+00 -0.99340941950E+02  0.99340941950E+02  0.00000000000E+00 0.  1.
         23    2    1    2    0    0  0.32313939759E+02 -0.85015762829E+02  0.33058531109E+03  0.35523495103E+03  0.92915832280E+02 0.  0.
         23    2    1    2    0    0  0.14648325254E+02  0.82818619695E+02  0.37665904222E+02  0.13063977452E+03  0.92598775070E+02 0.  0.
        -11    1    3    3    0    0  0.62692695988E+02 -0.66804678252E+02  0.20096072727E+03  0.22085844578E+03  0.00000000000E+00 0. -1.
         11    1    3    3    0    0 -0.30378756229E+02 -0.18211084577E+02  0.12962458382E+03  0.13437650525E+03  0.00000000000E+00 0.  1.
        -11    1    4    4    0    0  0.37233978968E+02  0.13805329699E+02  0.42119981314E+02  0.57888247026E+02  0.00000000000E+00 0. -1.
         11    1    4    4    0    0 -0.22585653714E+02  0.69013289995E+02 -0.44540770921E+01  0.72751527492E+02  0.00000000000E+00 0.  1.
          1    1    1    2  501    0 -0.46962265012E+02  0.21971431340E+01 -0.26895297621E+02  0.54163076049E+02  0.00000000000E+00 0. -1.
<scales pt_clust_5="13000.00000" pt_clust_6="13000.00000" pt_clust_7="13000.00000" pt_clust_8="13000.00000" pt_clust_9="47.01363"></scales>
<clustering>
<clus scale="   47.014">  2  9  1 -1</clus>
<clus scale="   92.599">  7  8 -1 -1</clus>
<clus scale="   92.916">  5  6 -1 -1</clus>
<clus scale="  127.394">  2  7  1 -1</clus>
<clus scale="   47.014">  2  5  1 -1</clus>
</clustering>
</event>
<event>
 9    1  0.1881049E-005  0.1273177E+03  0.7546771E-02  0.1231632E+00
         21   -1    0    0  501  502  0.00000000000E+00  0.00000000000E+00  0.28792113433E+02  0.28792113433E+02  0.00000000000E+00 0. -1.
         -1   -1    0    0    0  501 -0.00000000000E+00 -0.00000000000E+00 -0.76349862724E+03  0.76349862724E+03  0.00000000000E+00 0.  1.
         23    2    1    2    0    0 -0.12236199224E+02 -0.79862627392E+02 -0.36245778212E+03  0.38206531225E+03  0.89835934786E+02 0.  0.
         23    2    1    2    0    0  0.11355515275E+02  0.10641956683E+03 -0.26149138926E+03  0.29632531631E+03  0.89313350067E+02 0.  0.
        -11    1    3    3    0    0  0.35226327575E+02 -0.52025343815E+02 -0.15063986824E+03  0.16321734117E+03  0.00000000000E+00 0.  1.
         11    1    3    3    0    0 -0.47462526799E+02 -0.27837283577E+02 -0.21181791387E+03  0.21884797108E+03  0.00000000000E+00 0. -1.
        -13    1    4    4    0    0  0.31426044534E+02  0.69422019045E+01 -0.10489679490E+03  0.10972296033E+03  0.00000000000E+00 0.  1.
         13    1    4    4    0    0 -0.20070529259E+02  0.99477364929E+02 -0.15659459435E+03  0.18660235598E+03  0.00000000000E+00 0. -1.
         -1    1    1    2    0  502  0.88068394876E+00 -0.26556939442E+02 -0.11075734243E+03  0.11390011211E+03  0.00000000000E+00 0.  1.
<scales pt_clust_5="13000.00000" pt_clust_6="13000.00000" pt_clust_7="13000.00000" pt_clust_8="13000.00000" pt_clust_9="26.57155"></scales>
<clustering>
<clus scale="   26.572">  1  9  2 -1</clus>
<clus scale="   89.313">  7  8 -1 -1</clus>
<clus scale="   89.836">  5  6 -1 -1</clus>
<clus scale="  126.950">  1  7  2 -1</clus>
<clus scale="   26.572">  1  5  2 -1</clus>
</clustering>
</event>
<event>
 9    1  0.1881049E-005  0.1032360E+03  0.7546771E-02  0.1277225E+00
          1   -1    0    0  502    0 -0.00000000000E+00  0.00000000000E+00  0.12685839746E+03  0.12685839746E+03  0.00000000000E+00 0. -1.
         21   -1    0    0  501  502  0.00000000000E+00 -0.00000000000E+00 -0.33289596321E+03  0.33289596321E+03  0.00000000000E+00 0. -1.
         23    2    1    2    0    0 -0.10564811158E+02 -0.32246929318E+02  0.60603826267E+02  0.12207019313E+03  0.10038340803E+03 0.  0.
         23    2    1    2    0    0 -0.30451038385E+01  0.49252453632E+01 -0.28700538544E+02  0.97793455015E+02  0.93307600075E+02 0.  0.
        -11    1    3    3    0    0  0.14176545291E+02 -0.36970807611E+02  0.80671679512E+02  0.89865092929E+02  0.00000000000E+00 0. -1.
         11    1    3    3    0    0 -0.24741356449E+02  0.47238782926E+01 -0.20067853245E+02  0.32205100200E+02  0.00000000000E+00 0.  1.
        -13    1    4    4    0    0 -0.77568641786E+01  0.33316355974E+02  0.21160136367E+02  0.40223126287E+02  0.00000000000E+00 0.  1.
         13    1    4    4    0    0  0.47117603401E+01 -0.28391110610E+02 -0.49860674911E+02  0.57570328728E+02  0.00000000000E+00 0. -1.
          1    1    1    2  501    0  0.13609914997E+02  0.27321683955E+02 -0.23794085348E+03  0.23989071253E+03  0.00000000000E+00 0. -1.
<scales pt_clust_5="13000.00000" pt_clust_6="13000.00000" pt_clust_7="13000.00000" pt_clust_8="13000.00000" pt_clust_9="30.52383"></scales>
<clustering>
<clus scale="   30.524">  2  9  1 -1</clus>
<clus scale="   93.308">  7  8 -1 -1</clus>
<clus scale="   96.370">  2  7  1 -1</clus>
<clus scale="  100.383">  5  6 -1 -1</clus>
<clus scale="   30.524">  2  5  1 -1</clus>
</clustering>
</event>
<event>
 9    1  0.1881049E-005  0.1174741E+03  0.7546771E-02  0.1248077E+00
         21   -1    0    0  501  502  0.00000000000E+00  0.00000000000E+00  0.60219494131E+03  0.60219494131E+03  0.00000000000E+00 0.  1.
         -3   -1    0    0    0  501 -0.00000000000E+00 -0.00000000000E+00 -0.83990458684E+02  0.83990458684E+02  0.00000000000E+00 0.  1.
         23    2    1    2    0    0 -0.23264155006E+02  0.38096184333E+02  0.56398521161E+02  0.11622088092E+03  0.91290524174E+02 0.  0.
         23    2    1    2    0    0  0.12233640604E+02 -0.10207972166E+03  0.42027012058E+02  0.14519407323E+03  0.93515333620E+02 0.  0.
        -11    1    4    4    0    0 -0.38797708854E+02 -0.24625927893E+02  0.18221413685E+02  0.49433980758E+02  0.00000000000E+00 0.  1.
         11    1    4    4    0    0  0.51031349458E+02 -0.77453793766E+02  0.23805598374E+02  0.95760092471E+02  0.00000000000E+00 0. -1.
        -11    1    3    3    0    0 -0.41637079457E+02  0.32414845614E+01 -0.62341905785E+01  0.42225806565E+02  0.00000000000E+00 0.  1.
         11    1    3    3    0    0  0.18372924451E+02  0.34854699772E+02  0.62632711739E+02  0.73995074356E+02  0.00000000000E+00 0. -1.
         -3    1    1    2    0  502  0.11030514402E+02  0.63983537326E+02  0.41977894940E+03  0.42477044584E+03  0.00000000000E+00 0.  1.
<scales pt_clust_5="13000.00000" pt_clust_6="13000.00000" pt_clust_7="13000.00000" pt_clust_8="13000.00000" pt_clust_9="64.92738"></scales>
<clustering>
<clus scale="   64.927">  1  9  2 -1</clus>
<clus scale="   91.291">  7  8 -1 -1</clus>
<clus scale="   93.515">  5  6 -1 -1</clus>
<clus scale="  115.711">  2  7  1 -1</clus>
<clus scale="   64.927">  1  5  2 -1</clus>
</clustering>
</event>
<event>
 9    1  0.1881049E-005  0.1202259E+03  0.7546771E-02  0.1243525E+00
         21   -1    0    0  501  502  0.00000000000E+00  0.00000000000E+00  0.23141705479E+03  0.23141705479E+03  0.00000000000E+00 0.  1.
         -2   -1    0    0    0  501 -0.00000000000E+00 -0.00000000000E+00 -0.86429960508E+02  0.86429960508E+02  0.00000000000E+00 0.  1.
         23    2    1    2    0    0  0.63987343299E+02  0.56566821029E+02  0.27835489573E+02  0.12756060334E+03  0.90568800929E+02 0.  0.
         23    2    1    2    0    0 -0.63729569965E+02 -0.34542759941E+02  0.59558795294E+02  0.12862558638E+03  0.87992221377E+02 0.  0.
        -11    1    4    4    0    0  0.22110598476E+02 -0.96823753426E+01  0.17751802507E+02  0.29962534096E+02  0.00000000000E+00 0. -1.
         11    1    4    4    0    0 -0.85840168441E+02 -0.24860384598E+02  0.41806992787E+02  0.98663052285E+02  0.00000000000E+00 0.  1.
        -13    1    3    3    0    0  0.62623688728E+02  0.77910184899E+02  0.33523424849E+02  0.10543027703E+03  0.00000000000E+00 0.  1.
         13    1    3    3    0    0  0.13636545715E+01 -0.21343363870E+02 -0.56879352762E+01  0.22130326314E+02  0.00000000000E+00 0. -1.
         -2    1    1    2    0  502 -0.25777333422E+00 -0.22024061089E+02  0.57592809419E+02  0.61660825576E+02  0.00000000000E+00 0.  1.
<scales pt_clust_5="13000.00000" pt_clust_6="13000.00000" pt_clust_7="13000.00000" pt_clust_8="13000.00000" pt_clust_9="22.02557"></scales>
<clustering>
<clus scale="   22.026">  1  9  2 -1</clus>
<clus scale="   87.992">  5  6 -1 -1</clus>
<clus scale="   90.569">  7  8 -1 -1</clus>
<clus scale="  118.297">  1  5  2 -1</clus>
<clus scale="   22.026">  1  5  2 -1</clus>
</clustering>
</event>
<event>
 9    1  0.1881049E-005  0.9361070E+02  0.7546771E-02  0.1295028E+00
         21   -1    0    0  501  502  0.00000000000E+00  0.00000000000E+00  0.11790932954E+03  0.11790932954E+03  0.00000000000E+00 0.  1.
         -3   -1    0    0    0  501 -0.00000000000E+00 -0.00000000000E+00 -0.27846374539E+03  0.27846374539E+03  0.00000000000E+00 0.  1.
         23    2    1    2    0    0 -0.13319352493E+02  0.24746239441E+02 -0.19539282321E+03  0.21743633858E+03  0.91161529489E+02 0.  0.
         23    2    1    2    0    0  0.16148991177E+02  0.85911362071E+01 -0.37575206121E+02  0.99167576357E+02  0.89931721591E+02 0.  0.
        -11    1    4    4    0    0  0.39256301007E+02 -0.25322021492E+02 -0.34387900404E+02  0.58006806802E+02  0.00000000000E+00 0. -1.
         11    1    4    4    0    0 -0.23107309829E+02  0.33913157699E+02 -0.31873057165E+01  0.41160769555E+02  0.00000000000E+00 0.  1.
        -13    1    3    3    0    0 -0.19581782856E+02 -0.25464833477E+02 -0.28169058603E+02  0.42724698085E+02  0.00000000000E+00 0. -1.
         13    1    3    3    0    0  0.62624303638E+01  0.50211072918E+02 -0.16722376460E+03  0.17471164050E+03  0.00000000000E+00 0.  1.
         -3    1    1    2    0  502 -0.28296386848E+01 -0.33337375648E+02  0.72413613476E+02  0.79769159998E+02  0.00000000000E+00 0.  1.
<scales pt_clust_5="13000.00000" pt_clust_6="13000.00000" pt_clust_7="13000.00000" pt_clust_8="13000.00000" pt_clust_9="33.45725"></scales>
<clustering>
<clus scale="   33.457">  1  9  2 -1</clus>
<clus scale="   89.932">  5  6 -1 -1</clus>
<clus scale="   91.162">  7  8 -1 -1</clus>
<clus scale="   92.413">  1  5  2 -1</clus>
<clus scale="   33.457">  1  5  2 -1</clus>
</clustering>
</event>
<event>
 9    1  0.1881049E-005  0.1040687E+03  0.7546771E-02  0.1272037E+00
         -3   -1    0    0    0  501 -0.00000000000E+00  0.00000000000E+00  0.25450452131E+02  0.25450452131E+02  0.00000000000E+00 0.  1.
         21   -1    0    0  501  502  0.00000000000E+00 -0.00000000000E+00 -0.57758716811E+03  0.57758716811E+03  0.00000000000E+00 0.  1.
         23    2    1    2    0    0 -0.70690294109E+01 -0.53292570365E+02 -0.17076287331E+03  0.19987486890E+03  0.88881578996E+02 0.  0.
         23    2    1    2    0    0 -0.16535029806E+02  0.54663428326E+02 -0.28712300544E+03  0.30599150465E+03  0.89048767889E+02 0.  0.
        -11    1    4    4    0    0 -0.27930502935E+02  0.75368969608E+02 -0.24283637349E+03  0.25579307822E+03  0.00000000000E+00 0.  1.
         11    1    4    4    0    0  0.11395473129E+02 -0.20705541281E+02 -0.44286631944E+02  0.50198426435E+02  0.00000000000E+00 0. -1.
        -13    1    3    3    0    0  0.13363211463E+02  0.21469670842E+02 -0.30471412777E+02  0.39598348239E+02  0.00000000000E+00 0. -1.
         13    1    3    3    0    0 -0.20432240874E+02 -0.74762241207E+02 -0.14029146053E+03  0.16027652066E+03  0.00000000000E+00 0.  1.
         -3    1    1    2    0  502  0.23604059217E+02 -0.13708579610E+01 -0.94250837234E+02  0.97171246685E+02  0.00000000000E+00 0.  1.
<scales pt_clust_5="13000.00000" pt_clust_6="13000.00000" pt_clust_7="13000.00000" pt_clust_8="13000.00000" pt_clust_9="23.64383"></scales>
<clustering>
<clus scale="   23.644">  2  9  1 -1</clus>
<clus scale="   88.882">  7  8 -1 -1</clus>
<clus scale="   89.049">  5  6 -1 -1</clus>
<clus scale="  103.926">  1  7  2 -1</clus>
<clus scale="   23.644">  2  5  1 -1</clus>
</clustering>
</event>
<event>
 9    1  0.1881049E-005  0.2100076E+03  0.7546771E-02  0.1153698E+00
         -1   -1    0    0    0  501 -0.00000000000E+00  0.00000000000E+00  0.21032247713E+03  0.21032247713E+03  0.00000000000E+00 0.  1.
         21   -1    0    0  501  502  0.00000000000E+00 -0.00000000000E+00 -0.57796860946E+03  0.57796860946E+03  0.00000000000E+00 0.  1.
         23    2    1    2    0    0 -0.11069496944E+03 -0.66974337989E+02  0.41405095512E+02  0.16268347025E+03  0.89513079203E+02 0.  0.
         23    2    1    2    0    0 -0.15020854822E+03 -0.31556623803E+02 -0.23831945641E+03  0.29860863510E+03  0.93875050919E+02 0.  0.
        -11    1    4    4    0    0 -0.10798549564E+03 -0.47895662181E+02 -0.10585015862E+03  0.15861625958E+03  0.00000000000E+00 0.  1.
         11    1    4    4    0    0 -0.42223052586E+02  0.16339038378E+02 -0.13246929780E+03  0.13999237552E+03  0.00000000000E+00 0. -1.
        -11    1    3    3    0    0 -0.62267445340E+02 -0.73086955020E+02 -0.38891006361E+01  0.96094031277E+02  0.00000000000E+00 0. -1.
         11    1    3    3    0    0 -0.48427524104E+02  0.61126170316E+01  0.45294196148E+02  0.66589438971E+02  0.00000000000E+00 0.  1.
         -1    1    1    2    0  502  0.26090351767E+03  0.98530961792E+02 -0.17073177143E+03  0.32699898125E+03  0.00000000000E+00 0.  1.
<scales pt_clust_5="13000.00000" pt_clust_6="13000.00000" pt_clust_7="13000.00000" pt_clust_8="13000.00000" pt_clust_9="187.85819"></scales>
<clustering>
<clus scale="   89.513">  7  8 -1 -1</clus>
<clus scale="   93.875">  5  6 -1 -1</clus>
<clus scale="  157.326">  1  7  2 -1</clus>
<clus scale="  187.858">  2  9  1 -1</clus>
<clus scale="  187.858">  2  5  1 -1</clus>
</clustering>
</event>
<event>
 9    1  0.1881049E-005  0.1071571E+03  0.7546771E-02  0.1265936E+00
          2   -1    0    0  502    0 -0.00000000000E+00  0.00000000000E+00  0.52906468337E+03  0.52906468337E+03  0.00000000000E+00 0. -1.
         21   -1    0    0  501  502  0.00000000000E+00 -0.00000000000E+00 -0.49379370876E+02  0.49379370876E+02  0.00000000000E+00 0.  1.
         23    2    1    2    0    0 -0.47040269983E+02  0.10921244519E+02  0.33912663601E+03  0.35455961659E+03  0.91507299621E+02 0.  0.
         23    2    1    2    0    0  0.89785226920E+02 -0.21046414548E+01  0.87656044809E+02  0.15530198894E+03  0.91483928039E+02 0.  0.
        -13    1    4    4    0    0  0.65611108363E+02  0.41352346691E+02  0.62318190448E+02  0.99490657743E+02  0.00000000000E+00 0.  1.
         13    1    4    4    0    0  0.24174118557E+02 -0.43456988146E+02  0.25337854361E+02  0.55811331200E+02  0.00000000000E+00 0. -1.
        -13    1    3    3    0    0 -0.72226344249E+02  0.22230197392E+02  0.25968624955E+03  0.27045845279E+03  0.00000000000E+00 0. -1.
         13    1    3    3    0    0  0.25186074266E+02 -0.11308952873E+02  0.79440386453E+02  0.84101163796E+02  0.00000000000E+00 0.  1.
          2    1    1    2  501    0 -0.42744956937E+02 -0.88166030638E+01  0.52902631672E+02  0.68582448709E+02  0.00000000000E+00 0. -1.
<scales pt_clust_5="13000.00000" pt_clust_6="13000.00000" pt_clust_7="13000.00000" pt_clust_8="13000.00000" pt_clust_9="43.64475"></scales>
<clustering>
<clus scale="   43.645">  2  9  1 -1</clus>
<clus scale="   91.484">  5  6 -1 -1</clus>
<clus scale="   91.507">  7  8 -1 -1</clus>
<clus scale="  107.137">  2  5  1 -1</clus>
<clus scale="   43.645">  2  5  1 -1</clus>
</clustering>
</event>
<event>
 9    1  0.1881049E-005  0.2141869E+03  0.7546771E-02  0.1162335E+00
         -1   -1    0    0    0  501 -0.00000000000E+00  0.00000000000E+00  0.79067820041E+03  0.79067820041E+03  0.00000000000E+00 0.  1.
         21   -1    0    0  501  502  0.00000000000E+00 -0.00000000000E+00 -0.16846471770E+03  0.16846471770E+03  0.00000000000E+00 0.  1.
         23    2    1    2    0    0 -0.60599455240E+02 -0.56560134478E+02 -0.75127917990E+01  0.12143134474E+03  0.88418248440E+02 0.  0.
         23    2    1    2    0    0 -0.14140049426E+03  0.57489706991E+02  0.60897219632E+03  0.63464612711E+03  0.92894588506E+02 0.  0.
        -11    1    4    4    0    0 -0.60203574207E+02 -0.21724289150E+02  0.18488761390E+03  0.19565235716E+03  0.00000000000E+00 0.  1.
         11    1    4    4    0    0 -0.81196920054E+02  0.79213996141E+02  0.42408458242E+03  0.43899376995E+03  0.00000000000E+00 0. -1.
        -13    1    3    3    0    0 -0.10063900484E+02  0.23705218537E+02  0.33174256241E+01  0.25965838935E+02  0.00000000000E+00 0. -1.
         13    1    3    3    0    0 -0.50535554755E+02 -0.80265353015E+02 -0.10830217423E+02  0.95465505805E+02  0.00000000000E+00 0.  1.
         -1    1    1    2    0  502  0.20199994950E+03 -0.92957251252E+00  0.20754078190E+02  0.20306544626E+03  0.00000000000E+00 0.  1.
<scales pt_clust_5="13000.00000" pt_clust_6="13000.00000" pt_clust_7="13000.00000" pt_clust_8="13000.00000" pt_clust_9="192.99382"></scales>
<clustering>
<clus scale="   88.418">  7  8 -1 -1</clus>
<clus scale="   92.895">  5  6 -1 -1</clus>
<clus scale="  121.199">  1  7  2 -1</clus>
<clus scale="  192.994">  2  9  1 -1</clus>
<clus scale="  192.994">  2  5  1 -1</clus>
</clustering>
</event>
<event>
 9    1  0.1881049E-005  0.9948567E+02  0.7546771E-02  0.1284421E+00
         21   -1    0    0  501  502  0.00000000000E+00  0.00000000000E+00  0.43365428745E+03  0.43365428745E+03  0.00000000000E+00 0.  1.
          3   -1    0    0  502    0 -0.00000000000E+00 -0.00000000000E+00 -0.47024006807E+02  0.47024006807E+02  0.00000000000E+00 0. -1.
         23    2    1    2    0    0  0.85328200540E+01 -0.10185062936E+02  0.61846134685E+02  0.11564932356E+03  0.96815686433E+02 0.  0.
         23    2    1    2    0    0 -0.49405312129E+02 -0.16882467027E+02  0.14721430805E+03  0.18081643279E+03  0.91085823890E+02 0.  0.
        -11    1    3    3    0    0  0.26707703275E+02  0.26500231572E+02 -0.42889659016E+01  0.37867649994E+02  0.00000000000E+00 0. -1.
         11    1    3    3    0    0 -0.18174883221E+02 -0.36685294508E+02  0.66135100586E+02  0.77781673566E+02  0.00000000000E+00 0.  1.
        -11    1    4    4    0    0 -0.39356356396E+02  0.26763394801E+02  0.11827700547E+03  0.12749373363E+03  0.00000000000E+00 0.  1.
         11    1    4    4    0    0 -0.10048955733E+02 -0.43645861829E+02  0.28937302579E+02  0.53322699169E+02  0.00000000000E+00 0. -1.
          3    1    1    2  501    0  0.40872492076E+02  0.27067529963E+02  0.17756983791E+03  0.18421253790E+03  0.00000000000E+00 0. -1.
<scales pt_clust_5="13000.00000" pt_clust_6="13000.00000" pt_clust_7="13000.00000" pt_clust_8="13000.00000" pt_clust_9="49.02256"></scales>
<clustering>
<clus scale="   49.023">  1  9  2 -1</clus>
<clus scale="   91.086">  7  8 -1 -1</clus>
<clus scale="   93.919">  1  7  2 -1</clus>
<clus scale="   96.816">  5  6 -1 -1</clus>
<clus scale="   49.023">  1  5  2 -1</clus>
</clustering>
</event>
<event>
 9    1  0.1881049E-005  0.9714414E+02  0.7546771E-02  0.1290203E+00
         -2   -1    0    0    0  501 -0.00000000000E+00  0.00000000000E+00  0.21683323516E+02  0.21683323516E+02  0.00000000000E+00 0.  1.
         21   -1    0    0  501  502  0.00000000000E+00 -0.00000000000E+00 -0.61802041092E+03  0.61802041092E+03  0.00000000000E+00 0. -1.
         23    2    1    2    0    0 -0.67040018874E+01 -0.19138737484E+02 -0.12979705472E+03  0.15883115927E+03  0.89268285677E+02 0.  0.
         23    2    1    2    0    0 -0.21270990936E+00 -0.16644978286E+00 -0.38608951728E+03  0.39784958686E+03  0.96016172929E+02 0.  0.
        -13    1    4    4    0    0  0.46235210909E+02  0.10686471490E+02 -0.16593991111E+03  0.17259185815E+03  0.00000000000E+00 0.  1.
         13    1    4    4    0    0 -0.46447920819E+02 -0.10852921273E+02 -0.22014960617E+03  0.22525772871E+03  0.00000000000E+00 0. -1.
        -13    1    3    3    0    0  0.36627602002E+02 -0.61455250127E+01 -0.25231680901E+02  0.44899737496E+02  0.00000000000E+00 0.  1.
         13    1    3    3    0    0 -0.43331603889E+02 -0.12993212472E+02 -0.10456537382E+03  0.11393142178E+03  0.00000000000E+00 0. -1.
         -2    1    1    2    0  502  0.69167117968E+01  0.19305187267E+02 -0.80450515399E+02  0.83022988295E+02  0.00000000000E+00 0.  1.
<scales pt_clust_5="13000.00000" pt_clust_6="13000.00000" pt_clust_7="13000.00000" pt_clust_8="13000.00000" pt_clust_9="20.50686"></scales>
<clustering>
<clus scale="   20.507">  2  9  1 -1</clus>
<clus scale="   89.268">  7  8 -1 -1</clus>
<clus scale="   90.480">  1  7  2 -1</clus>
<clus scale="   96.016">  5  6 -1 -1</clus>
<clus scale="   20.507">  2  5  1 -1</clus>
</clustering>
</event>
<event>
 9    1  0.1881049E-005  0.1265510E+03  0.7546771E-02  0.1237788E+00
          1   -1    0    0  502    0 -0.00000000000E+00  0.00000000000E+00  0.20636520426E+03  0.20636520426E+03  0.00000000000E+00 0. -1.
         21   -1    0    0  501  502  0.00000000000E+00 -0.00000000000E+00 -0.20065457234E+03  0.20065457234E+03  0.00000000000E+00 0. -1.
         23    2    1    2    0    0  0.51349302990E+02  0.61824869392E+02  0.12707201144E+03  0.17634141543E+03  0.92140834114E+02 0.  0.
         23    2    1    2    0    0 -0.42046168676E+02  0.14170540747E+02 -0.51556494061E+02  0.12707057813E+03  0.10733207918E+03 0.  0.
        -11    1    4    4    0    0 -0.22523469695E+02  0.53130584990E+02  0.23470080398E+01  0.57755295819E+02  0.00000000000E+00 0. -1.
         11    1    4    4    0    0 -0.19522698981E+02 -0.38960044242E+02 -0.53903502101E+02  0.69315282309E+02  0.00000000000E+00 0.  1.
        -13    1    3    3    0    0  0.46858852608E+02 -0.10402327852E+02  0.35897996642E+02  0.59938523967E+02  0.00000000000E+00 0.  1.
         13    1    3    3    0    0  0.44904503821E+01  0.72227197243E+02  0.91174014802E+02  0.11640289147E+03  0.00000000000E+00 0. -1.
          1    1    1    2  501    0 -0.93031343142E+01 -0.75995410139E+02 -0.69804885471E+02  0.10360778304E+03  0.00000000000E+00 0. -1.
<scales pt_clust_5="13000.00000" pt_clust_6="13000.00000" pt_clust_7="13000.00000" pt_clust_8="13000.00000" pt_clust_9="76.56272"></scales>
<clustering>
<clus scale="   76.563">  2  9  1 -1</clus>
<clus scale="   92.141">  7  8 -1 -1</clus>
<clus scale="  107.332">  5  6 -1 -1</clus>
<clus scale="  113.951">  1  7  2 -1</clus>
<clus scale="   76.563">  2  5  1 -1</clus>
</clustering>
</event>
<event>
 9    1  0.1881049E-005  0.1180402E+03  0.7546771E-02  0.1246552E+00
          2   -1    0    0  502    0 -0.00000000000E+00  0.00000000000E+00  0.58402374606E+02  0.58402374606E+02  0.00000000000E+00 0. -1.
         21   -1    0    0  501  502  0.00000000000E+00 -0.00000000000E+00 -0.71375893955E+03  0.71375893955E+03  0.00000000000E+00 0.  1.
         23    2    1    2    0    0  0.84772816865E+02  0.89421359721E+01 -0.82722826436E+02  0.14922865884E+03  0.90331247817E+02 0.  0.
         23    2    1    2    0    0 -0.48079707312E+02  0.84794033684E+02 -0.22600997984E+03  0.26198822210E+03  0.89753167795E+02 0.  0.
        -11    1    3    3    0    0  0.54721408655E+02 -0.15595953454E+02  0.10477169839E+01  0.56910140048E+02  0.00000000000E+00 0. -1.
         11    1    3    3    0    0  0.30051408209E+02  0.24538089427E+02 -0.83770543419E+02  0.92318518797E+02  0.00000000000E+00 0.  1.
        -11    1    4    4    0    0 -0.62117819003E+02  0.34318218833E+02 -0.17510280439E+03  0.18893743855E+03  0.00000000000E+00 0.  1.
         11    1    4    4    0    0  0.14038111690E+02  0.50475814851E+02 -0.50907175444E+02  0.73050783544E+02  0.00000000000E+00 0. -1.
          2    1    1    2  501    0 -0.36693109552E+02 -0.93736169656E+02 -0.34662375868E+03  0.36094443322E+03  0.00000000000E+00 0. -1.
<scales pt_clust_5="13000.00000" pt_clust_6="13000.00000" pt_clust_7="13000.00000" pt_clust_8="13000.00000" pt_clust_9="100.66208"></scales>
<clustering>
<clus scale="   89.753">  7  8 -1 -1</clus>
<clus scale="   90.331">  5  6 -1 -1</clus>
<clus scale="  100.662">  2  9  1 -1</clus>
<clus scale="  117.598">  2  7  1 -1</clus>
<clus scale="  100.662">  2  5  1 -1</clus>
</clustering>
</event>
<event>
 9    1  0.1881049E-005  0.9281810E+02  0.7546771E-02  0.1296328E+00
         21   -1    0    0  501  502  0.00000000000E+00  0.00000000000E+00  0.41128744839E+02  0.41128744839E+02  0.00000000000E+00 0.  1.
          2   -1    0    0  502    0 -0.00000000000E+00 -0.00000000000E+00 -0.34237485572E+03  0.34237485572E+03  0.00000000000E+00 0. -1.
         23    2    1    2    0    0  0.33026487195E+02 -0.31073388755E+01 -0.18698144702E+03  0.21023971800E+03  0.90212377664E+02 0.  0.
         23    2    1    2    0    0 -0.57043691580E+01 -0.10815106323E+02 -0.10951666539E+03  0.14223363758E+03  0.89927756051E+02 0.  0.
        -11    1    3    3    0    0  0.25406802348E+02 -0.37087436710E+02 -0.15997333189E+03  0.16616994458E+03  0.00000000000E+00 0.  1.
         11    1    3    3    0    0  0.76196848468E+01  0.33980097835E+02 -0.27008115129E+02  0.44069773415E+02  0.00000000000E+00 0. -1.
        -11    1    4    4    0    0 -0.35094991783E+02 -0.30634470780E+02 -0.91021849865E+02  0.10225021467E+03  0.00000000000E+00 0. -1.
         11    1    4    4    0    0  0.29390622625E+02  0.19819364457E+02 -0.18494815525E+02  0.39983422903E+02  0.00000000000E+00 0.  1.
          2    1    1    2  501    0 -0.27322118037E+02  0.13922445199E+02 -0.47479984762E+01  0.31030244986E+02  0.00000000000E+00 0. -1.
<scales pt_clust_5="13000.00000" pt_clust_6="13000.00000" pt_clust_7="13000.00000" pt_clust_8="13000.00000" pt_clust_9="30.66484"></scales>
<clustering>
<clus scale="   30.665">  1  9  2 -1</clus>
<clus scale="   89.928">  7  8 -1 -1</clus>
<clus scale="   90.212">  5  6 -1 -1</clus>
<clus scale="   92.541">  1  7  2 -1</clus>
<clus scale="   30.665">  1  5  2 -1</clus>
</clustering>
</event>
<event>
 9    1  0.1881049E-005  0.1918286E+03  0.7546771E-02  0.1156952E+00
          1   -1    0    0  502    0 -0.00000000000E+00  0.00000000000E+00  0.57786311491E+03  0.57786311491E+03  0.00000000000E+00 0. -1.
         21   -1    0    0  501  502  0.00000000000E+00 -0.00000000000E+00 -0.31268378463E+03  0.31268378463E+03  0.00000000000E+00 0. -1.
         23    2    1    2    0    0  0.11333066332E+03 -0.12068755763E+03  0.46254558302E+03  0.49966945999E+03  0.91169222100E+02 0.  0.
         23    2    1    2    0    0 -0.80449129665E+02  0.20050033252E+03 -0.19364867036E+03  0.30447665997E+03  0.92378477625E+02 0.  0.
        -13    1    3    3    0    0  0.33603724265E+02  0.58193647626E+01  0.14082327840E+03  0.14489399929E+03  0.00000000000E+00 0.  1.
         13    1    3    3    0    0  0.79726939051E+02 -0.12650692239E+03  0.32172230462E+03  0.35477546070E+03  0.00000000000E+00 0. -1.
        -13    1    4    4    0    0  0.11712733917E+02  0.19176130623E+02  0.16028151786E+01  0.22527342009E+02  0.00000000000E+00 0.  1.
         13    1    4    4    0    0 -0.92161863582E+02  0.18132420190E+03 -0.19525148554E+03  0.28194931796E+03  0.00000000000E+00 0. -1.
          1    1    1    2  501    0 -0.32881533651E+02 -0.79812774897E+02 -0.37175823809E+01  0.86400779572E+02  0.00000000000E+00 0. -1.
<scales pt_clust_5="13000.00000" pt_clust_6="13000.00000" pt_clust_7="13000.00000" pt_clust_8="13000.00000" pt_clust_9="86.32076"></scales>
<clustering>
<clus scale="   86.321">  2  9  1 -1</clus>
<clus scale="   91.169">  5  6 -1 -1</clus>
<clus scale="   92.378">  7  8 -1 -1</clus>
<clus scale="  191.249">  1  5  2 -1</clus>
<clus scale="   86.321">  2  5  1 -1</clus>
</clustering>
</event>
<event>
 9    1  0.1881049E-005  0.9429541E+02  0.7546771E-02  0.1293089E+00
         21   -1    0    0  501  502  0.00000000000E+00  0.00000000000E+00  0.66926486628E+02  0.66926486628E+02  0.00000000000E+00 0.  1.
          1   -1    0    0  502    0 -0.00000000000E+00 -0.00000000000E+00 -0.22986299179E+03  0.22986299179E+03  0.00000000000E+00 0. -1.
         23    2    1    2    0    0  0.14154991991E+02  0.31339569769E+02 -0.10708184427E+03  0.14546127467E+03  0.92249274386E+02 0.  0.
         23    2    1    2    0    0 -0.25375132168E+00  0.88043579428E+01 -0.56166120078E+02  0.10884436646E+03  0.92816388402E+02 0.  0.
        -11    1    4    4    0    0 -0.72643198264E+00 -0.40041642336E+02 -0.41887684544E+02  0.57952040006E+02  0.00000000000E+00 0.  1.
         11    1    4    4    0    0  0.47268066096E+00  0.48846000278E+02 -0.14278435534E+02  0.50892326450E+02  0.00000000000E+00 0. -1.
        -13    1    3    3    0    0 -0.33827739322E+02  0.90845972984E+01 -0.12678658651E+02  0.37250426050E+02  0.00000000000E+00 0.  1.
         13    1    3    3    0    0  0.47982731313E+02  0.22254972470E+02 -0.94403185623E+02  0.10821084862E+03  0.00000000000E+00 0. -1.
          1    1    1    2  501    0 -0.13901240670E+02 -0.40143927711E+02  0.31145918833E+00  0.42483837292E+02  0.00000000000E+00 0. -1.
<scales pt_clust_5="13000.00000" pt_clust_6="13000.00000" pt_clust_7="13000.00000" pt_clust_8="13000.00000" pt_clust_9="42.48270"></scales>
<clustering>
<clus scale="   42.483">  1  9  2 -1</clus>
<clus scale="   92.249">  7  8 -1 -1</clus>
<clus scale="   92.816">  5  6 -1 -1</clus>
<clus scale="   93.737">  2  7  1 -1</clus>
<clus scale="   42.483">  1  5  2 -1</clus>
</clustering>
</event>
<event>
 9    1  0.2026461E-005  0.1116087E+03  0.7546771E-02  0.1258781E+00
          4   -1    0    0  502    0 -0.00000000000E+00  0.00000000000E+00  0.65362380451E+03  0.65362380451E+03  0.00000000000E+00 0. -1.
         21   -1    0    0  501  502  0.00000000000E+00 -0.00000000000E+00 -0.27305727236E+03  0.27305727236E+03  0.00000000000E+00 0. -1.
         23    2    1    2    0    0 -0.10967639131E+02  0.15097686411E+02  0.20520613129E+03  0.22668588880E+03  0.94491833609E+02 0.  0.
         23    2    1    2    0    0  0.42575539709E+02 -0.90661321768E+02  0.42033829187E+03  0.44168705918E+03  0.91493315521E+02 0.  0.
        -11    1    4    4    0    0  0.71041382877E+02 -0.66418672051E+02  0.27802921256E+03  0.29454806249E+03  0.00000000000E+00 0.  1.
         11    1    4    4    0    0 -0.28465843168E+02 -0.24242649717E+02  0.14230907931E+03  0.14713899669E+03  0.00000000000E+00 0. -1.
        -13    1    3    3    0    0  0.30531854000E+02  0.12920605312E+02  0.24396677880E+02  0.41162289075E+02  0.00000000000E+00 0.  1.
         13    1    3    3    0    0 -0.41499493131E+02  0.21770810986E+01  0.18080945341E+03  0.18552359972E+03  0.00000000000E+00 0. -1.
          4    1    1    2  501    0 -0.31607900578E+02  0.75563635357E+02 -0.24497789101E+03  0.25830812889E+03  0.00000000000E+00 0. -1.
<scales pt_clust_5="13000.00000" pt_clust_6="13000.00000" pt_clust_7="13000.00000" pt_clust_8="13000.00000" pt_clust_9="81.90801"></scales>
<clustering>
<clus scale="   81.908">  2  9  1 -1</clus>
<clus scale="   91.493">  5  6 -1 -1</clus>
<clus scale="   94.492">  7  8 -1 -1</clus>
<clus scale="  109.082">  2  5  1 -1</clus>
<clus scale="   81.908">  2  5  1 -1</clus>
</clustering>
</event>
<event>
 9    1  0.1881049E-005  0.1026801E+03  0.7546771E-02  0.1275463E+00
          1   -1    0    0  502    0 -0.00000000000E+00  0.00000000000E+00  0.49370423818E+03  0.49370423818E+03  0.00000000000E+00 0. -1.
         21   -1    0    0  501  502  0.00000000000E+00 -0.00000000000E+00 -0.75137599379E+02  0.75137599379E+02  0.00000000000E+00 0. -1.
         23    2    1    2    0    0 -0.23104184995E+02 -0.29812203666E+02  0.32256253370E+03  0.33728479899E+03  0.91059742088E+02 0.  0.
         23    2    1    2    0    0  0.75538115180E+02  0.42692430588E+02  0.11948979873E+03  0.17267754227E+03  0.89504587193E+02 0.  0.
        -11    1    4    4    0    0  0.69270474406E+02  0.62273390289E+01  0.29817938278E+02  0.75672239421E+02  0.00000000000E+00 0.  1.
         11    1    4    4    0    0  0.62676407736E+01  0.36465091559E+02  0.89671860455E+02  0.97005302848E+02  0.00000000000E+00 0. -1.
        -13    1    3    3    0    0 -0.31461431248E+02 -0.59085786428E+02  0.19613227331E+03  0.20724097194E+03  0.00000000000E+00 0. -1.
         13    1    3    3    0    0  0.83572462527E+01  0.29273582762E+02  0.12643026039E+03  0.13004382705E+03  0.00000000000E+00 0.  1.
          1    1    1    2  501    0 -0.52433930185E+02 -0.12880226922E+02 -0.23485693628E+02  0.58879496307E+02  0.00000000000E+00 0. -1.
<scales pt_clust_5="13000.00000" pt_clust_6="13000.00000" pt_clust_7="13000.00000" pt_clust_8="13000.00000" pt_clust_9="53.99275"></scales>
<clustering>
<clus scale="   53.993">  2  9  1 -1</clus>
<clus scale="   89.505">  5  6 -1 -1</clus>
<clus scale="   91.060">  7  8 -1 -1</clus>
<clus scale="  101.304">  2  5  1 -1</clus>
<clus scale="   53.993">  2  5  1 -1</clus>
</clustering>
</event>
<event>
 9    1  0.1881049E-005  0.1246424E+03  0.7546771E-02  0.1237283E+00
          2   -1    0    0  502    0 -0.00000000000E+00  0.00000000000E+00  0.25017321837E+03  0.25017321837E+03  0.00000000000E+00 0. -1.
         21   -1    0    0  501  502  0.00000000000E+00 -0.00000000000E+00 -0.11338629269E+03  0.11338629269E+03  0.00000000000E+00 0. -1.
         23    2    1    2    0    0  0.88573882201E+02  0.21332879069E+02  0.14171449792E+03  0.19230660074E+03  0.92727587213E+02 0.  0.
         23    2    1    2    0    0 -0.67153236764E+02 -0.24415538160E+02  0.41486377455E+02  0.12004156818E+03  0.87081472566E+02 0.  0.
        -11    1    3    3    0    0  0.86412717453E+02  0.50542655354E+02  0.11700248393E+03  0.15398473623E+03  0.00000000000E+00 0. -1.
         11    1    3    3    0    0  0.21611647480E+01 -0.29209776285E+02  0.24712013992E+02  0.38321864507E+02  0.00000000000E+00 0.  1.
        -11    1    4    4    0    0 -0.86903762497E+02 -0.29240769862E+02  0.38685619912E+02  0.99518157872E+02  0.00000000000E+00 0.  1.
         11    1    4    4    0    0  0.19750525733E+02  0.48252317020E+01  0.28007575428E+01  0.20523410304E+02  0.00000000000E+00 0. -1.
          2    1    1    2  501    0 -0.21420645437E+02  0.30826590909E+01 -0.46413949690E+02  0.51211342140E+02  0.00000000000E+00 0. -1.
<scales pt_clust_5="13000.00000" pt_clust_6="13000.00000" pt_clust_7="13000.00000" pt_clust_8="13000.00000" pt_clust_9="21.64132"></scales>
<clustering>
<clus scale="   21.641">  2  9  1 -1</clus>
<clus scale="   87.081">  7  8 -1 -1</clus>
<clus scale="   92.728">  5  6 -1 -1</clus>
<clus scale="  120.501">  2  7  1 -1</clus>
<clus scale="   21.641">  2  5  1 -1</clus>
</clustering>
</event>
<event>
 9    1  0.1881049E-005  0.1097261E+03  0.7546771E-02  0.1262360E+00
         -1   -1    0    0    0  501 -0.00000000000E+00  0.00000000000E+00  0.14839885522E+03  0.14839885522E+03  0.00000000000E+00 0.  1.
         21   -1    0    0  501  502  0.00000000000E+00 -0.00000000000E+00 -0.97682231314E+02  0.97682231314E+02  0.00000000000E+00 0. -1.
         23    2    1    2    0    0  0.55147969072E+00  0.55300133758E+02  0.34954157258E+02  0.11405544043E+03  0.93426128346E+02 0.  0.
         23    2    1    2    0    0 -0.21617297317E+02 -0.58241723847E+02  0.16353106543E+02  0.11074724204E+03  0.90211537983E+02 0.  0.
        -11    1    3    3    0    0 -0.24257813002E+02  0.31643106300E+02  0.59690372350E+02  0.71782088429E+02  0.00000000000E+00 0.  1.
         11    1    3    3    0    0  0.24809292693E+02  0.23657027458E+02 -0.24736215092E+02  0.42273351998E+02  0.00000000000E+00 0. -1.
        -11    1    4    4    0    0 -0.34852646825E+02  0.52693161003E+01 -0.15461649908E+02  0.38490717073E+02  0.00000000000E+00 0. -1.
         11    1    4    4    0    0  0.13235349509E+02 -0.63511039948E+02  0.31814756451E+02  0.72256524964E+02  0.00000000000E+00 0.  1.
         -1    1    1    2    0  502  0.21065817626E+02  0.29415900895E+01 -0.59063989106E+00  0.21278404075E+02  0.00000000000E+00 0.  1.
<scales pt_clust_5="13000.00000" pt_clust_6="13000.00000" pt_clust_7="13000.00000" pt_clust_8="13000.00000" pt_clust_9="21.27021"></scales>
<clustering>
<clus scale="   21.270">  2  9  1 -1</clus>
<clus scale="   90.212">  7  8 -1 -1</clus>
<clus scale="   93.426">  5  6 -1 -1</clus>
<clus scale="  107.002">  2  7  1 -1</clus>
<clus scale="   21.270">  2  5  1 -1</clus>
</clustering>
</event>
<event>
 9    1  0.1881049E-005  0.1063561E+03  0.7546771E-02  0.1267624E+00
         21   -1    0    0  501  502  0.00000000000E+00  0.00000000000E+00  0.60637686864E+02  0.60637686864E+02  0.00000000000E+00 0.  1.
          1   -1    0    0  502    0 -0.00000000000E+00 -0.00000000000E+00 -0.42735162957E+03  0.42735162957E+03  0.00000000000E+00 0. -1.
         23    2    1    2    0    0  0.20411887348E+02  0.54225738770E+02 -0.32241022038E+03  0.34006582213E+03  0.91319972013E+02 0.  0.
         23    2    1    2    0    0  0.12611664932E+02 -0.40102162838E+02 -0.15853733942E+02  0.10210393252E+03  0.91687701465E+02 0.  0.
        -11    1    4    4    0    0 -0.42962530672E+01 -0.24511886673E+02  0.36927261559E+02  0.44529911575E+02  0.00000000000E+00 0.  1.
         11    1    4    4    0    0  0.16907917999E+02 -0.15590276165E+02 -0.52780995501E+02  0.57574020947E+02  0.00000000000E+00 0. -1.
        -13    1    3    3    0    0  0.17749476648E+02  0.77498728698E+02 -0.28538474709E+03  0.29625251179E+03  0.00000000000E+00 0.  1.
         13    1    3    3    0    0  0.26624107002E+01 -0.23272989927E+02 -0.37025473288E+02  0.43813310342E+02  0.00000000000E+00 0. -1.
          1    1    1    2  501    0 -0.33023552280E+02 -0.14123575932E+02 -0.28449988383E+02  0.45819561775E+02  0.00000000000E+00 0. -1.
<scales pt_clust_5="13000.00000" pt_clust_6="13000.00000" pt_clust_7="13000.00000" pt_clust_8="13000.00000" pt_clust_9="35.91699"></scales>
<clustering>
<clus scale="   35.917">  1  9  2 -1</clus>
<clus scale="   91.320">  7  8 -1 -1</clus>
<clus scale="   91.688">  5  6 -1 -1</clus>
<clus scale="  106.039">  2  7  1 -1</clus>
<clus scale="   35.917">  1  5  2 -1</clus>
</clustering>
</event>
<event>
 9    1  0.1881049E-005  0.9593163E+02  0.7546771E-02  0.1290985E+00
         21   -1    0    0  501  502  0.00000000000E+00  0.00000000000E+00  0.15968749317E+03  0.15968749317E+03  0.00000000000E+00 0.  1.
          1   -1    0    0  502    0 -0.00000000000E+00 -0.00000000000E+00 -0.16317754212E+03  0.16317754212E+03  0.00000000000E+00 0. -1.
         23    2    1    2    0    0  0.46947716406E+01 -0.24311977997E+02 -0.83450092002E+02  0.12519311845E+03  0.89979363735E+02 0.  0.
         23    2    1    2    0    0 -0.48209488911E+02 -0.12444169243E+02  0.83709850707E+01  0.10618673660E+03  0.93415937985E+02 0.  0.
        -11    1    4    4    0    0  0.20959501612E+02  0.20432255583E+02  0.21241267814E+01  0.29347737402E+02  0.00000000000E+00 0.  1.
         11    1    4    4    0    0 -0.69168990523E+02 -0.32876424827E+02  0.62468582893E+01  0.76838999199E+02  0.00000000000E+00 0. -1.
        -11    1    3    3    0    0  0.36933811822E+02  0.13702117387E+02 -0.19051901766E+02  0.43758764122E+02  0.00000000000E+00 0.  1.
         11    1    3    3    0    0 -0.32239040181E+02 -0.38014095384E+02 -0.64398190236E+02  0.81434354332E+02  0.00000000000E+00 0. -1.
          1    1    1    2  501    0  0.43514717270E+02  0.36756147240E+02  0.71589057984E+02  0.91485180232E+02  0.00000000000E+00 0. -1.
<scales pt_clust_5="13000.00000" pt_clust_6="13000.00000" pt_clust_7="13000.00000" pt_clust_8="13000.00000" pt_clust_9="56.96091"></scales>
<clustering>
<clus scale="   56.961">  1  9  2 -1</clus>
<clus scale="   89.979">  7  8 -1 -1</clus>
<clus scale="   92.588">  2  7  1 -1</clus>
<clus scale="   93.416">  5  6 -1 -1</clus>
<clus scale="   56.961">  1  5  2 -1</clus>
</clustering>
</event>
<event>
 9    1  0.1881049E-005  0.1012202E+03  0.7546771E-02  0.1290409E+00
         21   -1    0    0  501  502  0.00000000000E+00  0.00000000000E+00  0.23267208174E+02  0.23267208174E+02  0.00000000000E+00 0.  1.
          1   -1    0    0  502    0 -0.00000000000E+00 -0.00000000000E+00 -0.50647378053E+03  0.50647378053E+03  0.00000000000E+00 0. -1.
         23    2    1    2    0    0  0.63963133290E+01 -0.79408909304E+01 -0.28574596143E+03  0.30324530781E+03  0.10100985924E+03 0.  0.
         23    2    1    2    0    0  0.16183000849E+02  0.68835621431E+00 -0.17883276164E+03  0.19633906541E+03  0.79407232783E+02 0.  0.
        -11    1    4    4    0    0  0.41060834904E+02  0.35973148469E+01 -0.15938420075E+03  0.16462762917E+03  0.00000000000E+00 0. -1.
         11    1    4    4    0    0 -0.24877834055E+02 -0.29089586326E+01 -0.19448560893E+02  0.31711436240E+02  0.00000000000E+00 0.  1.
        -11    1    3    3    0    0 -0.14061182309E+02 -0.51267302520E+02 -0.13599572680E+03  0.14601674858E+03  0.00000000000E+00 0.  1.
         11    1    3    3    0    0  0.20457495638E+02  0.43326411589E+02 -0.14975023462E+03  0.15722855923E+03  0.00000000000E+00 0. -1.
          1    1    1    2  501    0 -0.22579314178E+02  0.72525347161E+01 -0.18627849286E+02  0.30156615486E+02  0.00000000000E+00 0. -1.
<scales pt_clust_5="13000.00000" pt_clust_6="13000.00000" pt_clust_7="13000.00000" pt_clust_8="13000.00000" pt_clust_9="23.71549"></scales>
<clustering>
<clus scale="   23.715">  1  9  2 -1</clus>
<clus scale="   79.407">  5  6 -1 -1</clus>
<clus scale="   79.675">  1  5  2 -1</clus>
<clus scale="  101.010">  7  8 -1 -1</clus>
<clus scale="   23.715">  1  5  2 -1</clus>
</clustering>
</event>
<event>
 9    1  0.1881049E-005  0.1603295E+03  0.7546771E-02  0.1188781E+00
         21   -1    0    0  501  502  0.00000000000E+00  0.00000000000E+00  0.21032403390E+03  0.21032403390E+03  0.00000000000E+00 0.  1.
          2   -1    0    0  502    0 -0.00000000000E+00 -0.00000000000E+00 -0.39111507981E+03  0.39111507981E+03  0.00000000000E+00 0.  1.
         23    2    1    2    0    0  0.47607307746E+02  0.11067857021E+03 -0.19441582291E+03  0.24497342184E+03  0.87739749006E+02 0.  0.
         23    2    1    2    0    0 -0.51257706961E+02 -0.14584666324E+03 -0.12168968927E+03  0.21660817523E+03  0.90620744876E+02 0.  0.
        -11    1    3    3    0    0 -0.21476599392E+02  0.98275189787E+01 -0.53136123918E+02  0.58148706913E+02  0.00000000000E+00 0. -1.
         11    1    3    3    0    0  0.69083907138E+02  0.10085105123E+03 -0.14127969899E+03  0.18682471492E+03  0.00000000000E+00 0.  1.
        -11    1    4    4    0    0  0.21274518251E+02 -0.74226144179E+02 -0.54895435708E+02  0.94739825142E+02  0.00000000000E+00 0.  1.
         11    1    4    4    0    0 -0.72532225212E+02 -0.71620519058E+02 -0.66794253561E+02  0.12186835009E+03  0.00000000000E+00 0. -1.
          2    1    1    2  501    0  0.36503992148E+01  0.35168093028E+02  0.13531446626E+03  0.13985751664E+03  0.00000000000E+00 0.  1.
<scales pt_clust_5="13000.00000" pt_clust_6="13000.00000" pt_clust_7="13000.00000" pt_clust_8="13000.00000" pt_clust_9="35.35704"></scales>
<clustering>
<clus scale="   35.357">  1  9  2 -1</clus>
<clus scale="   87.740">  5  6 -1 -1</clus>
<clus scale="   90.621">  7  8 -1 -1</clus>
<clus scale="  158.719">  2  5  1 -1</clus>
<clus scale="   35.357">  1  5  2 -1</clus>
</clustering>
</event>
<event>
 9    1  0.1881049E-005  0.1062537E+03  0.7546771E-02  0.1268602E+00
         21   -1    0    0  501  502  0.00000000000E+00  0.00000000000E+00  0.13074411794E+03  0.13074411794E+03  0.00000000000E+00 0.  1.
         -1   -1    0    0    0  501 -0.00000000000E+00 -0.00000000000E+00 -0.29174239765E+03  0.29174239765E+03  0.00000000000E+00 0.  1.
         23    2    1    2    0    0  0.56051010046E+02  0.14367976993E+02 -0.21465149580E+03  0.24095250748E+03  0.92923041911E+02 0.  0.
         23    2    1    2    0    0 -0.18490376947E+02  0.40225118949E+02  0.55560754581E+02  0.11524037353E+03  0.90738040577E+02 0.  0.
        -13    1    4    4    0    0 -0.42107545143E+01  0.68823172854E+02  0.39559182066E+02  0.79493952355E+02  0.00000000000E+00 0.  1.
         13    1    4    4    0    0 -0.14279622432E+02 -0.28598053904E+02  0.16001572515E+02  0.35746421176E+02  0.00000000000E+00 0. -1.
        -13    1    3    3    0    0  0.77201001494E+02  0.18777852132E+02 -0.12037076442E+03  0.14422802533E+03  0.00000000000E+00 0.  1.
         13    1    3    3    0    0 -0.21149991448E+02 -0.44098751391E+01 -0.94280731379E+02  0.96724482146E+02  0.00000000000E+00 0. -1.
         -1    1    1    2    0  502 -0.37560633099E+02 -0.54593095943E+02 -0.19075384796E+01  0.66293634585E+02  0.00000000000E+00 0.  1.
<scales pt_clust_5="13000.00000" pt_clust_6="13000.00000" pt_clust_7="13000.00000" pt_clust_8="13000.00000" pt_clust_9="66.26619"></scales>
<clustering>
<clus scale="   66.266">  1  9  2 -1</clus>
<clus scale="   90.738">  5  6 -1 -1</clus>
<clus scale="   92.923">  7  8 -1 -1</clus>
<clus scale="  104.348">  1  5  2 -1</clus>
<clus scale="   66.266">  1  5  2 -1</clus>
</clustering>
</event>
<event>
 9    1  0.1881049E-005  0.2190397E+03  0.7546771E-02  0.1134736E+00
         21   -1    0    0  501  502  0.00000000000E+00  0.00000000000E+00  0.14006039802E+03  0.14006039802E+03  0.00000000000E+00 0. -1.
         -1   -1    0    0    0  501 -0.00000000000E+00 -0.00000000000E+00 -0.87806995034E+03  0.87806995034E+03  0.00000000000E+00 0.  1.
         23    2    1    2    0    0 -0.17474333341E+03  0.93171861944E+02 -0.70180934854E+03  0.73490145103E+03  0.91255425079E+02 0.  0.
         23    2    1    2    0    0  0.16237935375E+03 -0.13349194265E+03 -0.12830226828E+01  0.22847685228E+03  0.89514650195E+02 0.  0.
        -11    1    3    3    0    0 -0.86178527098E+02  0.95021879012E+02 -0.37689356572E+03  0.39812643206E+03  0.00000000000E+00 0.  1.
         11    1    3    3    0    0 -0.88564806316E+02 -0.18500170678E+01 -0.32491578281E+03  0.33677501897E+03  0.00000000000E+00 0. -1.
        -13    1    4    4    0    0 -0.94655102581E+01 -0.20322543397E+02  0.33210122568E+01  0.22663423770E+02  0.00000000000E+00 0.  1.
         13    1    4    4    0    0  0.17184486401E+03 -0.11316939926E+03 -0.46040349396E+01  0.20581342851E+03  0.00000000000E+00 0. -1.
         -1    1    1    2    0  502  0.12363979660E+02  0.40320080710E+02 -0.34917181099E+02  0.54752045052E+02  0.00000000000E+00 0.  1.
<scales pt_clust_5="13000.00000" pt_clust_6="13000.00000" pt_clust_7="13000.00000" pt_clust_8="13000.00000" pt_clust_9="42.17318"></scales>
<clustering>
<clus scale="   42.173">  1  9  2 -1</clus>
<clus scale="   89.515">  7  8 -1 -1</clus>
<clus scale="   91.255">  5  6 -1 -1</clus>
<clus scale="  218.320">  1  7  2 -1</clus>
<clus scale="   42.173">  1  5  2 -1</clus>
</clustering>
</event>
<event>
 9    1  0.1881049E-005  0.9549998E+02  0.7546771E-02  0.1291469E+00
         21   -1    0    0  501  502  0.00000000000E+00  0.00000000000E+00  0.63660131024E+02  0.63660131024E+02  0.00000000000E+00 0.  1.
          1   -1    0    0  502    0 -0.00000000000E+00 -0.00000000000E+00 -0.42274508422E+03  0.42274508422E+03  0.00000000000E+00 0. -1.
         23    2    1    2    0    0  0.91276595813E+00 -0.26510593058E+02 -0.31664270498E+03  0.33128474376E+03  0.93719443785E+02 0.  0.
         23    2    1    2    0    0 -0.21281591073E+02 -0.19443698554E+02 -0.43009079114E+02  0.10485112445E+03  0.91175730760E+02 0.  0.
        -11    1    3    3    0    0  0.55703718640E+01 -0.57164424163E+02 -0.26412262687E+03  0.27029532452E+03  0.00000000000E+00 0. -1.
         11    1    3    3    0    0 -0.46576059059E+01  0.30653831105E+02 -0.52520078105E+02  0.60989419233E+02  0.00000000000E+00 0.  1.
        -11    1    4    4    0    0 -0.36000899993E+02  0.24790683170E+02 -0.36927631633E+01  0.43866607711E+02  0.00000000000E+00 0.  1.
         11    1    4    4    0    0  0.14719308919E+02 -0.44234381725E+02 -0.39316315951E+02  0.60984516737E+02  0.00000000000E+00 0. -1.
          1    1    1    2  501    0  0.20368825115E+02  0.45954291612E+02  0.56683090077E+00  0.50269347036E+02  0.00000000000E+00 0. -1.
<scales pt_clust_5="13000.00000" pt_clust_6="13000.00000" pt_clust_7="13000.00000" pt_clust_8="13000.00000" pt_clust_9="50.26615"></scales>
<clustering>
<clus scale="   50.266">  1  9  2 -1</clus>
<clus scale="   91.176">  7  8 -1 -1</clus>
<clus scale="   93.005">  1  7  2 -1</clus>
<clus scale="   93.719">  5  6 -1 -1</clus>
<clus scale="   50.266">  1  5  2 -1</clus>
</clustering>
</event>
<event>
 9    1  0.1881049E-005  0.1895414E+03  0.7546771E-02  0.1159136E+00
          3   -1    0    0  502    0 -0.00000000000E+00  0.00000000000E+00  0.10479233235E+04  0.10479233235E+04  0.00000000000E+00 0. -1.
         21   -1    0    0  501  502  0.00000000000E+00 -0.00000000000E+00 -0.18383522333E+03  0.18383522333E+03  0.00000000000E+00 0. -1.
         23    2    1    2    0    0  0.49640732252E+02  0.14795449475E+03  0.55274232624E+03  0.58178987420E+03  0.92739655408E+02 0.  0.
         23    2    1    2    0    0 -0.58506667566E+02 -0.16873958622E+03  0.45892208536E+03  0.50067234804E+03  0.90372792092E+02 0.  0.
        -11    1    4    4    0    0 -0.52679863399E+02 -0.48796416202E+02  0.24549981741E+03  0.25578588427E+03  0.00000000000E+00 0. -1.
         11    1    4    4    0    0 -0.58268041671E+01 -0.11994317002E+03  0.21342226795E+03  0.24488646377E+03  0.00000000000E+00 0.  1.
        -13    1    3    3    0    0 -0.23288641166E+02  0.27734440794E+02  0.17541617864E+03  0.17911559324E+03  0.00000000000E+00 0. -1.
         13    1    3    3    0    0  0.72929373418E+02  0.12022005396E+03  0.37732614761E+03  0.40267428096E+03  0.00000000000E+00 0.  1.
          3    1    1    2  501    0  0.88659353143E+01  0.20785091473E+02 -0.14757631144E+03  0.14929632459E+03  0.00000000000E+00 0. -1.
<scales pt_clust_5="13000.00000" pt_clust_6="13000.00000" pt_clust_7="13000.00000" pt_clust_8="13000.00000" pt_clust_9="22.59701"></scales>
<clustering>
<clus scale="   22.597">  2  9  1 -1</clus>
<clus scale="   90.373">  5  6 -1 -1</clus>
<clus scale="   92.740">  7  8 -1 -1</clus>
<clus scale="  188.395">  2  5  1 -1</clus>
<clus scale="   22.597">  2  5  1 -1</clus>
</clustering>
</event>
<event>
 9    1  0.1881049E-005  0.1425136E+03  0.7546771E-02  0.1214791E+00
          1   -1    0    0  502    0 -0.00000000000E+00  0.00000000000E+00  0.29897598618E+03  0.29897598618E+03  0.00000000000E+00 0. -1.
         21   -1    0    0  501  502  0.00000000000E+00 -0.00000000000E+00 -0.15553443673E+03  0.15553443673E+03  0.00000000000E+00 0. -1.
         23    2    1    2    0    0 -0.63425413340E+02  0.46560131031E+02  0.18230941904E+03  0.22753509998E+03  0.11110746416E+03 0.  0.
         23    2    1    2    0    0  0.11180815770E+03 -0.53184685984E+02  0.13647342308E+02  0.15526324472E+03  0.92686300270E+02 0.  0.
        -11    1    3    3    0    0 -0.83234077317E+02  0.67481061513E+02  0.13872820802E+03  0.17529153143E+03  0.00000000000E+00 0. -1.
         11    1    3    3    0    0  0.19808663978E+02 -0.20920930482E+02  0.43581211024E+02  0.52243568553E+02  0.00000000000E+00 0.  1.
        -13    1    4    4    0    0  0.43513414742E+02  0.18556301725E+02 -0.18990405854E+02  0.50974396619E+02  0.00000000000E+00 0.  1.
         13    1    4    4    0    0  0.68294742954E+02 -0.71740987709E+02  0.32637748162E+02  0.10428884810E+03  0.00000000000E+00 0. -1.
          1    1    1    2  501    0 -0.48382744356E+02  0.66245549533E+01 -0.52515211899E+02  0.71712078205E+02  0.00000000000E+00 0. -1.
<scales pt_clust_5="13000.00000" pt_clust_6="13000.00000" pt_clust_7="13000.00000" pt_clust_8="13000.00000" pt_clust_9="48.83415"></scales>
<clustering>
<clus scale="   48.834">  2  9  1 -1</clus>
<clus scale="   92.686">  7  8 -1 -1</clus>
<clus scale="  111.107">  5  6 -1 -1</clus>
<clus scale="  128.670">  2  7  1 -1</clus>
<clus scale="   48.834">  2  5  1 -1</clus>
</clustering>
</event>
<event>
 9    1  0.1881049E-005  0.1086311E+03  0.7546771E-02  0.1263514E+00
         21   -1    0    0  501  502  0.00000000000E+00  0.00000000000E+00  0.41713191596E+02  0.41713191596E+02  0.00000000000E+00 0.  1.
          2   -1    0    0  502    0 -0.00000000000E+00 -0.00000000000E+00 -0.81657042161E+03  0.81657042161E+03  0.00000000000E+00 0. -1.
         23    2    1    2    0    0  0.60187428096E+01  0.59708365469E+02 -0.65374640353E+03  0.66288262271E+03  0.91802490085E+02 0.  0.
         23    2    1    2    0    0 -0.43339503358E+02 -0.41923612764E+02 -0.10395554635E+03  0.15064118449E+03  0.90830110593E+02 0.  0.
        -11    1    3    3    0    0  0.40503844184E+02  0.63141523280E+02 -0.44415745141E+03  0.45044783827E+03  0.00000000000E+00 0. -1.
         11    1    3    3    0    0 -0.34485101374E+02 -0.34331578111E+01 -0.20958895212E+03  0.21243478444E+03  0.00000000000E+00 0.  1.
        -13    1    4    4    0    0 -0.70606689564E-01 -0.23632221340E+02 -0.10082845687E+03  0.10356092209E+03  0.00000000000E+00 0. -1.
         13    1    4    4    0    0 -0.43268896669E+02 -0.18291391424E+02 -0.31270894847E+01  0.47080262401E+02  0.00000000000E+00 0.  1.
          2    1    1    2  501    0  0.37320760549E+02 -0.17784752705E+02 -0.17155280124E+02  0.44759805996E+02  0.00000000000E+00 0. -1.
<scales pt_clust_5="13000.00000" pt_clust_6="13000.00000" pt_clust_7="13000.00000" pt_clust_8="13000.00000" pt_clust_9="41.34171"></scales>
<clustering>
<clus scale="   41.342">  1  9  2 -1</clus>
<clus scale="   90.830">  7  8 -1 -1</clus>
<clus scale="   91.802">  5  6 -1 -1</clus>
<clus scale="  107.811">  1  7  2 -1</clus>
<clus scale="   41.342">  1  5  2 -1</clus>
</clustering>
</event>
<event>
 9    1  0.1881049E-005  0.9547400E+02  0.7546771E-02  0.1291740E+00
         21   -1    0    0  501  502  0.00000000000E+00  0.00000000000E+00  0.79229210998E+03  0.79229210998E+03  0.00000000000E+00 0. -1.
          1   -1    0    0  502    0 -0.00000000000E+00 -0.00000000000E+00 -0.24686380030E+02  0.24686380030E+02  0.00000000000E+00 0. -1.
         23    2    1    2    0    0  0.43190122907E+01 -0.24698046165E+02  0.23956616269E+03  0.25767456694E+03  0.91518242936E+02 0.  0.
         23    2    1    2    0    0 -0.14844335437E+02 -0.47484969618E+02  0.24940466840E+03  0.27127861679E+03  0.94415161251E+02 0.  0.
        -11    1    3    3    0    0  0.28176974791E+02  0.68772803367E+01  0.21648509462E+02  0.36192497222E+02  0.00000000000E+00 0.  1.
         11    1    3    3    0    0 -0.23857962500E+02 -0.31575326502E+02  0.21791765323E+03  0.22148206972E+03  0.00000000000E+00 0. -1.
        -13    1    4    4    0    0 -0.64572745886E+01 -0.74478693913E+02  0.14529081626E+03  0.16339581859E+03  0.00000000000E+00 0.  1.
         13    1    4    4    0    0 -0.83870608486E+01  0.26993724295E+02  0.10411385213E+03  0.10788279820E+03  0.00000000000E+00 0. -1.
          1    1    1    2  501    0  0.10525323146E+02  0.72183015783E+02  0.27863489885E+03  0.28802530627E+03  0.00000000000E+00 0. -1.
<scales pt_clust_5="13000.00000" pt_clust_6="13000.00000" pt_clust_7="13000.00000" pt_clust_8="13000.00000" pt_clust_9="72.94635"></scales>
<clustering>
<clus scale="   72.946">  1  9  2 -1</clus>
<clus scale="   91.518">  5  6 -1 -1</clus>
<clus scale="   92.610">  2  5  1 -1</clus>
<clus scale="   94.415">  7  8 -1 -1</clus>
<clus scale="   72.946">  1  5  2 -1</clus>
</clustering>
</event>
<event>
 9    1  0.1881049E-005  0.1170041E+03  0.7546771E-02  0.1248127E+00
         21   -1    0    0  501  502  0.00000000000E+00  0.00000000000E+00  0.17702511890E+03  0.17702511890E+03  0.00000000000E+00 0.  1.
          3   -1    0    0  502    0 -0.00000000000E+00 -0.00000000000E+00 -0.14695194535E+03  0.14695194535E+03  0.00000000000E+00 0. -1.
         23    2    1    2    0    0  0.85199270489E+02  0.12926830877E+01 -0.36496556016E+02  0.13002040867E+03  0.91174126534E+02 0.  0.
         23    2    1    2    0    0 -0.58968624111E+02  0.21783670060E+02 -0.85956786933E+01  0.11106875850E+03  0.91162253765E+02 0.  0.
        -11    1    4    4    0    0 -0.62917498478E+02 -0.20675817497E+02  0.47193808561E+01  0.66395584187E+02  0.00000000000E+00 0.  1.
         11    1    4    4    0    0  0.39488743667E+01  0.42459487557E+02 -0.13315059549E+02  0.44673174312E+02  0.00000000000E+00 0. -1.
        -13    1    3    3    0    0  0.27158449611E+02  0.24222242332E+02 -0.54080629145E+02  0.65184452576E+02  0.00000000000E+00 0. -1.
         13    1    3    3    0    0  0.58040820878E+02 -0.22929559244E+02  0.17584073129E+02  0.64835956098E+02  0.00000000000E+00 0.  1.
          3    1    1    2  501    0 -0.26230646377E+02 -0.23076353148E+02  0.75165408261E+02  0.82887897084E+02  0.00000000000E+00 0. -1.
<scales pt_clust_5="13000.00000" pt_clust_6="13000.00000" pt_clust_7="13000.00000" pt_clust_8="13000.00000" pt_clust_9="34.93658"></scales>
<clustering>
<clus scale="   34.937">  1  9  2 -1</clus>
<clus scale="   91.162">  5  6 -1 -1</clus>
<clus scale="   91.174">  7  8 -1 -1</clus>
<clus scale="  116.995">  1  5  2 -1</clus>
<clus scale="   34.937">  1  5  2 -1</clus>
</clustering>
</event>
<event>
 9    1  0.1881049E-005  0.1050096E+03  0.7546771E-02  0.1271204E+00
         21   -1    0    0  501  502  0.00000000000E+00  0.00000000000E+00  0.69303697662E+02  0.69303697662E+02  0.00000000000E+00 0.  1.
          1   -1    0    0  502    0 -0.00000000000E+00 -0.00000000000E+00 -0.19666274199E+03  0.19666274199E+03  0.00000000000E+00 0. -1.
         23    2    1    2    0    0  0.18915765920E+02  0.53258401746E+02 -0.73881488552E+02  0.13155284407E+03  0.93023722110E+02 0.  0.
         23    2    1    2    0    0  0.32761825700E+00 -0.41944494806E+02 -0.50737363644E+02  0.11192313143E+03  0.90515519671E+02 0.  0.
        -13    1    3    3    0    0  0.37072655257E+02 -0.11311673341E+02 -0.42436689168E+02  0.57473544428E+02  0.00000000000E+00 0.  1.
         13    1    3    3    0    0 -0.18156889337E+02  0.64570075087E+02 -0.31444799384E+02  0.74079299642E+02  0.00000000000E+00 0. -1.
        -13    1    4    4    0    0  0.32958250792E+02 -0.52465220558E+02 -0.46311834401E+02  0.77353937644E+02  0.00000000000E+00 0.  1.
         13    1    4    4    0    0 -0.32630632535E+02  0.10520725752E+02 -0.44255292434E+01  0.34569193786E+02  0.00000000000E+00 0. -1.
          1    1    1    2  501    0 -0.19243384177E+02 -0.11313906940E+02 -0.27401921307E+01  0.22490464151E+02  0.00000000000E+00 0. -1.
<scales pt_clust_5="13000.00000" pt_clust_6="13000.00000" pt_clust_7="13000.00000" pt_clust_8="13000.00000" pt_clust_9="22.32291"></scales>
<clustering>
<clus scale="   22.323">  1  9  2 -1</clus>
<clus scale="   90.516">  7  8 -1 -1</clus>
<clus scale="   93.024">  5  6 -1 -1</clus>
<clus scale="  102.794">  1  7  2 -1</clus>
<clus scale="   22.323">  1  5  2 -1</clus>
</clustering>
</event>
<event>
 9    1  0.1881049E-005  0.1099362E+03  0.7546771E-02  0.1264186E+00
         21   -1    0    0  501  502  0.00000000000E+00  0.00000000000E+00  0.75198857469E+02  0.75198857469E+02  0.00000000000E+00 0. -1.
          3   -1    0    0  502    0 -0.00000000000E+00 -0.00000000000E+00 -0.24687280190E+03  0.24687280190E+03  0.00000000000E+00 0. -1.
         23    2    1    2    0    0  0.28825914666E+02  0.10265233650E+01 -0.82740460377E+02  0.12683664647E+03  0.91703674944E+02 0.  0.
         23    2    1    2    0    0 -0.69016241990E+02 -0.19378079628E+02 -0.87851645940E+02  0.15103985025E+03  0.99781626775E+02 0.  0.
        -11    1    4    4    0    0 -0.36058123872E+02  0.37158026163E+02 -0.16780236213E+02  0.54428701371E+02  0.00000000000E+00 0.  1.
         11    1    4    4    0    0 -0.32958118118E+02 -0.56536105791E+02 -0.71071409728E+02  0.96611148884E+02  0.00000000000E+00 0. -1.
        -13    1    3    3    0    0  0.16443101629E+01  0.38327596418E+02 -0.83022470630E+01  0.39250932593E+02  0.00000000000E+00 0.  1.
         13    1    3    3    0    0  0.27181604504E+02 -0.37301073053E+02 -0.74438213314E+02  0.87585713879E+02  0.00000000000E+00 0. -1.
          3    1    1    2  501    0  0.40190327324E+02  0.18351556263E+02 -0.10818381180E+01  0.44195162647E+02  0.00000000000E+00 0. -1.
<scales pt_clust_5="13000.00000" pt_clust_6="13000.00000" pt_clust_7="13000.00000" pt_clust_8="13000.00000" pt_clust_9="44.18192"></scales>
<clustering>
<clus scale="   44.182">  1  9  2 -1</clus>
<clus scale="   91.704">  7  8 -1 -1</clus>
<clus scale="   99.782">  5  6 -1 -1</clus>
<clus scale="  102.660">  2  7  1 -1</clus>
<clus scale="   44.182">  1  5  2 -1</clus>
</clustering>
</event>
<event>
 9    1  0.1881049E-005  0.1775524E+03  0.7546771E-02  0.1195516E+00
          1   -1    0    0  502    0 -0.00000000000E+00  0.00000000000E+00  0.60866045506E+03  0.60866045506E+03  0.00000000000E+00 0. -1.
         21   -1    0    0  501  502  0.00000000000E+00 -0.00000000000E+00 -0.59113831941E+03  0.59113831941E+03  0.00000000000E+00 0. -1.
         23    2    1    2    0    0  0.37913619495E+02 -0.97741659685E+01 -0.63982441109E+02  0.11936034939E+03  0.92844834925E+02 0.  0.
         23    2    1    2    0    0 -0.95674757979E+02  0.14888393117E+03  0.55162730914E+03  0.58677532195E+03  0.93233609768E+02 0.  0.
        -11    1    3    3    0    0 -0.10388479120E+02 -0.40843688753E+02 -0.36222098783E+02  0.55571286197E+02  0.00000000000E+00 0. -1.
         11    1    3    3    0    0  0.48302098615E+02  0.31069522785E+02 -0.27760342326E+02  0.63789063191E+02  0.00000000000E+00 0.  1.
        -13    1    4    4    0    0  0.12496997261E+02  0.56231349125E+02  0.15947642072E+03  0.16956081012E+03  0.00000000000E+00 0.  1.
         13    1    4    4    0    0 -0.10817175524E+03  0.92652582043E+02  0.39215088842E+03  0.41721451183E+03  0.00000000000E+00 0. -1.
          1    1    1    2  501    0  0.57761138485E+02 -0.13910976520E+03 -0.47012273238E+03  0.49366310313E+03  0.00000000000E+00 0. -1.
<scales pt_clust_5="13000.00000" pt_clust_6="13000.00000" pt_clust_7="13000.00000" pt_clust_8="13000.00000" pt_clust_9="151.10371"></scales>
<clustering>
<clus scale="   92.845">  5  6 -1 -1</clus>
<clus scale="   93.234">  7  8 -1 -1</clus>
<clus scale="  100.763">  1  5  2 -1</clus>
<clus scale="  151.104">  2  9  1 -1</clus>
<clus scale="  151.104">  2  5  1 -1</clus>
</clustering>
</event>
<event>
 9    1  0.1881049E-005  0.1113544E+03  0.7546771E-02  0.1263847E+00
         21   -1    0    0  501  502  0.00000000000E+00  0.00000000000E+00  0.75204150500E+02  0.75204150500E+02  0.00000000000E+00 0.  1.
          1   -1    0    0  502    0 -0.00000000000E+00 -0.00000000000E+00 -0.20195976530E+03  0.20195976530E+03  0.00000000000E+00 0. -1.
         23    2    1    2    0    0 -0.91553440429E+01  0.45514457702E+02 -0.91411959212E+02  0.13562132940E+03  0.88778446234E+02 0.  0.
         23    2    1    2    0    0  0.30839845194E+02 -0.34016105426E+02 -0.23325223158E+02  0.11421361984E+03  0.10194357970E+03 0.  0.
        -11    1    3    3    0    0 -0.45651105173E+02  0.16486526987E+02 -0.67714865634E+02  0.83313456317E+02  0.00000000000E+00 0. -1.
         11    1    3    3    0    0  0.36495761130E+02  0.29027930715E+02 -0.23697093578E+02  0.52307873079E+02  0.00000000000E+00 0.  1.
        -13    1    4    4    0    0  0.45426958847E+02  0.60347908707E+01  0.22989980381E+02  0.51269547384E+02  0.00000000000E+00 0.  1.
         13    1    4    4    0    0 -0.14587113653E+02 -0.40050896297E+02 -0.46315203540E+02  0.62944072460E+02  0.00000000000E+00 0. -1.
          1    1    1    2  501    0 -0.21684501151E+02 -0.11498352276E+02 -0.12018432430E+02  0.27328966562E+02  0.00000000000E+00 0. -1.
<scales pt_clust_5="13000.00000" pt_clust_6="13000.00000" pt_clust_7="13000.00000" pt_clust_8="13000.00000" pt_clust_9="24.54444"></scales>
<clustering>
<clus scale="   24.544">  1  9  2 -1</clus>
<clus scale="   88.778">  5  6 -1 -1</clus>
<clus scale="   99.443">  2  5  1 -1</clus>
<clus scale="  101.944">  7  8 -1 -1</clus>
<clus scale="   24.544">  1  5  2 -1</clus>
</clustering>
</event>
<event>
 9    1  0.1881049E-005  0.1687565E+03  0.7546771E-02  0.1179240E+00
          2   -1    0    0  502    0 -0.00000000000E+00  0.00000000000E+00  0.50096355463E+03  0.50096355463E+03  0.00000000000E+00 0. -1.
         21   -1    0    0  501  502  0.00000000000E+00 -0.00000000000E+00 -0.12930252855E+03  0.12930252855E+03  0.00000000000E+00 0.  1.
         23    2    1    2    0    0 -0.23580339234E+02 -0.14654210635E+03  0.35346277086E+03  0.39415804511E+03  0.91618845268E+02 0.  0.
         23    2    1    2    0    0  0.97283425799E+01  0.12567160903E+03  0.76051221618E+02  0.17306502744E+03  0.90992974707E+02 0.  0.
        -13    1    4    4    0    0  0.34830631381E+02  0.70185423858E+02  0.36240331499E+01  0.78436600008E+02  0.00000000000E+00 0.  1.
         13    1    4    4    0    0 -0.25102288801E+02  0.55486185174E+02  0.72427188469E+02  0.94628427429E+02  0.00000000000E+00 0. -1.
        -13    1    3    3    0    0  0.20912624147E+02 -0.47279967006E+00  0.31381254360E+02  0.37713982997E+02  0.00000000000E+00 0.  1.
         13    1    3    3    0    0 -0.44492963381E+02 -0.14606930668E+03  0.32208151650E+03  0.35644406211E+03  0.00000000000E+00 0. -1.
          2    1    1    2  501    0  0.13851996654E+02  0.20870497322E+02 -0.57852966398E+02  0.63043010643E+02  0.00000000000E+00 0. -1.
<scales pt_clust_5="13000.00000" pt_clust_6="13000.00000" pt_clust_7="13000.00000" pt_clust_8="13000.00000" pt_clust_9="25.04906"></scales>
<clustering>
<clus scale="   25.049">  2  9  1 -1</clus>
<clus scale="   90.993">  5  6 -1 -1</clus>
<clus scale="   91.619">  7  8 -1 -1</clus>
<clus scale="  168.418">  2  5  1 -1</clus>
<clus scale="   25.049">  2  5  1 -1</clus>
</clustering>
</event>
<event>
 9    1  0.1881049E-005  0.1196496E+03  0.7546771E-02  0.1245000E+00
          1   -1    0    0  502    0 -0.00000000000E+00  0.00000000000E+00  0.30771311839E+03  0.30771311839E+03  0.00000000000E+00 0. -1.
         21   -1    0    0  501  502  0.00000000000E+00 -0.00000000000E+00 -0.78354071562E+02  0.78354071562E+02  0.00000000000E+00 0.  1.
         23    2    1    2    0    0  0.50152544407E+02  0.77448124742E+02  0.19340092659E+03  0.23108350701E+03  0.86499590002E+02 0.  0.
         23    2    1    2    0    0 -0.15998603288E+02 -0.43566936017E+02  0.17096208245E+02  0.10330972076E+03  0.90700522854E+02 0.  0.
        -13    1    3    3    0    0  0.64243955866E+02  0.29923700983E+02  0.14696734476E+03  0.16316284556E+03  0.00000000000E+00 0. -1.
         13    1    3    3    0    0 -0.14091411459E+02  0.47524423760E+02  0.46433581838E+02  0.67920661458E+02  0.00000000000E+00 0.  1.
        -13    1    4    4    0    0 -0.46188964479E+02 -0.43279658558E+02 -0.83231902744E+01  0.63842186529E+02  0.00000000000E+00 0.  1.
         13    1    4    4    0    0  0.30190361190E+02 -0.28727745933E+00  0.25419398519E+02  0.39467534230E+02  0.00000000000E+00 0. -1.
          1    1    1    2  501    0 -0.34153941118E+02 -0.33881188725E+02  0.18861911991E+02  0.51673962179E+02  0.00000000000E+00 0. -1.
<scales pt_clust_5="13000.00000" pt_clust_6="13000.00000" pt_clust_7="13000.00000" pt_clust_8="13000.00000" pt_clust_9="48.10849"></scales>
<clustering>
<clus scale="   48.108">  2  9  1 -1</clus>
<clus scale="   86.500">  5  6 -1 -1</clus>
<clus scale="   90.701">  7  8 -1 -1</clus>
<clus scale="  116.497">  1  5  2 -1</clus>
<clus scale="   48.108">  2  5  1 -1</clus>
</clustering>
</event>
<event>
 9    1  0.1881049E-005  0.9491022E+02  0.7546771E-02  0.1291502E+00
          1   -1    0    0  502    0 -0.00000000000E+00  0.00000000000E+00  0.52763232837E+03  0.52763232837E+03  0.00000000000E+00 0. -1.
         21   -1    0    0  501  502  0.00000000000E+00 -0.00000000000E+00 -0.33578266442E+02  0.33578266442E+02  0.00000000000E+00 0.  1.
         23    2    1    2    0    0 -0.23762195198E+02  0.12241514534E+02  0.33420783906E+03  0.34744643328E+03  0.91157269106E+02 0.  0.
         23    2    1    2    0    0 -0.44830436655E+01 -0.40441367512E+02  0.12943571639E+03  0.16358623680E+03  0.91385175526E+02 0.  0.
        -11    1    3    3    0    0  0.52554937176E+01 -0.35748340273E+02  0.17384644404E+03  0.17756167985E+03  0.00000000000E+00 0.  1.
         11    1    3    3    0    0 -0.29017688915E+02  0.47989854807E+02  0.16036139502E+03  0.16988475342E+03  0.00000000000E+00 0. -1.
        -13    1    4    4    0    0 -0.25989222215E+02 -0.40266633919E+02  0.19789094696E+02  0.51850262752E+02  0.00000000000E+00 0.  1.
         13    1    4    4    0    0  0.21506178550E+02 -0.17473359321E+00  0.10964662169E+03  0.11173597404E+03  0.00000000000E+00 0. -1.
          1    1    1    2  501    0  0.28245238863E+02  0.28199852978E+02  0.30410506482E+02  0.50177924737E+02  0.00000000000E+00 0. -1.
<scales pt_clust_5="13000.00000" pt_clust_6="13000.00000" pt_clust_7="13000.00000" pt_clust_8="13000.00000" pt_clust_9="39.91272"></scales>
<clustering>
<clus scale="   39.913">  2  9  1 -1</clus>
<clus scale="   91.157">  5  6 -1 -1</clus>
<clus scale="   91.385">  7  8 -1 -1</clus>
<clus scale="   94.691">  1  5  2 -1</clus>
<clus scale="   39.913">  2  5  1 -1</clus>
</clustering>
</event>
<event>
 9    1  0.1881049E-005  0.1111994E+03  0.7546771E-02  0.1258728E+00
         -1   -1    0    0    0  501 -0.00000000000E+00  0.00000000000E+00  0.11599263665E+03  0.11599263665E+03  0.00000000000E+00 0.  1.
         21   -1    0    0  501  502  0.00000000000E+00 -0.00000000000E+00 -0.54948214990E+03  0.54948214990E+03  0.00000000000E+00 0.  1.
         23    2    1    2    0    0 -0.66816267582E+02 -0.68952711923E+01  0.76837586427E+02  0.13618672443E+03  0.90171230688E+02 0.  0.
         23    2    1    2    0    0  0.29645187356E+02 -0.61224112196E+01 -0.29054498354E+03  0.30600499552E+03  0.91139172516E+02 0.  0.
        -11    1    4    4    0    0  0.57781853938E+02 -0.24026731836E+02 -0.18257956689E+03  0.19300602253E+03  0.00000000000E+00 0. -1.
         11    1    4    4    0    0 -0.28136666582E+02  0.17904320616E+02 -0.10796541665E+03  0.11299897298E+03  0.00000000000E+00 0.  1.
        -11    1    3    3    0    0 -0.67879574151E+02 -0.38381294837E+02  0.39754524871E+02  0.87528181907E+02  0.00000000000E+00 0. -1.
         11    1    3    3    0    0  0.10633065686E+01  0.31486023644E+02  0.37083061556E+02  0.48658542520E+02  0.00000000000E+00 0.  1.
         -1    1    1    2    0  502  0.37171080226E+02  0.13017682412E+02 -0.21978211614E+03  0.22328306661E+03  0.00000000000E+00 0.  1.
<scales pt_clust_5="13000.00000" pt_clust_6="13000.00000" pt_clust_7="13000.00000" pt_clust_8="13000.00000" pt_clust_9="39.38463"></scales>
<clustering>
<clus scale="   39.385">  2  9  1 -1</clus>
<clus scale="   90.171">  7  8 -1 -1</clus>
<clus scale="   91.139">  5  6 -1 -1</clus>
<clus scale="  110.407">  1  7  2 -1</clus>
<clus scale="   39.385">  2  5  1 -1</clus>
</clustering>
</event>
<event>
 9    1  0.2382880E-005  0.1107035E+03  0.7546771E-02  0.1266979E+00
          2   -1    0    0  502    0 -0.00000000000E+00  0.00000000000E+00  0.56215983562E+03  0.56215983562E+03  0.00000000000E+00 0. -1.
         21   -1    0    0  501  502  0.00000000000E+00 -0.00000000000E+00 -0.85215505614E+02  0.85215505614E+02  0.00000000000E+00 0. -1.
         23    2    1    2    0    0 -0.21379640561E+02 -0.27588080660E+02  0.40914415410E+03  0.42053484189E+03  0.90732701837E+02 0.  0.
         23    2    1    2    0    0 -0.61502200580E+02  0.23152448832E+02  0.70280887637E+02  0.14380298764E+03  0.10687066727E+03 0.  0.
        -13    1    3    3    0    0  0.10164168624E+02 -0.51088454116E+02  0.30067166690E+03  0.30515044117E+03  0.00000000000E+00 0. -1.
         13    1    3    3    0    0 -0.31543809185E+02  0.23500373457E+02  0.10847248720E+03  0.11538440072E+03  0.00000000000E+00 0.  1.
        -13    1    4    4    0    0 -0.92116308306E+02  0.15336969630E+02  0.46921397661E+02  0.10450959024E+03  0.00000000000E+00 0. -1.
         13    1    4    4    0    0  0.30614107726E+02  0.78154792025E+01  0.23359489975E+02  0.39293397396E+02  0.00000000000E+00 0.  1.
          2    1    1    2  501    0  0.82881841142E+02  0.44356318272E+01 -0.24807117289E+01  0.83037511713E+02  0.00000000000E+00 0. -1.
<scales pt_clust_5="13000.00000" pt_clust_6="13000.00000" pt_clust_7="13000.00000" pt_clust_8="13000.00000" pt_clust_9="83.00045"></scales>
<clustering>
<clus scale="   83.000">  2  9  1 -1</clus>
<clus scale="   90.733">  5  6 -1 -1</clus>
<clus scale="   95.217">  1  5  2 -1</clus>
<clus scale="  106.871">  7  8 -1 -1</clus>
<clus scale="   83.000">  2  5  1 -1</clus>
</clustering>
</event>
<event>
 9    1  0.1881049E-005  0.1104610E+03  0.7546771E-02  0.1260013E+00
          2   -1    0    0  502    0 -0.00000000000E+00  0.00000000000E+00  0.66353000450E+03  0.66353000450E+03  0.00000000000E+00 0. -1.
         21   -1    0    0  501  502  0.00000000000E+00 -0.00000000000E+00 -0.44958811924E+02  0.44958811924E+02  0.00000000000E+00 0.  1.
         23    2    1    2    0    0 -0.23235868598E+02  0.50675790904E+02  0.44147201190E+03  0.45418641750E+03  0.90993533700E+02 0.  0.
         23    2    1    2    0    0  0.70522798355E+02 -0.64257180892E+02  0.14468608476E+03  0.19538621553E+03  0.90217845847E+02 0.  0.
        -11    1    3    3    0    0  0.20525220300E+02 -0.13893229811E+02  0.61801947259E+02  0.66586689270E+02  0.00000000000E+00 0.  1.
         11    1    3    3    0    0 -0.43761088898E+02  0.64569020715E+02  0.37967006464E+03  0.38759972823E+03  0.00000000000E+00 0. -1.
        -11    1    4    4    0    0  0.86710467703E+02 -0.27665084032E+02  0.94528073119E+02  0.13122354473E+03  0.00000000000E+00 0.  1.
         11    1    4    4    0    0 -0.16187669349E+02 -0.36592096860E+02  0.50158011646E+02  0.64162670797E+02  0.00000000000E+00 0. -1.
          2    1    1    2  501    0 -0.47286929756E+02  0.13581389989E+02  0.32413095911E+02  0.58916183400E+02  0.00000000000E+00 0. -1.
<scales pt_clust_5="13000.00000" pt_clust_6="13000.00000" pt_clust_7="13000.00000" pt_clust_8="13000.00000" pt_clust_9="49.19866"></scales>
<clustering>
<clus scale="   49.199">  2  9  1 -1</clus>
<clus scale="   90.218">  7  8 -1 -1</clus>
<clus scale="   90.994">  5  6 -1 -1</clus>
<clus scale="  109.823">  2  7  1 -1</clus>
<clus scale="   49.199">  2  5  1 -1</clus>
</clustering>
</event>
<event>
 9    1  0.1881049E-005  0.9454887E+02  0.7546771E-02  0.1293666E+00
          1   -1    0    0  502    0 -0.00000000000E+00  0.00000000000E+00  0.23688335920E+03  0.23688335920E+03  0.00000000000E+00 0. -1.
         21   -1    0    0  501  502  0.00000000000E+00 -0.00000000000E+00 -0.13965537821E+03  0.13965537821E+03  0.00000000000E+00 0.  1.
         23    2    1    2    0    0 -0.12167538078E+01  0.11763231580E+02  0.19239131964E+03  0.21311380733E+03  0.90902260125E+02 0.  0.
         23    2    1    2    0    0  0.15546727446E+02 -0.29202177642E+02 -0.45981868269E+02  0.10931132724E+03  0.93488855696E+02 0.  0.
        -11    1    4    4    0    0  0.20618583195E+02  0.32274967863E+01 -0.67106831585E+02  0.70277091245E+02  0.00000000000E+00 0.  1.
         11    1    4    4    0    0 -0.50718557488E+01 -0.32429674429E+02  0.21124963316E+02  0.39034235991E+02  0.00000000000E+00 0. -1.
        -13    1    3    3    0    0  0.29532484275E+02 -0.27457872242E+02  0.67248280178E+02  0.78411947829E+02  0.00000000000E+00 0.  1.
         13    1    3    3    0    0 -0.30749238083E+02  0.39221103822E+02  0.12514303946E+03  0.13470185950E+03  0.00000000000E+00 0. -1.
          1    1    1    2  501    0 -0.14329973638E+02  0.17438946063E+02 -0.49181470378E+02  0.54113602845E+02  0.00000000000E+00 0. -1.
<scales pt_clust_5="13000.00000" pt_clust_6="13000.00000" pt_clust_7="13000.00000" pt_clust_8="13000.00000" pt_clust_9="22.57133"></scales>
<clustering>
<clus scale="   22.571">  2  9  1 -1</clus>
<clus scale="   90.902">  7  8 -1 -1</clus>
<clus scale="   91.992">  1  7  2 -1</clus>
<clus scale="   93.489">  5  6 -1 -1</clus>
<clus scale="   22.571">  2  5  1 -1</clus>
</clustering>
</event>
<event>
 9    1  0.1881049E-005  0.9198094E+02  0.7546771E-02  0.1299222E+00
         -1   -1    0    0    0  501 -0.00000000000E+00  0.00000000000E+00  0.61935951777E+02  0.61935951777E+02  0.00000000000E+00 0.  1.
         21   -1    0    0  501  502  0.00000000000E+00 -0.00000000000E+00 -0.25751510747E+03  0.25751510747E+03  0.00000000000E+00 0. -1.
         23    2    1    2    0    0  0.98995988628E+01  0.10712317039E+02 -0.49444480876E+01  0.92734796632E+02  0.91446919825E+02 0.  0.
         23    2    1    2    0    0  0.26621911662E+01  0.91445221646E+01 -0.17922587133E+03  0.20059626688E+03  0.89589283879E+02 0.  0.
        -11    1    3    3    0    0 -0.17994799353E+02  0.14709510909E+02  0.36107978812E+02  0.42941456063E+02  0.00000000000E+00 0.  1.
         11    1    3    3    0    0  0.27894398216E+02 -0.39971938705E+01 -0.41052426900E+02  0.49793340569E+02  0.00000000000E+00 0. -1.
        -13    1    4    4    0    0 -0.37788189783E+02 -0.14741157351E+02 -0.59751352158E+02  0.72218232406E+02  0.00000000000E+00 0.  1.
         13    1    4    4    0    0  0.40450380949E+02  0.23885679516E+02 -0.11947451917E+03  0.12837803448E+03  0.00000000000E+00 0. -1.
         -1    1    1    2    0  502 -0.12561790029E+02 -0.19856839203E+02 -0.11408836277E+02  0.26119995733E+02  0.00000000000E+00 0.  1.
<scales pt_clust_5="13000.00000" pt_clust_6="13000.00000" pt_clust_7="13000.00000" pt_clust_8="13000.00000" pt_clust_9="23.49666"></scales>
<clustering>
<clus scale="   23.497">  2  9  1 -1</clus>
<clus scale="   89.589">  7  8 -1 -1</clus>
<clus scale="   90.134">  2  7  1 -1</clus>
<clus scale="   91.447">  5  6 -1 -1</clus>
<clus scale="   23.497">  2  5  1 -1</clus>
</clustering>
</event>
<event>
 9    1  0.1881049E-005  0.9906027E+02  0.7546771E-02  0.1290757E+00
         21   -1    0    0  501  502  0.00000000000E+00  0.00000000000E+00  0.54383832526E+02  0.54383832526E+02  0.00000000000E+00 0. -1.
         -1   -1    0    0    0  501 -0.00000000000E+00 -0.00000000000E+00 -0.24497362141E+03  0.24497362141E+03  0.00000000000E+00 0.  1.
         23    2    1    2    0    0 -0.48577233619E+01 -0.31673465240E+02 -0.77462050656E+02  0.11227368319E+03  0.74687380246E+02 0.  0.
         23    2    1    2    0    0 -0.27567344980E+02  0.51226870278E+02 -0.65463637231E+02  0.12621023603E+03  0.90881159384E+02 0.  0.
        -11    1    3    3    0    0  0.23775654687E+02 -0.23980084117E+02 -0.75324747452E+02  0.82547827159E+02  0.00000000000E+00 0.  1.
         11    1    3    3    0    0 -0.28633378049E+02 -0.76933811230E+01 -0.21373032042E+01  0.29725856028E+02  0.00000000000E+00 0. -1.
        -13    1    4    4    0    0  0.22249792633E+02  0.21525104575E+02  0.86086002329E+01  0.32132404161E+02  0.00000000000E+00 0.  1.
         13    1    4    4    0    0 -0.49817137613E+02  0.29701765702E+02 -0.74072237464E+02  0.94077831866E+02  0.00000000000E+00 0. -1.
         -1    1    1    2    0  502  0.32425068342E+02 -0.19553405037E+02 -0.47664101000E+02  0.60873534723E+02  0.00000000000E+00 0.  1.
<scales pt_clust_5="13000.00000" pt_clust_6="13000.00000" pt_clust_7="13000.00000" pt_clust_8="13000.00000" pt_clust_9="37.86452"></scales>
<clustering>
<clus scale="   37.865">  1  9  2 -1</clus>
<clus scale="   74.687">  5  6 -1 -1</clus>
<clus scale="   84.450">  2  5  1 -1</clus>
<clus scale="   90.881">  7  8 -1 -1</clus>
<clus scale="   37.865">  1  5  2 -1</clus>
</clustering>
</event>
<event>
 9    1  0.1881049E-005  0.1160837E+03  0.7546771E-02  0.1255150E+00
         21   -1    0    0  501  502  0.00000000000E+00  0.00000000000E+00  0.43794470686E+03  0.43794470686E+03  0.00000000000E+00 0. -1.
          3   -1    0    0  502    0 -0.00000000000E+00 -0.00000000000E+00 -0.50420692890E+02  0.50420692890E+02  0.00000000000E+00 0. -1.
         23    2    1    2    0    0  0.21946189013E+02  0.23234266545E+01  0.13877586556E+03  0.17501020736E+03  0.10432065133E+03 0.  0.
         23    2    1    2    0    0 -0.72510972578E+02  0.33392502313E+02  0.11940151367E+03  0.16995722575E+03  0.90861635261E+02 0.  0.
        -13    1    4    4    0    0  0.19548324173E+02 -0.60078256316E+01  0.25429399835E+02  0.32632580694E+02  0.00000000000E+00 0.  1.
         13    1    4    4    0    0 -0.92059296751E+02  0.39400327945E+02  0.93972113840E+02  0.13732464506E+03  0.00000000000E+00 0. -1.
        -13    1    3    3    0    0 -0.21274499677E+02  0.40082028844E+02  0.38670400155E+02  0.59620241704E+02  0.00000000000E+00 0. -1.
         13    1    3    3    0    0  0.43220688690E+02 -0.37758602189E+02  0.10010546540E+03  0.11538996565E+03  0.00000000000E+00 0.  1.
          3    1    1    2  501    0  0.50564783565E+02 -0.35715928967E+02  0.12934663474E+03  0.14339796664E+03  0.00000000000E+00 0. -1.
<scales pt_clust_5="13000.00000" pt_clust_6="13000.00000" pt_clust_7="13000.00000" pt_clust_8="13000.00000" pt_clust_9="61.90658"></scales>
<clustering>
<clus scale="   61.907">  1  9  2 -1</clus>
<clus scale="   90.862">  5  6 -1 -1</clus>
<clus scale="  104.156">  1  5  2 -1</clus>
<clus scale="  104.321">  7  8 -1 -1</clus>
<clus scale="   61.907">  1  5  2 -1</clus>
</clustering>
</event>
<event>
 9    1  0.1881049E-005  0.1096419E+03  0.7546771E-02  0.1261421E+00
         21   -1    0    0  501  502  0.00000000000E+00  0.00000000000E+00  0.68173906924E+02  0.68173906924E+02  0.00000000000E+00 0. -1.
         -3   -1    0    0    0  501 -0.00000000000E+00 -0.00000000000E+00 -0.50653218091E+03  0.50653218091E+03  0.00000000000E+00 0.  1.
         23    2    1    2    0    0  0.32141059260E+02 -0.35082983897E+02 -0.29491834424E+03  0.31256428810E+03  0.91955103046E+02 0.  0.
         23    2    1    2    0    0 -0.95639029339E+02  0.65452494689E+02 -0.86677309819E+02  0.17171893531E+03  0.92431508216E+02 0.  0.
        -11    1    3    3    0    0 -0.23243382535E+02 -0.16944396535E+02 -0.31004987520E+02  0.42292749458E+02  0.00000000000E+00 0. -1.
         11    1    3    3    0    0  0.55384441795E+02 -0.18138587362E+02 -0.26391335672E+03  0.27027153865E+03  0.00000000000E+00 0.  1.
        -11    1    4    4    0    0 -0.87854209618E+02  0.17645579034E+02 -0.84604213095E+02  0.12323798717E+03  0.00000000000E+00 0. -1.
         11    1    4    4    0    0 -0.77848197209E+01  0.47806915655E+02 -0.20730967241E+01  0.48480948140E+02  0.00000000000E+00 0.  1.
         -3    1    1    2    0  502  0.63497970080E+02 -0.30369510793E+02 -0.56762619920E+02  0.90422864421E+02  0.00000000000E+00 0.  1.
<scales pt_clust_5="13000.00000" pt_clust_6="13000.00000" pt_clust_7="13000.00000" pt_clust_8="13000.00000" pt_clust_9="70.38678"></scales>
<clustering>
<clus scale="   70.387">  1  9  2 -1</clus>
<clus scale="   91.955">  5  6 -1 -1</clus>
<clus scale="   92.432">  7  8 -1 -1</clus>
<clus scale="  109.241">  2  5  1 -1</clus>
<clus scale="   70.387">  1  5  2 -1</clus>
</clustering>
</event>
<event>
 9    1  0.1881049E-005  0.2608467E+03  0.7546771E-02  0.1106708E+00
         21   -1    0    0  501  502  0.00000000000E+00  0.00000000000E+00  0.20769767445E+03  0.20769767445E+03  0.00000000000E+00 0. -1.
          1   -1    0    0  502    0 -0.00000000000E+00 -0.00000000000E+00 -0.40881162963E+03  0.40881162963E+03  0.00000000000E+00 0. -1.
         23    2    1    2    0    0  0.26054091817E+03 -0.35349393782E+02 -0.13090380673E+03  0.30755616941E+03  0.91235086693E+02 0.  0.
         23    2    1    2    0    0 -0.22564442541E+03 -0.10507238985E+02 -0.52943485686E+02  0.24879722375E+03  0.89840063886E+02 0.  0.
        -11    1    4    4    0    0 -0.40253789210E+02  0.32697155633E+02 -0.20137724840E+02  0.55632719635E+02  0.00000000000E+00 0.  1.
         11    1    4    4    0    0 -0.18539063620E+03 -0.43204394618E+02 -0.32805760846E+02  0.19316450412E+03  0.00000000000E+00 0. -1.
        -13    1    3    3    0    0  0.14329355742E+03  0.16959366707E+01 -0.25401362734E+02  0.14553744889E+03  0.00000000000E+00 0.  1.
         13    1    3    3    0    0  0.11724736075E+03 -0.37045330453E+02 -0.10550244399E+03  0.16201872052E+03  0.00000000000E+00 0. -1.
          1    1    1    2  501    0 -0.34896492754E+02  0.45856632767E+02 -0.17266662760E+02  0.60155910916E+02  0.00000000000E+00 0. -1.
<scales pt_clust_5="13000.00000" pt_clust_6="13000.00000" pt_clust_7="13000.00000" pt_clust_8="13000.00000" pt_clust_9="57.62461"></scales>
<clustering>
<clus scale="   57.625">  1  9  2 -1</clus>
<clus scale="   89.840">  5  6 -1 -1</clus>
<clus scale="   91.235">  7  8 -1 -1</clus>
<clus scale="  260.362">  1  5  2 -1</clus>
<clus scale="   57.625">  1  5  2 -1</clus>
</clustering>
</event>
<event>
 9    1  0.1881049E-005  0.1689975E+03  0.7546771E-02  0.1178965E+00
          2   -1    0    0  502    0 -0.00000000000E+00  0.00000000000E+00  0.66156553472E+03  0.66156553472E+03  0.00000000000E+00 0. -1.
         21   -1    0    0  501  502  0.00000000000E+00 -0.00000000000E+00 -0.57578391840E+02  0.57578391840E+02  0.00000000000E+00 0.  1.
         23    2    1    2    0    0 -0.20854023712E+02 -0.15248261450E+03  0.36574749847E+03  0.40733387282E+03  0.91998985203E+02 0.  0.
         23    2    1    2    0    0 -0.70397575322E+01  0.12741874972E+03  0.21858390232E+03  0.26947084559E+03  0.92469012654E+02 0.  0.
        -11    1    4    4    0    0 -0.11640266470E+02  0.48645248709E+02  0.16730598315E+02  0.52742477619E+02  0.00000000000E+00 0.  1.
         11    1    4    4    0    0  0.46005089379E+01  0.78773501015E+02  0.20185330401E+03  0.21672836797E+03  0.00000000000E+00 0. -1.
        -13    1    3    3    0    0 -0.44862771536E+02 -0.13354110264E+03  0.24345834084E+03  0.28127896845E+03  0.00000000000E+00 0.  1.
         13    1    3    3    0    0  0.24008747824E+02 -0.18941511867E+02  0.12228915763E+03  0.12605490437E+03  0.00000000000E+00 0. -1.
          2    1    1    2  501    0  0.27893781244E+02  0.25063864780E+02  0.19655742090E+02  0.42339208151E+02  0.00000000000E+00 0. -1.
<scales pt_clust_5="13000.00000" pt_clust_6="13000.00000" pt_clust_7="13000.00000" pt_clust_8="13000.00000" pt_clust_9="37.50014"></scales>
<clustering>
<clus scale="   37.500">  2  9  1 -1</clus>
<clus scale="   91.999">  7  8 -1 -1</clus>
<clus scale="   92.469">  5  6 -1 -1</clus>
<clus scale="  168.741">  1  7  2 -1</clus>
<clus scale="   37.500">  2  5  1 -1</clus>
</clustering>
</event>
<event>
 9    1  0.1881049E-005  0.1813437E+03  0.7546771E-02  0.1166894E+00
          2   -1    0    0  502    0 -0.00000000000E+00  0.00000000000E+00  0.12690216737E+04  0.12690216737E+04  0.00000000000E+00 0. -1.
         21   -1    0    0  501  502  0.00000000000E+00 -0.00000000000E+00 -0.47663927563E+02  0.47663927563E+02  0.00000000000E+00 0.  1.
         23    2    1    2    0    0  0.42668508077E+02  0.10701657245E+03  0.33321701089E+03  0.36366865987E+03  0.89152506792E+02 0.  0.
         23    2    1    2    0    0 -0.13193737536E+02 -0.21221267505E+03  0.67159301427E+03  0.71047231135E+03  0.92333277986E+02 0.  0.
        -11    1    3    3    0    0  0.47673158807E+02  0.46638251217E+02  0.26108678855E+03  0.26947016106E+03  0.00000000000E+00 0. -1.
         11    1    3    3    0    0 -0.50046507302E+01  0.60378321231E+02  0.72130222343E+02  0.94198498814E+02  0.00000000000E+00 0.  1.
        -13    1    4    4    0    0  0.31028750275E+02 -0.13418303491E+03  0.47138831692E+03  0.49109552587E+03  0.00000000000E+00 0. -1.
         13    1    4    4    0    0 -0.44222487811E+02 -0.78029640136E+02  0.20020469735E+03  0.21937678548E+03  0.00000000000E+00 0.  1.
          2    1    1    2  501    0 -0.29474770542E+02  0.10519610260E+03  0.21654772100E+03  0.24254463006E+03  0.00000000000E+00 0. -1.
<scales pt_clust_5="13000.00000" pt_clust_6="13000.00000" pt_clust_7="13000.00000" pt_clust_8="13000.00000" pt_clust_9="109.24734"></scales>
<clustering>
<clus scale="   89.153">  5  6 -1 -1</clus>
<clus scale="   92.333">  7  8 -1 -1</clus>
<clus scale="  109.247">  2  9  1 -1</clus>
<clus scale="  179.745">  1  5  2 -1</clus>
<clus scale="  109.247">  2  5  1 -1</clus>
</clustering>
</event>
<event>
 9    1  0.1881049E-005  0.2645879E+03  0.7546771E-02  0.1104431E+00
          1   -1    0    0  502    0 -0.00000000000E+00  0.00000000000E+00  0.32661625375E+03  0.32661625375E+03  0.00000000000E+00 0. -1.
         21   -1    0    0  501  502  0.00000000000E+00 -0.00000000000E+00 -0.32451010970E+03  0.32451010970E+03  0.00000000000E+00 0.  1.
         23    2    1    2    0    0  0.33511056675E+02  0.24711663047E+03  0.76414485021E+02  0.27650622082E+03  0.91798129940E+02 0.  0.
         23    2    1    2    0    0  0.32936504702E+02 -0.24942636031E+03 -0.12056717340E+03  0.29362327329E+03  0.91541579375E+02 0.  0.
        -11    1    3    3    0    0 -0.17936308191E+02  0.14237166548E+02  0.22269243318E+02  0.31942561901E+02  0.00000000000E+00 0.  1.
         11    1    3    3    0    0  0.51447364866E+02  0.23287946392E+03  0.54145241703E+02  0.24456365892E+03  0.00000000000E+00 0. -1.
        -11    1    4    4    0    0 -0.48106066876E+01 -0.51668546307E+02 -0.68013733542E+02  0.85549100314E+02  0.00000000000E+00 0. -1.
         11    1    4    4    0    0  0.37747111389E+02 -0.19775781401E+03 -0.52553439861E+02  0.20807417298E+03  0.00000000000E+00 0.  1.
          1    1    1    2  501    0 -0.66447561376E+02  0.23097298475E+01  0.46258832428E+02  0.80996869337E+02  0.00000000000E+00 0. -1.
<scales pt_clust_5="13000.00000" pt_clust_6="13000.00000" pt_clust_7="13000.00000" pt_clust_8="13000.00000" pt_clust_9="66.48773"></scales>
<clustering>
<clus scale="   66.488">  2  9  1 -1</clus>
<clus scale="   91.542">  7  8 -1 -1</clus>
<clus scale="   91.798">  5  6 -1 -1</clus>
<clus scale="  264.499">  2  7  1 -1</clus>
<clus scale="   66.488">  2  5  1 -1</clus>
</clustering>
</event>
<event>
 9    1  0.1881049E-005  0.9354105E+02  0.7546771E-02  0.1296767E+00
         21   -1    0    0  501  502  0.00000000000E+00  0.00000000000E+00  0.13817964023E+03  0.13817964023E+03  0.00000000000E+00 0. -1.
          1   -1    0    0  502    0 -0.00000000000E+00 -0.00000000000E+00 -0.60387534774E+03  0.60387534774E+03  0.00000000000E+00 0. -1.
         23    2    1    2    0    0  0.60127052682E+01  0.94623963214E+01 -0.43553769400E+03  0.44535962675E+03  0.92338641304E+02 0.  0.
         23    2    1    2    0    0 -0.49676300938E+02  0.38601922614E+02 -0.13509962460E+03  0.17328778414E+03  0.88424568197E+02 0.  0.
        -11    1    4    4    0    0 -0.33911655216E+02 -0.82384094904E+01 -0.64730885953E+01  0.35493275791E+02  0.00000000000E+00 0.  1.
         11    1    4    4    0    0 -0.15764645721E+02  0.46840332104E+02 -0.12862653601E+03  0.13779450835E+03  0.00000000000E+00 0. -1.
        -13    1    3    3    0    0 -0.41904432804E+02  0.15512935303E+02 -0.21545082209E+03  0.22003565481E+03  0.00000000000E+00 0. -1.
         13    1    3    3    0    0  0.47917138072E+02 -0.60505389816E+01 -0.22008687192E+03  0.22532397194E+03  0.00000000000E+00 0.  1.
          1    1    1    2  501    0  0.43663595669E+02 -0.48064318935E+02  0.10494161110E+03  0.12340757708E+03  0.00000000000E+00 0. -1.
<scales pt_clust_5="13000.00000" pt_clust_6="13000.00000" pt_clust_7="13000.00000" pt_clust_8="13000.00000" pt_clust_9="64.93603"></scales>
<clustering>
<clus scale="   64.936">  1  9  2 -1</clus>
<clus scale="   88.425">  5  6 -1 -1</clus>
<clus scale="   89.679">  1  5  2 -1</clus>
<clus scale="   92.339">  7  8 -1 -1</clus>
<clus scale="   64.936">  1  5  2 -1</clus>
</clustering>
</event>
<event>
 9    1  0.1881049E-005  0.1214857E+03  0.7546771E-02  0.1243430E+00
         -1   -1    0    0    0  501 -0.00000000000E+00  0.00000000000E+00  0.20601729659E+03  0.20601729659E+03  0.00000000000E+00 0.  1.
         21   -1    0    0  501  502  0.00000000000E+00 -0.00000000000E+00 -0.30115958166E+03  0.30115958166E+03  0.00000000000E+00 0. -1.
         23    2    1    2    0    0 -0.15529279083E+02  0.71684019999E+02  0.14073176620E+03  0.18243272525E+03  0.89980620094E+02 0.  0.
         23    2    1    2    0    0  0.58337911453E+02 -0.34979896687E+02 -0.24009149583E+03  0.26819719454E+03  0.98279721733E+02 0.  0.
        -11    1    4    4    0    0  0.83358123606E+02 -0.25420850424E+02 -0.21282246659E+03  0.22997434356E+03  0.00000000000E+00 0. -1.
         11    1    4    4    0    0 -0.25020212153E+02 -0.95590462631E+01 -0.27269029232E+02  0.38222850979E+02  0.00000000000E+00 0.  1.
        -13    1    3    3    0    0 -0.18960010588E+02  0.12135988771E+02 -0.66214982937E+01  0.23465047722E+02  0.00000000000E+00 0. -1.
         13    1    3    3    0    0  0.34307315050E+01  0.59548031229E+02  0.14735326449E+03  0.15896767753E+03  0.00000000000E+00 0.  1.
         -1    1    1    2    0  502 -0.42808632369E+02 -0.36704123312E+02  0.42174445522E+01  0.56546958468E+02  0.00000000000E+00 0.  1.
<scales pt_clust_5="13000.00000" pt_clust_6="13000.00000" pt_clust_7="13000.00000" pt_clust_8="13000.00000" pt_clust_9="56.38949"></scales>
<clustering>
<clus scale="   56.389">  2  9  1 -1</clus>
<clus scale="   89.981">  7  8 -1 -1</clus>
<clus scale="   98.280">  5  6 -1 -1</clus>
<clus scale="  114.875">  1  7  2 -1</clus>
<clus scale="   56.389">  2  5  1 -1</clus>
</clustering>
</event>
<event>
 9    1  0.1881049E-005  0.9821059E+02  0.7546771E-02  0.1284542E+00
         21   -1    0    0  501  502  0.00000000000E+00  0.00000000000E+00  0.59205668656E+02  0.59205668656E+02  0.00000000000E+00 0.  1.
         -4   -1    0    0    0  501 -0.00000000000E+00 -0.00000000000E+00 -0.26768451654E+03  0.26768451654E+03  0.00000000000E+00 0.  1.
         23    2    1    2    0    0 -0.44600251552E+00 -0.38746276095E+02 -0.96491298322E+02  0.13787725845E+03  0.90543331704E+02 0.  0.
         23    2    1    2    0    0  0.43965781428E+02  0.18561629754E+02 -0.87022722268E+02  0.13493304411E+03  0.91413610398E+02 0.  0.
        -13    1    3    3    0    0  0.32632380655E+02 -0.44892214289E+02 -0.86512320042E+02  0.10278406827E+03  0.00000000000E+00 0.  1.
         13    1    3    3    0    0 -0.33078383171E+02  0.61459381938E+01 -0.99789782799E+01  0.35093190180E+02  0.00000000000E+00 0. -1.
        -13    1    4    4    0    0  0.61051605995E+00 -0.20373459000E+02 -0.71896457204E+02  0.74729854275E+02  0.00000000000E+00 0. -1.
         13    1    4    4    0    0  0.43355265368E+02  0.38935088754E+02 -0.15126265064E+02  0.60203189834E+02  0.00000000000E+00 0.  1.
         -4    1    1    2    0  502 -0.43519778913E+02  0.20184646341E+02 -0.24964827297E+02  0.54079882641E+02  0.00000000000E+00 0.  1.
<scales pt_clust_5="13000.00000" pt_clust_6="13000.00000" pt_clust_7="13000.00000" pt_clust_8="13000.00000" pt_clust_9="47.97282"></scales>
<clustering>
<clus scale="   47.973">  1  9  2 -1</clus>
<clus scale="   90.543">  5  6 -1 -1</clus>
<clus scale="   91.414">  7  8 -1 -1</clus>
<clus scale="   97.401">  2  5  1 -1</clus>
<clus scale="   47.973">  1  5  2 -1</clus>
</clustering>
</event>
<event>
 9    1  0.1881049E-005  0.4241854E+03  0.7546771E-02  0.1036075E+00
          1   -1    0    0  502    0 -0.00000000000E+00  0.00000000000E+00  0.15405570096E+04  0.15405570096E+04  0.00000000000E+00 0. -1.
         21   -1    0    0  501  502  0.00000000000E+00 -0.00000000000E+00 -0.31932216254E+03  0.31932216254E+03  0.00000000000E+00 0. -1.
         23    2    1    2    0    0 -0.29509433186E+03 -0.34564071441E+03  0.12284459990E+04  0.13127863177E+04  0.88205302632E+02 0.  0.
         23    2    1    2    0    0  0.13616298372E+03  0.26519071732E+03  0.10816219377E+03  0.33486094272E+03  0.10754680895E+03 0.  0.
        -11    1    4    4    0    0  0.55518138135E+02  0.19168311637E+03  0.32779380822E+02  0.20223542858E+03  0.00000000000E+00 0. -1.
         11    1    4    4    0    0  0.80644845581E+02  0.73507600946E+02  0.75382812944E+02  0.13262551415E+03  0.00000000000E+00 0.  1.
        -13    1    3    3    0    0 -0.24411111706E+03 -0.25036520938E+03  0.84731287618E+03  0.91663083392E+03  0.00000000000E+00 0.  1.
         13    1    3    3    0    0 -0.50983214802E+02 -0.95275505028E+02  0.38113312280E+03  0.39615548380E+03  0.00000000000E+00 0. -1.
          1    1    1    2  501    0  0.15893134814E+03  0.80449997092E+02 -0.11537334567E+03  0.21223191171E+03  0.00000000000E+00 0. -1.
<scales pt_clust_5="13000.00000" pt_clust_6="13000.00000" pt_clust_7="13000.00000" pt_clust_8="13000.00000" pt_clust_9="178.13303"></scales>
<clustering>
<clus scale="   88.205">  7  8 -1 -1</clus>
<clus scale="  107.547">  5  6 -1 -1</clus>
<clus scale="  178.133">  2  9  1 -1</clus>
<clus scale="  419.699">  1  7  2 -1</clus>
<clus scale="  178.133">  2  5  1 -1</clus>
</clustering>
</event>
<event>
 9    1  0.1881049E-005  0.1242608E+03  0.7546771E-02  0.1245328E+00
         21   -1    0    0  501  502  0.00000000000E+00  0.00000000000E+00  0.15536005099E+03  0.15536005099E+03  0.00000000000E+00 0.  1.
         -4   -1    0    0    0  501 -0.00000000000E+00 -0.00000000000E+00 -0.17033323565E+03  0.17033323565E+03  0.00000000000E+00 0.  1.
         23    2    1    2    0    0  0.38075759362E+02 -0.22894798810E+02 -0.68210644134E+02  0.12189902143E+03  0.90734470790E+02 0.  0.
         23    2    1    2    0    0 -0.75313469686E+02 -0.15609272761E+02  0.15779435718E+02  0.13843132355E+03  0.11401084438E+03 0.  0.
        -11    1    4    4    0    0  0.29159820385E+02 -0.12644192048E+02  0.11595259333E+02  0.33832244330E+02  0.00000000000E+00 0. -1.
         11    1    4    4    0    0 -0.10447329007E+03 -0.29650807133E+01  0.41841763851E+01  0.10459907922E+03  0.00000000000E+00 0.  1.
        -11    1    3    3    0    0  0.71159637528E+01 -0.53560021134E+02 -0.53158288304E+02  0.75796546224E+02  0.00000000000E+00 0.  1.
         11    1    3    3    0    0  0.30959795610E+02  0.30665222324E+02 -0.15052355829E+02  0.46102475209E+02  0.00000000000E+00 0. -1.
         -4    1    1    2    0  502  0.37237710324E+02  0.38504071572E+02  0.37458023760E+02  0.65362941655E+02  0.00000000000E+00 0.  1.
<scales pt_clust_5="13000.00000" pt_clust_6="13000.00000" pt_clust_7="13000.00000" pt_clust_8="13000.00000" pt_clust_9="53.56501"></scales>
<clustering>
<clus scale="   53.565">  1  9  2 -1</clus>
<clus scale="   90.734">  7  8 -1 -1</clus>
<clus scale="  103.320">  2  7  1 -1</clus>
<clus scale="  114.011">  5  6 -1 -1</clus>
<clus scale="   53.565">  1  5  2 -1</clus>
</clustering>
</event>
<event>
 9    1  0.1881049E-005  0.4168686E+03  0.7546771E-02  0.1038151E+00
         -3   -1    0    0    0  501 -0.00000000000E+00  0.00000000000E+00  0.73608114005E+03  0.73608114005E+03  0.00000000000E+00 0.  1.
         21   -1    0    0  501  502  0.00000000000E+00 -0.00000000000E+00 -0.43346230234E+03  0.43346230234E+03  0.00000000000E+00 0. -1.
         23    2    1    2    0    0  0.11300100483E+03 -0.38568038852E+03  0.42219312565E+03  0.58951517463E+03  0.88105145085E+02 0.  0.
         23    2    1    2    0    0 -0.82480316795E+02  0.41121933911E+03  0.25061618674E+02  0.43001728192E+03  0.91555614226E+02 0.  0.
        -13    1    3    3    0    0  0.11629866072E+03 -0.25010338953E+03  0.28297652652E+03  0.39516173715E+03  0.00000000000E+00 0.  1.
         13    1    3    3    0    0 -0.32976558938E+01 -0.13557699898E+03  0.13921659913E+03  0.19435343748E+03  0.00000000000E+00 0. -1.
        -13    1    4    4    0    0 -0.53639246324E+02  0.15090681603E+03 -0.28550072869E+02  0.16268110687E+03  0.00000000000E+00 0. -1.
         13    1    4    4    0    0 -0.28841070472E+02  0.26031252308E+03  0.53611691543E+02  0.26733617505E+03  0.00000000000E+00 0.  1.
         -3    1    1    2    0  502 -0.30520688034E+02 -0.25538950595E+02 -0.14463590661E+03  0.15001098585E+03  0.00000000000E+00 0.  1.
<scales pt_clust_5="13000.00000" pt_clust_6="13000.00000" pt_clust_7="13000.00000" pt_clust_8="13000.00000" pt_clust_9="39.79636"></scales>
<clustering>
<clus scale="   39.796">  2  9  1 -1</clus>
<clus scale="   88.105">  5  6 -1 -1</clus>
<clus scale="   91.556">  7  8 -1 -1</clus>
<clus scale="  416.124">  1  5  2 -1</clus>
<clus scale="   39.796">  2  5  1 -1</clus>
</clustering>
</event>
<event>
 9    1  0.3560154E-005  0.1243900E+03  0.7546771E-02  0.1236424E+00
         -4   -1    0    0    0  501 -0.00000000000E+00  0.00000000000E+00  0.47021532774E+03  0.47021532774E+03  0.00000000000E+00 0.  1.
         21   -1    0    0  501  502  0.00000000000E+00 -0.00000000000E+00 -0.35283765154E+03  0.35283765154E+03  0.00000000000E+00 0.  1.
         23    2    1    2    0    0  0.91567490002E+02 -0.86568170214E+01  0.32357524502E+03  0.34875561946E+03  0.92032587752E+02 0.  0.
         23    2    1    2    0    0 -0.67703121623E+02 -0.25233434085E+02  0.10736177667E+03  0.15801027449E+03  0.90665632309E+02 0.  0.
        -11    1    3    3    0    0  0.55678114554E+02 -0.56573725660E+01  0.30120262700E+03  0.30635776605E+03  0.00000000000E+00 0.  1.
         11    1    3    3    0    0  0.35889375448E+02 -0.29994444554E+01  0.22372618022E+02  0.42397853416E+02  0.00000000000E+00 0. -1.
        -11    1    4    4    0    0  0.11111846966E+02  0.16667155598E+02  0.23203751552E+01  0.20165598419E+02  0.00000000000E+00 0.  1.
         11    1    4    4    0    0 -0.78814968589E+02 -0.41900589683E+02  0.10504140151E+03  0.13784467607E+03  0.00000000000E+00 0. -1.
         -4    1    1    2    0  502 -0.23864368379E+02  0.33890251106E+02 -0.31355934549E+03  0.31628708532E+03  0.00000000000E+00 0.  1.
<scales pt_clust_5="13000.00000" pt_clust_6="13000.00000" pt_clust_7="13000.00000" pt_clust_8="13000.00000" pt_clust_9="41.44945"></scales>
<clustering>
<clus scale="   41.449">  2  9  1 -1</clus>
<clus scale="   90.666">  7  8 -1 -1</clus>
<clus scale="   92.033">  5  6 -1 -1</clus>
<clus scale="  123.382">  2  7  1 -1</clus>
<clus scale="   41.449">  2  5  1 -1</clus>
</clustering>
</event>
<event>
 9    1  0.1881049E-005  0.1007971E+03  0.7546771E-02  0.1285622E+00
          1   -1    0    0  502    0 -0.00000000000E+00  0.00000000000E+00  0.61170763908E+03  0.61170763908E+03  0.00000000000E+00 0. -1.
         21   -1    0    0  501  502  0.00000000000E+00 -0.00000000000E+00 -0.28025229486E+02  0.28025229486E+02  0.00000000000E+00 0.  1.
         23    2    1    2    0    0  0.15330068042E+02  0.19400074503E+02  0.30344011757E+03  0.32002572685E+03  0.98636641354E+02 0.  0.
         23    2    1    2    0    0  0.20509096256E+02 -0.21438754792E+02  0.26603781772E+03  0.28110184409E+03  0.85801416399E+02 0.  0.
        -11    1    4    4    0    0 -0.41114224765E+01  0.30259930214E+02  0.60982940375E+02  0.68201804874E+02  0.00000000000E+00 0. -1.
         11    1    4    4    0    0  0.24620518733E+02 -0.51698685006E+02  0.20505487735E+03  0.21290003922E+03  0.00000000000E+00 0.  1.
        -13    1    3    3    0    0  0.29050476328E+02 -0.32397869571E+02  0.90080054029E+02  0.10003983337E+03  0.00000000000E+00 0.  1.
         13    1    3    3    0    0 -0.13720408287E+02  0.51797944074E+02  0.21336006354E+03  0.21998589347E+03  0.00000000000E+00 0. -1.
          1    1    1    2  501    0 -0.35839164297E+02  0.20386802894E+01  0.14204474306E+02  0.38605297631E+02  0.00000000000E+00 0. -1.
<scales pt_clust_5="13000.00000" pt_clust_6="13000.00000" pt_clust_7="13000.00000" pt_clust_8="13000.00000" pt_clust_9="35.89710"></scales>
<clustering>
<clus scale="   35.897">  2  9  1 -1</clus>
<clus scale="   85.801">  5  6 -1 -1</clus>
<clus scale="   88.277">  2  5  1 -1</clus>
<clus scale="   98.637">  7  8 -1 -1</clus>
<clus scale="   35.897">  2  5  1 -1</clus>
</clustering>
</event>
<event>
 9    1  0.1881049E-005  0.1143441E+03  0.7546771E-02  0.1252949E+00
         -3   -1    0    0    0  501 -0.00000000000E+00  0.00000000000E+00  0.17692303183E+03  0.17692303183E+03  0.00000000000E+00 0.  1.
         21   -1    0    0  501  502  0.00000000000E+00 -0.00000000000E+00 -0.34750102627E+03  0.34750102627E+03  0.00000000000E+00 0. -1.
         23    2    1    2    0    0 -0.39302116866E+02  0.47480789114E+02  0.10023223542E+03  0.14974556944E+03  0.92618317986E+02 0.  0.
         23    2    1    2    0    0  0.13000888556E+03 -0.12745419854E+02 -0.15009177753E+03  0.21973589123E+03  0.93228558721E+02 0.  0.
        -11    1    3    3    0    0  0.14724006259E+02  0.54494085692E+02  0.45279231908E+02  0.72364428955E+02  0.00000000000E+00 0. -1.
         11    1    3    3    0    0 -0.54026123125E+02 -0.70132965786E+01  0.54953003508E+02  0.77381140489E+02  0.00000000000E+00 0.  1.
        -13    1    4    4    0    0  0.74369122523E+02 -0.28413365184E+02 -0.27548474900E+02  0.84243718907E+02  0.00000000000E+00 0. -1.
         13    1    4    4    0    0  0.55639763036E+02  0.15667945329E+02 -0.12254330263E+03  0.13549217232E+03  0.00000000000E+00 0.  1.
         -3    1    1    2    0  502 -0.90706768693E+02 -0.34735369259E+02 -0.12071845233E+03  0.15494259742E+03  0.00000000000E+00 0.  1.
<scales pt_clust_5="13000.00000" pt_clust_6="13000.00000" pt_clust_7="13000.00000" pt_clust_8="13000.00000" pt_clust_9="97.13014"></scales>
<clustering>
<clus scale="   92.618">  5  6 -1 -1</clus>
<clus scale="   93.229">  7  8 -1 -1</clus>
<clus scale="   97.130">  2  9  1 -1</clus>
<clus scale="  113.847">  1  5  2 -1</clus>
<clus scale="   97.130">  2  5  1 -1</clus>
</clustering>
</event>
<event>
 9    1  0.1881049E-005  0.1175817E+03  0.7546771E-02  0.1247286E+00
          1   -1    0    0  502    0 -0.00000000000E+00  0.00000000000E+00  0.72539430799E+03  0.72539430799E+03  0.00000000000E+00 0. -1.
         21   -1    0    0  501  502  0.00000000000E+00 -0.00000000000E+00 -0.25974926089E+02  0.25974926089E+02  0.00000000000E+00 0.  1.
         23    2    1    2    0    0  0.74767004132E+02 -0.43220440403E+02  0.40900947391E+03  0.42761369803E+03  0.90036734810E+02 0.  0.
         23    2    1    2    0    0 -0.56284084916E+02  0.26525440501E+02  0.27026340890E+03  0.29172082441E+03  0.90483324402E+02 0.  0.
        -11    1    4    4    0    0 -0.43449428005E+02 -0.29000337768E+02  0.14432249504E+03  0.15348568324E+03  0.00000000000E+00 0.  1.
         11    1    4    4    0    0 -0.12834656911E+02  0.55525778269E+02  0.12594091386E+03  0.13823514117E+03  0.00000000000E+00 0. -1.
        -13    1    3    3    0    0  0.75008662784E+02  0.49646459394E+01  0.21705903684E+03  0.22970758080E+03  0.00000000000E+00 0. -1.
         13    1    3    3    0    0 -0.24165865206E+00 -0.48185086343E+02  0.19195043707E+03  0.19790611723E+03  0.00000000000E+00 0.  1.
          1    1    1    2  501    0 -0.18482919216E+02  0.16694999903E+02  0.20146499086E+02  0.32034711641E+02  0.00000000000E+00 0. -1.
<scales pt_clust_5="13000.00000" pt_clust_6="13000.00000" pt_clust_7="13000.00000" pt_clust_8="13000.00000" pt_clust_9="24.90665"></scales>
<clustering>
<clus scale="   24.907">  2  9  1 -1</clus>
<clus scale="   90.037">  7  8 -1 -1</clus>
<clus scale="   90.483">  5  6 -1 -1</clus>
<clus scale="  117.238">  1  7  2 -1</clus>
<clus scale="   24.907">  2  5  1 -1</clus>
</clustering>
</event>
<event>
 9    1  0.1881049E-005  0.1005147E+03  0.7546771E-02  0.1280743E+00
          2   -1    0    0  502    0 -0.00000000000E+00  0.00000000000E+00  0.14420496842E+03  0.14420496842E+03  0.00000000000E+00 0. -1.
         21   -1    0    0  501  502  0.00000000000E+00 -0.00000000000E+00 -0.19956389325E+03  0.19956389325E+03  0.00000000000E+00 0. -1.
         23    2    1    2    0    0  0.28301727554E+02 -0.30972935398E+02  0.54727627916E+02  0.11218024250E+03  0.88481540677E+02 0.  0.
         23    2    1    2    0    0 -0.42271967069E+02  0.12481324871E+02  0.16390102090E+02  0.10300614963E+03  0.91645669539E+02 0.  0.
        -11    1    4    4    0    0  0.28833901598E+02 -0.27464982602E+01  0.53606881581E+01  0.29456308519E+02  0.00000000000E+00 0.  1.
         11    1    4    4    0    0 -0.71105868667E+02  0.15227823131E+02  0.11029413932E+02  0.73549841113E+02  0.00000000000E+00 0. -1.
        -13    1    3    3    0    0  0.29185223427E+02 -0.47139816625E+01  0.73940141279E+02  0.79631296498E+02  0.00000000000E+00 0. -1.
         13    1    3    3    0    0 -0.88349587277E+00 -0.26258953736E+02 -0.19212513362E+02  0.32548946004E+02  0.00000000000E+00 0.  1.
          2    1    1    2  501    0  0.13970239515E+02  0.18491610527E+02 -0.12647665484E+03  0.12858246954E+03  0.00000000000E+00 0. -1.
<scales pt_clust_5="13000.00000" pt_clust_6="13000.00000" pt_clust_7="13000.00000" pt_clust_8="13000.00000" pt_clust_9="23.17557"></scales>
<clustering>
<clus scale="   23.176">  2  9  1 -1</clus>
<clus scale="   88.482">  7  8 -1 -1</clus>
<clus scale="   91.646">  5  6 -1 -1</clus>
<clus scale="   97.638">  1  7  2 -1</clus>
<clus scale="   23.176">  2  5  1 -1</clus>
</clustering>
</event>
<event>
 9    1  0.1881049E-005  0.1211161E+03  0.7546771E-02  0.1242962E+00
         -1   -1    0    0    0  501 -0.00000000000E+00  0.00000000000E+00  0.27576282239E+03  0.27576282239E+03  0.00000000000E+00 0.  1.
         21   -1    0    0  501  502  0.00000000000E+00 -0.00000000000E+00 -0.91848482532E+02  0.91848482532E+02  0.00000000000E+00 0.  1.
         23    2    1    2    0    0 -0.29067267377E+02  0.78905218051E+02  0.17066599266E+03  0.20837578868E+03  0.84986168219E+02 0.  0.
         23    2    1    2    0    0  0.53705496741E+02 -0.54411505771E+02  0.27570541884E+02  0.12165747016E+03  0.90529072265E+02 0.  0.
        -11    1    4    4    0    0 -0.26142177992E+01 -0.40977243614E+02 -0.20967218355E+02  0.46104152465E+02  0.00000000000E+00 0. -1.
         11    1    4    4    0    0  0.56319714540E+02 -0.13434262157E+02  0.48537760239E+02  0.75553317695E+02  0.00000000000E+00 0.  1.
        -13    1    3    3    0    0 -0.20213291578E+02  0.39403525252E+02  0.13823031063E+02  0.46392791967E+02  0.00000000000E+00 0. -1.
         13    1    3    3    0    0 -0.88539757989E+01  0.39501692799E+02  0.15684296160E+03  0.16198299671E+03  0.00000000000E+00 0.  1.
         -1    1    1    2    0  502 -0.24638229364E+02 -0.24493712279E+02 -0.14322194680E+02  0.37578046089E+02  0.00000000000E+00 0.  1.
<scales pt_clust_5="13000.00000" pt_clust_6="13000.00000" pt_clust_7="13000.00000" pt_clust_8="13000.00000" pt_clust_9="34.74168"></scales>
<clustering>
<clus scale="   34.742">  2  9  1 -1</clus>
<clus scale="   84.986">  7  8 -1 -1</clus>
<clus scale="   90.529">  5  6 -1 -1</clus>
<clus scale="  117.031">  1  7  2 -1</clus>
<clus scale="   34.742">  2  5  1 -1</clus>
</clustering>
</event>
<event>
 9    1  0.1881049E-005  0.1038227E+03  0.7546771E-02  0.1273414E+00
         21   -1    0    0  501  502  0.00000000000E+00  0.00000000000E+00  0.16420165938E+03  0.16420165938E+03  0.00000000000E+00 0. -1.
          1   -1    0    0  502    0 -0.00000000000E+00 -0.00000000000E+00 -0.29069410005E+03  0.29069410005E+03  0.00000000000E+00 0. -1.
         23    2    1    2    0    0 -0.27384451450E+02  0.32324676188E+02 -0.16228415148E+03  0.19137019415E+03  0.92149945835E+02 0.  0.
         23    2    1    2    0    0  0.11095229474E+02 -0.61754720564E+02 -0.84584400778E+02  0.13853806789E+03  0.90008476103E+02 0.  0.
        -11    1    4    4    0    0  0.27722762084E-01  0.21652881551E+02 -0.34166469434E+02  0.40449915718E+02  0.00000000000E+00 0. -1.
         11    1    4    4    0    0  0.11067506712E+02 -0.83407602115E+02 -0.50417931343E+02  0.98088152171E+02  0.00000000000E+00 0.  1.
        -13    1    3    3    0    0 -0.34963251246E+02  0.72588311873E+01 -0.10325463051E+02  0.37171692928E+02  0.00000000000E+00 0.  1.
         13    1    3    3    0    0  0.75787997958E+01  0.25065845001E+02 -0.15195868842E+03  0.15419850122E+03  0.00000000000E+00 0. -1.
          1    1    1    2  501    0  0.16289221976E+02  0.29430044376E+02  0.12037611158E+03  0.12498749739E+03  0.00000000000E+00 0. -1.
<scales pt_clust_5="13000.00000" pt_clust_6="13000.00000" pt_clust_7="13000.00000" pt_clust_8="13000.00000" pt_clust_9="33.63727"></scales>
<clustering>
<clus scale="   33.637">  1  9  2 -1</clus>
<clus scale="   90.008">  5  6 -1 -1</clus>
<clus scale="   92.150">  7  8 -1 -1</clus>
<clus scale="  101.927">  1  5  2 -1</clus>
<clus scale="   33.637">  1  5  2 -1</clus>
</clustering>
</event>
<event>
 9    1  0.1881049E-005  0.9302667E+02  0.7546771E-02  0.1306163E+00
         21   -1    0    0  501  502  0.00000000000E+00  0.00000000000E+00  0.18214200547E+03  0.18214200547E+03  0.00000000000E+00 0. -1.
          1   -1    0    0  502    0 -0.00000000000E+00 -0.00000000000E+00 -0.14762747103E+03  0.14762747103E+03  0.00000000000E+00 0. -1.
         23    2    1    2    0    0  0.13765756635E+02  0.20160195455E+02 -0.11568290887E+03  0.13910896411E+03  0.73299651804E+02 0.  0.
         23    2    1    2    0    0  0.99464073591E+01 -0.97944966716E+01  0.11170313391E+03  0.14427596444E+03  0.90239130119E+02 0.  0.
        -11    1    3    3    0    0 -0.64238547879E+01 -0.25450001276E+02 -0.29120745583E+02  0.39204416825E+02  0.00000000000E+00 0.  1.
         11    1    3    3    0    0  0.20189611423E+02  0.45610196731E+02 -0.86562163285E+02  0.99904547283E+02  0.00000000000E+00 0. -1.
        -13    1    4    4    0    0  0.16209448799E+02  0.23634447606E+02  0.10598078320E+03  0.10978733876E+03  0.00000000000E+00 0. -1.
         13    1    4    4    0    0 -0.62630414400E+01 -0.33428944278E+02  0.57223507109E+01  0.34488625680E+02  0.00000000000E+00 0.  1.
          1    1    1    2  501    0 -0.23712163994E+02 -0.10365698784E+02  0.38494309407E+02  0.46384547958E+02  0.00000000000E+00 0. -1.
<scales pt_clust_5="13000.00000" pt_clust_6="13000.00000" pt_clust_7="13000.00000" pt_clust_8="13000.00000" pt_clust_9="25.87884"></scales>
<clustering>
<clus scale="   25.879">  1  9  2 -1</clus>
<clus scale="   73.300">  5  6 -1 -1</clus>
<clus scale="   76.705">  2  5  1 -1</clus>
<clus scale="   90.239">  7  8 -1 -1</clus>
<clus scale="   25.879">  1  5  2 -1</clus>
</clustering>
</event>
<event>
 9    1  0.1881049E-005  0.1257748E+03  0.7546771E-02  0.1246543E+00
          4   -1    0    0  502    0 -0.00000000000E+00  0.00000000000E+00  0.82395927890E+02  0.82395927890E+02  0.00000000000E+00 0. -1.
         21   -1    0    0  501  502  0.00000000000E+00 -0.00000000000E+00 -0.37285880312E+03  0.37285880312E+03  0.00000000000E+00 0. -1.
         23    2    1    2    0    0 -0.22547334703E+02  0.36167871228E+02 -0.46910771326E+02  0.10476872755E+03  0.83422830174E+02 0.  0.
         23    2    1    2    0    0 -0.41147964605E+02 -0.68680997548E+02 -0.58647910054E+02  0.15223425583E+03  0.11543594275E+03 0.  0.
        -13    1    4    4    0    0  0.26024290385E+02  0.79140955082E+01  0.10445255819E+02  0.29137604000E+02  0.00000000000E+00 0.  1.
         13    1    4    4    0    0 -0.67172254990E+02 -0.76595093056E+02 -0.69093165873E+02  0.12309665183E+03  0.00000000000E+00 0. -1.
        -13    1    3    3    0    0 -0.21107108134E+02  0.27852201978E+01 -0.63850448893E+02  0.67306368860E+02  0.00000000000E+00 0. -1.
         13    1    3    3    0    0 -0.14402265695E+01  0.33382651030E+02  0.16939677567E+02  0.37462358688E+02  0.00000000000E+00 0.  1.
          4    1    1    2  501    0  0.63695299308E+02  0.32513126320E+02 -0.18490419385E+03  0.19825174764E+03  0.00000000000E+00 0. -1.
<scales pt_clust_5="13000.00000" pt_clust_6="13000.00000" pt_clust_7="13000.00000" pt_clust_8="13000.00000" pt_clust_9="71.51360"></scales>
<clustering>
<clus scale="   71.514">  2  9  1 -1</clus>
<clus scale="   83.423">  7  8 -1 -1</clus>
<clus scale="   97.228">  1  7  2 -1</clus>
<clus scale="  115.436">  5  6 -1 -1</clus>
<clus scale="   71.514">  2  5  1 -1</clus>
</clustering>
</event>
<event>
 9    1  0.1881049E-005  0.2671221E+03  0.7546771E-02  0.1142094E+00
          2   -1    0    0  502    0 -0.00000000000E+00  0.00000000000E+00  0.38246745604E+03  0.38246745604E+03  0.00000000000E+00 0. -1.
         21   -1    0    0  501  502  0.00000000000E+00 -0.00000000000E+00 -0.37068913203E+03  0.37068913203E+03  0.00000000000E+00 0. -1.
         23    2    1    2    0    0  0.23047627007E+02 -0.37453239746E+02  0.17965693937E+03  0.20597726500E+03  0.90642592382E+02 0.  0.
         23    2    1    2    0    0  0.18119904605E+03 -0.14232630372E+03 -0.80523471958E+02  0.26140264665E+03  0.93581211345E+02 0.  0.
        -13    1    4    4    0    0  0.11838085950E+03 -0.11216493379E+03 -0.11759571410E+02  0.16350317363E+03  0.00000000000E+00 0. -1.
         13    1    4    4    0    0  0.62818186556E+02 -0.30161369930E+02 -0.68763900549E+02  0.97899473017E+02  0.00000000000E+00 0.  1.
        -13    1    3    3    0    0 -0.25146656060E+02 -0.39334827628E+02  0.54007853089E+02  0.71389293111E+02  0.00000000000E+00 0.  1.
         13    1    3    3    0    0  0.48194283067E+02  0.18815878823E+01  0.12564908628E+03  0.13458797189E+03  0.00000000000E+00 0. -1.
          2    1    1    2  501    0 -0.20424667306E+03  0.17977954347E+03 -0.87355143398E+02  0.28577667642E+03  0.00000000000E+00 0. -1.
<scales pt_clust_5="13000.00000" pt_clust_6="13000.00000" pt_clust_7="13000.00000" pt_clust_8="13000.00000" pt_clust_9="250.19360"></scales>
<clustering>
<clus scale="   90.643">  7  8 -1 -1</clus>
<clus scale="   93.581">  5  6 -1 -1</clus>
<clus scale="  100.747">  1  7  2 -1</clus>
<clus scale="  250.194">  2  9  1 -1</clus>
<clus scale="  250.194">  2  5  1 -1</clus>
</clustering>
</event>
<event>
 9    1  0.1881049E-005  0.1022433E+03  0.7546771E-02  0.1277535E+00
         21   -1    0    0  501  502  0.00000000000E+00  0.00000000000E+00  0.26612268443E+03  0.26612268443E+03  0.00000000000E+00 0. -1.
         -2   -1    0    0    0  501 -0.00000000000E+00 -0.00000000000E+00 -0.51767549042E+02  0.51767549042E+02  0.00000000000E+00 0.  1.
         23    2    1    2    0    0  0.26975607642E+02 -0.62940123463E+01  0.64961913840E+02  0.11574221509E+03  0.91700120531E+02 0.  0.
         23    2    1    2    0    0 -0.47246453883E+02  0.43085541604E+01  0.90804062466E+02  0.14011948613E+03  0.95589233645E+02 0.  0.
        -13    1    3    3    0    0 -0.13064178653E+02  0.30885489723E+02  0.47954363102E+02  0.58516725642E+02  0.00000000000E+00 0.  1.
         13    1    3    3    0    0  0.40039786295E+02 -0.37179502069E+02  0.17007550738E+02  0.57225489450E+02  0.00000000000E+00 0. -1.
        -13    1    4    4    0    0 -0.20167364567E+02  0.21157216453E+02  0.10216464202E+03  0.10626365551E+03  0.00000000000E+00 0. -1.
         13    1    4    4    0    0 -0.27079089315E+02 -0.16848662293E+02 -0.11360579558E+02  0.33855830622E+02  0.00000000000E+00 0.  1.
         -2    1    1    2    0  502  0.20270846241E+02  0.19854581858E+01  0.58589159080E+02  0.62028532251E+02  0.00000000000E+00 0.  1.
<scales pt_clust_5="13000.00000" pt_clust_6="13000.00000" pt_clust_7="13000.00000" pt_clust_8="13000.00000" pt_clust_9="20.36785"></scales>
<clustering>
<clus scale="   20.368">  1  9  2 -1</clus>
<clus scale="   91.700">  5  6 -1 -1</clus>
<clus scale="   95.589">  7  8 -1 -1</clus>
<clus scale="   98.617">  2  5  1 -1</clus>
<clus scale="   20.368">  1  5  2 -1</clus>
</clustering>
</event>
<event>
 9    1  0.1881049E-005  0.1080246E+03  0.7546771E-02  0.1264762E+00
         21   -1    0    0  501  502  0.00000000000E+00  0.00000000000E+00  0.29528503485E+02  0.29528503485E+02  0.00000000000E+00 0. -1.
         -1   -1    0    0    0  501 -0.00000000000E+00 -0.00000000000E+00 -0.75847368604E+03  0.75847368604E+03  0.00000000000E+00 0.  1.
         23    2    1    2    0    0 -0.65850821175E+02  0.37230302686E+02 -0.49845798457E+03  0.51221922903E+03  0.90475135372E+02 0.  0.
         23    2    1    2    0    0  0.16112881598E+02 -0.11078946649E+02 -0.11116919315E+03  0.14389458976E+03  0.89245142418E+02 0.  0.
        -11    1    4    4    0    0  0.37363663832E+02 -0.36376642052E+02 -0.40994630305E+02  0.66331464448E+02  0.00000000000E+00 0.  1.
         11    1    4    4    0    0 -0.21250782234E+02  0.25297695403E+02 -0.70174562843E+02  0.77563125314E+02  0.00000000000E+00 0. -1.
        -13    1    3    3    0    0 -0.87218990307E+02  0.39393866200E+02 -0.42753892260E+03  0.43811934368E+03  0.00000000000E+00 0. -1.
         13    1    3    3    0    0  0.21368169132E+02 -0.21635635143E+01 -0.70919061970E+02  0.74099885356E+02  0.00000000000E+00 0.  1.
         -1    1    1    2    0  502  0.49737939577E+02 -0.26151356037E+02 -0.11931800484E+03  0.13188837073E+03  0.00000000000E+00 0.  1.
<scales pt_clust_5="13000.00000" pt_clust_6="13000.00000" pt_clust_7="13000.00000" pt_clust_8="13000.00000" pt_clust_9="56.19391"></scales>
<clustering>
<clus scale="   56.194">  1  9  2 -1</clus>
<clus scale="   89.245">  5  6 -1 -1</clus>
<clus scale="   90.475">  7  8 -1 -1</clus>
<clus scale="  106.997">  1  5  2 -1</clus>
<clus scale="   56.194">  1  5  2 -1</clus>
</clustering>
</event>
<event>
 9    1  0.1881049E-005  0.1109586E+03  0.7546771E-02  0.1261943E+00
          1   -1    0    0  502    0 -0.00000000000E+00  0.00000000000E+00  0.39743948902E+03  0.39743948902E+03  0.00000000000E+00 0. -1.
         21   -1    0    0  501  502  0.00000000000E+00 -0.00000000000E+00 -0.70332753282E+02  0.70332753282E+02  0.00000000000E+00 0. -1.
         23    2    1    2    0    0  0.12297036703E+02  0.27556659092E+01  0.20743852490E+03  0.23526097123E+03  0.11026410188E+03 0.  0.
         23    2    1    2    0    0  0.53162610673E+02  0.32179804311E+02  0.97013866896E+02  0.15493117174E+03  0.10358655621E+03 0.  0.
        -13    1    4    4    0    0 -0.13068366371E+02  0.21928062105E+02  0.82498565094E+02  0.86357601575E+02  0.00000000000E+00 0.  1.
         13    1    4    4    0    0  0.66230977044E+02  0.10251742206E+02  0.14515301802E+02  0.68573570163E+02  0.00000000000E+00 0. -1.
        -13    1    3    3    0    0  0.60805008513E+02 -0.47331092879E+01  0.12970375840E+03  0.14332730489E+03  0.00000000000E+00 0. -1.
         13    1    3    3    0    0 -0.48507971811E+02  0.74887751971E+01  0.77734766504E+02  0.91933666339E+02  0.00000000000E+00 0.  1.
          1    1    1    2  501    0 -0.65459647376E+02 -0.34935470220E+02  0.22654343942E+02  0.77580099339E+02  0.00000000000E+00 0. -1.
<scales pt_clust_5="13000.00000" pt_clust_6="13000.00000" pt_clust_7="13000.00000" pt_clust_8="13000.00000" pt_clust_9="74.19874"></scales>
<clustering>
<clus scale="   74.199">  2  9  1 -1</clus>
<clus scale="  103.587">  5  6 -1 -1</clus>
<clus scale="  104.326">  2  5  1 -1</clus>
<clus scale="  110.264">  7  8 -1 -1</clus>
<clus scale="   74.199">  2  5  1 -1</clus>
</clustering>
</event>
<event>
 9    1  0.1881049E-005  0.1178606E+03  0.7546771E-02  0.1247559E+00
          1   -1    0    0  502    0 -0.00000000000E+00  0.00000000000E+00  0.44113085282E+02  0.44113085282E+02  0.00000000000E+00 0. -1.
         21   -1    0    0  501  502  0.00000000000E+00 -0.00000000000E+00 -0.54598944099E+03  0.54598944099E+03  0.00000000000E+00 0.  1.
         23    2    1    2    0    0  0.49558753018E+02  0.47886896896E+02 -0.81080109005E+02  0.13937357528E+03  0.90009913426E+02 0.  0.
         23    2    1    2    0    0 -0.49162474688E+02 -0.73562916738E+02 -0.39065784021E+03  0.41113427234E+03  0.92678962778E+02 0.  0.
        -11    1    3    3    0    0  0.63684334895E+02  0.94490024750E+01 -0.23121735755E+02  0.68407549460E+02  0.00000000000E+00 0. -1.
         11    1    3    3    0    0 -0.14125581877E+02  0.38437894421E+02 -0.57958373249E+02  0.70966025819E+02  0.00000000000E+00 0.  1.
        -13    1    4    4    0    0 -0.15910941299E+02 -0.89232712896E+02 -0.29692154979E+03  0.31044813066E+03  0.00000000000E+00 0. -1.
         13    1    4    4    0    0 -0.33251533390E+02  0.15669796158E+02 -0.93736290424E+02  0.10068614168E+03  0.00000000000E+00 0.  1.
          1    1    1    2  501    0 -0.39627832962E+00  0.25676019842E+02 -0.30138406497E+02  0.39594678653E+02  0.00000000000E+00 0. -1.
<scales pt_clust_5="13000.00000" pt_clust_6="13000.00000" pt_clust_7="13000.00000" pt_clust_8="13000.00000" pt_clust_9="25.67909"></scales>
<clustering>
<clus scale="   25.679">  2  9  1 -1</clus>
<clus scale="   90.010">  5  6 -1 -1</clus>
<clus scale="   92.679">  7  8 -1 -1</clus>
<clus scale="  115.774">  1  5  2 -1</clus>
<clus scale="   25.679">  2  5  1 -1</clus>
</clustering>
</event>
<event>
 9    1  0.1881049E-005  0.1093711E+03  0.7546771E-02  0.1262431E+00
         21   -1    0    0  501  502  0.00000000000E+00  0.00000000000E+00  0.34499310324E+02  0.34499310324E+02  0.00000000000E+00 0.  1.
          4   -1    0    0  502    0 -0.00000000000E+00 -0.00000000000E+00 -0.48843388608E+03  0.48843388608E+03  0.00000000000E+00 0. -1.
         23    2    1    2    0    0 -0.52554543620E+02  0.44331087303E+01 -0.26076684057E+03  0.28050503609E+03  0.88893743424E+02 0.  0.
         23    2    1    2    0    0  0.77064692024E+02  0.13374370976E+01 -0.17389680117E+03  0.21071987320E+03  0.90675310926E+02 0.  0.
        -11    1    3    3    0    0 -0.27012171679E+01 -0.37406577678E+02 -0.79340783955E+02  0.87758239650E+02  0.00000000000E+00 0.  1.
         11    1    3    3    0    0 -0.49853326453E+02  0.41839686409E+02 -0.18142605662E+03  0.19274679644E+03  0.00000000000E+00 0. -1.
        -11    1    4    4    0    0  0.12132208749E+02 -0.40146467798E+02 -0.59699972324E+02  0.72959002606E+02  0.00000000000E+00 0.  1.
         11    1    4    4    0    0  0.64932483275E+02  0.41483904896E+02 -0.11419682884E+03  0.13776087060E+03  0.00000000000E+00 0. -1.
          4    1    1    2  501    0 -0.24510148404E+02 -0.57705458279E+01 -0.19270934018E+02  0.31708287116E+02  0.00000000000E+00 0. -1.
<scales pt_clust_5="13000.00000" pt_clust_6="13000.00000" pt_clust_7="13000.00000" pt_clust_8="13000.00000" pt_clust_9="25.18028"></scales>
<clustering>
<clus scale="   25.180">  1  9  2 -1</clus>
<clus scale="   88.894">  5  6 -1 -1</clus>
<clus scale="   90.675">  7  8 -1 -1</clus>
<clus scale="  107.899">  2  5  1 -1</clus>
<clus scale="   25.180">  1  5  2 -1</clus>
</clustering>
</event>
<event>
 9    1  0.1881049E-005  0.1071061E+03  0.7546771E-02  0.1266049E+00
         21   -1    0    0  501  502  0.00000000000E+00  0.00000000000E+00  0.48570525161E+02  0.48570525161E+02  0.00000000000E+00 0. -1.
          2   -1    0    0  502    0 -0.00000000000E+00 -0.00000000000E+00 -0.66539693164E+03  0.66539693164E+03  0.00000000000E+00 0. -1.
         23    2    1    2    0    0 -0.56086964511E+02 -0.15347413590E+02 -0.56335034832E+03  0.57380765924E+03  0.92251418222E+02 0.  0.
         23    2    1    2    0    0  0.29510600785E+02  0.19498873894E+02 -0.55342724212E+02  0.11319644885E+03  0.92192935015E+02 0.  0.
        -11    1    4    4    0    0  0.35288022352E+02  0.44688951998E+02 -0.56960173332E+01  0.57225794583E+02  0.00000000000E+00 0. -1.
         11    1    4    4    0    0 -0.57774215675E+01 -0.25190078104E+02 -0.49646706878E+02  0.55970654264E+02  0.00000000000E+00 0.  1.
        -13    1    3    3    0    0 -0.22330932211E+02  0.39046942484E+02 -0.24107167459E+03  0.24523231137E+03  0.00000000000E+00 0.  1.
         13    1    3    3    0    0 -0.33756032300E+02 -0.54394356074E+02 -0.32227867373E+03  0.32857534787E+03  0.00000000000E+00 0. -1.
          2    1    1    2  501    0  0.26576363726E+02 -0.41514603036E+01  0.18666660502E+01  0.26963348711E+02  0.00000000000E+00 0. -1.
<scales pt_clust_5="13000.00000" pt_clust_6="13000.00000" pt_clust_7="13000.00000" pt_clust_8="13000.00000" pt_clust_9="26.89866"></scales>
<clustering>
<clus scale="   26.899">  1  9  2 -1</clus>
<clus scale="   92.193">  5  6 -1 -1</clus>
<clus scale="   92.251">  7  8 -1 -1</clus>
<clus scale="  107.056">  1  5  2 -1</clus>
<clus scale="   26.899">  1  5  2 -1</clus>
</clustering>
</event>
<event>
 9    1  0.1881049E-005  0.1194872E+03  0.7546771E-02  0.1244015E+00
          1   -1    0    0  502    0 -0.00000000000E+00  0.00000000000E+00  0.23501190707E+03  0.23501190707E+03  0.00000000000E+00 0. -1.
         21   -1    0    0  501  502  0.00000000000E+00 -0.00000000000E+00 -0.13651334443E+03  0.13651334443E+03  0.00000000000E+00 0.  1.
         23    2    1    2    0    0  0.71526505847E+02 -0.18226012020E+01  0.53289517555E+02  0.12788124898E+03  0.91621385303E+02 0.  0.
         23    2    1    2    0    0 -0.89977466166E+02 -0.16537850835E+02 -0.54689543226E+02  0.14040993798E+03  0.91403280119E+02 0.  0.
        -11    1    4    4    0    0 -0.86471692984E+02  0.43213425832E+01 -0.72369506193E+02  0.11284224881E+03  0.00000000000E+00 0.  1.
         11    1    4    4    0    0 -0.35057731821E+01 -0.20859193418E+02  0.17679962967E+02  0.27567689170E+02  0.00000000000E+00 0. -1.
        -11    1    3    3    0    0  0.16893164562E+02 -0.40359773696E+02  0.23255558501E+01  0.43814364674E+02  0.00000000000E+00 0.  1.
         11    1    3    3    0    0  0.54633341285E+02  0.38537172494E+02  0.50963961705E+02  0.84066884303E+02  0.00000000000E+00 0. -1.
          1    1    1    2  501    0  0.18450960319E+02  0.18360452037E+02  0.99898588310E+02  0.10323406454E+03  0.00000000000E+00 0. -1.
<scales pt_clust_5="13000.00000" pt_clust_6="13000.00000" pt_clust_7="13000.00000" pt_clust_8="13000.00000" pt_clust_9="26.02969"></scales>
<clustering>
<clus scale="   26.030">  2  9  1 -1</clus>
<clus scale="   91.403">  5  6 -1 -1</clus>
<clus scale="   91.621">  7  8 -1 -1</clus>
<clus scale="  119.320">  2  5  1 -1</clus>
<clus scale="   26.030">  2  5  1 -1</clus>
</clustering>
</event>
<event>
 9    1  0.1881049E-005  0.1252445E+03  0.7546771E-02  0.1240574E+00
         21   -1    0    0  501  502  0.00000000000E+00  0.00000000000E+00  0.30080904704E+02  0.30080904704E+02  0.00000000000E+00 0. -1.
          2   -1    0    0  502    0 -0.00000000000E+00 -0.00000000000E+00 -0.11059386199E+04  0.11059386199E+04  0.00000000000E+00 0. -1.
         23    2    1    2    0    0  0.83659108717E+02 -0.28323519626E+01 -0.46699172187E+03  0.48617506494E+03  0.10619819577E+03 0.  0.
         23    2    1    2    0    0 -0.17407428169E+02  0.83075907234E+02 -0.32471356900E+03  0.34723759658E+03  0.89052914983E+02 0.  0.
        -13    1    4    4    0    0 -0.39860294568E+02  0.91095268371E+01 -0.16224161235E+03  0.16731457599E+03  0.00000000000E+00 0.  1.
         13    1    4    4    0    0  0.22452866399E+02  0.73966380397E+02 -0.16247195665E+03  0.17992302058E+03  0.00000000000E+00 0. -1.
        -13    1    3    3    0    0 -0.20025233977E+02  0.55311784218E+00 -0.24311107170E+02  0.31501521662E+02  0.00000000000E+00 0. -1.
         13    1    3    3    0    0  0.10368434269E+03 -0.33854698048E+01 -0.44268061470E+03  0.45467354327E+03  0.00000000000E+00 0.  1.
          2    1    1    2  501    0 -0.66251680548E+02 -0.80243555272E+02 -0.28415242438E+03  0.30260686314E+03  0.00000000000E+00 0. -1.
<scales pt_clust_5="13000.00000" pt_clust_6="13000.00000" pt_clust_7="13000.00000" pt_clust_8="13000.00000" pt_clust_9="104.05918"></scales>
<clustering>
<clus scale="   89.053">  5  6 -1 -1</clus>
<clus scale="  104.059">  1  9  2 -1</clus>
<clus scale="  106.198">  7  8 -1 -1</clus>
<clus scale="  111.079">  1  5  2 -1</clus>
<clus scale="  104.059">  1  5  2 -1</clus>
</clustering>
</event>
<event>
 9    1  0.1881049E-005  0.1083688E+03  0.7546771E-02  0.1264092E+00
         21   -1    0    0  501  502  0.00000000000E+00  0.00000000000E+00  0.24879642352E+03  0.24879642352E+03  0.00000000000E+00 0.  1.
         -2   -1    0    0    0  501 -0.00000000000E+00 -0.00000000000E+00 -0.86071851512E+02  0.86071851512E+02  0.00000000000E+00 0.  1.
         23    2    1    2    0    0 -0.94678339798E+01  0.53363747839E+02  0.44195855682E+01  0.10699728542E+03  0.92149643991E+02 0.  0.
         23    2    1    2    0    0  0.34826544081E+02 -0.51517472874E+02  0.16686859331E+03  0.20104174677E+03  0.93304438939E+02 0.  0.
        -11    1    3    3    0    0  0.12664327102E+02  0.66473697689E+02 -0.20980007132E+02  0.70847006745E+02  0.00000000000E+00 0.  1.
         11    1    3    3    0    0 -0.22132161082E+02 -0.13109949850E+02  0.25399592700E+02  0.36150278679E+02  0.00000000000E+00 0. -1.
        -13    1    4    4    0    0 -0.21544830215E+02 -0.36008331759E+02  0.28214742078E+02  0.50565317517E+02  0.00000000000E+00 0. -1.
         13    1    4    4    0    0  0.56371374296E+02 -0.15509141114E+02  0.13865385123E+03  0.15047642925E+03  0.00000000000E+00 0.  1.
         -2    1    1    2    0  502 -0.25358710101E+02 -0.18462749656E+01 -0.85636068655E+01  0.26829242848E+02  0.00000000000E+00 0.  1.
<scales pt_clust_5="13000.00000" pt_clust_6="13000.00000" pt_clust_7="13000.00000" pt_clust_8="13000.00000" pt_clust_9="25.42584"></scales>
<clustering>
<clus scale="   25.426">  1  9  2 -1</clus>
<clus scale="   92.150">  5  6 -1 -1</clus>
<clus scale="   93.304">  7  8 -1 -1</clus>
<clus scale="  107.376">  2  5  1 -1</clus>
<clus scale="   25.426">  1  5  2 -1</clus>
</clustering>
</event>
<event>
 9    1  0.1881049E-005  0.1036559E+03  0.7546771E-02  0.1273758E+00
          1   -1    0    0  502    0 -0.00000000000E+00  0.00000000000E+00  0.16760233972E+03  0.16760233972E+03  0.00000000000E+00 0. -1.
         21   -1    0    0  501  502  0.00000000000E+00 -0.00000000000E+00 -0.20938504503E+03  0.20938504503E+03  0.00000000000E+00 0. -1.
         23    2    1    2    0    0 -0.18719344886E+02 -0.38945222874E+02  0.93365287414E+02  0.13683245837E+03  0.90215855100E+02 0.  0.
         23    2    1    2    0    0  0.77969304497E+02  0.56473120745E+02 -0.62069186809E+02  0.14445593583E+03  0.88014246777E+02 0.  0.
        -11    1    4    4    0    0  0.58947595493E+02  0.76398697922E+02 -0.27668592754E+02  0.10038491462E+03  0.00000000000E+00 0. -1.
         11    1    4    4    0    0  0.19021709004E+02 -0.19925577176E+02 -0.34400594055E+02  0.44071021211E+02  0.00000000000E+00 0.  1.
        -13    1    3    3    0    0 -0.48140792416E+02 -0.41894862612E+02  0.38569130619E+02  0.74567373860E+02  0.00000000000E+00 0.  1.
         13    1    3    3    0    0  0.29421447530E+02  0.29496397375E+01  0.54796156794E+02  0.62265084508E+02  0.00000000000E+00 0. -1.
          1    1    1    2  501    0 -0.59249959611E+02 -0.17527897871E+02 -0.73078805915E+02  0.95698990547E+02  0.00000000000E+00 0. -1.
<scales pt_clust_5="13000.00000" pt_clust_6="13000.00000" pt_clust_7="13000.00000" pt_clust_8="13000.00000" pt_clust_9="61.78823"></scales>
<clustering>
<clus scale="   61.788">  2  9  1 -1</clus>
<clus scale="   88.014">  5  6 -1 -1</clus>
<clus scale="   90.216">  7  8 -1 -1</clus>
<clus scale="  101.746">  2  5  1 -1</clus>
<clus scale="   61.788">  2  5  1 -1</clus>
</clustering>
</event>
<event>
 9    1  0.1881049E-005  0.9484698E+02  0.7546771E-02  0.1291742E+00
         21   -1    0    0  501  502  0.00000000000E+00  0.00000000000E+00  0.13106226375E+03  0.13106226375E+03  0.00000000000E+00 0.  1.
         -3   -1    0    0    0  501 -0.00000000000E+00 -0.00000000000E+00 -0.10004876231E+03  0.10004876231E+03  0.00000000000E+00 0.  1.
         23    2    1    2    0    0  0.21026160702E+02  0.27076754682E+02 -0.42637729860E+01  0.97279195914E+02  0.90938507353E+02 0.  0.
         23    2    1    2    0    0 -0.94734247933E+00 -0.22098495363E+02  0.29831910942E+00  0.93193556052E+02  0.90530154867E+02 0.  0.
        -11    1    3    3    0    0  0.32618938098E+02  0.51208419489E+02 -0.22649576792E+02  0.64802011373E+02  0.00000000000E+00 0.  1.
         11    1    3    3    0    0 -0.11592777396E+02 -0.24131664806E+02  0.18385803806E+02  0.32477184541E+02  0.00000000000E+00 0. -1.
        -13    1    4    4    0    0  0.35190365309E+02 -0.30222393153E+02 -0.20499095819E+02  0.50714571751E+02  0.00000000000E+00 0.  1.
         13    1    4    4    0    0 -0.36137707789E+02  0.81238977897E+01  0.20797414929E+02  0.42478984301E+02  0.00000000000E+00 0. -1.
         -3    1    1    2    0  502 -0.20078818222E+02 -0.49782593195E+01  0.34978955316E+02  0.40638274102E+02  0.00000000000E+00 0.  1.
<scales pt_clust_5="13000.00000" pt_clust_6="13000.00000" pt_clust_7="13000.00000" pt_clust_8="13000.00000" pt_clust_9="20.68676"></scales>
<clustering>
<clus scale="   20.687">  1  9  2 -1</clus>
<clus scale="   90.530">  7  8 -1 -1</clus>
<clus scale="   90.939">  5  6 -1 -1</clus>
<clus scale="   94.456">  1  7  2 -1</clus>
<clus scale="   20.687">  1  5  2 -1</clus>
</clustering>
</event>
<event>
 9    1  0.1881049E-005  0.1433600E+03  0.7546771E-02  0.1225170E+00
          2   -1    0    0  502    0 -0.00000000000E+00  0.00000000000E+00  0.41257665357E+03  0.41257665357E+03  0.00000000000E+00 0. -1.
         21   -1    0    0  501  502  0.00000000000E+00 -0.00000000000E+00 -0.14564085487E+03  0.14564085487E+03  0.00000000000E+00 0. -1.
         23    2    1    2    0    0  0.36193967232E+02  0.25757529783E+02  0.27885149492E+03  0.29680133379E+03  0.91429874293E+02 0.  0.
         23    2    1    2    0    0  0.45232355715E+01 -0.12537401701E+03 -0.29805657141E+01  0.15342926948E+03  0.88275439165E+02 0.  0.
        -11    1    4    4    0    0  0.22641457204E+01 -0.71546023919E+02  0.42218859521E+02  0.83104705004E+02  0.00000000000E+00 0. -1.
         11    1    4    4    0    0  0.22590898511E+01 -0.53827993092E+02 -0.45199425235E+02  0.70324564477E+02  0.00000000000E+00 0.  1.
        -11    1    3    3    0    0  0.34413754215E+02 -0.25792666706E+02  0.18264093869E+03  0.18763603231E+03  0.00000000000E+00 0.  1.
         11    1    3    3    0    0  0.17802130175E+01  0.51550196489E+02  0.96210556229E+02  0.10916530148E+03  0.00000000000E+00 0. -1.
          2    1    1    2  501    0 -0.40717202804E+02  0.99616487228E+02 -0.89351305098E+01  0.10798690517E+03  0.00000000000E+00 0. -1.
<scales pt_clust_5="13000.00000" pt_clust_6="13000.00000" pt_clust_7="13000.00000" pt_clust_8="13000.00000" pt_clust_9="112.95815"></scales>
<clustering>
<clus scale="   88.275">  5  6 -1 -1</clus>
<clus scale="   91.430">  7  8 -1 -1</clus>
<clus scale="  101.651">  1  7  2 -1</clus>
<clus scale="  112.958">  2  9  1 -1</clus>
<clus scale="  112.958">  2  5  1 -1</clus>
</clustering>
</event>
<event>
 9    1  0.1881049E-005  0.9299457E+02  0.7546771E-02  0.1295799E+00
         21   -1    0    0  501  502  0.00000000000E+00  0.00000000000E+00  0.27415684212E+03  0.27415684212E+03  0.00000000000E+00 0. -1.
          4   -1    0    0  502    0 -0.00000000000E+00 -0.00000000000E+00 -0.64551536776E+02  0.64551536776E+02  0.00000000000E+00 0. -1.
         23    2    1    2    0    0  0.18879706975E+02 -0.23066197287E+02  0.37307306412E+02  0.10415277147E+03  0.92560639043E+02 0.  0.
         23    2    1    2    0    0  0.16475893740E+02 -0.87985014873E+01  0.58033684163E+02  0.11077470761E+03  0.92489235297E+02 0.  0.
        -13    1    3    3    0    0  0.55155940373E+01  0.35611987789E+02  0.67679441800E+01  0.36666613155E+02  0.00000000000E+00 0.  1.
         13    1    3    3    0    0  0.13364112937E+02 -0.58678185075E+02  0.30539362232E+02  0.67486158313E+02  0.00000000000E+00 0. -1.
        -13    1    4    4    0    0  0.52927189423E+02 -0.16205851046E+02  0.45080711786E+02  0.71387586901E+02  0.00000000000E+00 0. -1.
         13    1    4    4    0    0 -0.36451295683E+02  0.74073495591E+01  0.12952972377E+02  0.39387120710E+02  0.00000000000E+00 0.  1.
          4    1    1    2  501    0 -0.35355600715E+02  0.31864698774E+02  0.11426431477E+03  0.12378089981E+03  0.00000000000E+00 0. -1.
<scales pt_clust_5="13000.00000" pt_clust_6="13000.00000" pt_clust_7="13000.00000" pt_clust_8="13000.00000" pt_clust_9="47.59598"></scales>
<clustering>
<clus scale="   47.596">  1  9  2 -1</clus>
<clus scale="   92.489">  7  8 -1 -1</clus>
<clus scale="   92.561">  5  6 -1 -1</clus>
<clus scale="   92.924">  1  7  2 -1</clus>
<clus scale="   47.596">  1  5  2 -1</clus>
</clustering>
</event>
<event>
 9    1  0.1881049E-005  0.2271573E+03  0.7546771E-02  0.1164808E+00
          1   -1    0    0  502    0 -0.00000000000E+00  0.00000000000E+00  0.15230326035E+03  0.15230326035E+03  0.00000000000E+00 0. -1.
         21   -1    0    0  501  502  0.00000000000E+00 -0.00000000000E+00 -0.68651235559E+03  0.68651235559E+03  0.00000000000E+00 0.  1.
         23    2    1    2    0    0  0.24478934633E+02 -0.13010619966E+01 -0.29493613949E+02  0.10038270470E+03  0.92768007073E+02 0.  0.
         23    2    1    2    0    0  0.12895102552E+03  0.15888266192E+03 -0.46319556913E+03  0.51461017690E+03  0.91659323954E+02 0.  0.
        -13    1    4    4    0    0  0.13543276456E+03  0.11150372677E+03 -0.38248389918E+03  0.42079573183E+03  0.00000000000E+00 0.  1.
         13    1    4    4    0    0 -0.64817390397E+01  0.47378935147E+02 -0.80711669948E+02  0.93814445063E+02  0.00000000000E+00 0. -1.
        -13    1    3    3    0    0  0.59471492811E+02  0.44888686707E+01 -0.24854233477E+02  0.64612238166E+02  0.00000000000E+00 0. -1.
         13    1    3    3    0    0 -0.34992558178E+02 -0.57899306673E+01 -0.46393804721E+01  0.35770466535E+02  0.00000000000E+00 0.  1.
          1    1    1    2  501    0 -0.15342996015E+03 -0.15758159992E+03 -0.41519912168E+02  0.22382273435E+03  0.00000000000E+00 0. -1.
<scales pt_clust_5="13000.00000" pt_clust_6="13000.00000" pt_clust_7="13000.00000" pt_clust_8="13000.00000" pt_clust_9="207.84381"></scales>
<clustering>
<clus scale="   91.659">  5  6 -1 -1</clus>
<clus scale="   92.768">  7  8 -1 -1</clus>
<clus scale="   95.952">  1  7  2 -1</clus>
<clus scale="  207.844">  2  9  1 -1</clus>
<clus scale="  207.844">  2  5  1 -1</clus>
</clustering>
</event>
<event>
 9    1  0.1881049E-005  0.1232039E+03  0.7546771E-02  0.1238766E+00
         -1   -1    0    0    0  501 -0.00000000000E+00  0.00000000000E+00  0.58170477118E+03  0.58170477118E+03  0.00000000000E+00 0.  1.
         21   -1    0    0  501  502  0.00000000000E+00 -0.00000000000E+00 -0.41312151907E+02  0.41312151907E+02  0.00000000000E+00 0. -1.
         23    2    1    2    0    0  0.12647696805E+02 -0.73612582671E+02  0.33850565794E+03  0.35857920681E+03  0.91728896940E+02 0.  0.
         23    2    1    2    0    0 -0.33359831968E+02  0.81778509460E+02  0.20453272364E+03  0.24201730234E+03  0.94541718797E+02 0.  0.
        -13    1    3    3    0    0  0.45811644987E+02 -0.69594258915E+02  0.26608661774E+03  0.27882639012E+03  0.00000000000E+00 0.  1.
         13    1    3    3    0    0 -0.33163948182E+02 -0.40183237567E+01  0.72419040202E+02  0.79752816682E+02  0.00000000000E+00 0. -1.
        -13    1    4    4    0    0  0.26419030222E+02 -0.55043503311E+00  0.56718531272E+02  0.62572037894E+02  0.00000000000E+00 0.  1.
         13    1    4    4    0    0 -0.59778862190E+02  0.82328944493E+02  0.14781419237E+03  0.17944526444E+03  0.00000000000E+00 0. -1.
         -1    1    1    2    0  502  0.20712135163E+02 -0.81659267885E+01 -0.26457623040E+01  0.22420413946E+02  0.00000000000E+00 0.  1.
<scales pt_clust_5="13000.00000" pt_clust_6="13000.00000" pt_clust_7="13000.00000" pt_clust_8="13000.00000" pt_clust_9="22.26376"></scales>
<clustering>
<clus scale="   22.264">  2  9  1 -1</clus>
<clus scale="   91.729">  5  6 -1 -1</clus>
<clus scale="   94.542">  7  8 -1 -1</clus>
<clus scale="  121.059">  1  5  2 -1</clus>
<clus scale="   22.264">  2  5  1 -1</clus>
</clustering>
</event>
<event>
 9    1  0.1881049E-005  0.1039023E+03  0.7546771E-02  0.1273867E+00
          1   -1    0    0  502    0 -0.00000000000E+00  0.00000000000E+00  0.61216473552E+03  0.61216473552E+03  0.00000000000E+00 0. -1.
         21   -1    0    0  501  502  0.00000000000E+00 -0.00000000000E+00 -0.46499285924E+02  0.46499285924E+02  0.00000000000E+00 0.  1.
         23    2    1    2    0    0 -0.13247527631E+02  0.38681645360E+02  0.35951845603E+03  0.37390533762E+03  0.94233298768E+02 0.  0.
         23    2    1    2    0    0 -0.65562603095E+01 -0.50855486175E+02  0.22932916927E+03  0.25192873276E+03  0.90812738570E+02 0.  0.
        -13    1    4    4    0    0 -0.42871713927E+02 -0.33966899546E+02  0.77179074888E+02  0.94595685528E+02  0.00000000000E+00 0.  1.
         13    1    4    4    0    0  0.36315453618E+02 -0.16888586629E+02  0.15215009438E+03  0.15733304723E+03  0.00000000000E+00 0. -1.
        -13    1    3    3    0    0 -0.14531940627E+02  0.59766053091E+02  0.33872691302E+03  0.34426600182E+03  0.00000000000E+00 0. -1.
         13    1    3    3    0    0  0.12844129964E+01 -0.21084407731E+02  0.20791543006E+02  0.29639335800E+02  0.00000000000E+00 0.  1.
          1    1    1    2  501    0  0.19803787940E+02  0.12173840815E+02 -0.23182175704E+02  0.32829951071E+02  0.00000000000E+00 0. -1.
<scales pt_clust_5="13000.00000" pt_clust_6="13000.00000" pt_clust_7="13000.00000" pt_clust_8="13000.00000" pt_clust_9="23.24634"></scales>
<clustering>
<clus scale="   23.246">  2  9  1 -1</clus>
<clus scale="   90.813">  5  6 -1 -1</clus>
<clus scale="   94.233">  7  8 -1 -1</clus>
<clus scale="  100.810">  2  5  1 -1</clus>
<clus scale="   23.246">  2  5  1 -1</clus>
</clustering>
</event>
<event>
 9    1  0.1881049E-005  0.9519406E+02  0.7546771E-02  0.1292263E+00
         21   -1    0    0  501  502  0.00000000000E+00  0.00000000000E+00  0.16664394665E+03  0.16664394665E+03  0.00000000000E+00 0. -1.
          1   -1    0    0  502    0 -0.00000000000E+00 -0.00000000000E+00 -0.37613292973E+03  0.37613292973E+03  0.00000000000E+00 0. -1.
         23    2    1    2    0    0 -0.18027777404E+02 -0.20912731439E+02 -0.21748628161E+03  0.23745609011E+03  0.91229211045E+02 0.  0.
         23    2    1    2    0    0 -0.67234733051E+02  0.41712515049E+02 -0.10759783287E+03  0.16018443284E+03  0.88438202413E+02 0.  0.
        -11    1    3    3    0    0 -0.34199104140E+02  0.24593514057E+02 -0.13955585570E+03  0.14577467722E+03  0.00000000000E+00 0.  1.
         11    1    3    3    0    0  0.16171326737E+02 -0.45506245496E+02 -0.77930425907E+02  0.91681412891E+02  0.00000000000E+00 0. -1.
        -13    1    4    4    0    0 -0.86592342683E+01 -0.26355736384E+02 -0.35298668569E+02  0.44895469495E+02  0.00000000000E+00 0.  1.
         13    1    4    4    0    0 -0.58575498783E+02  0.68068251433E+02 -0.72299164297E+02  0.11528896334E+03  0.00000000000E+00 0. -1.
          1    1    1    2  501    0  0.85262510455E+02 -0.20799783610E+02  0.11559513139E+03  0.14513635344E+03  0.00000000000E+00 0. -1.
<scales pt_clust_5="13000.00000" pt_clust_6="13000.00000" pt_clust_7="13000.00000" pt_clust_8="13000.00000" pt_clust_9="87.76290"></scales>
<clustering>
<clus scale="   87.763">  1  9  2 -1</clus>
<clus scale="   88.438">  7  8 -1 -1</clus>
<clus scale="   91.229">  5  6 -1 -1</clus>
<clus scale="   92.523">  1  7  2 -1</clus>
<clus scale="   87.763">  1  5  2 -1</clus>
</clustering>
</event>
<event>
 9    1  0.1881049E-005  0.1064714E+03  0.7546771E-02  0.1269867E+00
         -3   -1    0    0    0  501 -0.00000000000E+00  0.00000000000E+00  0.25427742948E+03  0.25427742948E+03  0.00000000000E+00 0.  1.
         21   -1    0    0  501  502  0.00000000000E+00 -0.00000000000E+00 -0.11627224626E+03  0.11627224626E+03  0.00000000000E+00 0.  1.
         23    2    1    2    0    0  0.49002113622E+02 -0.39033210297E+02  0.13902498488E+03  0.18037634417E+03  0.96347706088E+02 0.  0.
         23    2    1    2    0    0 -0.30124093859E+02 -0.42598326560E+02  0.12878084191E+02  0.10524254404E+03  0.90487952604E+02 0.  0.
        -13    1    4    4    0    0  0.11491589661E+01 -0.57854590399E+02  0.31386749772E+02  0.65830101456E+02  0.00000000000E+00 0.  1.
         13    1    4    4    0    0 -0.31273252825E+02  0.15256263839E+02 -0.18508665581E+02  0.39412442581E+02  0.00000000000E+00 0. -1.
        -13    1    3    3    0    0  0.76197402674E+02 -0.41881731276E+02  0.11343988887E+03  0.14292911521E+03  0.00000000000E+00 0.  1.
         13    1    3    3    0    0 -0.27195289052E+02  0.28485209795E+01  0.25585096014E+02  0.37447228956E+02  0.00000000000E+00 0. -1.
         -3    1    1    2    0  502 -0.18878019763E+02  0.81631536856E+02 -0.13897885852E+02  0.84930787532E+02  0.00000000000E+00 0.  1.
<scales pt_clust_5="13000.00000" pt_clust_6="13000.00000" pt_clust_7="13000.00000" pt_clust_8="13000.00000" pt_clust_9="83.78596"></scales>
<clustering>
<clus scale="   83.786">  2  9  1 -1</clus>
<clus scale="   90.488">  5  6 -1 -1</clus>
<clus scale="   96.348">  7  8 -1 -1</clus>
<clus scale="  101.200">  2  5  1 -1</clus>
<clus scale="   83.786">  2  5  1 -1</clus>
</clustering>
</event>
<event>
 9    1  0.1881049E-005  0.1102059E+03  0.7546771E-02  0.1263927E+00
          4   -1    0    0  502    0 -0.00000000000E+00  0.00000000000E+00  0.15358104024E+03  0.15358104024E+03  0.00000000000E+00 0. -1.
         21   -1    0    0  501  502  0.00000000000E+00 -0.00000000000E+00 -0.14160350766E+03  0.14160350766E+03  0.00000000000E+00 0. -1.
         23    2    1    2    0    0  0.31673425611E+02 -0.38041370846E+02  0.29433401674E+02  0.10736765629E+03  0.90615322642E+02 0.  0.
         23    2    1    2    0    0 -0.66116205312E+02 -0.18289178546E+02 -0.64861349315E+01  0.12088580066E+03  0.99325023026E+02 0.  0.
        -11    1    3    3    0    0 -0.15352538964E+02  0.21030669055E+02  0.16327687964E+02  0.30734067219E+02  0.00000000000E+00 0.  1.
         11    1    3    3    0    0  0.47025964575E+02 -0.59072039901E+02  0.13105713710E+02  0.76633589072E+02  0.00000000000E+00 0. -1.
        -13    1    4    4    0    0 -0.90378361801E+02 -0.23318072620E+02  0.52159040032E+01  0.93483615928E+02  0.00000000000E+00 0. -1.
         13    1    4    4    0    0  0.24262156488E+02  0.50288940735E+01 -0.11702038935E+02  0.27402184736E+02  0.00000000000E+00 0.  1.
          4    1    1    2  501    0  0.34442779701E+02  0.56330549392E+02 -0.10969734164E+02  0.66931090952E+02  0.00000000000E+00 0. -1.
<scales pt_clust_5="13000.00000" pt_clust_6="13000.00000" pt_clust_7="13000.00000" pt_clust_8="13000.00000" pt_clust_9="66.02602"></scales>
<clustering>
<clus scale="   66.026">  2  9  1 -1</clus>
<clus scale="   90.615">  5  6 -1 -1</clus>
<clus scale="   99.325">  7  8 -1 -1</clus>
<clus scale="  102.426">  1  5  2 -1</clus>
<clus scale="   66.026">  2  5  1 -1</clus>
</clustering>
</event>
<event>
 9    1  0.1881049E-005  0.1007020E+03  0.7546771E-02  0.1279055E+00
         21   -1    0    0  501  502  0.00000000000E+00  0.00000000000E+00  0.86456602395E+02  0.86456602395E+02  0.00000000000E+00 0. -1.
          4   -1    0    0  502    0 -0.00000000000E+00 -0.00000000000E+00 -0.41296804702E+03  0.41296804702E+03  0.00000000000E+00 0. -1.
         23    2    1    2    0    0  0.22672208329E+02 -0.34636924572E+02 -0.28996707997E+03  0.30715571832E+03  0.92466114104E+02 0.  0.
         23    2    1    2    0    0  0.84610689716E+01  0.44252632374E+02 -0.85523962512E+02  0.13344084429E+03  0.91990356015E+02 0.  0.
        -11    1    4    4    0    0 -0.37295363766E+02  0.38545552232E+02 -0.30685052001E+02  0.61792201544E+02  0.00000000000E+00 0.  1.
         11    1    4    4    0    0  0.45756432738E+02  0.57070801418E+01 -0.54838910512E+02  0.71648642742E+02  0.00000000000E+00 0. -1.
        -13    1    3    3    0    0 -0.33839687863E+02 -0.27549077592E+02 -0.10794369995E+03  0.11642988667E+03  0.00000000000E+00 0.  1.
         13    1    3    3    0    0  0.56511896192E+02 -0.70878469798E+01 -0.18202338001E+03  0.19072583165E+03  0.00000000000E+00 0. -1.
          4    1    1    2  501    0 -0.31133277300E+02 -0.96157078019E+01  0.48979597853E+02  0.58828086811E+02  0.00000000000E+00 0. -1.
<scales pt_clust_5="13000.00000" pt_clust_6="13000.00000" pt_clust_7="13000.00000" pt_clust_8="13000.00000" pt_clust_9="32.58439"></scales>
<clustering>
<clus scale="   32.584">  1  9  2 -1</clus>
<clus scale="   91.990">  5  6 -1 -1</clus>
<clus scale="   92.466">  7  8 -1 -1</clus>
<clus scale="  100.265">  1  5  2 -1</clus>
<clus scale="   32.584">  1  5  2 -1</clus>
</clustering>
</event>
<event>
 9    1  0.1881049E-005  0.1018004E+03  0.7546771E-02  0.1278881E+00
         -1   -1    0    0    0  501 -0.00000000000E+00  0.00000000000E+00  0.71065214332E+03  0.71065214332E+03  0.00000000000E+00 0.  1.
         21   -1    0    0  501  502  0.00000000000E+00 -0.00000000000E+00 -0.29189686328E+02  0.29189686328E+02  0.00000000000E+00 0. -1.
         23    2    1    2    0    0  0.39235811042E+02 -0.10146177294E+02  0.48034271719E+03  0.49070313883E+03  0.91749935815E+02 0.  0.
         23    2    1    2    0    0 -0.44022383900E+02  0.34087480903E+02  0.19960676258E+03  0.22467675307E+03  0.86815073956E+02 0.  0.
        -11    1    3    3    0    0 -0.30184898856E+02 -0.30207838351E+01  0.13234656296E+03  0.13577873906E+03  0.00000000000E+00 0.  1.
         11    1    3    3    0    0  0.69420709898E+02 -0.71253934584E+01  0.34799615423E+03  0.35492439977E+03  0.00000000000E+00 0. -1.
        -13    1    4    4    0    0 -0.15048745218E+02 -0.29220650098E+02  0.76164218902E+02  0.82953597666E+02  0.00000000000E+00 0. -1.
         13    1    4    4    0    0 -0.28973638682E+02  0.63308131001E+02  0.12344254368E+03  0.14172315541E+03  0.00000000000E+00 0.  1.
         -1    1    1    2    0  502  0.47865728581E+01 -0.23941303610E+02  0.15129772311E+01  0.24461937747E+02  0.00000000000E+00 0.  1.
<scales pt_clust_5="13000.00000" pt_clust_6="13000.00000" pt_clust_7="13000.00000" pt_clust_8="13000.00000" pt_clust_9="24.41510"></scales>
<clustering>
<clus scale="   24.415">  2  9  1 -1</clus>
<clus scale="   86.815">  7  8 -1 -1</clus>
<clus scale="   91.750">  5  6 -1 -1</clus>
<clus scale="   97.376">  2  7  1 -1</clus>
<clus scale="   24.415">  2  5  1 -1</clus>
</clustering>
</event>
<event>
 9    1  0.1881049E-005  0.1696289E+03  0.7546771E-02  0.1200859E+00
         21   -1    0    0  501  502  0.00000000000E+00  0.00000000000E+00  0.13487060958E+03  0.13487060958E+03  0.00000000000E+00 0.  1.
         -3   -1    0    0    0  501 -0.00000000000E+00 -0.00000000000E+00 -0.61817277266E+03  0.61817277266E+03  0.00000000000E+00 0.  1.
         23    2    1    2    0    0 -0.41634147047E+02  0.49656587778E+02 -0.35596820859E+02  0.10884092367E+03  0.79875115643E+02 0.  0.
         23    2    1    2    0    0  0.39909790454E+02  0.96117073719E+02 -0.47531696110E+03  0.49582680259E+03  0.95324296047E+02 0.  0.
        -13    1    3    3    0    0 -0.42230457417E+02  0.52117646686E+00  0.81935921032E+01  0.43021135621E+02  0.00000000000E+00 0.  1.
         13    1    3    3    0    0  0.59631037026E+00  0.49135411311E+02 -0.43790412962E+02  0.65819788044E+02  0.00000000000E+00 0. -1.
        -13    1    4    4    0    0 -0.19125380569E+02  0.75321142286E+02 -0.28964628310E+03  0.29989001979E+03  0.00000000000E+00 0.  1.
         13    1    4    4    0    0  0.59035171023E+02  0.20795931434E+02 -0.18567067801E+03  0.19593678280E+03  0.00000000000E+00 0. -1.
         -3    1    1    2    0  502  0.17243565926E+01 -0.14577366150E+03  0.27611618876E+02  0.14837565599E+03  0.00000000000E+00 0.  1.
<scales pt_clust_5="13000.00000" pt_clust_6="13000.00000" pt_clust_7="13000.00000" pt_clust_8="13000.00000" pt_clust_9="140.31125"></scales>
<clustering>
<clus scale="   79.875">  5  6 -1 -1</clus>
<clus scale="   95.324">  7  8 -1 -1</clus>
<clus scale="  102.855">  2  5  1 -1</clus>
<clus scale="  140.311">  1  9  2 -1</clus>
<clus scale="  140.311">  1  5  2 -1</clus>
</clustering>
</event>
<event>
 9    1  0.1881049E-005  0.1342182E+03  0.7546771E-02  0.1222106E+00
         21   -1    0    0  501  502  0.00000000000E+00  0.00000000000E+00  0.29820369434E+03  0.29820369434E+03  0.00000000000E+00 0.  1.
         -1   -1    0    0    0  501 -0.00000000000E+00 -0.00000000000E+00 -0.43832288505E+03  0.43832288505E+03  0.00000000000E+00 0.  1.
         23    2    1    2    0    0  0.12261475010E+03 -0.46600716331E+02 -0.28145055504E+03  0.32333218016E+03  0.90129241015E+02 0.  0.
         23    2    1    2    0    0 -0.53390259788E+02  0.23304669786E+02 -0.10754622377E+03  0.15382055765E+03  0.93278862740E+02 0.  0.
        -11    1    4    4    0    0 -0.79986453909E+02  0.23514937728E+02 -0.80791627706E+02  0.11609509987E+03  0.00000000000E+00 0. -1.
         11    1    4    4    0    0  0.26596194122E+02 -0.21026794196E+00 -0.26754596062E+02  0.37725457782E+02  0.00000000000E+00 0.  1.
        -13    1    3    3    0    0  0.52794116573E+02 -0.53900288485E+02 -0.79841215605E+02  0.10985025968E+03  0.00000000000E+00 0. -1.
         13    1    3    3    0    0  0.69820633529E+02  0.72995721538E+01 -0.20160933944E+03  0.21348192047E+03  0.00000000000E+00 0.  1.
         -1    1    1    2    0  502 -0.69224490314E+02  0.23296046545E+02  0.24887758810E+03  0.25937384159E+03  0.00000000000E+00 0.  1.
<scales pt_clust_5="13000.00000" pt_clust_6="13000.00000" pt_clust_7="13000.00000" pt_clust_8="13000.00000" pt_clust_9="73.03928"></scales>
<clustering>
<clus scale="   73.039">  1  9  2 -1</clus>
<clus scale="   90.129">  7  8 -1 -1</clus>
<clus scale="   93.279">  5  6 -1 -1</clus>
<clus scale="  132.049">  2  7  1 -1</clus>
<clus scale="   73.039">  1  5  2 -1</clus>
</clustering>
</event>
<event>
 9    1  0.1881049E-005  0.1043979E+03  0.7546771E-02  0.1271911E+00
         21   -1    0    0  501  502  0.00000000000E+00  0.00000000000E+00  0.12458601816E+03  0.12458601816E+03  0.00000000000E+00 0.  1.
          1   -1    0    0  502    0 -0.00000000000E+00 -0.00000000000E+00 -0.28265649756E+03  0.28265649756E+03  0.00000000000E+00 0. -1.
         23    2    1    2    0    0  0.18887706796E+02 -0.45418681257E+02 -0.20844728874E+03  0.23167484726E+03  0.88336632233E+02 0.  0.
         23    2    1    2    0    0 -0.52162369447E+02  0.60120749351E+02  0.87277386259E+01  0.12026849061E+03  0.89738058390E+02 0.  0.
        -11    1    3    3    0    0 -0.11889763932E+02  0.21947913159E+02 -0.34203069088E+02  0.42342972420E+02  0.00000000000E+00 0.  1.
         11    1    3    3    0    0  0.30777470728E+02 -0.67366594416E+02 -0.17424421965E+03  0.18933187484E+03  0.00000000000E+00 0. -1.
        -13    1    4    4    0    0  0.14131715227E+02  0.49172659414E+02  0.13478759852E+02  0.52908721174E+02  0.00000000000E+00 0.  1.
         13    1    4    4    0    0 -0.66294084674E+02  0.10948089937E+02 -0.47510212264E+01  0.67359769438E+02  0.00000000000E+00 0. -1.
          1    1    1    2  501    0  0.33274662651E+02 -0.14702068094E+02  0.41649070713E+02  0.55299177861E+02  0.00000000000E+00 0. -1.
<scales pt_clust_5="13000.00000" pt_clust_6="13000.00000" pt_clust_7="13000.00000" pt_clust_8="13000.00000" pt_clust_9="36.37793"></scales>
<clustering>
<clus scale="   36.378">  1  9  2 -1</clus>
<clus scale="   88.337">  5  6 -1 -1</clus>
<clus scale="   89.738">  7  8 -1 -1</clus>
<clus scale="  103.196">  2  5  1 -1</clus>
<clus scale="   36.378">  1  5  2 -1</clus>
</clustering>
</event>
<event>
 9    1  0.1881049E-005  0.3223791E+03  0.7546771E-02  0.1074632E+00
         21   -1    0    0  501  502  0.00000000000E+00  0.00000000000E+00  0.14905203600E+03  0.14905203600E+03  0.00000000000E+00 0.  1.
          2   -1    0    0  502    0 -0.00000000000E+00 -0.00000000000E+00 -0.14517950950E+04  0.14517950950E+04  0.00000000000E+00 0. -1.
         23    2    1    2    0    0  0.12727102239E+03 -0.27654198232E+03 -0.11466461275E+04  0.11900764352E+04  0.93867985986E+02 0.  0.
         23    2    1    2    0    0 -0.13465063924E+03  0.29859488653E+03 -0.17339996309E+03  0.38178476420E+03  0.91664377279E+02 0.  0.
        -11    1    3    3    0    0  0.13448648698E+03 -0.22553879086E+03 -0.10222264134E+04  0.10554151798E+04  0.00000000000E+00 0. -1.
         11    1    3    3    0    0 -0.72154645848E+01 -0.51003191457E+02 -0.12441971411E+03  0.13466125548E+03  0.00000000000E+00 0.  1.
        -11    1    4    4    0    0 -0.10309338129E+03  0.25889017909E+03 -0.17831326330E+03  0.33082924593E+03  0.00000000000E+00 0.  1.
         11    1    4    4    0    0 -0.31557257957E+02  0.39704707441E+02  0.49133002113E+01  0.50955518266E+02  0.00000000000E+00 0. -1.
          2    1    1    2  501    0  0.73796168529E+01 -0.22052904214E+02  0.17303031577E+02  0.28985931604E+02  0.00000000000E+00 0. -1.
<scales pt_clust_5="13000.00000" pt_clust_6="13000.00000" pt_clust_7="13000.00000" pt_clust_8="13000.00000" pt_clust_9="23.25488"></scales>
<clustering>
<clus scale="   23.255">  1  9  2 -1</clus>
<clus scale="   91.664">  7  8 -1 -1</clus>
<clus scale="   93.868">  5  6 -1 -1</clus>
<clus scale="  321.744">  1  7  2 -1</clus>
<clus scale="   23.255">  1  5  2 -1</clus>
</clustering>
</event>
<event>
 9    1  0.1881049E-005  0.9591590E+02  0.7546771E-02  0.1289206E+00
         21   -1    0    0  501  502  0.00000000000E+00  0.00000000000E+00  0.54788351490E+02  0.54788351490E+02  0.00000000000E+00 0.  1.
          2   -1    0    0  502    0 -0.00000000000E+00 -0.00000000000E+00 -0.28919799778E+03  0.28919799778E+03  0.00000000000E+00 0. -1.
         23    2    1    2    0    0 -0.40700090256E+02 -0.21960102729E+02 -0.13181953569E+03  0.16663039366E+03  0.90832563788E+02 0.  0.
         23    2    1    2    0    0  0.18237123257E+02 -0.20098425163E+02 -0.82694884213E+02  0.12569044789E+03  0.90681340177E+02 0.  0.
        -13    1    4    4    0    0 -0.11552068089E+02 -0.24592727185E+02  0.94331821018E+01  0.28761735554E+02  0.00000000000E+00 0.  1.
         13    1    4    4    0    0  0.29789191346E+02  0.44943020221E+01 -0.92128066315E+02  0.96928712334E+02  0.00000000000E+00 0. -1.
        -13    1    3    3    0    0 -0.31189172255E+01  0.33641309330E+02 -0.55751950952E+02  0.65190071123E+02  0.00000000000E+00 0. -1.
         13    1    3    3    0    0 -0.37581173030E+02 -0.55601412059E+02 -0.76067584739E+02  0.10144032254E+03  0.00000000000E+00 0.  1.
          2    1    1    2  501    0  0.22462966999E+02  0.42058527891E+02 -0.19895226385E+02  0.51665507717E+02  0.00000000000E+00 0. -1.
<scales pt_clust_5="13000.00000" pt_clust_6="13000.00000" pt_clust_7="13000.00000" pt_clust_8="13000.00000" pt_clust_9="47.68128"></scales>
<clustering>
<clus scale="   47.681">  1  9  2 -1</clus>
<clus scale="   90.681">  5  6 -1 -1</clus>
<clus scale="   90.833">  7  8 -1 -1</clus>
<clus scale="   95.773">  1  5  2 -1</clus>
<clus scale="   47.681">  1  5  2 -1</clus>
</clustering>
</event>
<event>
 9    1  0.1881049E-005  0.9922570E+02  0.7546771E-02  0.1284532E+00
         -2   -1    0    0    0  501 -0.00000000000E+00  0.00000000000E+00  0.18193890048E+03  0.18193890048E+03  0.00000000000E+00 0.  1.
         21   -1    0    0  501  502  0.00000000000E+00 -0.00000000000E+00 -0.90682941316E+02  0.90682941316E+02  0.00000000000E+00 0.  1.
         23    2    1    2    0    0  0.14288320739E+01  0.32457185922E+02  0.95422734758E+02  0.13598744676E+03  0.91277471972E+02 0.  0.
         23    2    1    2    0    0 -0.74868457712E+01 -0.82479879202E+01  0.23215089153E+02  0.99586435378E+02  0.96199977041E+02 0.  0.
        -13    1    4    4    0    0  0.17167800317E+02 -0.19686402272E+02 -0.30033132919E+02  0.39802975706E+02  0.00000000000E+00 0. -1.
         13    1    4    4    0    0 -0.24654646088E+02  0.11438414352E+02  0.53248222072E+02  0.59783459672E+02  0.00000000000E+00 0.  1.
        -13    1    3    3    0    0  0.42907592050E+02  0.97097464449E+01  0.68916961810E+02  0.81761165944E+02  0.00000000000E+00 0. -1.
         13    1    3    3    0    0 -0.41478759976E+02  0.22747439477E+02  0.26505772948E+02  0.54226280819E+02  0.00000000000E+00 0.  1.
         -2    1    1    2    0  502  0.60580136973E+01 -0.24209198002E+02 -0.27381864744E+02  0.37047959656E+02  0.00000000000E+00 0.  1.
<scales pt_clust_5="13000.00000" pt_clust_6="13000.00000" pt_clust_7="13000.00000" pt_clust_8="13000.00000" pt_clust_9="24.95566"></scales>
<clustering>
<clus scale="   24.956">  2  9  1 -1</clus>
<clus scale="   91.277">  7  8 -1 -1</clus>
<clus scale="   94.461">  1  7  2 -1</clus>
<clus scale="   96.200">  5  6 -1 -1</clus>
<clus scale="   24.956">  2  5  1 -1</clus>
</clustering>
</event>
<event>
 9    1  0.1881049E-005  0.1329619E+03  0.7546771E-02  0.1224067E+00
          2   -1    0    0  502    0 -0.00000000000E+00  0.00000000000E+00  0.37108522515E+03  0.37108522515E+03  0.00000000000E+00 0. -1.
         21   -1    0    0  501  502  0.00000000000E+00 -0.00000000000E+00 -0.13121249920E+03  0.13121249920E+03  0.00000000000E+00 0. -1.
         23    2    1    2    0    0 -0.81577338824E+02  0.33448529309E+02  0.16888107776E+03  0.21153290152E+03  0.91933039099E+02 0.  0.
         23    2    1    2    0    0  0.80738112864E+02 -0.57505562976E+02  0.15268499816E+03  0.20559881671E+03  0.95564805912E+02 0.  0.
        -11    1    3    3    0    0 -0.88180201111E+02 -0.50217108295E+01  0.11895972752E+03  0.14816336328E+03  0.00000000000E+00 0. -1.
         11    1    3    3    0    0  0.66028622870E+01  0.38470240139E+02  0.49921350235E+02  0.63369538234E+02  0.00000000000E+00 0.  1.
        -13    1    4    4    0    0  0.19776282278E+02  0.11434104908E+02  0.93343139533E+02  0.96097772054E+02  0.00000000000E+00 0. -1.
         13    1    4    4    0    0  0.60961830586E+02 -0.68939667884E+02  0.59341858625E+02  0.10950104466E+03  0.00000000000E+00 0.  1.
          2    1    1    2  501    0  0.83922596067E+00  0.24057033667E+02 -0.81693349969E+02  0.85166006119E+02  0.00000000000E+00 0. -1.
<scales pt_clust_5="13000.00000" pt_clust_6="13000.00000" pt_clust_7="13000.00000" pt_clust_8="13000.00000" pt_clust_9="24.07167"></scales>
<clustering>
<clus scale="   24.072">  2  9  1 -1</clus>
<clus scale="   91.933">  5  6 -1 -1</clus>
<clus scale="   95.565">  7  8 -1 -1</clus>
<clus scale="  130.376">  1  5  2 -1</clus>
<clus scale="   24.072">  2  5  1 -1</clus>
</clustering>
</event>
<event>
 9    1  0.1881049E-005  0.9356727E+02  0.7546771E-02  0.1298279E+00
          1   -1    0    0  502    0 -0.00000000000E+00  0.00000000000E+00  0.23462917384E+03  0.23462917384E+03  0.00000000000E+00 0. -1.
         21   -1    0    0  501  502  0.00000000000E+00 -0.00000000000E+00 -0.11018502790E+03  0.11018502790E+03  0.00000000000E+00 0. -1.
         23    2    1    2    0    0  0.10778870653E+02 -0.10868257653E+02  0.14722722823E+03  0.17125814317E+03  0.86134730477E+02 0.  0.
         23    2    1    2    0    0 -0.18015749846E+02 -0.17329935610E+02  0.40305439450E+02  0.10407460710E+03  0.92639632353E+02 0.  0.
        -11    1    4    4    0    0 -0.49688044289E+02 -0.14482136611E+02  0.48826827730E+02  0.71152604536E+02  0.00000000000E+00 0. -1.
         11    1    4    4    0    0  0.31672294443E+02 -0.28477989994E+01 -0.85213882799E+01  0.32922002561E+02  0.00000000000E+00 0.  1.
        -13    1    3    3    0    0 -0.28428147099E+02  0.19248743527E+02  0.37129105742E+02  0.50569201774E+02  0.00000000000E+00 0. -1.
         13    1    3    3    0    0  0.39207017752E+02 -0.30117001179E+02  0.11009812248E+03  0.12068894140E+03  0.00000000000E+00 0.  1.
          1    1    1    2  501    0  0.72368791936E+01  0.28198193263E+02 -0.63088521733E+02  0.69481451469E+02  0.00000000000E+00 0. -1.
<scales pt_clust_5="13000.00000" pt_clust_6="13000.00000" pt_clust_7="13000.00000" pt_clust_8="13000.00000" pt_clust_9="29.11203"></scales>
<clustering>
<clus scale="   29.112">  2  9  1 -1</clus>
<clus scale="   86.135">  7  8 -1 -1</clus>
<clus scale="   87.132">  1  7  2 -1</clus>
<clus scale="   92.640">  5  6 -1 -1</clus>
<clus scale="   29.112">  2  5  1 -1</clus>
</clustering>
</event>
<event>
 9    1  0.1881049E-005  0.1827287E+03  0.7546771E-02  0.1186541E+00
          2   -1    0    0  502    0 -0.00000000000E+00  0.00000000000E+00  0.14530064488E+04  0.14530064488E+04  0.00000000000E+00 0. -1.
         21   -1    0    0  501  502  0.00000000000E+00 -0.00000000000E+00 -0.39229993454E+02  0.39229993454E+02  0.00000000000E+00 0. -1.
         23    2    1    2    0    0  0.53834212257E+02  0.37153680955E+02  0.26610076754E+03  0.28897266589E+03  0.91744562392E+02 0.  0.
         23    2    1    2    0    0 -0.11774037955E+03  0.11111507807E+03  0.77885618287E+03  0.80065298374E+03  0.90658089652E+02 0.  0.
        -11    1    3    3    0    0  0.11405145112E+02  0.62263835030E+02  0.15470342731E+03  0.16715266349E+03  0.00000000000E+00 0.  1.
         11    1    3    3    0    0  0.42429067145E+02 -0.25110154074E+02  0.11139734022E+03  0.12182000240E+03  0.00000000000E+00 0. -1.
        -13    1    4    4    0    0 -0.30602438806E+02 -0.43028701713E+01  0.61079313502E+02  0.68452220493E+02  0.00000000000E+00 0.  1.
         13    1    4    4    0    0 -0.87137940743E+02  0.11541794824E+03  0.71777686937E+03  0.73220076325E+03  0.00000000000E+00 0. -1.
          2    1    1    2  501    0  0.63906167292E+02 -0.14826875902E+03  0.36881950494E+03  0.40261079263E+03  0.00000000000E+00 0. -1.
<scales pt_clust_5="13000.00000" pt_clust_6="13000.00000" pt_clust_7="13000.00000" pt_clust_8="13000.00000" pt_clust_9="158.65332"></scales>
<clustering>
<clus scale="   90.658">  7  8 -1 -1</clus>
<clus scale="   91.745">  5  6 -1 -1</clus>
<clus scale="  112.675">  1  5  2 -1</clus>
<clus scale="  158.653">  2  9  1 -1</clus>
<clus scale="  158.653">  2  5  1 -1</clus>
</clustering>
</event>
<event>
 9    1  0.1881049E-005  0.9562171E+02  0.7546771E-02  0.1291928E+00
         21   -1    0    0  501  502  0.00000000000E+00  0.00000000000E+00  0.74453958594E+02  0.74453958594E+02  0.00000000000E+00 0. -1.
         -2   -1    0    0    0  501 -0.00000000000E+00 -0.00000000000E+00 -0.21252684941E+03  0.21252684941E+03  0.00000000000E+00 0. -1.
         23    2    1    2    0    0  0.10555175322E+02 -0.71208435622E+01 -0.56620934509E+02  0.10828654603E+03  0.91421702500E+02 0.  0.
         23    2    1    2    0    0 -0.53977517652E+02  0.60253735518E+01 -0.22380703515E+02  0.10537228181E+03  0.87478822272E+02 0.  0.
        -11    1    4    4    0    0 -0.73413053255E+02 -0.95399019381E+01 -0.34815082440E+01  0.74112124628E+02  0.00000000000E+00 0. -1.
         11    1    4    4    0    0  0.19435535603E+02  0.15565275490E+02 -0.18899195271E+02  0.31260157184E+02  0.00000000000E+00 0.  1.
        -11    1    3    3    0    0  0.21546581529E+02  0.38996464888E+02 -0.22783875627E+02  0.50040827710E+02  0.00000000000E+00 0. -1.
         11    1    3    3    0    0 -0.10991406208E+02 -0.46117308450E+02 -0.33837058882E+02  0.58245718322E+02  0.00000000000E+00 0.  1.
         -2    1    1    2    0  502  0.43422342330E+02  0.10954700104E+01 -0.59071252788E+02  0.73321980155E+02  0.00000000000E+00 0. -1.
<scales pt_clust_5="13000.00000" pt_clust_6="13000.00000" pt_clust_7="13000.00000" pt_clust_8="13000.00000" pt_clust_9="43.43618"></scales>
<clustering>
<clus scale="   43.436">  1  9  2 -1</clus>
<clus scale="   87.479">  5  6 -1 -1</clus>
<clus scale="   91.422">  7  8 -1 -1</clus>
<clus scale="   91.859">  1  5  2 -1</clus>
<clus scale="   43.436">  1  5  2 -1</clus>
</clustering>
</event>
<event>
 9    1  0.1881049E-005  0.1008052E+03  0.7546771E-02  0.1279030E+00
         -3   -1    0    0    0  501 -0.00000000000E+00  0.00000000000E+00  0.93400037977E+02  0.93400037977E+02  0.00000000000E+00 0.  1.
         21   -1    0    0  501  502  0.00000000000E+00 -0.00000000000E+00 -0.37198305932E+03  0.37198305932E+03  0.00000000000E+00 0.  1.
         23    2    1    2    0    0  0.10109029077E+02  0.26757087404E+02  0.11438113627E+02  0.95451030325E+02  0.90343425614E+02 0.  0.
         23    2    1    2    0    0  0.93370532515E+01 -0.82508121188E+02 -0.69389458415E+02  0.14153621634E+03  0.91229561938E+02 0.  0.
        -11    1    3    3    0    0  0.46970076109E+02  0.25533529857E+02  0.20856788585E+02  0.57386015951E+02  0.00000000000E+00 0. -1.
         11    1    3    3    0    0 -0.36861047032E+02  0.12235575463E+01 -0.94186749573E+01  0.38065014374E+02  0.00000000000E+00 0.  1.
        -13    1    4    4    0    0  0.27576538072E+02 -0.95812741843E+02 -0.63492032674E+02  0.11820230609E+03  0.00000000000E+00 0. -1.
         13    1    4    4    0    0 -0.18239484821E+02  0.13304620655E+02 -0.58974257410E+01  0.23333910252E+02  0.00000000000E+00 0.  1.
         -3    1    1    2    0  502 -0.19446082328E+02  0.55751033784E+02 -0.22063167656E+03  0.22839585064E+03  0.00000000000E+00 0.  1.
<scales pt_clust_5="13000.00000" pt_clust_6="13000.00000" pt_clust_7="13000.00000" pt_clust_8="13000.00000" pt_clust_9="59.04513"></scales>
<clustering>
<clus scale="   59.045">  2  9  1 -1</clus>
<clus scale="   90.343">  5  6 -1 -1</clus>
<clus scale="   91.230">  7  8 -1 -1</clus>
<clus scale="  100.004">  1  5  2 -1</clus>
<clus scale="   59.045">  2  5  1 -1</clus>
</clustering>
</event>
<event>
 9    1  0.1881049E-005  0.9598617E+02  0.7546771E-02  0.1290182E+00
          1   -1    0    0  502    0 -0.00000000000E+00  0.00000000000E+00  0.18183975992E+03  0.18183975992E+03  0.00000000000E+00 0. -1.
         21   -1    0    0  501  502  0.00000000000E+00 -0.00000000000E+00 -0.15908739557E+03  0.15908739557E+03  0.00000000000E+00 0.  1.
         23    2    1    2    0    0  0.25352031576E+02 -0.27247415736E+01  0.11918032023E+03  0.15090636366E+03  0.88986696428E+02 0.  0.
         23    2    1    2    0    0 -0.46461835362E+02 -0.16142637892E+02 -0.16178009943E+02  0.10492287385E+03  0.91256750692E+02 0.  0.
        -11    1    4    4    0    0  0.93745653785E+01  0.28747674985E+02 -0.13804584793E+02  0.33239702983E+02  0.00000000000E+00 0.  1.
         11    1    4    4    0    0 -0.55836400740E+02 -0.44890312878E+02 -0.23734251501E+01  0.71683170862E+02  0.00000000000E+00 0. -1.
        -13    1    3    3    0    0  0.47909952964E+02 -0.18290481827E+02  0.34262201945E+02  0.61674985209E+02  0.00000000000E+00 0.  1.
         13    1    3    3    0    0 -0.22557921388E+02  0.15565740253E+02  0.84918118286E+02  0.89231378451E+02  0.00000000000E+00 0. -1.
          1    1    1    2  501    0  0.21109803786E+02  0.18867379466E+02 -0.80249945933E+02  0.85097917989E+02  0.00000000000E+00 0. -1.
<scales pt_clust_5="13000.00000" pt_clust_6="13000.00000" pt_clust_7="13000.00000" pt_clust_8="13000.00000" pt_clust_9="28.31257"></scales>
<clustering>
<clus scale="   28.313">  2  9  1 -1</clus>
<clus scale="   88.987">  7  8 -1 -1</clus>
<clus scale="   91.257">  5  6 -1 -1</clus>
<clus scale="   93.831">  1  7  2 -1</clus>
<clus scale="   28.313">  2  5  1 -1</clus>
</clustering>
</event>
<event>
 9    1  0.1881049E-005  0.1147553E+03  0.7546771E-02  0.1252414E+00
         -2   -1    0    0    0  501 -0.00000000000E+00  0.00000000000E+00  0.40056173637E+03  0.40056173637E+03  0.00000000000E+00 0.  1.
         21   -1    0    0  501  502  0.00000000000E+00 -0.00000000000E+00 -0.51646282192E+02  0.51646282192E+02  0.00000000000E+00 0.  1.
         23    2    1    2    0    0 -0.25197752955E+02 -0.72382006489E+02  0.22252011010E+03  0.25281484833E+03  0.92336701903E+02 0.  0.
         23    2    1    2    0    0  0.20906530519E+02  0.49970111375E+02  0.13680033426E+03  0.17431386695E+03  0.93471373745E+02 0.  0.
        -11    1    4    4    0    0 -0.28260300190E+02  0.50979043547E+02  0.83024902525E+02  0.10144280106E+03  0.00000000000E+00 0. -1.
         11    1    4    4    0    0  0.49166830709E+02 -0.10089321720E+01  0.53775431733E+02  0.72871065892E+02  0.00000000000E+00 0.  1.
        -13    1    3    3    0    0 -0.56871246240E+02 -0.48000738314E+02  0.10511919308E+03  0.12879617340E+03  0.00000000000E+00 0.  1.
         13    1    3    3    0    0  0.31673493285E+02 -0.24381268176E+02  0.11740091701E+03  0.12401867493E+03  0.00000000000E+00 0. -1.
         -2    1    1    2    0  502  0.42912224359E+01  0.22411895114E+02 -0.10404990178E+02  0.25079303284E+02  0.00000000000E+00 0.  1.
<scales pt_clust_5="13000.00000" pt_clust_6="13000.00000" pt_clust_7="13000.00000" pt_clust_8="13000.00000" pt_clust_9="22.81902"></scales>
<clustering>
<clus scale="   22.819">  2  9  1 -1</clus>
<clus scale="   92.337">  7  8 -1 -1</clus>
<clus scale="   93.471">  5  6 -1 -1</clus>
<clus scale="  113.833">  1  7  2 -1</clus>
<clus scale="   22.819">  2  5  1 -1</clus>
</clustering>
</event>
<event>
 9    1  0.1881049E-005  0.1104462E+03  0.7546771E-02  0.1261565E+00
          4   -1    0    0  502    0 -0.00000000000E+00  0.00000000000E+00  0.87137045594E+02  0.87137045594E+02  0.00000000000E+00 0. -1.
         21   -1    0    0  501  502  0.00000000000E+00 -0.00000000000E+00 -0.18589940491E+03  0.18589940491E+03  0.00000000000E+00 0.  1.
         23    2    1    2    0    0  0.47734230923E+02  0.21774505065E+02 -0.17978482762E+02  0.10379931773E+03  0.87740450453E+02 0.  0.
         23    2    1    2    0    0 -0.59286481311E+02 -0.40863874031E+02 -0.41920285086E+02  0.12442377273E+03  0.92407910117E+02 0.  0.
        -11    1    4    4    0    0 -0.82460136291E+02 -0.26608661454E+02 -0.43921420484E+02  0.97143121830E+02  0.00000000000E+00 0.  1.
         11    1    4    4    0    0  0.23173654980E+02 -0.14255212577E+02  0.20011353985E+01  0.27280650902E+02  0.00000000000E+00 0. -1.
        -13    1    3    3    0    0  0.45153360424E+02  0.53722665820E+02 -0.12233672522E+02  0.71236321661E+02  0.00000000000E+00 0. -1.
         13    1    3    3    0    0  0.25808704987E+01 -0.31948160755E+02 -0.57448102401E+01  0.32562996067E+02  0.00000000000E+00 0.  1.
          4    1    1    2  501    0  0.11552250389E+02  0.19089368966E+02 -0.38863591471E+02  0.44813360046E+02  0.00000000000E+00 0. -1.
<scales pt_clust_5="13000.00000" pt_clust_6="13000.00000" pt_clust_7="13000.00000" pt_clust_8="13000.00000" pt_clust_9="22.31274"></scales>
<clustering>
<clus scale="   22.313">  2  9  1 -1</clus>
<clus scale="   87.740">  7  8 -1 -1</clus>
<clus scale="   92.408">  5  6 -1 -1</clus>
<clus scale="  106.572">  1  7  2 -1</clus>
<clus scale="   22.313">  2  5  1 -1</clus>
</clustering>
</event>
<event>
 9    1  0.1881049E-005  0.1443532E+03  0.7546771E-02  0.1207591E+00
         21   -1    0    0  501  502  0.00000000000E+00  0.00000000000E+00  0.47916004168E+03  0.47916004168E+03  0.00000000000E+00 0. -1.
         -3   -1    0    0    0  501 -0.00000000000E+00 -0.00000000000E+00 -0.87968342183E+02  0.87968342183E+02  0.00000000000E+00 0.  1.
         23    2    1    2    0    0  0.13150680129E+03  0.30657909024E+02  0.72088536813E+02  0.17934699511E+03  0.93459303146E+02 0.  0.
         23    2    1    2    0    0 -0.62472662184E+02 -0.62667383244E+02  0.12553189185E+03  0.17979063008E+03  0.93468606227E+02 0.  0.
        -11    1    3    3    0    0  0.28954361033E+02  0.49996120924E+02  0.12286583477E+02  0.59067141998E+02  0.00000000000E+00 0.  1.
         11    1    3    3    0    0  0.10255244026E+03 -0.19338211901E+02  0.59801953336E+02  0.12027985311E+03  0.00000000000E+00 0. -1.
        -13    1    4    4    0    0 -0.23661274608E+02  0.21097105747E+02  0.13069183553E+02  0.34289172426E+02  0.00000000000E+00 0.  1.
         13    1    4    4    0    0 -0.38811387576E+02 -0.83764488991E+02  0.11246270830E+03  0.14550145766E+03  0.00000000000E+00 0. -1.
         -3    1    1    2    0  502 -0.69034139104E+02  0.32009474221E+02  0.19357127083E+03  0.20799075867E+03  0.00000000000E+00 0.  1.
<scales pt_clust_5="13000.00000" pt_clust_6="13000.00000" pt_clust_7="13000.00000" pt_clust_8="13000.00000" pt_clust_9="76.09414"></scales>
<clustering>
<clus scale="   76.094">  1  9  2 -1</clus>
<clus scale="   93.459">  5  6 -1 -1</clus>
<clus scale="   93.469">  7  8 -1 -1</clus>
<clus scale="  144.347">  2  5  1 -1</clus>
<clus scale="   76.094">  1  5  2 -1</clus>
</clustering>
</event>
<event>
 9    1  0.1881049E-005  0.1805771E+03  0.7546771E-02  0.1169655E+00
         21   -1    0    0  501  502  0.00000000000E+00  0.00000000000E+00  0.11375903562E+03  0.11375903562E+03  0.00000000000E+00 0. -1.
         -1   -1    0    0    0  501 -0.00000000000E+00 -0.00000000000E+00 -0.60258702453E+03  0.60258702453E+03  0.00000000000E+00 0.  1.
         23    2    1    2    0    0  0.22731602947E+02 -0.14915860144E+03 -0.48795486874E+03  0.52070291560E+03  0.10132402597E+03 0.  0.
         23    2    1    2    0    0  0.12094730600E+01  0.14321026931E+03  0.15322410585E+02  0.16613292612E+03  0.82793289653E+02 0.  0.
        -11    1    3    3    0    0 -0.29414746561E+02 -0.17821180384E+02 -0.15905853957E+03  0.16273426436E+03  0.00000000000E+00 0. -1.
         11    1    3    3    0    0  0.52146349508E+02 -0.13133742105E+03 -0.32889632916E+03  0.35796865124E+03  0.00000000000E+00 0.  1.
        -13    1    4    4    0    0  0.39749445383E+02  0.70244479097E+02 -0.59071167445E+01  0.80927123266E+02  0.00000000000E+00 0.  1.
         13    1    4    4    0    0 -0.38539972323E+02  0.72965790217E+02  0.21229527329E+02  0.85205802850E+02  0.00000000000E+00 0. -1.
         -1    1    1    2    0  502 -0.23941076007E+02  0.59483321243E+01 -0.16195530755E+02  0.29510218431E+02  0.00000000000E+00 0.  1.
<scales pt_clust_5="13000.00000" pt_clust_6="13000.00000" pt_clust_7="13000.00000" pt_clust_8="13000.00000" pt_clust_9="24.66896"></scales>
<clustering>
<clus scale="   24.669">  1  9  2 -1</clus>
<clus scale="   82.793">  7  8 -1 -1</clus>
<clus scale="  101.324">  5  6 -1 -1</clus>
<clus scale="  170.869">  1  7  2 -1</clus>
<clus scale="   24.669">  1  5  2 -1</clus>
</clustering>
</event>
<event>
 9    1  0.1881049E-005  0.2068967E+03  0.7546771E-02  0.1144268E+00
          2   -1    0    0  502    0 -0.00000000000E+00  0.00000000000E+00  0.20676624488E+03  0.20676624488E+03  0.00000000000E+00 0. -1.
         21   -1    0    0  501  502  0.00000000000E+00 -0.00000000000E+00 -0.63440260861E+03  0.63440260861E+03  0.00000000000E+00 0. -1.
         23    2    1    2    0    0 -0.20530554363E+03 -0.13563758162E+02  0.11000138299E+03  0.24945693356E+03  0.88284288862E+02 0.  0.
         23    2    1    2    0    0  0.11084328141E+03 -0.25864052539E+01 -0.24561581059E+03  0.28436723080E+03  0.90800181786E+02 0.  0.
        -11    1    4    4    0    0  0.79215562603E+02  0.24785737177E+02 -0.86648567257E+02  0.11998921757E+03  0.00000000000E+00 0.  1.
         11    1    4    4    0    0  0.31627718810E+02 -0.27372142431E+02 -0.15896724334E+03  0.16437801323E+03  0.00000000000E+00 0. -1.
        -13    1    3    3    0    0 -0.40661343464E+02  0.30262340736E+01 -0.13524775210E+02  0.42958380899E+02  0.00000000000E+00 0.  1.
         13    1    3    3    0    0 -0.16464420017E+03 -0.16589992235E+02  0.12352615820E+03  0.20649855266E+03  0.00000000000E+00 0. -1.
          2    1    1    2  501    0  0.94462262219E+02  0.16150163416E+02 -0.29202193612E+03  0.30734468913E+03  0.00000000000E+00 0. -1.
<scales pt_clust_5="13000.00000" pt_clust_6="13000.00000" pt_clust_7="13000.00000" pt_clust_8="13000.00000" pt_clust_9="95.83291"></scales>
<clustering>
<clus scale="   88.284">  7  8 -1 -1</clus>
<clus scale="   90.800">  5  6 -1 -1</clus>
<clus scale="   95.833">  2  9  1 -1</clus>
<clus scale="  205.805">  1  7  2 -1</clus>
<clus scale="   95.833">  2  5  1 -1</clus>
</clustering>
</event>
<event>
 9    1  0.1881049E-005  0.1509947E+03  0.7546771E-02  0.1199542E+00
          2   -1    0    0  502    0 -0.00000000000E+00  0.00000000000E+00  0.12381260065E+04  0.12381260065E+04  0.00000000000E+00 0. -1.
         21   -1    0    0  501  502  0.00000000000E+00 -0.00000000000E+00 -0.24348057521E+02  0.24348057521E+02  0.00000000000E+00 0. -1.
         23    2    1    2    0    0 -0.14491341409E+02  0.11169317058E+03  0.64913932783E+03  0.66591417766E+03  0.96821804058E+02 0.  0.
         23    2    1    2    0    0  0.44863327928E+02 -0.11377197518E+03  0.51920477676E+03  0.54186972994E+03  0.95354200165E+02 0.  0.
        -11    1    3    3    0    0  0.39659282639E+02  0.27076545112E+02  0.21762875092E+03  0.22286379523E+03  0.00000000000E+00 0.  1.
         11    1    3    3    0    0 -0.54150624048E+02  0.84616625463E+02  0.43151057691E+03  0.44305038243E+03  0.00000000000E+00 0. -1.
        -13    1    4    4    0    0 -0.21915032041E+02 -0.62919438959E+02  0.16697534804E+03  0.17977733807E+03  0.00000000000E+00 0.  1.
         13    1    4    4    0    0  0.66778359969E+02 -0.50852536217E+02  0.35222942872E+03  0.36209239187E+03  0.00000000000E+00 0. -1.
          2    1    1    2  501    0 -0.30371986519E+02  0.20788046004E+01  0.45433844406E+02  0.54690156438E+02  0.00000000000E+00 0. -1.
<scales pt_clust_5="13000.00000" pt_clust_6="13000.00000" pt_clust_7="13000.00000" pt_clust_8="13000.00000" pt_clust_9="30.44305"></scales>
<clustering>
<clus scale="   30.443">  2  9  1 -1</clus>
<clus scale="   95.354">  7  8 -1 -1</clus>
<clus scale="   96.822">  5  6 -1 -1</clus>
<clus scale="  150.058">  2  7  1 -1</clus>
<clus scale="   30.443">  2  5  1 -1</clus>
</clustering>
</event>
<event>
 9    1  0.1881049E-005  0.9931772E+02  0.7546771E-02  0.1283209E+00
         21   -1    0    0  501  502  0.00000000000E+00  0.00000000000E+00  0.89569458218E+03  0.89569458218E+03  0.00000000000E+00 0. -1.
         -1   -1    0    0    0  501 -0.00000000000E+00 -0.00000000000E+00 -0.31956175595E+02  0.31956175595E+02  0.00000000000E+00 0.  1.
         23    2    1    2    0    0  0.32854540234E+02  0.24493928926E+01  0.10193962049E+03  0.13914839302E+03  0.88798472475E+02 0.  0.
         23    2    1    2    0    0 -0.88276467629E+02  0.44267665395E+02  0.47292817892E+03  0.49067640676E+03  0.85731632398E+02 0.  0.
        -13    1    3    3    0    0 -0.24418560941E+02 -0.20601233429E+02  0.44814132204E+02  0.55036200654E+02  0.00000000000E+00 0.  1.
         13    1    3    3    0    0  0.57273101176E+02  0.23050626321E+02  0.57125488287E+02  0.84112192363E+02  0.00000000000E+00 0. -1.
        -13    1    4    4    0    0 -0.21209092297E+02 -0.56154856807E+01  0.18718053413E+02  0.28839639371E+02  0.00000000000E+00 0.  1.
         13    1    4    4    0    0 -0.67067375332E+02  0.49883151076E+02  0.45421012551E+03  0.46183676739E+03  0.00000000000E+00 0. -1.
         -1    1    1    2    0  502  0.55421927395E+02 -0.46717058288E+02  0.28887060718E+03  0.29782595800E+03  0.00000000000E+00 0.  1.
<scales pt_clust_5="13000.00000" pt_clust_6="13000.00000" pt_clust_7="13000.00000" pt_clust_8="13000.00000" pt_clust_9="72.48499"></scales>
<clustering>
<clus scale="   72.485">  1  9  2 -1</clus>
<clus scale="   85.732">  7  8 -1 -1</clus>
<clus scale="   88.798">  5  6 -1 -1</clus>
<clus scale="   96.585">  1  7  2 -1</clus>
<clus scale="   72.485">  1  5  2 -1</clus>
</clustering>
</event>
<event>
 9    1  0.1881049E-005  0.1628816E+03  0.7546771E-02  0.1186434E+00
         21   -1    0    0  501  502  0.00000000000E+00  0.00000000000E+00  0.46532856794E+03  0.46532856794E+03  0.00000000000E+00 0. -1.
         -2   -1    0    0    0  501 -0.00000000000E+00 -0.00000000000E+00 -0.76189294577E+02  0.76189294577E+02  0.00000000000E+00 0.  1.
         23    2    1    2    0    0 -0.42651120949E+02  0.14064478241E+03  0.14810170901E+03  0.22741636821E+03  0.90465548014E+02 0.  0.
         23    2    1    2    0    0  0.19959286605E+02 -0.11832952087E+03  0.24123948965E+03  0.28227491709E+03  0.84156929737E+02 0.  0.
        -11    1    4    4    0    0 -0.23540679227E+02 -0.54198721057E+02  0.15731004892E+03  0.16804200794E+03  0.00000000000E+00 0. -1.
         11    1    4    4    0    0  0.43499965832E+02 -0.64130799809E+02  0.83929440737E+02  0.11423290915E+03  0.00000000000E+00 0.  1.
        -13    1    3    3    0    0 -0.29638862167E+01  0.95521098324E+02  0.39726149124E+02  0.10349508090E+03  0.00000000000E+00 0.  1.
         13    1    3    3    0    0 -0.39687234732E+02  0.45123684090E+02  0.10837555989E+03  0.12392128730E+03  0.00000000000E+00 0. -1.
         -2    1    1    2    0  502  0.22691834344E+02 -0.22315261548E+02 -0.20192529499E+00  0.31826577222E+02  0.00000000000E+00 0.  1.
<scales pt_clust_5="13000.00000" pt_clust_6="13000.00000" pt_clust_7="13000.00000" pt_clust_8="13000.00000" pt_clust_9="31.82595"></scales>
<clustering>
<clus scale="   31.826">  1  9  2 -1</clus>
<clus scale="   84.157">  5  6 -1 -1</clus>
<clus scale="   90.466">  7  8 -1 -1</clus>
<clus scale="  159.464">  1  5  2 -1</clus>
<clus scale="   31.826">  1  5  2 -1</clus>
</clustering>
</event>
<event>
 9    1  0.1881049E-005  0.1218962E+03  0.7546771E-02  0.1240147E+00
         21   -1    0    0  501  502  0.00000000000E+00  0.00000000000E+00  0.21981861960E+03  0.21981861960E+03  0.00000000000E+00 0. -1.
          1   -1    0    0  502    0 -0.00000000000E+00 -0.00000000000E+00 -0.15437278294E+03  0.15437278294E+03  0.00000000000E+00 0. -1.
         23    2    1    2    0    0  0.72598830261E+02 -0.20206205706E+02 -0.82601166035E+02  0.14512026398E+03  0.92509769665E+02 0.  0.
         23    2    1    2    0    0 -0.95889691651E+02  0.54417135784E+01  0.78976676672E+02  0.15469934021E+03  0.92033283067E+02 0.  0.
        -11    1    3    3    0    0  0.39576528865E+02  0.35852610231E+02 -0.45923877442E+02  0.70432335022E+02  0.00000000000E+00 0.  1.
         11    1    3    3    0    0  0.33022301396E+02 -0.56058815937E+02 -0.36677288593E+02  0.74687928959E+02  0.00000000000E+00 0. -1.
        -11    1    4    4    0    0 -0.24091571018E+02  0.12051756361E+01 -0.20698176852E+02  0.31784756841E+02  0.00000000000E+00 0.  1.
         11    1    4    4    0    0 -0.71798120633E+02  0.42365379422E+01  0.99674853524E+02  0.12291458337E+03  0.00000000000E+00 0. -1.
          1    1    1    2  501    0  0.23290861390E+02  0.14764492127E+02  0.69070326023E+02  0.74371798344E+02  0.00000000000E+00 0. -1.
<scales pt_clust_5="13000.00000" pt_clust_6="13000.00000" pt_clust_7="13000.00000" pt_clust_8="13000.00000" pt_clust_9="27.57634"></scales>
<clustering>
<clus scale="   27.576">  1  9  2 -1</clus>
<clus scale="   92.033">  7  8 -1 -1</clus>
<clus scale="   92.510">  5  6 -1 -1</clus>
<clus scale="  121.535">  1  7  2 -1</clus>
<clus scale="   27.576">  1  5  2 -1</clus>
</clustering>
</event>
<event>
 9    1  0.1881049E-005  0.9852171E+02  0.7546771E-02  0.1285093E+00
          2   -1    0    0  502    0 -0.00000000000E+00  0.00000000000E+00  0.59101652079E+03  0.59101652079E+03  0.00000000000E+00 0. -1.
         21   -1    0    0  501  502  0.00000000000E+00 -0.00000000000E+00 -0.43832212281E+02  0.43832212281E+02  0.00000000000E+00 0.  1.
         23    2    1    2    0    0 -0.16911108556E+02 -0.26864952448E+02  0.39088400754E+03  0.40215157155E+03  0.89038575280E+02 0.  0.
         23    2    1    2    0    0  0.51077820549E+02  0.27091216812E+02  0.47779641727E+02  0.11892480597E+03  0.92289422645E+02 0.  0.
        -11    1    3    3    0    0  0.34207653514E+02 -0.12945082729E+02  0.99925081371E+02  0.10640846119E+03  0.00000000000E+00 0.  1.
         11    1    3    3    0    0 -0.51118762071E+02 -0.13919869719E+02  0.29095892617E+03  0.29574311036E+03  0.00000000000E+00 0. -1.
        -13    1    4    4    0    0 -0.26292864736E+02  0.14621969892E+02  0.18184373354E+02  0.35153778941E+02  0.00000000000E+00 0. -1.
         13    1    4    4    0    0  0.77370685285E+02  0.12469246920E+02  0.29595268373E+02  0.83771027034E+02  0.00000000000E+00 0.  1.
          2    1    1    2  501    0 -0.34166711993E+02 -0.22626436347E+00  0.10852065924E+03  0.11377235555E+03  0.00000000000E+00 0. -1.
<scales pt_clust_5="13000.00000" pt_clust_6="13000.00000" pt_clust_7="13000.00000" pt_clust_8="13000.00000" pt_clust_9="34.16748"></scales>
<clustering>
<clus scale="   34.167">  2  9  1 -1</clus>
<clus scale="   89.039">  5  6 -1 -1</clus>
<clus scale="   92.289">  7  8 -1 -1</clus>
<clus scale="   95.483">  1  5  2 -1</clus>
<clus scale="   34.167">  2  5  1 -1</clus>
</clustering>
</event>
<event>
 9    1  0.1881049E-005  0.1209369E+03  0.7546771E-02  0.1244393E+00
          1   -1    0    0  502    0 -0.00000000000E+00  0.00000000000E+00  0.70790517441E+03  0.70790517441E+03  0.00000000000E+00 0. -1.
         21   -1    0    0  501  502  0.00000000000E+00 -0.00000000000E+00 -0.54760812936E+02  0.54760812936E+02  0.00000000000E+00 0. -1.
         23    2    1    2    0    0  0.13559324359E+02  0.70317501477E+02  0.46326448814E+03  0.47933055105E+03  0.10007689498E+03 0.  0.
         23    2    1    2    0    0 -0.34606926868E+02 -0.54503004052E+02  0.21775988383E+03  0.24498970791E+03  0.91827954019E+02 0.  0.
        -11    1    3    3    0    0 -0.53224425002E+01  0.91811914227E+02  0.38955223438E+03  0.40026078911E+03  0.00000000000E+00 0. -1.
         11    1    3    3    0    0  0.18881766859E+02 -0.21494412750E+02  0.73712253765E+02  0.79069761946E+02  0.00000000000E+00 0.  1.
        -11    1    4    4    0    0  0.29277941393E+02 -0.30751042744E+02  0.64038108317E+02  0.76835563373E+02  0.00000000000E+00 0.  1.
         11    1    4    4    0    0 -0.63884868261E+02 -0.23751961308E+02  0.15372177551E+03  0.16815414454E+03  0.00000000000E+00 0. -1.
          1    1    1    2  501    0  0.21047602509E+02 -0.15814497425E+02 -0.27880010494E+02  0.38345728385E+02  0.00000000000E+00 0. -1.
<scales pt_clust_5="13000.00000" pt_clust_6="13000.00000" pt_clust_7="13000.00000" pt_clust_8="13000.00000" pt_clust_9="26.32679"></scales>
<clustering>
<clus scale="   26.327">  2  9  1 -1</clus>
<clus scale="   91.828">  7  8 -1 -1</clus>
<clus scale="  100.077">  5  6 -1 -1</clus>
<clus scale="  114.205">  2  7  1 -1</clus>
<clus scale="   26.327">  2  5  1 -1</clus>
</clustering>
</event>
<event>
 9    1  0.1881049E-005  0.9811766E+02  0.7546771E-02  0.1287705E+00
          1   -1    0    0  502    0 -0.00000000000E+00  0.00000000000E+00  0.70566140404E+03  0.70566140404E+03  0.00000000000E+00 0. -1.
         21   -1    0    0  501  502  0.00000000000E+00 -0.00000000000E+00 -0.16523780088E+03  0.16523780088E+03  0.00000000000E+00 0. -1.
         23    2    1    2    0    0 -0.55450056264E+01  0.23563241275E+02  0.43717776216E+03  0.44786486072E+03  0.94194290229E+02 0.  0.
         23    2    1    2    0    0  0.31585776104E+02 -0.21371692813E+02  0.25326198037E+03  0.27075904522E+03  0.87831767356E+02 0.  0.
        -11    1    4    4    0    0  0.27502813212E+02  0.28522180702E+02  0.66546200883E+02  0.77448798432E+02  0.00000000000E+00 0. -1.
         11    1    4    4    0    0  0.40829628924E+01 -0.49893873515E+02  0.18671577949E+03  0.19331024678E+03  0.00000000000E+00 0.  1.
        -13    1    3    3    0    0  0.13061390424E+02  0.56091716165E+02  0.30900706221E+03  0.31432824409E+03  0.00000000000E+00 0. -1.
         13    1    3    3    0    0 -0.18606396050E+02 -0.32528474889E+02  0.12817069995E+03  0.13353661662E+03  0.00000000000E+00 0.  1.
          1    1    1    2  501    0 -0.26040770478E+02 -0.21915484629E+01 -0.15001613937E+03  0.15227529900E+03  0.00000000000E+00 0. -1.
<scales pt_clust_5="13000.00000" pt_clust_6="13000.00000" pt_clust_7="13000.00000" pt_clust_8="13000.00000" pt_clust_9="26.13283"></scales>
<clustering>
<clus scale="   26.133">  2  9  1 -1</clus>
<clus scale="   87.832">  5  6 -1 -1</clus>
<clus scale="   92.027">  2  5  1 -1</clus>
<clus scale="   94.194">  7  8 -1 -1</clus>
<clus scale="   26.133">  2  5  1 -1</clus>
</clustering>
</event>
<event>
 9    1  0.1881049E-005  0.1790364E+03  0.7546771E-02  0.1168961E+00
         21   -1    0    0  501  502  0.00000000000E+00  0.00000000000E+00  0.64926185466E+03  0.64926185466E+03  0.00000000000E+00 0.  1.
         -2   -1    0    0    0  501 -0.00000000000E+00 -0.00000000000E+00 -0.21151624465E+03  0.21151624465E+03  0.00000000000E+00 0.  1.
         23    2    1    2    0    0 -0.14937135154E+03 -0.23432650855E+02 -0.13555416996E+03  0.22178712267E+03  0.89183546693E+02 0.  0.
         23    2    1    2    0    0  0.16891805909E+03  0.81568270762E+02  0.34967968148E+03  0.40711218820E+03  0.90982199677E+02 0.  0.
        -11    1    3    3    0    0 -0.19343567041E+02 -0.28921124875E+02 -0.65055770232E+02  0.73775729683E+02  0.00000000000E+00 0. -1.
         11    1    3    3    0    0 -0.13002778450E+03  0.54884740191E+01 -0.70498399728E+02  0.14801139299E+03  0.00000000000E+00 0.  1.
        -13    1    4    4    0    0  0.77193142193E+01  0.25821792117E+02  0.13511188842E+02  0.30148051082E+02  0.00000000000E+00 0.  1.
         13    1    4    4    0    0  0.16119874487E+03  0.55746478645E+02  0.33616849264E+03  0.37696413711E+03  0.00000000000E+00 0. -1.
         -2    1    1    2    0  502 -0.19546707544E+02 -0.58135619906E+02  0.22362009850E+03  0.23187878845E+03  0.00000000000E+00 0.  1.
<scales pt_clust_5="13000.00000" pt_clust_6="13000.00000" pt_clust_7="13000.00000" pt_clust_8="13000.00000" pt_clust_9="61.33371"></scales>
<clustering>
<clus scale="   61.334">  1  9  2 -1</clus>
<clus scale="   89.184">  5  6 -1 -1</clus>
<clus scale="   90.982">  7  8 -1 -1</clus>
<clus scale="  178.129">  2  5  1 -1</clus>
<clus scale="   61.334">  1  5  2 -1</clus>
</clustering>
</event>
<event>
 9    1  0.1881049E-005  0.3389547E+03  0.7546771E-02  0.1083171E+00
          1   -1    0    0  502    0 -0.00000000000E+00  0.00000000000E+00  0.49672295503E+03  0.49672295503E+03  0.00000000000E+00 0. -1.
         21   -1    0    0  501  502  0.00000000000E+00 -0.00000000000E+00 -0.10120972872E+04  0.10120972872E+04  0.00000000000E+00 0. -1.
         23    2    1    2    0    0 -0.12768178406E+03 -0.15384704838E+03  0.33492243694E+03  0.40062043766E+03  0.91390065278E+02 0.  0.
         23    2    1    2    0    0  0.34626031086E+03 -0.78307511067E+02 -0.59926423911E+03  0.70238008724E+03  0.90509057637E+02 0.  0.
        -11    1    4    4    0    0  0.24087987530E+03 -0.33244580974E+02 -0.47308709389E+03  0.53192077877E+03  0.00000000000E+00 0.  1.
         11    1    4    4    0    0  0.10538043556E+03 -0.45062930093E+02 -0.12617714522E+03  0.17045930847E+03  0.00000000000E+00 0. -1.
        -13    1    3    3    0    0 -0.12920381489E+03 -0.11811808137E+03  0.31313027387E+03  0.35874235231E+03  0.00000000000E+00 0. -1.
         13    1    3    3    0    0  0.15220308273E+01 -0.35728967006E+02  0.21792163063E+02  0.41878085345E+02  0.00000000000E+00 0.  1.
          1    1    1    2  501    0 -0.21857852680E+03  0.23215455945E+03 -0.25103252996E+03  0.40581971730E+03  0.00000000000E+00 0. -1.
<scales pt_clust_5="13000.00000" pt_clust_6="13000.00000" pt_clust_7="13000.00000" pt_clust_8="13000.00000" pt_clust_9="326.64738"></scales>
<clustering>
<clus scale="   90.509">  5  6 -1 -1</clus>
<clus scale="   91.390">  7  8 -1 -1</clus>
<clus scale="  219.827">  1  7  2 -1</clus>
<clus scale="  326.647">  2  9  1 -1</clus>
<clus scale="  326.647">  2  5  1 -1</clus>
</clustering>
</event>
<event>
 9    1  0.1881049E-005  0.1255584E+03  0.7546771E-02  0.1235592E+00
         21   -1    0    0  501  502  0.00000000000E+00  0.00000000000E+00  0.35581160293E+03  0.35581160293E+03  0.00000000000E+00 0. -1.
          2   -1    0    0  502    0 -0.00000000000E+00 -0.00000000000E+00 -0.15300790219E+03  0.15300790219E+03  0.00000000000E+00 0. -1.
         23    2    1    2    0    0  0.78250850502E+02  0.47231050327E+02 -0.91433162544E+02  0.15687438257E+03  0.88857081745E+02 0.  0.
         23    2    1    2    0    0 -0.60606929312E+02 -0.52546686369E+01  0.92124546648E+02  0.14476714806E+03  0.93647122965E+02 0.  0.
        -13    1    3    3    0    0  0.41633756922E+02  0.58211178407E+02 -0.94479265061E+02  0.11852528225E+03  0.00000000000E+00 0. -1.
         13    1    3    3    0    0  0.36617093580E+02 -0.10980128080E+02  0.30461025171E+01  0.38349100321E+02  0.00000000000E+00 0.  1.
        -13    1    4    4    0    0 -0.45676959763E+02 -0.27243268753E+02  0.46998472861E+01  0.53391655809E+02  0.00000000000E+00 0.  1.
         13    1    4    4    0    0 -0.14929969549E+02  0.21988600117E+02  0.87424699362E+02  0.91375492252E+02  0.00000000000E+00 0. -1.
          2    1    1    2  501    0 -0.17643921190E+02 -0.41976381690E+02  0.20211231664E+03  0.20717797449E+03  0.00000000000E+00 0. -1.
<scales pt_clust_5="13000.00000" pt_clust_6="13000.00000" pt_clust_7="13000.00000" pt_clust_8="13000.00000" pt_clust_9="45.53377"></scales>
<clustering>
<clus scale="   45.534">  1  9  2 -1</clus>
<clus scale="   88.857">  5  6 -1 -1</clus>
<clus scale="   93.647">  7  8 -1 -1</clus>
<clus scale="  122.028">  2  5  1 -1</clus>
<clus scale="   45.534">  1  5  2 -1</clus>
</clustering>
</event>
<event>
 9    1  0.1881049E-005  0.1065397E+03  0.7546771E-02  0.1267272E+00
         21   -1    0    0  501  502  0.00000000000E+00  0.00000000000E+00  0.60446660272E+02  0.60446660272E+02  0.00000000000E+00 0.  1.
          2   -1    0    0  502    0 -0.00000000000E+00 -0.00000000000E+00 -0.52987582259E+03  0.52987582259E+03  0.00000000000E+00 0. -1.
         23    2    1    2    0    0  0.50355858021E+02 -0.38396333892E+01 -0.25363496440E+03  0.27441113053E+03  0.91762291656E+02 0.  0.
         23    2    1    2    0    0 -0.43743582478E+02 -0.88908427257E+02 -0.14997434558E+03  0.20198954624E+03  0.92137196689E+02 0.  0.
        -13    1    3    3    0    0  0.62373398896E+01 -0.43551963600E+02 -0.86457100343E+02  0.97007773617E+02  0.00000000000E+00 0.  1.
         13    1    3    3    0    0  0.44118518132E+02  0.39712330211E+02 -0.16717786406E+03  0.17740335691E+03  0.00000000000E+00 0. -1.
        -13    1    4    4    0    0  0.18918687270E+02 -0.56324541525E+02 -0.41224150771E+02  0.72317365223E+02  0.00000000000E+00 0.  1.
         13    1    4    4    0    0 -0.62662269748E+02 -0.32583885732E+02 -0.10875019480E+03  0.12967218102E+03  0.00000000000E+00 0. -1.
          2    1    1    2  501    0 -0.66122755430E+01  0.92748060646E+02 -0.65819852341E+02  0.11392180609E+03  0.00000000000E+00 0. -1.
<scales pt_clust_5="13000.00000" pt_clust_6="13000.00000" pt_clust_7="13000.00000" pt_clust_8="13000.00000" pt_clust_9="92.98347"></scales>
<clustering>
<clus scale="   91.762">  5  6 -1 -1</clus>
<clus scale="   92.137">  7  8 -1 -1</clus>
<clus scale="   92.983">  1  9  2 -1</clus>
<clus scale="  106.216">  2  5  1 -1</clus>
<clus scale="   92.983">  1  5  2 -1</clus>
</clustering>
</event>
<event>
 9    1  0.1881049E-005  0.1736751E+03  0.7546771E-02  0.1175313E+00
          1   -1    0    0  502    0 -0.00000000000E+00  0.00000000000E+00  0.12274555370E+04  0.12274555370E+04  0.00000000000E+00 0. -1.
         21   -1    0    0  501  502  0.00000000000E+00 -0.00000000000E+00 -0.40261311444E+02  0.40261311444E+02  0.00000000000E+00 0. -1.
         23    2    1    2    0    0  0.11254200057E+03  0.10969547468E+03  0.85193162028E+03  0.87205264865E+03  0.99947672897E+02 0.  0.
         23    2    1    2    0    0 -0.53975611701E+02 -0.10415221031E+03  0.26667184155E+03  0.30530136146E+03  0.91290747960E+02 0.  0.
        -11    1    4    4    0    0 -0.58085688982E+01 -0.83597759344E+02  0.21899377278E+03  0.23447941777E+03  0.00000000000E+00 0. -1.
         11    1    4    4    0    0 -0.48167042803E+02 -0.20554450965E+02  0.47678068769E+02  0.70821943692E+02  0.00000000000E+00 0.  1.
        -11    1    3    3    0    0  0.41241011729E+02  0.98729527798E+02  0.61987522422E+03  0.62904183828E+03  0.00000000000E+00 0.  1.
         11    1    3    3    0    0  0.71300988839E+02  0.10965946881E+02  0.23205639606E+03  0.24301081036E+03  0.00000000000E+00 0. -1.
          1    1    1    2  501    0 -0.58566388868E+02 -0.55432643704E+01  0.68590763737E+02  0.90362838351E+02  0.00000000000E+00 0. -1.
<scales pt_clust_5="13000.00000" pt_clust_6="13000.00000" pt_clust_7="13000.00000" pt_clust_8="13000.00000" pt_clust_9="58.82814"></scales>
<clustering>
<clus scale="   58.828">  2  9  1 -1</clus>
<clus scale="   91.291">  5  6 -1 -1</clus>
<clus scale="   99.948">  7  8 -1 -1</clus>
<clus scale="  168.842">  2  5  1 -1</clus>
<clus scale="   58.828">  2  5  1 -1</clus>
</clustering>
</event>
<event>
 9    1  0.1881049E-005  0.1761264E+03  0.7546771E-02  0.1189732E+00
          2   -1    0    0  502    0 -0.00000000000E+00  0.00000000000E+00  0.32442748522E+03  0.32442748522E+03  0.00000000000E+00 0. -1.
         21   -1    0    0  501  502  0.00000000000E+00 -0.00000000000E+00 -0.52562201242E+03  0.52562201242E+03  0.00000000000E+00 0.  1.
         23    2    1    2    0    0 -0.50485350037E+02  0.39025831118E+02  0.15956837355E+03  0.19800489683E+03  0.98346770502E+02 0.  0.
         23    2    1    2    0    0  0.19072306011E+03  0.50665785395E+01  0.48456443235E+02  0.21722138683E+03  0.91848506406E+02 0.  0.
        -11    1    3    3    0    0 -0.89966184684E+01  0.50496820222E+02  0.25668738771E+02  0.57356360994E+02  0.00000000000E+00 0.  1.
         11    1    3    3    0    0 -0.41488731568E+02 -0.11470989105E+02  0.13389963478E+03  0.14064853584E+03  0.00000000000E+00 0. -1.
        -11    1    4    4    0    0  0.15201954143E+03  0.42096688344E+02  0.42232144831E+02  0.16329613040E+03  0.00000000000E+00 0.  1.
         11    1    4    4    0    0  0.38703518674E+02 -0.37030109804E+02  0.62242984039E+01  0.53925256425E+02  0.00000000000E+00 0. -1.
          2    1    1    2  501    0 -0.14023771007E+03 -0.44092409657E+02 -0.40921934399E+03  0.43482321398E+03  0.00000000000E+00 0. -1.
<scales pt_clust_5="13000.00000" pt_clust_6="13000.00000" pt_clust_7="13000.00000" pt_clust_8="13000.00000" pt_clust_9="150.28098"></scales>
<clustering>
<clus scale="   91.849">  7  8 -1 -1</clus>
<clus scale="   98.347">  5  6 -1 -1</clus>
<clus scale="  117.234">  1  5  2 -1</clus>
<clus scale="  150.281">  2  9  1 -1</clus>
<clus scale="  150.281">  2  5  1 -1</clus>
</clustering>
</event>
<event>
 9    1  0.1881049E-005  0.2376938E+03  0.7546771E-02  0.1121431E+00
          2   -1    0    0  502    0 -0.00000000000E+00  0.00000000000E+00  0.10938890484E+04  0.10938890484E+04  0.00000000000E+00 0. -1.
         21   -1    0    0  501  502  0.00000000000E+00 -0.00000000000E+00 -0.25646270466E+03  0.25646270466E+03  0.00000000000E+00 0.  1.
         23    2    1    2    0    0 -0.20207810594E+03  0.74449159188E+02  0.85084014959E+03  0.88236798614E+03  0.90917900406E+02 0.  0.
         23    2    1    2    0    0  0.21586950306E+03 -0.95057151872E+02  0.15552281324E+03  0.29723695647E+03  0.92341531161E+02 0.  0.
        -13    1    3    3    0    0 -0.17767352416E+03  0.95089130972E+02  0.71876262275E+03  0.74647808533E+03  0.00000000000E+00 0. -1.
         13    1    3    3    0    0 -0.24404581785E+02 -0.20639971784E+02  0.13207752684E+03  0.13588990081E+03  0.00000000000E+00 0.  1.
        -13    1    4    4    0    0  0.18211929279E+03 -0.57392674084E+02  0.81561931645E+02  0.20763839852E+03  0.00000000000E+00 0.  1.
         13    1    4    4    0    0  0.33750210274E+02 -0.37664477788E+02  0.73960881597E+02  0.89598557953E+02  0.00000000000E+00 0. -1.
          2    1    1    2  501    0 -0.13791397120E+02  0.20607992684E+02 -0.16893661911E+03  0.17074681043E+03  0.00000000000E+00 0. -1.
<scales pt_clust_5="13000.00000" pt_clust_6="13000.00000" pt_clust_7="13000.00000" pt_clust_8="13000.00000" pt_clust_9="24.79702"></scales>
<clustering>
<clus scale="   24.797">  2  9  1 -1</clus>
<clus scale="   90.918">  5  6 -1 -1</clus>
<clus scale="   92.342">  7  8 -1 -1</clus>
<clus scale="  237.144">  1  5  2 -1</clus>
<clus scale="   24.797">  2  5  1 -1</clus>
</clustering>
</event>
<event>
 9    1  0.1881049E-005  0.1052569E+03  0.7546771E-02  0.1269661E+00
          1   -1    0    0  502    0 -0.00000000000E+00  0.00000000000E+00  0.17709377639E+03  0.17709377639E+03  0.00000000000E+00 0. -1.
         21   -1    0    0  501  502  0.00000000000E+00 -0.00000000000E+00 -0.86661455848E+02  0.86661455848E+02  0.00000000000E+00 0.  1.
         23    2    1    2    0    0  0.42915009528E+02  0.19608696793E+02  0.49402566352E+02  0.11362680596E+03  0.90797788729E+02 0.  0.
         23    2    1    2    0    0 -0.62780700375E+02 -0.12049189634E+02  0.85112018036E+01  0.11127938420E+03  0.90686611363E+02 0.  0.
        -11    1    4    4    0    0 -0.46970123399E+02 -0.26409994011E+02 -0.33991915310E+02  0.63711306549E+02  0.00000000000E+00 0.  1.
         11    1    4    4    0    0 -0.15810576977E+02  0.14360804377E+02  0.42503117113E+02  0.47568077647E+02  0.00000000000E+00 0. -1.
        -13    1    3    3    0    0 -0.11590223229E+02  0.41371224633E+02  0.27352612964E+02  0.50932081619E+02  0.00000000000E+00 0.  1.
         13    1    3    3    0    0  0.54505232757E+02 -0.21762527840E+02  0.22049953388E+02  0.62694724342E+02  0.00000000000E+00 0. -1.
          1    1    1    2  501    0  0.19865690847E+02 -0.75595071588E+01  0.32518552385E+02  0.38849042080E+02  0.00000000000E+00 0. -1.
<scales pt_clust_5="13000.00000" pt_clust_6="13000.00000" pt_clust_7="13000.00000" pt_clust_8="13000.00000" pt_clust_9="21.25541"></scales>
<clustering>
<clus scale="   21.255">  2  9  1 -1</clus>
<clus scale="   90.687">  5  6 -1 -1</clus>
<clus scale="   90.798">  7  8 -1 -1</clus>
<clus scale="  105.161">  2  5  1 -1</clus>
<clus scale="   21.255">  2  5  1 -1</clus>
</clustering>
</event>
<event>
 9    1  0.1881049E-005  0.3464949E+03  0.7546771E-02  0.1064232E+00
          1   -1    0    0  502    0 -0.00000000000E+00  0.00000000000E+00  0.79711383015E+03  0.79711383015E+03  0.00000000000E+00 0. -1.
         21   -1    0    0  501  502  0.00000000000E+00 -0.00000000000E+00 -0.31847639154E+03  0.31847639154E+03  0.00000000000E+00 0. -1.
         23    2    1    2    0    0 -0.13226634859E+03  0.32115492858E+03  0.54124562675E+03  0.64964386835E+03  0.91953532239E+02 0.  0.
         23    2    1    2    0    0  0.12365211710E+03 -0.27713406720E+03  0.72530392996E+02  0.32355788003E+03  0.85649906929E+02 0.  0.
        -11    1    4    4    0    0  0.44765900380E+02 -0.19221893702E+03  0.63396728464E+02  0.20729508138E+03  0.00000000000E+00 0.  1.
         11    1    4    4    0    0  0.78886216723E+02 -0.84915130184E+02  0.91336645323E+01  0.11626279865E+03  0.00000000000E+00 0. -1.
        -11    1    3    3    0    0 -0.12707769860E+03  0.28021296754E+03  0.41360276015E+03  0.51549519092E+03  0.00000000000E+00 0. -1.
         11    1    3    3    0    0 -0.51886499863E+01  0.40941961041E+02  0.12764286660E+03  0.13414867743E+03  0.00000000000E+00 0.  1.
          1    1    1    2  501    0  0.86142314856E+01 -0.44020861384E+02 -0.13513858113E+03  0.14238847331E+03  0.00000000000E+00 0. -1.
<scales pt_clust_5="13000.00000" pt_clust_6="13000.00000" pt_clust_7="13000.00000" pt_clust_8="13000.00000" pt_clust_9="44.85578"></scales>
<clustering>
<clus scale="   44.856">  2  9  1 -1</clus>
<clus scale="   85.650">  5  6 -1 -1</clus>
<clus scale="   91.954">  7  8 -1 -1</clus>
<clus scale="  344.876">  2  5  1 -1</clus>
<clus scale="   44.856">  2  5  1 -1</clus>
</clustering>
</event>
<event>
 9    1  0.1881049E-005  0.1056472E+03  0.7546771E-02  0.1268975E+00
          2   -1    0    0  502    0 -0.00000000000E+00  0.00000000000E+00  0.10298476480E+03  0.10298476480E+03  0.00000000000E+00 0. -1.
         21   -1    0    0  501  502  0.00000000000E+00 -0.00000000000E+00 -0.23788047567E+03  0.23788047567E+03  0.00000000000E+00 0. -1.
         23    2    1    2    0    0 -0.40370250324E+02  0.46400180487E+02  0.13037440156E+02  0.11094748168E+03  0.91414632227E+02 0.  0.
         23    2    1    2    0    0  0.36310616391E+02 -0.23058925253E+02 -0.23787080034E+02  0.10353128101E+03  0.91119295844E+02 0.  0.
        -11    1    3    3    0    0  0.24694341537E+02  0.27798924627E+02  0.21173028395E+02  0.42788875258E+02  0.00000000000E+00 0.  1.
         11    1    3    3    0    0 -0.65064591861E+02  0.18601255860E+02 -0.81355882391E+01  0.68158606424E+02  0.00000000000E+00 0. -1.
        -13    1    4    4    0    0 -0.26332615555E+02 -0.21693615840E+02 -0.22483052521E+02  0.40859604267E+02  0.00000000000E+00 0.  1.
         13    1    4    4    0    0  0.62643231946E+02 -0.13653094126E+01 -0.13040275129E+01  0.62671676746E+02  0.00000000000E+00 0. -1.
          2    1    1    2  501    0  0.40596339332E+01 -0.23341255235E+02 -0.12414607099E+03  0.12638647778E+03  0.00000000000E+00 0. -1.
<scales pt_clust_5="13000.00000" pt_clust_6="13000.00000" pt_clust_7="13000.00000" pt_clust_8="13000.00000" pt_clust_9="23.69166"></scales>
<clustering>
<clus scale="   23.692">  2  9  1 -1</clus>
<clus scale="   91.119">  7  8 -1 -1</clus>
<clus scale="   91.415">  5  6 -1 -1</clus>
<clus scale="  105.392">  2  7  1 -1</clus>
<clus scale="   23.692">  2  5  1 -1</clus>
</clustering>
</event>
<event>
 9    1  0.1881049E-005  0.1767339E+03  0.7546771E-02  0.1172115E+00
         21   -1    0    0  501  502  0.00000000000E+00  0.00000000000E+00  0.25802634055E+03  0.25802634055E+03  0.00000000000E+00 0.  1.
         -1   -1    0    0    0  501 -0.00000000000E+00 -0.00000000000E+00 -0.23155929287E+03  0.23155929287E+03  0.00000000000E+00 0.  1.
         23    2    1    2    0    0 -0.68654134303E+01 -0.16470969622E+03 -0.12028975833E+03  0.22143857860E+03  0.85959293861E+02 0.  0.
         23    2    1    2    0    0 -0.13860550922E+02  0.11719310345E+03  0.51563247124E+02  0.15975330113E+03  0.94530473394E+02 0.  0.
        -13    1    3    3    0    0 -0.11956385543E+02 -0.62835317252E+02 -0.98005483577E+02  0.11703122259E+03  0.00000000000E+00 0.  1.
         13    1    3    3    0    0  0.50909721127E+01 -0.10187437897E+03 -0.22284274754E+02  0.10440735601E+03  0.00000000000E+00 0. -1.
        -13    1    4    4    0    0  0.34339545188E+02  0.20740201913E+02 -0.26591465037E+00  0.40117714911E+02  0.00000000000E+00 0.  1.
         13    1    4    4    0    0 -0.48200096110E+02  0.96452901533E+02  0.51829161774E+02  0.11963558622E+03  0.00000000000E+00 0. -1.
         -1    1    1    2    0  502  0.20725964352E+02  0.47516592777E+02  0.95193558885E+02  0.10839375370E+03  0.00000000000E+00 0.  1.
<scales pt_clust_5="13000.00000" pt_clust_6="13000.00000" pt_clust_7="13000.00000" pt_clust_8="13000.00000" pt_clust_9="51.84006"></scales>
<clustering>
<clus scale="   51.840">  1  9  2 -1</clus>
<clus scale="   85.959">  5  6 -1 -1</clus>
<clus scale="   94.530">  7  8 -1 -1</clus>
<clus scale="  172.302">  2  5  1 -1</clus>
<clus scale="   51.840">  1  5  2 -1</clus>
</clustering>
</event>
<event>
 9    1  0.1881049E-005  0.5522709E+03  0.7546771E-02  0.1059938E+00
          2   -1    0    0  502    0 -0.00000000000E+00  0.00000000000E+00  0.81030939528E+03  0.81030939528E+03  0.00000000000E+00 0. -1.
         21   -1    0    0  501  502  0.00000000000E+00 -0.00000000000E+00 -0.68555066561E+03  0.68555066561E+03  0.00000000000E+00 0. -1.
         23    2    1    2    0    0 -0.16741981505E+02  0.12526628511E+02  0.71968493185E+02  0.11998205536E+03  0.93696420592E+02 0.  0.
         23    2    1    2    0    0 -0.12406483782E+02 -0.55441650272E+03  0.43638302921E+03  0.71131973162E+03  0.89521132062E+02 0.  0.
        -11    1    3    3    0    0  0.45915931367E+01  0.43405639336E+02  0.69880991631E+02  0.82392264473E+02  0.00000000000E+00 0.  1.
         11    1    3    3    0    0 -0.21333574641E+02 -0.30879010825E+02  0.20875015538E+01  0.37589790891E+02  0.00000000000E+00 0. -1.
        -11    1    4    4    0    0  0.99544397761E+01 -0.11043980303E+03  0.47290746669E+02  0.12055063536E+03  0.00000000000E+00 0.  1.
         11    1    4    4    0    0 -0.22360923558E+02 -0.44397669969E+03  0.38909228254E+03  0.59076909626E+03  0.00000000000E+00 0. -1.
          2    1    1    2  501    0  0.29148465287E+02  0.54188987421E+03 -0.38359279272E+03  0.66455827391E+03  0.00000000000E+00 0. -1.
<scales pt_clust_5="13000.00000" pt_clust_6="13000.00000" pt_clust_7="13000.00000" pt_clust_8="13000.00000" pt_clust_9="544.96711"></scales>
<clustering>
<clus scale="   89.521">  7  8 -1 -1</clus>
<clus scale="   93.696">  5  6 -1 -1</clus>
<clus scale="   96.001">  1  5  2 -1</clus>
<clus scale="  544.967">  2  9  1 -1</clus>
<clus scale="  544.967">  2  5  1 -1</clus>
</clustering>
</event>
<event>
 9    1  0.2536391E-005  0.9469864E+02  0.7546771E-02  0.1294114E+00
         21   -1    0    0  501  502  0.00000000000E+00  0.00000000000E+00  0.43557099970E+03  0.43557099970E+03  0.00000000000E+00 0. -1.
          1   -1    0    0  502    0 -0.00000000000E+00 -0.00000000000E+00 -0.10512783606E+03  0.10512783606E+03  0.00000000000E+00 0. -1.
         23    2    1    2    0    0  0.18466325391E+01  0.15690270690E+02 -0.53499885057E+02  0.10626472791E+03  0.90445342891E+02 0.  0.
         23    2    1    2    0    0 -0.98817354004E+01  0.25622120247E+02  0.77618382011E+02  0.12523178260E+03  0.94362303943E+02 0.  0.
        -11    1    4    4    0    0 -0.58610456756E+01 -0.35634329785E+02  0.21319329494E+02  0.41936513037E+02  0.00000000000E+00 0. -1.
         11    1    4    4    0    0 -0.40206897248E+01  0.61256450032E+02  0.56299052517E+02  0.83295269558E+02  0.00000000000E+00 0.  1.
        -11    1    3    3    0    0  0.42623744823E+02  0.25494970226E+02 -0.25427411673E+02  0.55797225683E+02  0.00000000000E+00 0.  1.
         11    1    3    3    0    0 -0.40777112284E+02 -0.98046995358E+01 -0.28072473384E+02  0.50467502227E+02  0.00000000000E+00 0. -1.
          1    1    1    2  501    0  0.80351028612E+01 -0.41312390937E+02  0.30632466669E+03  0.30920232526E+03  0.00000000000E+00 0. -1.
<scales pt_clust_5="13000.00000" pt_clust_6="13000.00000" pt_clust_7="13000.00000" pt_clust_8="13000.00000" pt_clust_9="42.08654"></scales>
<clustering>
<clus scale="   42.087">  1  9  2 -1</clus>
<clus scale="   90.445">  7  8 -1 -1</clus>
<clus scale="   90.796">  2  7  1 -1</clus>
<clus scale="   94.362">  5  6 -1 -1</clus>
<clus scale="   42.087">  1  5  2 -1</clus>
</clustering>
</event>
<event>
 9    1  0.1881049E-005  0.9655387E+02  0.7546771E-02  0.1290008E+00
          2   -1    0    0  502    0 -0.00000000000E+00  0.00000000000E+00  0.23561341704E+03  0.23561341704E+03  0.00000000000E+00 0. -1.
         21   -1    0    0  501  502  0.00000000000E+00 -0.00000000000E+00 -0.61286886395E+02  0.61286886395E+02  0.00000000000E+00 0.  1.
         23    2    1    2    0    0 -0.38826865560E+02  0.94154504532E+01  0.95394015036E+02  0.13677696006E+03  0.89508337619E+02 0.  0.
         23    2    1    2    0    0 -0.51159685839E+01 -0.12595025332E+02  0.46994100921E+02  0.10570694234E+03  0.93705412538E+02 0.  0.
        -13    1    4    4    0    0 -0.22015836620E+02 -0.49002024029E+02  0.33739009197E+02  0.63436709898E+02  0.00000000000E+00 0. -1.
         13    1    4    4    0    0  0.16899868036E+02  0.36406998698E+02  0.13255091724E+02  0.42270232438E+02  0.00000000000E+00 0.  1.
        -13    1    3    3    0    0 -0.14813447248E+02 -0.23939364744E+02  0.91220630319E+02  0.95465882908E+02  0.00000000000E+00 0. -1.
         13    1    3    3    0    0 -0.24013418312E+02  0.33354815197E+02  0.41733847174E+01  0.41311077156E+02  0.00000000000E+00 0.  1.
          2    1    1    2  501    0  0.43942834144E+02  0.31795748785E+01  0.31938414691E+02  0.54416401038E+02  0.00000000000E+00 0. -1.
<scales pt_clust_5="13000.00000" pt_clust_6="13000.00000" pt_clust_7="13000.00000" pt_clust_8="13000.00000" pt_clust_9="44.05772"></scales>
<clustering>
<clus scale="   44.058">  2  9  1 -1</clus>
<clus scale="   89.508">  7  8 -1 -1</clus>
<clus scale="   92.486">  1  7  2 -1</clus>
<clus scale="   93.705">  5  6 -1 -1</clus>
<clus scale="   44.058">  2  5  1 -1</clus>
</clustering>
</event>
<event>
 9    1  0.1881049E-005  0.1122628E+03  0.7546771E-02  0.1257007E+00
         21   -1    0    0  501  502  0.00000000000E+00  0.00000000000E+00  0.32955110874E+03  0.32955110874E+03  0.00000000000E+00 0.  1.
          2   -1    0    0  502    0 -0.00000000000E+00 -0.00000000000E+00 -0.11901124035E+03  0.11901124035E+03  0.00000000000E+00 0. -1.
         23    2    1    2    0    0 -0.24158360046E+02  0.54440905153E+02 -0.40646952223E+02  0.11628235217E+03  0.91224844132E+02 0.  0.
         23    2    1    2    0    0  0.54249681888E+02 -0.62096531219E+02  0.55013681180E+02  0.13366479888E+03  0.89670319324E+02 0.  0.
        -11    1    3    3    0    0  0.10856895829E+02 -0.21756097360E+02 -0.34982308297E+01  0.24564966483E+02  0.00000000000E+00 0.  1.
         11    1    3    3    0    0 -0.35015255875E+02  0.76197002513E+02 -0.37148721393E+02  0.91717385686E+02  0.00000000000E+00 0. -1.
        -11    1    4    4    0    0  0.78063324906E+02 -0.34465420154E+02  0.37814664975E+02  0.93336470733E+02  0.00000000000E+00 0.  1.
         11    1    4    4    0    0 -0.23813643018E+02 -0.27631111065E+02  0.17199016205E+02  0.40328328144E+02  0.00000000000E+00 0. -1.
          2    1    1    2  501    0 -0.30091321841E+02  0.76556260658E+01  0.19617313943E+03  0.19861519805E+03  0.00000000000E+00 0. -1.
<scales pt_clust_5="13000.00000" pt_clust_6="13000.00000" pt_clust_7="13000.00000" pt_clust_8="13000.00000" pt_clust_9="31.04990"></scales>
<clustering>
<clus scale="   31.050">  1  9  2 -1</clus>
<clus scale="   89.670">  7  8 -1 -1</clus>
<clus scale="   91.225">  5  6 -1 -1</clus>
<clus scale="  111.003">  1  7  2 -1</clus>
<clus scale="   31.050">  1  5  2 -1</clus>
</clustering>
</event>
<event>
 9    1  0.1881049E-005  0.1295086E+03  0.7546771E-02  0.1243351E+00
          2   -1    0    0  502    0 -0.00000000000E+00  0.00000000000E+00  0.50157695888E+03  0.50157695888E+03  0.00000000000E+00 0. -1.
         21   -1    0    0  501  502  0.00000000000E+00 -0.00000000000E+00 -0.82662331727E+02  0.82662331727E+02  0.00000000000E+00 0. -1.
         23    2    1    2    0    0  0.13035101192E+02 -0.26735969855E+02  0.50887787437E+02  0.10774670144E+03  0.90194560888E+02 0.  0.
         23    2    1    2    0    0  0.70206150701E+01 -0.66273908057E+02  0.36409906211E+03  0.38126393496E+03  0.91392237899E+02 0.  0.
        -11    1    4    4    0    0  0.49334678827E+02 -0.36612680472E+02  0.19795375749E+03  0.20726815725E+03  0.00000000000E+00 0.  1.
         11    1    4    4    0    0 -0.42314063757E+02 -0.29661227585E+02  0.16614530462E+03  0.17399577771E+03  0.00000000000E+00 0. -1.
        -11    1    3    3    0    0 -0.18078746217E+02  0.20220756434E+02 -0.59018038282E+01  0.27758806602E+02  0.00000000000E+00 0.  1.
         11    1    3    3    0    0  0.31113847409E+02 -0.46956726290E+02  0.56789591265E+02  0.79987894837E+02  0.00000000000E+00 0. -1.
          2    1    1    2  501    0 -0.20055716262E+02  0.93009877912E+02  0.39277776015E+01  0.95228654200E+02  0.00000000000E+00 0. -1.
<scales pt_clust_5="13000.00000" pt_clust_6="13000.00000" pt_clust_7="13000.00000" pt_clust_8="13000.00000" pt_clust_9="91.76022"></scales>
<clustering>
<clus scale="   90.195">  7  8 -1 -1</clus>
<clus scale="   91.392">  5  6 -1 -1</clus>
<clus scale="   94.973">  1  7  2 -1</clus>
<clus scale="   91.760">  2  9  1 -1</clus>
<clus scale="   91.760">  2  5  1 -1</clus>
</clustering>
</event>
<event>
 9    1  0.1881049E-005  0.1640710E+03  0.7546771E-02  0.1184697E+00
          1   -1    0    0  502    0 -0.00000000000E+00  0.00000000000E+00  0.67016362674E+03  0.67016362674E+03  0.00000000000E+00 0. -1.
         21   -1    0    0  501  502  0.00000000000E+00 -0.00000000000E+00 -0.26225345234E+03  0.26225345234E+03  0.00000000000E+00 0. -1.
         23    2    1    2    0    0 -0.11305242922E+02 -0.13735295125E+03  0.57211557764E+03  0.59582560406E+03  0.93264540681E+02 0.  0.
         23    2    1    2    0    0  0.23691097861E+02  0.11762040093E+03  0.19710012486E+02  0.15120630009E+03  0.89883445428E+02 0.  0.
        -13    1    3    3    0    0 -0.32217776797E+02 -0.10585505405E+02  0.18094454313E+03  0.18409499111E+03  0.00000000000E+00 0.  1.
         13    1    3    3    0    0  0.20912533875E+02 -0.12676744585E+03  0.39117103451E+03  0.41173061295E+03  0.00000000000E+00 0. -1.
        -13    1    4    4    0    0 -0.25152633298E+02  0.31273962377E+01  0.13394849539E+01  0.25381682154E+02  0.00000000000E+00 0. -1.
         13    1    4    4    0    0  0.48843731159E+02  0.11449300469E+03  0.18370527532E+02  0.12582461793E+03  0.00000000000E+00 0.  1.
          1    1    1    2  501    0 -0.12385854940E+02  0.19732550326E+02 -0.18391541572E+03  0.18538517493E+03  0.00000000000E+00 0. -1.
<scales pt_clust_5="13000.00000" pt_clust_6="13000.00000" pt_clust_7="13000.00000" pt_clust_8="13000.00000" pt_clust_9="23.29770"></scales>
<clustering>
<clus scale="   23.298">  2  9  1 -1</clus>
<clus scale="   89.883">  7  8 -1 -1</clus>
<clus scale="   93.265">  5  6 -1 -1</clus>
<clus scale="  162.173">  2  7  1 -1</clus>
<clus scale="   23.298">  2  5  1 -1</clus>
</clustering>
</event>
<event>
 9    1  0.1881049E-005  0.2538366E+03  0.7546771E-02  0.1110924E+00
         -3   -1    0    0    0  501 -0.00000000000E+00  0.00000000000E+00  0.30666303058E+03  0.30666303058E+03  0.00000000000E+00 0.  1.
         21   -1    0    0  501  502  0.00000000000E+00 -0.00000000000E+00 -0.37760724285E+03  0.37760724285E+03  0.00000000000E+00 0. -1.
         23    2    1    2    0    0 -0.18948958735E+03  0.12497220587E+03  0.71900437913E+02  0.25511146312E+03  0.91585095332E+02 0.  0.
         23    2    1    2    0    0  0.27000433953E+03 -0.42229864356E+02 -0.87336471070E+02  0.30105698228E+03  0.91224681926E+02 0.  0.
        -11    1    3    3    0    0 -0.17120905492E+03  0.78897202499E+02  0.31421042547E+02  0.19111407840E+03  0.00000000000E+00 0.  1.
         11    1    3    3    0    0 -0.18280532437E+02  0.46075003371E+02  0.40479395365E+02  0.63997384720E+02  0.00000000000E+00 0. -1.
        -13    1    4    4    0    0  0.11254775548E+03 -0.63200879189E+02 -0.33799487200E+02  0.13343070760E+03  0.00000000000E+00 0. -1.
         13    1    4    4    0    0  0.15745658405E+03  0.20971014833E+02 -0.53536983870E+02  0.16762627468E+03  0.00000000000E+00 0.  1.
         -3    1    1    2    0  502 -0.80514752177E+02 -0.82742341514E+02 -0.55508179106E+02  0.12810182803E+03  0.00000000000E+00 0.  1.
<scales pt_clust_5="13000.00000" pt_clust_6="13000.00000" pt_clust_7="13000.00000" pt_clust_8="13000.00000" pt_clust_9="115.45094"></scales>
<clustering>
<clus scale="   91.225">  7  8 -1 -1</clus>
<clus scale="   91.585">  5  6 -1 -1</clus>
<clus scale="  115.451">  2  9  1 -1</clus>
<clus scale="  253.707">  2  7  1 -1</clus>
<clus scale="  115.451">  2  5  1 -1</clus>
</clustering>
</event>
<event>
 9    1  0.1881049E-005  0.1061371E+03  0.7546771E-02  0.1271563E+00
         21   -1    0    0  501  502  0.00000000000E+00  0.00000000000E+00  0.28945396527E+03  0.28945396527E+03  0.00000000000E+00 0.  1.
         -1   -1    0    0    0  501 -0.00000000000E+00 -0.00000000000E+00 -0.19925484774E+03  0.19925484774E+03  0.00000000000E+00 0.  1.
         23    2    1    2    0    0  0.42134892295E+02 -0.33642575062E+02 -0.95691844382E+02  0.14220286676E+03  0.90319179727E+02 0.  0.
         23    2    1    2    0    0 -0.57504596394E+01  0.24431968766E+02 -0.46191446754E+02  0.11140829289E+03  0.98225093981E+02 0.  0.
        -13    1    3    3    0    0  0.13978380505E+02  0.31174203847E+02 -0.25816367295E+02  0.42821851050E+02  0.00000000000E+00 0. -1.
         13    1    3    3    0    0  0.28156511790E+02 -0.64816778909E+02 -0.69875477088E+02  0.99381015705E+02  0.00000000000E+00 0.  1.
        -13    1    4    4    0    0 -0.34460588634E+02  0.44328034401E+02 -0.51364012386E+02  0.76097099624E+02  0.00000000000E+00 0. -1.
         13    1    4    4    0    0  0.28710128994E+02 -0.19896065635E+02  0.51725656315E+01  0.35311193266E+02  0.00000000000E+00 0.  1.
         -1    1    1    2    0  502 -0.36384432656E+02  0.92106062959E+01  0.23208240866E+03  0.23509765337E+03  0.00000000000E+00 0.  1.
<scales pt_clust_5="13000.00000" pt_clust_6="13000.00000" pt_clust_7="13000.00000" pt_clust_8="13000.00000" pt_clust_9="37.53215"></scales>
<clustering>
<clus scale="   37.532">  1  9  2 -1</clus>
<clus scale="   90.319">  5  6 -1 -1</clus>
<clus scale="   98.225">  7  8 -1 -1</clus>
<clus scale="   98.866">  2  5  1 -1</clus>
<clus scale="   37.532">  1  5  2 -1</clus>
</clustering>
</event>
<event>
 9    1  0.1881049E-005  0.1134174E+03  0.7546771E-02  0.1262763E+00
          2   -1    0    0  502    0 -0.00000000000E+00  0.00000000000E+00  0.92896479475E+02  0.92896479475E+02  0.00000000000E+00 0. -1.
         21   -1    0    0  501  502  0.00000000000E+00 -0.00000000000E+00 -0.20709914034E+03  0.20709914034E+03  0.00000000000E+00 0.  1.
         23    2    1    2    0    0 -0.16355055339E+02 -0.42702720251E+02  0.22855272167E+02  0.11418365564E+03  0.10210060528E+03 0.  0.
         23    2    1    2    0    0  0.37913671346E+02  0.48796024922E+02 -0.11199812465E+03  0.15219803429E+03  0.82475227753E+02 0.  0.
        -11    1    3    3    0    0 -0.24037804119E+02 -0.10472612357E+02  0.59354909164E+02  0.64888341621E+02  0.00000000000E+00 0. -1.
         11    1    3    3    0    0  0.76827487800E+01 -0.32230107894E+02 -0.36499636997E+02  0.49295314023E+02  0.00000000000E+00 0.  1.
        -13    1    4    4    0    0  0.31244613589E+02  0.65292171775E+00 -0.96111481756E+02  0.10106467786E+03  0.00000000000E+00 0.  1.
         13    1    4    4    0    0  0.66690577573E+01  0.48143103205E+02 -0.15886642897E+02  0.51133356433E+02  0.00000000000E+00 0. -1.
          2    1    1    2  501    0 -0.21558616007E+02 -0.60933046713E+01 -0.25059808380E+02  0.33613929880E+02  0.00000000000E+00 0. -1.
<scales pt_clust_5="13000.00000" pt_clust_6="13000.00000" pt_clust_7="13000.00000" pt_clust_8="13000.00000" pt_clust_9="22.40318"></scales>
<clustering>
<clus scale="   22.403">  2  9  1 -1</clus>
<clus scale="   82.475">  7  8 -1 -1</clus>
<clus scale="   96.131">  2  7  1 -1</clus>
<clus scale="  102.101">  5  6 -1 -1</clus>
<clus scale="   22.403">  2  5  1 -1</clus>
</clustering>
</event>
<event>
 9    1  0.1881049E-005  0.1882658E+03  0.7546771E-02  0.1160092E+00
         -4   -1    0    0    0  501 -0.00000000000E+00  0.00000000000E+00  0.30364176957E+03  0.30364176957E+03  0.00000000000E+00 0.  1.
         21   -1    0    0  501  502  0.00000000000E+00 -0.00000000000E+00 -0.23097430238E+03  0.23097430238E+03  0.00000000000E+00 0.  1.
         23    2    1    2    0    0 -0.13718911529E+03 -0.72311389506E+02  0.16064656325E+03  0.24133530895E+03  0.91573045462E+02 0.  0.
         23    2    1    2    0    0  0.15995474192E+03  0.12480057211E+03 -0.74192289051E+02  0.23442956001E+03  0.91060532564E+02 0.  0.
        -13    1    3    3    0    0 -0.10954468292E+03 -0.16331073649E+02  0.13293579357E+03  0.17302793628E+03  0.00000000000E+00 0.  1.
         13    1    3    3    0    0 -0.27644432375E+02 -0.55980315857E+02  0.27710769685E+02  0.68307372672E+02  0.00000000000E+00 0. -1.
        -13    1    4    4    0    0  0.44428603682E+02 -0.22912963510E+01 -0.38885080582E+02  0.59086380461E+02  0.00000000000E+00 0.  1.
         13    1    4    4    0    0  0.11552613824E+03  0.12709186846E+03 -0.35307208469E+02  0.17534317955E+03  0.00000000000E+00 0. -1.
         -4    1    1    2    0  502 -0.22765626630E+02 -0.52489182604E+02 -0.13786807009E+02  0.58851202994E+02  0.00000000000E+00 0.  1.
<scales pt_clust_5="13000.00000" pt_clust_6="13000.00000" pt_clust_7="13000.00000" pt_clust_8="13000.00000" pt_clust_9="57.21353"></scales>
<clustering>
<clus scale="   57.214">  2  9  1 -1</clus>
<clus scale="   91.061">  7  8 -1 -1</clus>
<clus scale="   91.573">  5  6 -1 -1</clus>
<clus scale="  188.017">  2  7  1 -1</clus>
<clus scale="   57.214">  2  5  1 -1</clus>
</clustering>
</event>
<event>
 9    1  0.1881049E-005  0.1154731E+03  0.7546771E-02  0.1251203E+00
         21   -1    0    0  501  502  0.00000000000E+00  0.00000000000E+00  0.11397671633E+03  0.11397671633E+03  0.00000000000E+00 0.  1.
          3   -1    0    0  502    0 -0.00000000000E+00 -0.00000000000E+00 -0.27607366923E+03  0.27607366923E+03  0.00000000000E+00 0. -1.
         23    2    1    2    0    0  0.51994122281E+02 -0.31867928067E+02 -0.13995176503E+03  0.17826586030E+03  0.92050349392E+02 0.  0.
         23    2    1    2    0    0 -0.61316838391E+02  0.92805183775E+02  0.67058222618E+01  0.14372100379E+03  0.90764541934E+02 0.  0.
        -11    1    3    3    0    0 -0.26167164128E+02 -0.44932662507E+00 -0.32280978213E+02  0.41556996129E+02  0.00000000000E+00 0. -1.
         11    1    3    3    0    0  0.78161286409E+02 -0.31418601442E+02 -0.10767078681E+03  0.13670886417E+03  0.00000000000E+00 0.  1.
        -13    1    4    4    0    0 -0.16995146016E+02  0.23934036412E+02 -0.39864543145E+02  0.49506109595E+02  0.00000000000E+00 0. -1.
         13    1    4    4    0    0 -0.44321692375E+02  0.68871147363E+02  0.46570365407E+02  0.94214894195E+02  0.00000000000E+00 0.  1.
          3    1    1    2  501    0  0.93227161101E+01 -0.60937255708E+02 -0.28851010136E+02  0.68063521469E+02  0.00000000000E+00 0. -1.
<scales pt_clust_5="13000.00000" pt_clust_6="13000.00000" pt_clust_7="13000.00000" pt_clust_8="13000.00000" pt_clust_9="61.64630"></scales>
<clustering>
<clus scale="   61.646">  1  9  2 -1</clus>
<clus scale="   90.765">  7  8 -1 -1</clus>
<clus scale="   92.050">  5  6 -1 -1</clus>
<clus scale="  114.451">  1  7  2 -1</clus>
<clus scale="   61.646">  1  5  2 -1</clus>
</clustering>
</event>
<event>
 9    1  0.1881049E-005  0.2752993E+03  0.7546771E-02  0.1098291E+00
          2   -1    0    0  502    0 -0.00000000000E+00  0.00000000000E+00  0.64287424374E+03  0.64287424374E+03  0.00000000000E+00 0. -1.
         21   -1    0    0  501  502  0.00000000000E+00 -0.00000000000E+00 -0.14148175267E+03  0.14148175267E+03  0.00000000000E+00 0. -1.
         23    2    1    2    0    0  0.12843714661E+03  0.22977271912E+03  0.35817548873E+03  0.45361208559E+03  0.90457948163E+02 0.  0.
         23    2    1    2    0    0 -0.14551611561E+03 -0.20963469205E+03  0.13793405616E+03  0.30381547163E+03  0.90312750691E+02 0.  0.
        -11    1    4    4    0    0 -0.39043877580E+02 -0.11271954185E+03  0.98058612279E+02  0.15442024133E+03  0.00000000000E+00 0. -1.
         11    1    4    4    0    0 -0.10647223803E+03 -0.96915150200E+02  0.39875443885E+02  0.14939523030E+03  0.00000000000E+00 0.  1.
        -13    1    3    3    0    0  0.43387840282E+02  0.34857230768E+02  0.13151195711E+03  0.14280380277E+03  0.00000000000E+00 0.  1.
         13    1    3    3    0    0  0.85049306328E+02  0.19491548835E+03  0.22666353162E+03  0.31080828282E+03  0.00000000000E+00 0. -1.
          2    1    1    2  501    0  0.17078969004E+02 -0.20138027074E+02  0.52829461798E+01  0.26928439186E+02  0.00000000000E+00 0. -1.
<scales pt_clust_5="13000.00000" pt_clust_6="13000.00000" pt_clust_7="13000.00000" pt_clust_8="13000.00000" pt_clust_9="26.40514"></scales>
<clustering>
<clus scale="   26.405">  2  9  1 -1</clus>
<clus scale="   90.313">  5  6 -1 -1</clus>
<clus scale="   90.458">  7  8 -1 -1</clus>
<clus scale="  275.252">  2  5  1 -1</clus>
<clus scale="   26.405">  2  5  1 -1</clus>
</clustering>
</event>
<event>
 9    1  0.1881049E-005  0.3221037E+03  0.7546771E-02  0.1074796E+00
          2   -1    0    0  502    0 -0.00000000000E+00  0.00000000000E+00  0.11375830429E+04  0.11375830429E+04  0.00000000000E+00 0. -1.
         21   -1    0    0  501  502  0.00000000000E+00 -0.00000000000E+00 -0.20808516026E+03  0.20808516026E+03  0.00000000000E+00 0. -1.
         23    2    1    2    0    0  0.51499237588E+02 -0.30920397628E+03  0.86648732380E+03  0.92564496976E+03  0.88085511430E+02 0.  0.
         23    2    1    2    0    0 -0.69324943949E+02  0.28553587761E+03  0.13956409178E+03  0.33793560878E+03  0.91573220507E+02 0.  0.
        -13    1    3    3    0    0  0.62198019572E+02 -0.16220631717E+03  0.39140950975E+03  0.42822994675E+03  0.00000000000E+00 0. -1.
         13    1    3    3    0    0 -0.10698781984E+02 -0.14699765910E+03  0.47507781405E+03  0.49741502301E+03  0.00000000000E+00 0.  1.
        -13    1    4    4    0    0 -0.87247687936E+02  0.23486283650E+03  0.13336781489E+03  0.28383038081E+03  0.00000000000E+00 0.  1.
         13    1    4    4    0    0  0.17922743986E+02  0.50673041105E+02  0.61962768837E+01  0.54105227973E+02  0.00000000000E+00 0. -1.
          2    1    1    2  501    0  0.17825706362E+02  0.23668098670E+02 -0.76553532964E+02  0.82087624592E+02  0.00000000000E+00 0. -1.
<scales pt_clust_5="13000.00000" pt_clust_6="13000.00000" pt_clust_7="13000.00000" pt_clust_8="13000.00000" pt_clust_9="29.62996"></scales>
<clustering>
<clus scale="   29.630">  2  9  1 -1</clus>
<clus scale="   88.086">  5  6 -1 -1</clus>
<clus scale="   91.573">  7  8 -1 -1</clus>
<clus scale="  321.130">  1  5  2 -1</clus>
<clus scale="   29.630">  2  5  1 -1</clus>
</clustering>
</event>
<event>
 9    1  0.1881049E-005  0.1018396E+03  0.7546771E-02  0.1276620E+00
          1   -1    0    0  502    0 -0.00000000000E+00  0.00000000000E+00  0.16534117432E+03  0.16534117432E+03  0.00000000000E+00 0. -1.
         21   -1    0    0  501  502  0.00000000000E+00 -0.00000000000E+00 -0.23906469514E+03  0.23906469514E+03  0.00000000000E+00 0.  1.
         23    2    1    2    0    0 -0.27679495424E+02  0.29592800051E+02  0.10513015513E+03  0.14462921803E+03  0.90682814845E+02 0.  0.
         23    2    1    2    0    0  0.41786760899E+02 -0.59469192441E+02 -0.49188015774E+02  0.12596784309E+03  0.90364364448E+02 0.  0.
        -11    1    4    4    0    0  0.67167539336E+02 -0.57026452882E+02 -0.48240516613E+02  0.10045218819E+03  0.00000000000E+00 0.  1.
         11    1    4    4    0    0 -0.25380778437E+02 -0.24427395582E+01 -0.94749916079E+00  0.25515654906E+02  0.00000000000E+00 0. -1.
        -13    1    3    3    0    0  0.31803818264E+02  0.14759564625E+01  0.22410042774E+02  0.38934192181E+02  0.00000000000E+00 0.  1.
         13    1    3    3    0    0 -0.59483313689E+02  0.28116843588E+02  0.82720112353E+02  0.10569502585E+03  0.00000000000E+00 0. -1.
          1    1    1    2  501    0 -0.14107265475E+02  0.29876392390E+02 -0.12966566017E+03  0.13380880834E+03  0.00000000000E+00 0. -1.
<scales pt_clust_5="13000.00000" pt_clust_6="13000.00000" pt_clust_7="13000.00000" pt_clust_8="13000.00000" pt_clust_9="33.03958"></scales>
<clustering>
<clus scale="   33.040">  2  9  1 -1</clus>
<clus scale="   90.364">  5  6 -1 -1</clus>
<clus scale="   90.683">  7  8 -1 -1</clus>
<clus scale="  101.556">  2  5  1 -1</clus>
<clus scale="   33.040">  2  5  1 -1</clus>
</clustering>
</event>
<event>
 9    1  0.1881049E-005  0.1359855E+03  0.7546771E-02  0.1218859E+00
          2   -1    0    0  502    0 -0.00000000000E+00  0.00000000000E+00  0.34550963699E+02  0.34550963699E+02  0.00000000000E+00 0. -1.
         21   -1    0    0  501  502  0.00000000000E+00 -0.00000000000E+00 -0.68831153409E+03  0.68831153409E+03  0.00000000000E+00 0.  1.
         23    2    1    2    0    0  0.10092909296E+03  0.85539462389E+01 -0.22129067850E+03  0.25971486261E+03  0.90677415420E+02 0.  0.
         23    2    1    2    0    0 -0.10197252691E+03  0.18354123384E+02 -0.38035847551E+03  0.40448987625E+03  0.90577149479E+02 0.  0.
        -11    1    4    4    0    0 -0.67816309721E+02 -0.31943736238E+02 -0.17653633531E+03  0.19179294000E+03  0.00000000000E+00 0. -1.
         11    1    4    4    0    0 -0.34156217191E+02  0.50297859621E+02 -0.20382214020E+03  0.21269693625E+03  0.00000000000E+00 0.  1.
        -13    1    3    3    0    0  0.53042906151E+02 -0.40790034713E+02 -0.10087012827E+03  0.12104610527E+03  0.00000000000E+00 0. -1.
         13    1    3    3    0    0  0.47886186813E+02  0.49343980952E+02 -0.12042055024E+03  0.13866875734E+03  0.00000000000E+00 0.  1.
          2    1    1    2  501    0  0.10434339489E+01 -0.26908069623E+02 -0.52111416382E+02  0.58657758929E+02  0.00000000000E+00 0. -1.
<scales pt_clust_5="13000.00000" pt_clust_6="13000.00000" pt_clust_7="13000.00000" pt_clust_8="13000.00000" pt_clust_9="26.92831"></scales>
<clustering>
<clus scale="   26.928">  2  9  1 -1</clus>
<clus scale="   90.577">  5  6 -1 -1</clus>
<clus scale="   90.677">  7  8 -1 -1</clus>
<clus scale="  135.919">  2  5  1 -1</clus>
<clus scale="   26.928">  2  5  1 -1</clus>
</clustering>
</event>
<event>
 9    1  0.1881049E-005  0.9688319E+02  0.7546771E-02  0.1293142E+00
         21   -1    0    0  501  502  0.00000000000E+00  0.00000000000E+00  0.40079772846E+03  0.40079772846E+03  0.00000000000E+00 0. -1.
         -1   -1    0    0    0  501 -0.00000000000E+00 -0.00000000000E+00 -0.46395831699E+02  0.46395831699E+02  0.00000000000E+00 0.  1.
         23    2    1    2    0    0  0.33458921168E+02 -0.17380681979E+01  0.67519981715E+02  0.11384310439E+03  0.85315791035E+02 0.  0.
         23    2    1    2    0    0 -0.59520015030E+02 -0.63744898289E+01  0.77551500894E+02  0.12224807184E+03  0.73123795498E+02 0.  0.
        -11    1    3    3    0    0 -0.16124403724E+02 -0.15605357494E+02  0.57048568809E+02  0.61303040554E+02  0.00000000000E+00 0. -1.
         11    1    3    3    0    0  0.49583324893E+02  0.13867289296E+02  0.10471412906E+02  0.52540063838E+02  0.00000000000E+00 0.  1.
        -11    1    4    4    0    0 -0.91246514043E+01 -0.34624220838E+02  0.38129920221E+02  0.52306660646E+02  0.00000000000E+00 0.  1.
         11    1    4    4    0    0 -0.50395363626E+02  0.28249731009E+02  0.39421580673E+02  0.69941411194E+02  0.00000000000E+00 0. -1.
         -1    1    1    2    0  502  0.26061093862E+02  0.81125580268E+01  0.20933041415E+03  0.21110238393E+03  0.00000000000E+00 0.  1.
<scales pt_clust_5="13000.00000" pt_clust_6="13000.00000" pt_clust_7="13000.00000" pt_clust_8="13000.00000" pt_clust_9="27.29458"></scales>
<clustering>
<clus scale="   27.295">  1  9  2 -1</clus>
<clus scale="   73.124">  7  8 -1 -1</clus>
<clus scale="   85.316">  5  6 -1 -1</clus>
<clus scale="   86.340">  1  7  2 -1</clus>
<clus scale="   27.295">  1  5  2 -1</clus>
</clustering>
</event>
<event>
 9    1  0.1881049E-005  0.9538604E+02  0.7546771E-02  0.1302236E+00
         21   -1    0    0  501  502  0.00000000000E+00  0.00000000000E+00  0.22735122249E+03  0.22735122249E+03  0.00000000000E+00 0. -1.
          4   -1    0    0  502    0 -0.00000000000E+00 -0.00000000000E+00 -0.13760412361E+03  0.13760412361E+03  0.00000000000E+00 0. -1.
         23    2    1    2    0    0  0.99722578231E+01  0.18751235642E+02 -0.65431173701E+02  0.99399257016E+02  0.71749000267E+02 0.  0.
         23    2    1    2    0    0 -0.10718948391E+02 -0.39731458478E+02 -0.82295538108E+01  0.10080523166E+03  0.91654157176E+02 0.  0.
        -11    1    3    3    0    0  0.31094910893E+02  0.17558811280E+01 -0.65234240671E+02  0.72287500703E+02  0.00000000000E+00 0. -1.
         11    1    3    3    0    0 -0.21122653070E+02  0.16995354514E+02 -0.19693303030E+00  0.27111756313E+02  0.00000000000E+00 0.  1.
        -13    1    4    4    0    0 -0.50617363752E+02 -0.28706169953E+02  0.17819693972E+01  0.58218013719E+02  0.00000000000E+00 0.  1.
         13    1    4    4    0    0  0.39898415361E+02 -0.11025288525E+02 -0.10011523208E+02  0.42587217945E+02  0.00000000000E+00 0. -1.
          4    1    1    2  501    0  0.74669056779E+00  0.20980222836E+02  0.16340782639E+03  0.16475085743E+03  0.00000000000E+00 0. -1.
<scales pt_clust_5="13000.00000" pt_clust_6="13000.00000" pt_clust_7="13000.00000" pt_clust_8="13000.00000" pt_clust_9="20.99351"></scales>
<clustering>
<clus scale="   20.994">  1  9  2 -1</clus>
<clus scale="   71.749">  5  6 -1 -1</clus>
<clus scale="   76.459">  2  5  1 -1</clus>
<clus scale="   91.654">  7  8 -1 -1</clus>
<clus scale="   20.994">  1  5  2 -1</clus>
</clustering>
</event>
<event>
 9    1  0.1881049E-005  0.9575340E+02  0.7546771E-02  0.1289527E+00
          1   -1    0    0  502    0 -0.00000000000E+00  0.00000000000E+00  0.25109931864E+03  0.25109931864E+03  0.00000000000E+00 0. -1.
         21   -1    0    0  501  502  0.00000000000E+00 -0.00000000000E+00 -0.49218696068E+02  0.49218696068E+02  0.00000000000E+00 0.  1.
         23    2    1    2    0    0 -0.13207981501E+02  0.12200014906E+02  0.98166902688E+02  0.13541262688E+03  0.91523481114E+02 0.  0.
         23    2    1    2    0    0  0.25354171436E+02 -0.29087309885E+02  0.10432928207E+03  0.14409458346E+03  0.91595547276E+02 0.  0.
        -11    1    3    3    0    0 -0.44539953649E+02 -0.11665939067E+02  0.79400098072E+02  0.91783861214E+02  0.00000000000E+00 0. -1.
         11    1    3    3    0    0  0.31331972149E+02  0.23865953973E+02  0.18766804616E+02  0.43628765663E+02  0.00000000000E+00 0.  1.
        -11    1    4    4    0    0  0.34442956156E+02 -0.54614242169E+02  0.96098414098E+02  0.11577537678E+03  0.00000000000E+00 0.  1.
         11    1    4    4    0    0 -0.90887847201E+01  0.25526932285E+02  0.82308679712E+01  0.28319206682E+02  0.00000000000E+00 0. -1.
          1    1    1    2  501    0 -0.12146189935E+02  0.16887294979E+02 -0.61556218555E+00  0.20810804368E+02  0.00000000000E+00 0. -1.
<scales pt_clust_5="13000.00000" pt_clust_6="13000.00000" pt_clust_7="13000.00000" pt_clust_8="13000.00000" pt_clust_9="20.80170"></scales>
<clustering>
<clus scale="   20.802">  2  9  1 -1</clus>
<clus scale="   91.523">  5  6 -1 -1</clus>
<clus scale="   91.596">  7  8 -1 -1</clus>
<clus scale="   95.684">  1  5  2 -1</clus>
<clus scale="   20.802">  2  5  1 -1</clus>
</clustering>
</event>
<event>
 9    1  0.1881049E-005  0.1327971E+03  0.7546771E-02  0.1223459E+00
          3   -1    0    0  502    0 -0.00000000000E+00  0.00000000000E+00  0.59308513782E+02  0.59308513782E+02  0.00000000000E+00 0. -1.
         21   -1    0    0  501  502  0.00000000000E+00 -0.00000000000E+00 -0.45072120679E+03  0.45072120679E+03  0.00000000000E+00 0. -1.
         23    2    1    2    0    0  0.33893599844E+02  0.11593091916E+03 -0.13298996237E+03  0.20147805351E+03  0.91204834449E+02 0.  0.
         23    2    1    2    0    0 -0.10125698735E+02 -0.66729775870E+02 -0.18104111942E+03  0.21382268850E+03  0.91590733356E+02 0.  0.
        -13    1    3    3    0    0 -0.65743273984E+01  0.31598064138E+02  0.70838730367E+01  0.33043012804E+02  0.00000000000E+00 0. -1.
         13    1    3    3    0    0  0.40467927242E+02  0.84332855020E+02 -0.14007383541E+03  0.16843504070E+03  0.00000000000E+00 0.  1.
        -13    1    4    4    0    0  0.31420979472E+02 -0.52744853132E+02 -0.14359523860E+03  0.15616942733E+03  0.00000000000E+00 0.  1.
         13    1    4    4    0    0 -0.41546678207E+02 -0.13984922738E+02 -0.37445880811E+02  0.57653261172E+02  0.00000000000E+00 0. -1.
          3    1    1    2  501    0 -0.23767901109E+02 -0.49201143288E+02 -0.77381611223E+02  0.94728978562E+02  0.00000000000E+00 0. -1.
<scales pt_clust_5="13000.00000" pt_clust_6="13000.00000" pt_clust_7="13000.00000" pt_clust_8="13000.00000" pt_clust_9="54.64124"></scales>
<clustering>
<clus scale="   54.641">  2  9  1 -1</clus>
<clus scale="   91.205">  5  6 -1 -1</clus>
<clus scale="   91.591">  7  8 -1 -1</clus>
<clus scale="  132.531">  1  5  2 -1</clus>
<clus scale="   54.641">  2  5  1 -1</clus>
</clustering>
</event>
<event>
 9    1  0.1881049E-005  0.1013342E+03  0.7546771E-02  0.1278007E+00
          1   -1    0    0  502    0 -0.00000000000E+00  0.00000000000E+00  0.32743011257E+03  0.32743011257E+03  0.00000000000E+00 0. -1.
         21   -1    0    0  501  502  0.00000000000E+00 -0.00000000000E+00 -0.22125022479E+03  0.22125022479E+03  0.00000000000E+00 0.  1.
         23    2    1    2    0    0  0.41754993258E+01  0.43051357827E+02  0.30053641711E+03  0.31733027769E+03  0.92225337767E+02 0.  0.
         23    2    1    2    0    0 -0.14531218755E+02 -0.20135507599E+02 -0.11931422334E+03  0.15220636249E+03  0.91182771975E+02 0.  0.
        -11    1    4    4    0    0 -0.25059332951E+01 -0.52524658786E+02 -0.41232617555E+02  0.66822512918E+02  0.00000000000E+00 0.  1.
         11    1    4    4    0    0 -0.12025285460E+02  0.32389151187E+02 -0.78081605785E+02  0.85383849567E+02  0.00000000000E+00 0. -1.
        -13    1    3    3    0    0  0.28609760128E+02  0.39675363736E+02  0.28267523260E+03  0.28687617536E+03  0.00000000000E+00 0. -1.
         13    1    3    3    0    0 -0.24434260802E+02  0.33759940912E+01  0.17861184511E+02  0.30454102337E+02  0.00000000000E+00 0.  1.
          1    1    1    2  501    0  0.10355719429E+02 -0.22915850228E+02 -0.75042305987E+02  0.79143697187E+02  0.00000000000E+00 0. -1.
<scales pt_clust_5="13000.00000" pt_clust_6="13000.00000" pt_clust_7="13000.00000" pt_clust_8="13000.00000" pt_clust_9="25.14711"></scales>
<clustering>
<clus scale="   25.147">  2  9  1 -1</clus>
<clus scale="   91.183">  5  6 -1 -1</clus>
<clus scale="   92.225">  7  8 -1 -1</clus>
<clus scale="  100.386">  2  5  1 -1</clus>
<clus scale="   25.147">  2  5  1 -1</clus>
</clustering>
</event>
<event>
 9    1  0.1881049E-005  0.1289831E+03  0.7546771E-02  0.1229545E+00
          1   -1    0    0  502    0 -0.00000000000E+00  0.00000000000E+00  0.40945971134E+03  0.40945971134E+03  0.00000000000E+00 0. -1.
         21   -1    0    0  501  502  0.00000000000E+00 -0.00000000000E+00 -0.51150845752E+02  0.51150845752E+02  0.00000000000E+00 0. -1.
         23    2    1    2    0    0  0.29666373454E+02 -0.93980209628E+02  0.21264397172E+03  0.25070086356E+03  0.89000509917E+02 0.  0.
         23    2    1    2    0    0 -0.13251978908E+02  0.81950527645E+02  0.14387953909E+03  0.18948096160E+03  0.91160348353E+02 0.  0.
        -11    1    4    4    0    0 -0.37272677630E+02  0.21201332057E+01  0.27704628831E+02  0.46489718446E+02  0.00000000000E+00 0.  1.
         11    1    4    4    0    0  0.24020698722E+02  0.79830394439E+02  0.11617491026E+03  0.14299124315E+03  0.00000000000E+00 0. -1.
        -13    1    3    3    0    0  0.27673517401E+02 -0.51483152107E+02  0.19681029317E+03  0.20530618601E+03  0.00000000000E+00 0. -1.
         13    1    3    3    0    0  0.19928560528E+01 -0.42497057522E+02  0.15833678544E+02  0.45394677546E+02  0.00000000000E+00 0.  1.
          1    1    1    2  501    0 -0.16414394545E+02  0.12029681983E+02  0.17853547784E+01  0.20428731938E+02  0.00000000000E+00 0. -1.
<scales pt_clust_5="13000.00000" pt_clust_6="13000.00000" pt_clust_7="13000.00000" pt_clust_8="13000.00000" pt_clust_9="20.35057"></scales>
<clustering>
<clus scale="   20.351">  2  9  1 -1</clus>
<clus scale="   89.001">  7  8 -1 -1</clus>
<clus scale="   91.160">  5  6 -1 -1</clus>
<clus scale="  127.466">  1  7  2 -1</clus>
<clus scale="   20.351">  2  5  1 -1</clus>
</clustering>
</event>
<event>
 9    1  0.1881049E-005  0.1498264E+03  0.7546771E-02  0.1201061E+00
         21   -1    0    0  501  502  0.00000000000E+00  0.00000000000E+00  0.41738711623E+02  0.41738711623E+02  0.00000000000E+00 0. -1.
          3   -1    0    0  502    0 -0.00000000000E+00 -0.00000000000E+00 -0.85866316330E+03  0.85866316330E+03  0.00000000000E+00 0. -1.
         23    2    1    2    0    0 -0.12092007327E+03 -0.26559143319E+02 -0.42874255203E+03  0.45585698909E+03  0.93050343199E+02 0.  0.
         23    2    1    2    0    0  0.11346489816E+03 -0.27967405187E+02 -0.34194660661E+03  0.37266702798E+03  0.91086624159E+02 0.  0.
        -11    1    4    4    0    0  0.95516781049E+02 -0.59032202689E+02 -0.26011974548E+03  0.28332055769E+03  0.00000000000E+00 0. -1.
         11    1    4    4    0    0  0.17948117112E+02  0.31064797502E+02 -0.81826861126E+02  0.89346470291E+02  0.00000000000E+00 0.  1.
        -11    1    3    3    0    0 -0.27676272328E+02 -0.40640450901E+02 -0.74389152223E+02  0.89170445035E+02  0.00000000000E+00 0.  1.
         11    1    3    3    0    0 -0.93243800938E+02  0.14081307582E+02 -0.35435339981E+03  0.36668654405E+03  0.00000000000E+00 0. -1.
          3    1    1    2  501    0  0.74551751048E+01  0.54526548506E+02 -0.46235293037E+02  0.71877857857E+02  0.00000000000E+00 0. -1.
<scales pt_clust_5="13000.00000" pt_clust_6="13000.00000" pt_clust_7="13000.00000" pt_clust_8="13000.00000" pt_clust_9="55.03385"></scales>
<clustering>
<clus scale="   55.034">  1  9  2 -1</clus>
<clus scale="   91.087">  5  6 -1 -1</clus>
<clus scale="   93.050">  7  8 -1 -1</clus>
<clus scale="  148.615">  1  5  2 -1</clus>
<clus scale="   55.034">  1  5  2 -1</clus>
</clustering>
</event>
<event>
 9    1  0.1881049E-005  0.1517613E+03  0.7546771E-02  0.1198481E+00
         21   -1    0    0  501  502  0.00000000000E+00  0.00000000000E+00  0.14074194833E+03  0.14074194833E+03  0.00000000000E+00 0. -1.
          1   -1    0    0  502    0 -0.00000000000E+00 -0.00000000000E+00 -0.80890203834E+03  0.80890203834E+03  0.00000000000E+00 0. -1.
         23    2    1    2    0    0  0.27200973105E+02  0.13667072636E+03 -0.50926020662E+03  0.53570334523E+03  0.90627455318E+02 0.  0.
         23    2    1    2    0    0 -0.17539064586E+02 -0.98846788900E+02 -0.26698189544E+03  0.29902448047E+03  0.89766368789E+02 0.  0.
        -11    1    4    4    0    0 -0.42293694420E+01 -0.63639449082E+02 -0.56508207074E+02  0.85211762757E+02  0.00000000000E+00 0.  1.
         11    1    4    4    0    0 -0.13309695144E+02 -0.35207339818E+02 -0.21047368837E+03  0.21381271772E+03  0.00000000000E+00 0. -1.
        -13    1    3    3    0    0  0.18744889378E+02  0.98837899380E+02 -0.46955897176E+03  0.48021446167E+03  0.00000000000E+00 0. -1.
         13    1    3    3    0    0  0.84560837266E+01  0.37832826984E+02 -0.39701234863E+02  0.55488883564E+02  0.00000000000E+00 0.  1.
          1    1    1    2  501    0 -0.96619085189E+01 -0.37823937464E+02  0.10808201205E+03  0.11491616096E+03  0.00000000000E+00 0. -1.
<scales pt_clust_5="13000.00000" pt_clust_6="13000.00000" pt_clust_7="13000.00000" pt_clust_8="13000.00000" pt_clust_9="39.03848"></scales>
<clustering>
<clus scale="   39.038">  1  9  2 -1</clus>
<clus scale="   89.766">  5  6 -1 -1</clus>
<clus scale="   90.627">  7  8 -1 -1</clus>
<clus scale="  151.249">  1  5  2 -1</clus>
<clus scale="   39.038">  1  5  2 -1</clus>
</clustering>
</event>
<event>
 9    1  0.1881049E-005  0.1024680E+03  0.7546771E-02  0.1280802E+00
         21   -1    0    0  501  502  0.00000000000E+00  0.00000000000E+00  0.11430317090E+03  0.11430317090E+03  0.00000000000E+00 0.  1.
         -4   -1    0    0    0  501 -0.00000000000E+00 -0.00000000000E+00 -0.17391567030E+03  0.17391567030E+03  0.00000000000E+00 0.  1.
         23    2    1    2    0    0 -0.42554154006E+02 -0.16668257837E+02 -0.77787113782E+02  0.11939235303E+03  0.78198542498E+02 0.  0.
         23    2    1    2    0    0  0.62670586937E+02  0.57892117439E+01  0.56901362717E+02  0.12385109985E+03  0.90223125722E+02 0.  0.
        -11    1    3    3    0    0  0.11737118353E+01  0.24139497232E+02 -0.45260017651E+02  0.51308499528E+02  0.00000000000E+00 0.  1.
         11    1    3    3    0    0 -0.43727865842E+02 -0.40807755069E+02 -0.32527096131E+02  0.68083853501E+02  0.00000000000E+00 0. -1.
        -13    1    4    4    0    0  0.72299702782E+02  0.25584776824E+02  0.17418531941E+02  0.78646252819E+02  0.00000000000E+00 0. -1.
         13    1    4    4    0    0 -0.96291158458E+01 -0.19795565080E+02  0.39482830776E+02  0.45204847029E+02  0.00000000000E+00 0.  1.
         -4    1    1    2    0  502 -0.20116432930E+02  0.10879046093E+02 -0.38726748338E+02  0.44975388320E+02  0.00000000000E+00 0.  1.
<scales pt_clust_5="13000.00000" pt_clust_6="13000.00000" pt_clust_7="13000.00000" pt_clust_8="13000.00000" pt_clust_9="22.86974"></scales>
<clustering>
<clus scale="   22.870">  1  9  2 -1</clus>
<clus scale="   78.199">  5  6 -1 -1</clus>
<clus scale="   90.223">  7  8 -1 -1</clus>
<clus scale="   92.057">  2  5  1 -1</clus>
<clus scale="   22.870">  1  5  2 -1</clus>
</clustering>
</event>
<event>
 9    1  0.1881049E-005  0.9503627E+02  0.7546771E-02  0.1291927E+00
         21   -1    0    0  501  502  0.00000000000E+00  0.00000000000E+00  0.34508785467E+02  0.34508785467E+02  0.00000000000E+00 0. -1.
          2   -1    0    0  502    0 -0.00000000000E+00 -0.00000000000E+00 -0.58747933035E+03  0.58747933035E+03  0.00000000000E+00 0. -1.
         23    2    1    2    0    0 -0.35289361112E+02 -0.61028361309E+01 -0.35254891879E+03  0.36609333595E+03  0.91929358049E+02 0.  0.
         23    2    1    2    0    0 -0.68223481376E+01 -0.37798256308E+02 -0.12640193309E+03  0.16008446244E+03  0.90412022491E+02 0.  0.
        -11    1    3    3    0    0 -0.63692846486E+02 -0.54678777681E+01 -0.29581135649E+03  0.30264010806E+03  0.00000000000E+00 0. -1.
         11    1    3    3    0    0  0.28403485374E+02 -0.63495836280E+00 -0.56737562302E+02  0.63453227888E+02  0.00000000000E+00 0.  1.
        -13    1    4    4    0    0  0.24400234831E+02  0.17669519180E+02 -0.65008997602E+02  0.71650213796E+02  0.00000000000E+00 0.  1.
         13    1    4    4    0    0 -0.31222582968E+02 -0.55467775488E+02 -0.61392935487E+02  0.88434248640E+02  0.00000000000E+00 0. -1.
          2    1    1    2  501    0  0.42111709249E+02  0.43901092439E+02 -0.74019692999E+02  0.95810317424E+02  0.00000000000E+00 0. -1.
<scales pt_clust_5="13000.00000" pt_clust_6="13000.00000" pt_clust_7="13000.00000" pt_clust_8="13000.00000" pt_clust_9="60.83340"></scales>
<clustering>
<clus scale="   60.833">  1  9  2 -1</clus>
<clus scale="   90.412">  7  8 -1 -1</clus>
<clus scale="   91.929">  5  6 -1 -1</clus>
<clus scale="   93.569">  1  7  2 -1</clus>
<clus scale="   60.833">  1  5  2 -1</clus>
</clustering>
</event>
<event>
 9    1  0.1881049E-005  0.1283649E+03  0.7546771E-02  0.1230957E+00
         21   -1    0    0  501  502  0.00000000000E+00  0.00000000000E+00  0.13945065537E+03  0.13945065537E+03  0.00000000000E+00 0. -1.
          1   -1    0    0  502    0 -0.00000000000E+00 -0.00000000000E+00 -0.41482907599E+03  0.41482907599E+03  0.00000000000E+00 0. -1.
         23    2    1    2    0    0  0.10011681994E+03 -0.50215375426E+00 -0.29157438489E+03  0.32373416703E+03  0.98815784079E+02 0.  0.
         23    2    1    2    0    0 -0.22949880517E+02  0.64494938037E+02 -0.28679155224E+02  0.12071119207E+03  0.95196659071E+02 0.  0.
        -13    1    4    4    0    0 -0.25290745403E+02  0.87742099463E+01 -0.53379807737E+02  0.59716098644E+02  0.00000000000E+00 0.  1.
         13    1    4    4    0    0  0.23408648857E+01  0.55720728091E+02  0.24700652514E+02  0.60995093425E+02  0.00000000000E+00 0. -1.
        -13    1    3    3    0    0  0.65549647476E+02  0.16276132484E+02 -0.64362733172E+02  0.93296463996E+02  0.00000000000E+00 0.  1.
         13    1    3    3    0    0  0.34567172461E+02 -0.16778286238E+02 -0.22721165172E+03  0.23043770303E+03  0.00000000000E+00 0. -1.
          1    1    1    2  501    0 -0.77166939420E+02 -0.63992784283E+02  0.44875119492E+02  0.10983437226E+03  0.00000000000E+00 0. -1.
<scales pt_clust_5="13000.00000" pt_clust_6="13000.00000" pt_clust_7="13000.00000" pt_clust_8="13000.00000" pt_clust_9="100.24876"></scales>
<clustering>
<clus scale="   95.197">  5  6 -1 -1</clus>
<clus scale="   98.816">  7  8 -1 -1</clus>
<clus scale="  100.249">  1  9  2 -1</clus>
<clus scale="  125.600">  1  5  2 -1</clus>
<clus scale="  100.249">  1  5  2 -1</clus>
</clustering>
</event>
<event>
 9    1  0.1881049E-005  0.9707565E+02  0.7546771E-02  0.1287277E+00
          1   -1    0    0  502    0 -0.00000000000E+00  0.00000000000E+00  0.40086703139E+03  0.40086703139E+03  0.00000000000E+00 0. -1.
         21   -1    0    0  501  502  0.00000000000E+00 -0.00000000000E+00 -0.56751417303E+02  0.56751417303E+02  0.00000000000E+00 0. -1.
         23    2    1    2    0    0 -0.22505208622E+02  0.14631451127E+02  0.24237279471E+03  0.26049323380E+03  0.91605619150E+02 0.  0.
         23    2    1    2    0    0  0.24502821048E+02 -0.36806914184E+02  0.12797687737E+03  0.16271638731E+03  0.90240813311E+02 0.  0.
        -13    1    3    3    0    0 -0.40540340773E+02  0.36859989751E+02  0.21111313612E+03  0.21810762095E+03  0.00000000000E+00 0. -1.
         13    1    3    3    0    0  0.18035132151E+02 -0.22228538624E+02  0.31259658596E+02  0.42385612849E+02  0.00000000000E+00 0.  1.
        -13    1    4    4    0    0  0.68240012777E+01 -0.51832464885E+02  0.12930814419E+03  0.13947676352E+03  0.00000000000E+00 0.  1.
         13    1    4    4    0    0  0.17678819771E+02  0.15025550702E+02 -0.13312668199E+01  0.23239623786E+02  0.00000000000E+00 0. -1.
          1    1    1    2  501    0 -0.19976124258E+01  0.22175463057E+02 -0.26234057993E+02  0.34408827588E+02  0.00000000000E+00 0. -1.
<scales pt_clust_5="13000.00000" pt_clust_6="13000.00000" pt_clust_7="13000.00000" pt_clust_8="13000.00000" pt_clust_9="22.26526"></scales>
<clustering>
<clus scale="   22.265">  2  9  1 -1</clus>
<clus scale="   90.241">  7  8 -1 -1</clus>
<clus scale="   91.606">  5  6 -1 -1</clus>
<clus scale="   95.789">  2  7  1 -1</clus>
<clus scale="   22.265">  2  5  1 -1</clus>
</clustering>
</event>
<event>
 9    1  0.1881049E-005  0.1311790E+03  0.7546771E-02  0.1226901E+00
         -2   -1    0    0    0  501 -0.00000000000E+00  0.00000000000E+00  0.17654829513E+03  0.17654829513E+03  0.00000000000E+00 0.  1.
         21   -1    0    0  501  502  0.00000000000E+00 -0.00000000000E+00 -0.35081103777E+03  0.35081103777E+03  0.00000000000E+00 0. -1.
         23    2    1    2    0    0  0.13918269762E+02  0.80094445465E+02  0.95454101628E+02  0.15494315855E+03  0.91033282034E+02 0.  0.
         23    2    1    2    0    0 -0.29672533970E+02 -0.15265447088E+03 -0.18760493142E+03  0.26171152061E+03  0.95464459211E+02 0.  0.
        -11    1    3    3    0    0 -0.30693983365E+02  0.20910124679E+02  0.64903532102E+02  0.74778488941E+02  0.00000000000E+00 0.  1.
         11    1    3    3    0    0  0.44612253127E+02  0.59184320786E+02  0.30550569525E+02  0.80164669614E+02  0.00000000000E+00 0. -1.
        -11    1    4    4    0    0 -0.26735329504E+01 -0.68785675735E+02 -0.18900480070E+02  0.71385188321E+02  0.00000000000E+00 0.  1.
         11    1    4    4    0    0 -0.26999001020E+02 -0.83868795146E+02 -0.16870445135E+03  0.19032633229E+03  0.00000000000E+00 0. -1.
         -2    1    1    2    0  502  0.15754264208E+02  0.72560025415E+02 -0.82111912841E+02  0.11070465374E+03  0.00000000000E+00 0.  1.
<scales pt_clust_5="13000.00000" pt_clust_6="13000.00000" pt_clust_7="13000.00000" pt_clust_8="13000.00000" pt_clust_9="74.25062"></scales>
<clustering>
<clus scale="   74.251">  2  9  1 -1</clus>
<clus scale="   91.033">  5  6 -1 -1</clus>
<clus scale="   95.464">  7  8 -1 -1</clus>
<clus scale="  127.990">  1  5  2 -1</clus>
<clus scale="   74.251">  2  5  1 -1</clus>
</clustering>
</event>
<event>
 9    1  0.1881049E-005  0.9902896E+02  0.7546771E-02  0.1283720E+00
          2   -1    0    0  502    0 -0.00000000000E+00  0.00000000000E+00  0.60063137530E+03  0.60063137530E+03  0.00000000000E+00 0. -1.
         21   -1    0    0  501  502  0.00000000000E+00 -0.00000000000E+00 -0.69766222760E+02  0.69766222760E+02  0.00000000000E+00 0.  1.
         23    2    1    2    0    0 -0.22068158170E+02 -0.19289294060E+02  0.42420772917E+03  0.43537017740E+03  0.93466108372E+02 0.  0.
         23    2    1    2    0    0 -0.14483311146E+01  0.57152805801E+02  0.14212324302E+03  0.17806695057E+03  0.90775997947E+02 0.  0.
        -11    1    3    3    0    0 -0.25178847047E+02 -0.52219734201E+02  0.33985349760E+03  0.34476263547E+03  0.00000000000E+00 0.  1.
         11    1    3    3    0    0  0.31106888769E+01  0.32930440141E+02  0.84354231566E+02  0.90607541939E+02  0.00000000000E+00 0. -1.
        -13    1    4    4    0    0  0.24720068708E+02  0.10765473591E+02  0.72655660157E+00  0.26972302517E+02  0.00000000000E+00 0.  1.
         13    1    4    4    0    0 -0.26168399823E+02  0.46387332210E+02  0.14139668642E+03  0.15109464805E+03  0.00000000000E+00 0. -1.
          2    1    1    2  501    0  0.23516489285E+02 -0.37863511740E+02 -0.35465819650E+02  0.56960470092E+02  0.00000000000E+00 0. -1.
<scales pt_clust_5="13000.00000" pt_clust_6="13000.00000" pt_clust_7="13000.00000" pt_clust_8="13000.00000" pt_clust_9="44.57209"></scales>
<clustering>
<clus scale="   44.572">  2  9  1 -1</clus>
<clus scale="   90.776">  7  8 -1 -1</clus>
<clus scale="   93.466">  5  6 -1 -1</clus>
<clus scale="   96.494">  2  7  1 -1</clus>
<clus scale="   44.572">  2  5  1 -1</clus>
</clustering>
</event>
<event>
 9    1  0.1881049E-005  0.1248123E+03  0.7546771E-02  0.1235563E+00
          4   -1    0    0  502    0 -0.00000000000E+00  0.00000000000E+00  0.26360983892E+03  0.26360983892E+03  0.00000000000E+00 0. -1.
         21   -1    0    0  501  502  0.00000000000E+00 -0.00000000000E+00 -0.12709553564E+03  0.12709553564E+03  0.00000000000E+00 0.  1.
         23    2    1    2    0    0 -0.49272502841E+01  0.10610436585E+03  0.16755722967E+03  0.21733973971E+03  0.88762170965E+02 0.  0.
         23    2    1    2    0    0  0.15102975676E+01 -0.35548866304E+02 -0.38218660466E+02  0.10236390782E+03  0.88043743236E+02 0.  0.
        -11    1    3    3    0    0 -0.35452523070E+02  0.40827000076E+02  0.29471503154E+02  0.61581611098E+02  0.00000000000E+00 0.  1.
         11    1    3    3    0    0  0.30525272786E+02  0.65277365771E+02  0.13808572652E+03  0.15575812861E+03  0.00000000000E+00 0. -1.
        -13    1    4    4    0    0 -0.32866110327E+02 -0.44768638032E+02 -0.37034261142E+02  0.66752892503E+02  0.00000000000E+00 0.  1.
         13    1    4    4    0    0  0.34376407894E+02  0.92197717275E+01 -0.11843993234E+01  0.35611015321E+02  0.00000000000E+00 0. -1.
          4    1    1    2  501    0  0.34169527165E+01 -0.70555499542E+02  0.71757340800E+01  0.71001727029E+02  0.00000000000E+00 0. -1.
<scales pt_clust_5="13000.00000" pt_clust_6="13000.00000" pt_clust_7="13000.00000" pt_clust_8="13000.00000" pt_clust_9="70.63819"></scales>
<clustering>
<clus scale="   70.638">  2  9  1 -1</clus>
<clus scale="   88.044">  7  8 -1 -1</clus>
<clus scale="   88.762">  5  6 -1 -1</clus>
<clus scale="  124.302">  2  7  1 -1</clus>
<clus scale="   70.638">  2  5  1 -1</clus>
</clustering>
</event>
<event>
 9    1  0.1881049E-005  0.1069192E+03  0.7546771E-02  0.1269757E+00
          2   -1    0    0  502    0 -0.00000000000E+00  0.00000000000E+00  0.15186976168E+03  0.15186976168E+03  0.00000000000E+00 0. -1.
         21   -1    0    0  501  502  0.00000000000E+00 -0.00000000000E+00 -0.22553999183E+03  0.22553999183E+03  0.00000000000E+00 0. -1.
         23    2    1    2    0    0 -0.34429511364E+02 -0.12115969301E+02  0.63434326045E+02  0.12282386855E+03  0.98638739859E+02 0.  0.
         23    2    1    2    0    0  0.53622928075E+02 -0.28870275741E+02  0.52030847801E+00  0.10971054923E+03  0.91253617212E+02 0.  0.
        -13    1    4    4    0    0  0.55076873443E+02 -0.82005305179E+01 -0.36995064227E+02  0.66853163472E+02  0.00000000000E+00 0.  1.
         13    1    4    4    0    0 -0.14539453680E+01 -0.20669745223E+02  0.37515372705E+02  0.42857385757E+02  0.00000000000E+00 0. -1.
        -13    1    3    3    0    0  0.33762409872E+02  0.66978525250E+01  0.19791931052E+02  0.39704937773E+02  0.00000000000E+00 0.  1.
         13    1    3    3    0    0 -0.68191921236E+02 -0.18813821826E+02  0.43642394993E+02  0.83118930781E+02  0.00000000000E+00 0. -1.
          2    1    1    2  501    0 -0.19193416711E+02  0.40986245042E+02 -0.13762486467E+03  0.14487533573E+03  0.00000000000E+00 0. -1.
<scales pt_clust_5="13000.00000" pt_clust_6="13000.00000" pt_clust_7="13000.00000" pt_clust_8="13000.00000" pt_clust_9="45.25770"></scales>
<clustering>
<clus scale="   45.258">  2  9  1 -1</clus>
<clus scale="   91.254">  5  6 -1 -1</clus>
<clus scale="   98.639">  7  8 -1 -1</clus>
<clus scale="  100.147">  2  5  1 -1</clus>
<clus scale="   45.258">  2  5  1 -1</clus>
</clustering>
</event>
<event>
 9    1  0.1881049E-005  0.1129639E+03  0.7546771E-02  0.1256864E+00
         21   -1    0    0  501  502  0.00000000000E+00  0.00000000000E+00  0.86902841734E+02  0.86902841734E+02  0.00000000000E+00 0. -1.
         -3   -1    0    0    0  501 -0.00000000000E+00 -0.00000000000E+00 -0.24548893947E+03  0.24548893947E+03  0.00000000000E+00 0.  1.
         23    2    1    2    0    0 -0.19258993705E+02  0.61044321159E+02 -0.13830592521E+03  0.17529313965E+03  0.86613150713E+02 0.  0.
         23    2    1    2    0    0  0.40203014877E+02 -0.62174476071E+02 -0.43964989638E+02  0.12546164052E+03  0.91245575503E+02 0.  0.
        -11    1    3    3    0    0  0.29946264243E+01  0.64400956192E+02 -0.13851841879E+03  0.15278679030E+03  0.00000000000E+00 0.  1.
         11    1    3    3    0    0 -0.22253620129E+02 -0.33566350326E+01  0.21249358194E+00  0.22506349351E+02  0.00000000000E+00 0. -1.
        -13    1    4    4    0    0  0.10750560922E+02 -0.19795358575E+02 -0.65706410637E+02  0.69460515259E+02  0.00000000000E+00 0.  1.
         13    1    4    4    0    0  0.29452453955E+02 -0.42379117496E+02  0.21741420999E+02  0.56001125264E+02  0.00000000000E+00 0. -1.
         -3    1    1    2    0  502 -0.20944021172E+02  0.11301549117E+01  0.23684817108E+02  0.31637001034E+02  0.00000000000E+00 0.  1.
<scales pt_clust_5="13000.00000" pt_clust_6="13000.00000" pt_clust_7="13000.00000" pt_clust_8="13000.00000" pt_clust_9="20.97449"></scales>
<clustering>
<clus scale="   20.974">  1  9  2 -1</clus>
<clus scale="   86.613">  5  6 -1 -1</clus>
<clus scale="   91.246">  7  8 -1 -1</clus>
<clus scale="  109.256">  2  5  1 -1</clus>
<clus scale="   20.974">  1  5  2 -1</clus>
</clustering>
</event>
<event>
 9    1  0.1881049E-005  0.9162968E+02  0.7546771E-02  0.1299741E+00
          1   -1    0    0  502    0 -0.00000000000E+00  0.00000000000E+00  0.45220306884E+03  0.45220306884E+03  0.00000000000E+00 0. -1.
         21   -1    0    0  501  502  0.00000000000E+00 -0.00000000000E+00 -0.32614783015E+02  0.32614783015E+02  0.00000000000E+00 0.  1.
         23    2    1    2    0    0 -0.95323233477E+01 -0.58501124253E+01  0.31035722000E+03  0.32370294622E+03  0.91306650243E+02 0.  0.
         23    2    1    2    0    0  0.28214824333E+01 -0.16278390496E+02  0.10170894417E+03  0.13679848440E+03  0.89978715545E+02 0.  0.
        -11    1    3    3    0    0 -0.41670136946E+02 -0.15805776768E+02  0.25544301314E+03  0.25930166960E+03  0.00000000000E+00 0.  1.
         11    1    3    3    0    0  0.32137813598E+02  0.99556643425E+01  0.54914206861E+02  0.64401276622E+02  0.00000000000E+00 0. -1.
        -11    1    4    4    0    0 -0.94578664364E-01 -0.53768465124E+02  0.56514076964E+02  0.78005754160E+02  0.00000000000E+00 0. -1.
         11    1    4    4    0    0  0.29160610976E+01  0.37490074628E+02  0.45194867204E+02  0.58792730244E+02  0.00000000000E+00 0.  1.
          1    1    1    2  501    0  0.67108409144E+01  0.22128502922E+02  0.75221216507E+01  0.24316421230E+02  0.00000000000E+00 0. -1.
<scales pt_clust_5="13000.00000" pt_clust_6="13000.00000" pt_clust_7="13000.00000" pt_clust_8="13000.00000" pt_clust_9="23.12371"></scales>
<clustering>
<clus scale="   23.124">  2  9  1 -1</clus>
<clus scale="   89.979">  7  8 -1 -1</clus>
<clus scale="   90.306">  2  7  1 -1</clus>
<clus scale="   91.307">  5  6 -1 -1</clus>
<clus scale="   23.124">  2  5  1 -1</clus>
</clustering>
</event>
<event>
 9    1  0.1881049E-005  0.1136475E+03  0.7546771E-02  0.1257789E+00
         -3   -1    0    0    0  501 -0.00000000000E+00  0.00000000000E+00  0.58864685257E+03  0.58864685257E+03  0.00000000000E+00 0.  1.
         21   -1    0    0  501  502  0.00000000000E+00 -0.00000000000E+00 -0.19309418983E+03  0.19309418983E+03  0.00000000000E+00 0.  1.
         23    2    1    2    0    0  0.52878745549E+02 -0.46733681859E+02  0.55577811003E+03  0.56582513935E+03  0.79300579989E+02 0.  0.
         23    2    1    2    0    0 -0.12942943566E+02  0.34584794691E+02 -0.13732580191E+03  0.16830437610E+03  0.90024215252E+02 0.  0.
        -11    1    4    4    0    0  0.11597570229E+02  0.23389895565E+02  0.21956794541E+01  0.26199462934E+02  0.00000000000E+00 0. -1.
         11    1    4    4    0    0 -0.24540513795E+02  0.11194899127E+02 -0.13952148136E+03  0.14210491316E+03  0.00000000000E+00 0.  1.
        -13    1    3    3    0    0  0.30085660427E+02 -0.68226724893E+02  0.37271075684E+03  0.38009648935E+03  0.00000000000E+00 0.  1.
         13    1    3    3    0    0  0.22793085122E+02  0.21493043034E+02  0.18306735318E+03  0.18572865000E+03  0.00000000000E+00 0. -1.
         -3    1    1    2    0  502 -0.39935801983E+02  0.12148887168E+02 -0.22899645382E+02  0.47611526945E+02  0.00000000000E+00 0.  1.
<scales pt_clust_5="13000.00000" pt_clust_6="13000.00000" pt_clust_7="13000.00000" pt_clust_8="13000.00000" pt_clust_9="41.74283"></scales>
<clustering>
<clus scale="   41.743">  2  9  1 -1</clus>
<clus scale="   79.301">  7  8 -1 -1</clus>
<clus scale="   90.024">  5  6 -1 -1</clus>
<clus scale="  105.356">  1  7  2 -1</clus>
<clus scale="   41.743">  2  5  1 -1</clus>
</clustering>
</event>
<event>
 9    1  0.1881049E-005  0.1039336E+03  0.7546771E-02  0.1272990E+00
         21   -1    0    0  501  502  0.00000000000E+00  0.00000000000E+00  0.35452032091E+02  0.35452032091E+02  0.00000000000E+00 0. -1.
          1   -1    0    0  502    0 -0.00000000000E+00 -0.00000000000E+00 -0.73403892183E+03  0.73403892183E+03  0.00000000000E+00 0. -1.
         23    2    1    2    0    0  0.39539322497E+02  0.39557768932E+02 -0.38490817328E+03  0.39964433543E+03  0.91832008996E+02 0.  0.
         23    2    1    2    0    0 -0.71210691583E+01 -0.23886219117E+02 -0.54619541804E+02  0.10829701211E+03  0.90131500577E+02 0.  0.
        -13    1    4    4    0    0  0.34332699351E+02 -0.36308537644E+02 -0.25166131867E+02  0.55949784126E+02  0.00000000000E+00 0. -1.
         13    1    4    4    0    0 -0.41453768509E+02  0.12422318527E+02 -0.29453409936E+02  0.52347227988E+02  0.00000000000E+00 0.  1.
        -13    1    3    3    0    0 -0.24939501461E+02 -0.89461404959E+01 -0.10953302172E+03  0.11269203615E+03  0.00000000000E+00 0. -1.
         13    1    3    3    0    0  0.64478823958E+02  0.48503909428E+02 -0.27537515156E+03  0.28695229928E+03  0.00000000000E+00 0.  1.
          1    1    1    2  501    0 -0.32418253338E+02 -0.15671549814E+02 -0.25905917465E+03  0.26154960637E+03  0.00000000000E+00 0. -1.
<scales pt_clust_5="13000.00000" pt_clust_6="13000.00000" pt_clust_7="13000.00000" pt_clust_8="13000.00000" pt_clust_9="36.00753"></scales>
<clustering>
<clus scale="   36.008">  1  9  2 -1</clus>
<clus scale="   90.132">  5  6 -1 -1</clus>
<clus scale="   91.832">  7  8 -1 -1</clus>
<clus scale="  102.434">  1  5  2 -1</clus>
<clus scale="   36.008">  1  5  2 -1</clus>
</clustering>
</event>
<event>
 9    1  0.1881049E-005  0.9637092E+02  0.7546771E-02  0.1288368E+00
         21   -1    0    0  501  502  0.00000000000E+00  0.00000000000E+00  0.13145196930E+03  0.13145196930E+03  0.00000000000E+00 0. -1.
          1   -1    0    0  502    0 -0.00000000000E+00 -0.00000000000E+00 -0.27051936478E+03  0.27051936478E+03  0.00000000000E+00 0. -1.
         23    2    1    2    0    0  0.30406290706E+00  0.14530536599E+02 -0.12465900190E+03  0.15532042700E+03  0.91505952486E+02 0.  0.
         23    2    1    2    0    0 -0.37740837849E+02 -0.38805717064E+02 -0.10245514073E+03  0.14794413837E+03  0.91979115551E+02 0.  0.
        -11    1    4    4    0    0  0.32318285819E+01 -0.60252651100E+02 -0.61740323221E+02  0.86328988132E+02  0.00000000000E+00 0.  1.
         11    1    4    4    0    0 -0.40972666431E+02  0.21446934035E+02 -0.40714817513E+02  0.61615150240E+02  0.00000000000E+00 0. -1.
        -13    1    3    3    0    0  0.35507909348E+02  0.28725568060E+02 -0.33701949705E+02  0.56760825404E+02  0.00000000000E+00 0.  1.
         13    1    3    3    0    0 -0.35203846441E+02 -0.14195031461E+02 -0.90957052199E+02  0.98559601598E+02  0.00000000000E+00 0. -1.
          1    1    1    2  501    0  0.37436774942E+02  0.24275180465E+02  0.88046747153E+02  0.98706768709E+02  0.00000000000E+00 0. -1.
<scales pt_clust_5="13000.00000" pt_clust_6="13000.00000" pt_clust_7="13000.00000" pt_clust_8="13000.00000" pt_clust_9="44.61834"></scales>
<clustering>
<clus scale="   44.618">  1  9  2 -1</clus>
<clus scale="   91.506">  7  8 -1 -1</clus>
<clus scale="   91.979">  5  6 -1 -1</clus>
<clus scale="   95.919">  2  7  1 -1</clus>
<clus scale="   44.618">  1  5  2 -1</clus>
</clustering>
</event>
<event>
 9    1  0.1881049E-005  0.1002150E+03  0.7546771E-02  0.1283203E+00
         21   -1    0    0  501  502  0.00000000000E+00  0.00000000000E+00  0.56020516851E+02  0.56020516851E+02  0.00000000000E+00 0. -1.
         -3   -1    0    0    0  501 -0.00000000000E+00 -0.00000000000E+00 -0.41303467001E+03  0.41303467001E+03  0.00000000000E+00 0.  1.
         23    2    1    2    0    0  0.13272433077E+02 -0.37913795466E+02 -0.27269798315E+03  0.29150676262E+03  0.94859840128E+02 0.  0.
         23    2    1    2    0    0 -0.12576909702E+02 -0.66157598357E+01 -0.87805542143E+01  0.89861513584E+02  0.88295223854E+02 0.  0.
        -11    1    4    4    0    0  0.31074384286E+02 -0.17522702043E+02 -0.23269760590E+02  0.42592771729E+02  0.00000000000E+00 0.  1.
         11    1    4    4    0    0 -0.43651293988E+02  0.10906942208E+02  0.14489206376E+02  0.47268741855E+02  0.00000000000E+00 0. -1.
        -13    1    3    3    0    0  0.11214073568E+02  0.31514705785E+02 -0.82569301284E+02  0.89087718802E+02  0.00000000000E+00 0.  1.
         13    1    3    3    0    0  0.20583595082E+01 -0.69428501251E+02 -0.19012868187E+03  0.20241904382E+03  0.00000000000E+00 0. -1.
         -3    1    1    2    0  502 -0.69552337497E+00  0.44529555302E+02 -0.75535615793E+02  0.87686910662E+02  0.00000000000E+00 0.  1.
<scales pt_clust_5="13000.00000" pt_clust_6="13000.00000" pt_clust_7="13000.00000" pt_clust_8="13000.00000" pt_clust_9="44.53501"></scales>
<clustering>
<clus scale="   44.535">  1  9  2 -1</clus>
<clus scale="   88.295">  5  6 -1 -1</clus>
<clus scale="   94.025">  1  5  2 -1</clus>
<clus scale="   94.860">  7  8 -1 -1</clus>
<clus scale="   44.535">  1  5  2 -1</clus>
</clustering>
</event>
<event>
 9    1  0.1881049E-005  0.1428134E+03  0.7546771E-02  0.1209923E+00
         21   -1    0    0  501  502  0.00000000000E+00  0.00000000000E+00  0.11265205638E+03  0.11265205638E+03  0.00000000000E+00 0.  1.
          1   -1    0    0  502    0 -0.00000000000E+00 -0.00000000000E+00 -0.54688253315E+03  0.54688253315E+03  0.00000000000E+00 0. -1.
         23    2    1    2    0    0  0.99373131368E+02 -0.46518747763E+02 -0.45635573564E+03  0.47811336155E+03  0.91064899426E+02 0.  0.
         23    2    1    2    0    0 -0.10581316039E+03  0.13148747815E+02  0.68832811738E+00  0.14123948001E+03  0.92621824850E+02 0.  0.
        -11    1    4    4    0    0 -0.63991291941E+02  0.53038548561E+02  0.51418947977E+01  0.83273117871E+02  0.00000000000E+00 0. -1.
         11    1    4    4    0    0 -0.41821868447E+02 -0.39889800746E+02 -0.44535666803E+01  0.57966362144E+02  0.00000000000E+00 0.  1.
        -11    1    3    3    0    0  0.71630162993E+02 -0.70759964411E+02 -0.38316366605E+03  0.39617199269E+03  0.00000000000E+00 0.  1.
         11    1    3    3    0    0  0.27742968376E+02  0.24241216648E+02 -0.73192069593E+02  0.81941368857E+02  0.00000000000E+00 0. -1.
          1    1    1    2  501    0  0.64400290202E+01  0.33369999948E+02  0.21436930749E+02  0.40181747974E+02  0.00000000000E+00 0. -1.
<scales pt_clust_5="13000.00000" pt_clust_6="13000.00000" pt_clust_7="13000.00000" pt_clust_8="13000.00000" pt_clust_9="33.98575"></scales>
<clustering>
<clus scale="   33.986">  1  9  2 -1</clus>
<clus scale="   91.065">  7  8 -1 -1</clus>
<clus scale="   92.622">  5  6 -1 -1</clus>
<clus scale="  141.809">  2  7  1 -1</clus>
<clus scale="   33.986">  1  5  2 -1</clus>
</clustering>
</event>
<event>
 9    1  0.1881049E-005  0.1052382E+03  0.7546771E-02  0.1269783E+00
         21   -1    0    0  501  502  0.00000000000E+00  0.00000000000E+00  0.20124019258E+03  0.20124019258E+03  0.00000000000E+00 0.  1.
          2   -1    0    0  502    0 -0.00000000000E+00 -0.00000000000E+00 -0.94500397038E+02  0.94500397038E+02  0.00000000000E+00 0. -1.
         23    2    1    2    0    0 -0.44921387650E+02 -0.89444242366E+01  0.52191845365E+01  0.10159055563E+03  0.90528820342E+02 0.  0.
         23    2    1    2    0    0  0.64782799849E+02 -0.40553388097E+01  0.24845811627E+02  0.11388488343E+03  0.90217489380E+02 0.  0.
        -13    1    4    4    0    0  0.49877635668E+02  0.36405036523E+02  0.32980340283E+02  0.70005771685E+02  0.00000000000E+00 0. -1.
         13    1    4    4    0    0  0.14905164181E+02 -0.40460375333E+02 -0.81345286560E+01  0.43879111748E+02  0.00000000000E+00 0.  1.
        -13    1    3    3    0    0 -0.69100631001E+02 -0.46299398425E-01 -0.12632404471E+02  0.70245832553E+02  0.00000000000E+00 0. -1.
         13    1    3    3    0    0  0.24179243351E+02 -0.88981248382E+01  0.17851589007E+02  0.31344723076E+02  0.00000000000E+00 0.  1.
          2    1    1    2  501    0 -0.19861412199E+02  0.12999763046E+02  0.76674799383E+02  0.80265150559E+02  0.00000000000E+00 0. -1.
<scales pt_clust_5="13000.00000" pt_clust_6="13000.00000" pt_clust_7="13000.00000" pt_clust_8="13000.00000" pt_clust_9="23.73751"></scales>
<clustering>
<clus scale="   23.738">  1  9  2 -1</clus>
<clus scale="   90.217">  5  6 -1 -1</clus>
<clus scale="   90.529">  7  8 -1 -1</clus>
<clus scale="  104.970">  1  5  2 -1</clus>
<clus scale="   23.738">  1  5  2 -1</clus>
</clustering>
</event>
<event>
 9    1  0.1881049E-005  0.1643492E+03  0.7546771E-02  0.1208043E+00
         21   -1    0    0  501  502  0.00000000000E+00  0.00000000000E+00  0.12032646243E+04  0.12032646243E+04  0.00000000000E+00 0. -1.
          1   -1    0    0  502    0 -0.00000000000E+00 -0.00000000000E+00 -0.13442600366E+03  0.13442600366E+03  0.00000000000E+00 0. -1.
         23    2    1    2    0    0  0.12676689890E+02 -0.43104511967E+01  0.10512457904E+02  0.97434745619E+02  0.95936121594E+02 0.  0.
         23    2    1    2    0    0 -0.92872370996E+02  0.11196620233E+03 -0.20899682522E+00  0.17324239037E+03  0.94080680183E+02 0.  0.
        -13    1    3    3    0    0  0.19347800273E+02  0.41581294649E+02  0.20110737007E+02  0.50077771347E+02  0.00000000000E+00 0. -1.
         13    1    3    3    0    0 -0.66711103830E+01 -0.45891745846E+02 -0.95982791032E+01  0.47356974272E+02  0.00000000000E+00 0.  1.
        -13    1    4    4    0    0 -0.21591856235E+01  0.72998852980E+02 -0.11273295693E+02  0.73895749639E+02  0.00000000000E+00 0. -1.
         13    1    4    4    0    0 -0.90713185372E+02  0.38967349354E+02  0.11064298867E+02  0.99346640736E+02  0.00000000000E+00 0.  1.
          1    1    1    2  501    0  0.80195681106E+02 -0.10765575114E+03  0.10585351596E+04  0.10670134920E+04  0.00000000000E+00 0. -1.
<scales pt_clust_5="13000.00000" pt_clust_6="13000.00000" pt_clust_7="13000.00000" pt_clust_8="13000.00000" pt_clust_9="134.75719"></scales>
<clustering>
<clus scale="   94.081">  7  8 -1 -1</clus>
<clus scale="   95.936">  5  6 -1 -1</clus>
<clus scale="   96.866">  2  5  1 -1</clus>
<clus scale="  134.757">  1  9  2 -1</clus>
<clus scale="  134.757">  1  5  2 -1</clus>
</clustering>
</event>
<event>
 9    1  0.1881049E-005  0.1287732E+03  0.7546771E-02  0.1231409E+00
          2   -1    0    0  502    0 -0.00000000000E+00  0.00000000000E+00  0.49481034845E+03  0.49481034845E+03  0.00000000000E+00 0.  1.
         21   -1    0    0  501  502  0.00000000000E+00 -0.00000000000E+00 -0.64745761374E+02  0.64745761374E+02  0.00000000000E+00 0. -1.
         23    2    1    2    0    0  0.58011185880E+01  0.87312849489E+02  0.38406456883E+03  0.40582505010E+03  0.97627821828E+02 0.  0.
         23    2    1    2    0    0 -0.14154066155E+02 -0.66690026646E+02  0.12863015019E+02  0.11381698278E+03  0.90227219684E+02 0.  0.
        -13    1    4    4    0    0  0.21769113945E+02  0.13223915940E+02  0.29400874387E+01  0.25640015384E+02  0.00000000000E+00 0.  1.
         13    1    4    4    0    0 -0.35923180101E+02 -0.79913942585E+02  0.99229275799E+01  0.88176967400E+02  0.00000000000E+00 0. -1.
        -13    1    3    3    0    0 -0.33528514395E+02  0.84447887565E+02  0.28761166248E+03  0.30162240532E+03  0.00000000000E+00 0. -1.
         13    1    3    3    0    0  0.39329632983E+02  0.28649619243E+01  0.96452906349E+02  0.10420264479E+03  0.00000000000E+00 0.  1.
          2    1    1    2  501    0  0.83529475674E+01 -0.20622822843E+02  0.33137003226E+02  0.39914076939E+02  0.00000000000E+00 0.  1.
<scales pt_clust_5="13000.00000" pt_clust_6="13000.00000" pt_clust_7="13000.00000" pt_clust_8="13000.00000" pt_clust_9="22.25024"></scales>
<clustering>
<clus scale="   22.250">  2  9  1 -1</clus>
<clus scale="   90.227">  5  6 -1 -1</clus>
<clus scale="   97.628">  7  8 -1 -1</clus>
<clus scale="  123.257">  2  5  1 -1</clus>
<clus scale="   22.250">  2  5  1 -1</clus>
</clustering>
</event>
<event>
 9    1  0.1881049E-005  0.1384235E+03  0.7546771E-02  0.1215986E+00
         21   -1    0    0  501  502  0.00000000000E+00  0.00000000000E+00  0.22712785254E+03  0.22712785254E+03  0.00000000000E+00 0. -1.
         -3   -1    0    0    0  501 -0.00000000000E+00 -0.00000000000E+00 -0.16842972897E+03  0.16842972897E+03  0.00000000000E+00 0.  1.
         23    2    1    2    0    0 -0.94334355076E+02 -0.20525140796E+02 -0.77972635683E+02  0.15557395420E+03  0.93825749969E+02 0.  0.
         23    2    1    2    0    0  0.11602980812E+03  0.14695410434E+02  0.60196016704E+02  0.16027751282E+03  0.91577558539E+02 0.  0.
        -11    1    4    4    0    0  0.28338958671E+02  0.21391538894E+02  0.62966835741E+02  0.72287736983E+02  0.00000000000E+00 0.  1.
         11    1    4    4    0    0  0.87690849449E+02 -0.66961284596E+01 -0.27708190369E+01  0.87989775836E+02  0.00000000000E+00 0. -1.
        -13    1    3    3    0    0 -0.63288362333E+02  0.24695443458E+02 -0.10700140279E+02  0.68773357751E+02  0.00000000000E+00 0. -1.
         13    1    3    3    0    0 -0.31045992743E+02 -0.45220584254E+02 -0.67272495404E+02  0.86800596447E+02  0.00000000000E+00 0.  1.
         -3    1    1    2    0  502 -0.21695453044E+02  0.58297303618E+01  0.76474742554E+02  0.79706114493E+02  0.00000000000E+00 0.  1.
<scales pt_clust_5="13000.00000" pt_clust_6="13000.00000" pt_clust_7="13000.00000" pt_clust_8="13000.00000" pt_clust_9="22.46505"></scales>
<clustering>
<clus scale="   22.465">  1  9  2 -1</clus>
<clus scale="   91.578">  5  6 -1 -1</clus>
<clus scale="   93.826">  7  8 -1 -1</clus>
<clus scale="  136.910">  1  5  2 -1</clus>
<clus scale="   22.465">  1  5  2 -1</clus>
</clustering>
</event>
<event>
 9    1  0.1881049E-005  0.3311360E+03  0.7546771E-02  0.1070695E+00
         21   -1    0    0  501  502  0.00000000000E+00  0.00000000000E+00  0.13370467179E+03  0.13370467179E+03  0.00000000000E+00 0.  1.
          2   -1    0    0  502    0 -0.00000000000E+00 -0.00000000000E+00 -0.11231655195E+04  0.11231655195E+04  0.00000000000E+00 0. -1.
         23    2    1    2    0    0  0.67150367565E+02 -0.34586784969E+03 -0.66029314178E+03  0.75398993303E+03  0.91542584157E+02 0.  0.
         23    2    1    2    0    0 -0.90632013507E+02  0.25610590272E+03 -0.25373559450E+03  0.38330351196E+03  0.93463549529E+02 0.  0.
        -13    1    4    4    0    0 -0.23432042621E+02  0.68471160987E+02 -0.12978544528E+03  0.14859886377E+03  0.00000000000E+00 0. -1.
         13    1    4    4    0    0 -0.67199970886E+02  0.18763474173E+03 -0.12395014922E+03  0.23470464819E+03  0.00000000000E+00 0.  1.
        -13    1    3    3    0    0  0.10999018607E+02 -0.26083812437E+03 -0.44826386280E+03  0.51874656261E+03  0.00000000000E+00 0.  1.
         13    1    3    3    0    0  0.56151348958E+02 -0.85029725322E+02 -0.21202927899E+03  0.23524337042E+03  0.00000000000E+00 0. -1.
          2    1    1    2  501    0  0.23481645942E+02  0.89761946972E+02 -0.75432111444E+02  0.11957674631E+03  0.00000000000E+00 0. -1.
<scales pt_clust_5="13000.00000" pt_clust_6="13000.00000" pt_clust_7="13000.00000" pt_clust_8="13000.00000" pt_clust_9="92.78251"></scales>
<clustering>
<clus scale="   91.543">  7  8 -1 -1</clus>
<clus scale="   92.783">  1  9  2 -1</clus>
<clus scale="   93.464">  5  6 -1 -1</clus>
<clus scale="  330.599">  2  7  1 -1</clus>
<clus scale="   92.783">  1  5  2 -1</clus>
</clustering>
</event>
<event>
 9    1  0.1881049E-005  0.9963910E+02  0.7546771E-02  0.1283285E+00
          1   -1    0    0  502    0 -0.00000000000E+00  0.00000000000E+00  0.20227976303E+03  0.20227976303E+03  0.00000000000E+00 0. -1.
         21   -1    0    0  501  502  0.00000000000E+00 -0.00000000000E+00 -0.13528073326E+03  0.13528073326E+03  0.00000000000E+00 0.  1.
         23    2    1    2    0    0 -0.93360390191E+01 -0.35210474468E+02  0.15569630556E+03  0.18451126819E+03  0.92065896992E+02 0.  0.
         23    2    1    2    0    0 -0.39561249755E+01  0.50546606170E+02 -0.59204317617E+02  0.11724820659E+03  0.87586416783E+02 0.  0.
        -13    1    3    3    0    0  0.52795672991E+01 -0.60843075269E+02  0.65241883833E+02  0.89365860624E+02  0.00000000000E+00 0. -1.
         13    1    3    3    0    0 -0.14615606318E+02  0.25632600800E+02  0.90454421726E+02  0.95145407570E+02  0.00000000000E+00 0.  1.
        -13    1    4    4    0    0  0.34906540254E+02 -0.17487262220E+01 -0.29082542320E+02  0.45467778302E+02  0.00000000000E+00 0. -1.
         13    1    4    4    0    0 -0.38862665230E+02  0.52295332392E+02 -0.30121775298E+02  0.71780428292E+02  0.00000000000E+00 0.  1.
          1    1    1    2  501    0  0.13292163995E+02 -0.15336131701E+02 -0.29492958166E+02  0.35801021502E+02  0.00000000000E+00 0. -1.
<scales pt_clust_5="13000.00000" pt_clust_6="13000.00000" pt_clust_7="13000.00000" pt_clust_8="13000.00000" pt_clust_9="20.29479"></scales>
<clustering>
<clus scale="   20.295">  2  9  1 -1</clus>
<clus scale="   87.586">  7  8 -1 -1</clus>
<clus scale="   92.066">  5  6 -1 -1</clus>
<clus scale="   95.515">  2  7  1 -1</clus>
<clus scale="   20.295">  2  5  1 -1</clus>
</clustering>
</event>
<event>
 9    1  0.1881049E-005  0.1155655E+03  0.7546771E-02  0.1250811E+00
         21   -1    0    0  501  502  0.00000000000E+00  0.00000000000E+00  0.45793704320E+03  0.45793704320E+03  0.00000000000E+00 0. -1.
          1   -1    0    0  502    0 -0.00000000000E+00 -0.00000000000E+00 -0.12884153745E+03  0.12884153745E+03  0.00000000000E+00 0. -1.
         23    2    1    2    0    0  0.48664802752E+02 -0.55983798232E+02 -0.76885317661E+02  0.13983063968E+03  0.90215337003E+02 0.  0.
         23    2    1    2    0    0  0.14020661507E+01  0.76958057874E+02  0.18570542919E+03  0.22008265004E+03  0.89584362233E+02 0.  0.
        -11    1    3    3    0    0  0.71867784485E+02 -0.23715910412E+02 -0.39965379718E+02  0.85584194974E+02  0.00000000000E+00 0. -1.
         11    1    3    3    0    0 -0.23202981733E+02 -0.32267887821E+02 -0.36919937943E+02  0.54246444707E+02  0.00000000000E+00 0.  1.
        -13    1    4    4    0    0  0.26776254856E+02 -0.23648231066E+01  0.86359799861E+02  0.90446532518E+02  0.00000000000E+00 0.  1.
         13    1    4    4    0    0 -0.25374188705E+02  0.79322880980E+02  0.99345629328E+02  0.12963611752E+03  0.00000000000E+00 0. -1.
          1    1    1    2  501    0 -0.50066868903E+02 -0.20974259641E+02  0.22027539422E+03  0.22686529093E+03  0.00000000000E+00 0. -1.
<scales pt_clust_5="13000.00000" pt_clust_6="13000.00000" pt_clust_7="13000.00000" pt_clust_8="13000.00000" pt_clust_9="54.28269"></scales>
<clustering>
<clus scale="   54.283">  1  9  2 -1</clus>
<clus scale="   89.584">  7  8 -1 -1</clus>
<clus scale="   90.215">  5  6 -1 -1</clus>
<clus scale="  115.074">  1  7  2 -1</clus>
<clus scale="   54.283">  1  5  2 -1</clus>
</clustering>
</event>
<event>
 9    1  0.1881049E-005  0.9506043E+02  0.7546771E-02  0.1291086E+00
         -2   -1    0    0    0  501 -0.00000000000E+00  0.00000000000E+00  0.44130824034E+03  0.44130824034E+03  0.00000000000E+00 0.  1.
         21   -1    0    0  501  502  0.00000000000E+00 -0.00000000000E+00 -0.48896481309E+02  0.48896481309E+02  0.00000000000E+00 0. -1.
         23    2    1    2    0    0 -0.11187663381E+02 -0.56346655238E+02  0.17325679973E+03  0.20397047282E+03  0.91027060598E+02 0.  0.
         23    2    1    2    0    0 -0.57604645725E+01 -0.19450433832E+02  0.64967487859E+02  0.11358948609E+03  0.90941159782E+02 0.  0.
        -11    1    3    3    0    0  0.14298333155E+02  0.19609136838E+02  0.21769076375E+02  0.32601430410E+02  0.00000000000E+00 0.  1.
         11    1    3    3    0    0 -0.25485996536E+02 -0.75955792076E+02  0.15148772335E+03  0.17136904241E+03  0.00000000000E+00 0. -1.
        -13    1    4    4    0    0  0.88154539518E+01  0.25157722812E+02  0.60906722175E+02  0.66484976134E+02  0.00000000000E+00 0.  1.
         13    1    4    4    0    0 -0.14575918524E+02 -0.44608156643E+02  0.40607656835E+01  0.47104509953E+02  0.00000000000E+00 0. -1.
         -2    1    1    2    0  502  0.16948127953E+02  0.75797089070E+02  0.15418747145E+03  0.17264476274E+03  0.00000000000E+00 0.  1.
<scales pt_clust_5="13000.00000" pt_clust_6="13000.00000" pt_clust_7="13000.00000" pt_clust_8="13000.00000" pt_clust_9="77.66881"></scales>
<clustering>
<clus scale="   77.669">  2  9  1 -1</clus>
<clus scale="   90.941">  7  8 -1 -1</clus>
<clus scale="   91.027">  5  6 -1 -1</clus>
<clus scale="   94.978">  2  7  1 -1</clus>
<clus scale="   77.669">  2  5  1 -1</clus>
</clustering>
</event>
<event>
 9    1  0.1881049E-005  0.2540973E+03  0.7546771E-02  0.1110746E+00
         21   -1    0    0  501  502  0.00000000000E+00  0.00000000000E+00  0.21297627608E+03  0.21297627608E+03  0.00000000000E+00 0. -1.
         -3   -1    0    0    0  501 -0.00000000000E+00 -0.00000000000E+00 -0.96164332491E+03  0.96164332491E+03  0.00000000000E+00 0.  1.
         23    2    1    2    0    0 -0.20623170596E+03  0.12142012853E+03 -0.79174060670E+03  0.83216656892E+03  0.91507628012E+02 0.  0.
         23    2    1    2    0    0  0.20408574861E+03 -0.97724046824E+02 -0.47605660680E+02  0.24870427156E+03  0.91578019463E+02 0.  0.
        -11    1    4    4    0    0  0.23810408750E+02  0.15743723024E+02 -0.17741490109E+02  0.33608940042E+02  0.00000000000E+00 0.  1.
         11    1    4    4    0    0  0.18027533986E+03 -0.11346776985E+03 -0.29864170572E+02  0.21509533151E+03  0.00000000000E+00 0. -1.
        -13    1    3    3    0    0 -0.13869311519E+03  0.51714820127E+02 -0.35225852383E+03  0.38209458310E+03  0.00000000000E+00 0. -1.
         13    1    3    3    0    0 -0.67538590766E+02  0.69705308400E+02 -0.43948208287E+03  0.45007198582E+03  0.00000000000E+00 0.  1.
         -3    1    1    2    0  502  0.21459573502E+01 -0.23696081704E+02  0.90679218551E+02  0.93748760515E+02  0.00000000000E+00 0.  1.
<scales pt_clust_5="13000.00000" pt_clust_6="13000.00000" pt_clust_7="13000.00000" pt_clust_8="13000.00000" pt_clust_9="23.79305"></scales>
<clustering>
<clus scale="   23.793">  1  9  2 -1</clus>
<clus scale="   91.508">  7  8 -1 -1</clus>
<clus scale="   91.578">  5  6 -1 -1</clus>
<clus scale="  254.072">  2  7  1 -1</clus>
<clus scale="   23.793">  1  5  2 -1</clus>
</clustering>
</event>
<event>
 9    1  0.1881049E-005  0.1471399E+03  0.7546771E-02  0.1204327E+00
          1   -1    0    0  502    0 -0.00000000000E+00  0.00000000000E+00  0.84212668106E+03  0.84212668106E+03  0.00000000000E+00 0. -1.
         21   -1    0    0  501  502  0.00000000000E+00 -0.00000000000E+00 -0.35334168760E+02  0.35334168760E+02  0.00000000000E+00 0. -1.
         23    2    1    2    0    0  0.77623547994E+02  0.71686951726E+02  0.39010391510E+03  0.41432303365E+03  0.91203494379E+02 0.  0.
         23    2    1    2    0    0 -0.70520480464E+02 -0.11053362322E+03  0.36515947768E+03  0.39821657455E+03  0.89689330935E+02 0.  0.
        -11    1    3    3    0    0  0.72880141993E+02  0.66625640878E+01  0.17907169123E+03  0.19344915470E+03  0.00000000000E+00 0. -1.
         11    1    3    3    0    0  0.47434060018E+01  0.65024387638E+02  0.21103222387E+03  0.22087387895E+03  0.00000000000E+00 0.  1.
        -13    1    4    4    0    0 -0.22954631737E+02 -0.10173144283E+03  0.29586963538E+03  0.31371171913E+03  0.00000000000E+00 0. -1.
         13    1    4    4    0    0 -0.47565848727E+02 -0.88021803917E+01  0.69289842296E+02  0.84504855423E+02  0.00000000000E+00 0.  1.
          1    1    1    2  501    0 -0.71030675303E+01  0.38846671491E+02  0.51529119521E+02  0.64921241616E+02  0.00000000000E+00 0. -1.
<scales pt_clust_5="13000.00000" pt_clust_6="13000.00000" pt_clust_7="13000.00000" pt_clust_8="13000.00000" pt_clust_9="39.49073"></scales>
<clustering>
<clus scale="   39.491">  2  9  1 -1</clus>
<clus scale="   89.689">  7  8 -1 -1</clus>
<clus scale="   91.203">  5  6 -1 -1</clus>
<clus scale="  146.206">  2  7  1 -1</clus>
<clus scale="   39.491">  2  5  1 -1</clus>
</clustering>
</event>
<event>
 9    1  0.1881049E-005  0.9754539E+02  0.7546771E-02  0.1285706E+00
          2   -1    0    0  502    0 -0.00000000000E+00  0.00000000000E+00  0.65027990497E+03  0.65027990497E+03  0.00000000000E+00 0. -1.
         21   -1    0    0  501  502  0.00000000000E+00 -0.00000000000E+00 -0.22358019988E+02  0.22358019988E+02  0.00000000000E+00 0.  1.
         23    2    1    2    0    0 -0.40275764628E+02 -0.55189587872E+01  0.36483822509E+03  0.37799430376E+03  0.90111969604E+02 0.  0.
         23    2    1    2    0    0  0.22344714722E+02  0.33779172781E+02  0.18249546717E+03  0.20738183659E+03  0.89790377112E+02 0.  0.
        -11    1    3    3    0    0  0.28304794972E+02 -0.73924195276E+01  0.85975679188E+02  0.90816445079E+02  0.00000000000E+00 0. -1.
         11    1    3    3    0    0 -0.68580559600E+02  0.18734607404E+01  0.27886254590E+03  0.28717785868E+03  0.00000000000E+00 0.  1.
        -11    1    4    4    0    0 -0.22846380335E+02  0.26383478848E+02  0.23879377412E+02  0.42287938188E+02  0.00000000000E+00 0.  1.
         11    1    4    4    0    0  0.45191095058E+02  0.73956939332E+01  0.15861608975E+03  0.16509389840E+03  0.00000000000E+00 0. -1.
          2    1    1    2  501    0  0.17931049906E+02 -0.28260213994E+02  0.80588192727E+02  0.87261784606E+02  0.00000000000E+00 0. -1.
<scales pt_clust_5="13000.00000" pt_clust_6="13000.00000" pt_clust_7="13000.00000" pt_clust_8="13000.00000" pt_clust_9="33.46882"></scales>
<clustering>
<clus scale="   33.469">  2  9  1 -1</clus>
<clus scale="   89.790">  7  8 -1 -1</clus>
<clus scale="   90.112">  5  6 -1 -1</clus>
<clus scale="   97.248">  2  7  1 -1</clus>
<clus scale="   33.469">  2  5  1 -1</clus>
</clustering>
</event>
<event>
 9    1  0.1881049E-005  0.1099074E+03  0.7546771E-02  0.1261032E+00
          2   -1    0    0  502    0 -0.00000000000E+00  0.00000000000E+00  0.47600003101E+03  0.47600003101E+03  0.00000000000E+00 0. -1.
         21   -1    0    0  501  502  0.00000000000E+00 -0.00000000000E+00 -0.11913257499E+03  0.11913257499E+03  0.00000000000E+00 0.  1.
         23    2    1    2    0    0  0.14988095750E+02  0.63297771345E+02  0.38152025082E+03  0.39768847848E+03  0.91472254059E+02 0.  0.
         23    2    1    2    0    0 -0.53680420271E+02 -0.18980569294E+02  0.34774269845E+02  0.11382184350E+03  0.92218830412E+02 0.  0.
        -13    1    4    4    0    0 -0.28019916267E+02 -0.48624929645E+02 -0.69705150254E+01  0.56551636319E+02  0.00000000000E+00 0.  1.
         13    1    4    4    0    0 -0.25660504004E+02  0.29644360351E+02  0.41744784870E+02  0.57270207178E+02  0.00000000000E+00 0. -1.
        -13    1    3    3    0    0  0.46643453983E+02  0.64924653921E+02  0.29089881127E+03  0.30168351113E+03  0.00000000000E+00 0. -1.
         13    1    3    3    0    0 -0.31655358232E+02 -0.16268825767E+01  0.90621439544E+02  0.96004967354E+02  0.00000000000E+00 0.  1.
          2    1    1    2  501    0  0.38692324521E+02 -0.44317202050E+02 -0.59427064635E+02  0.83622284025E+02  0.00000000000E+00 0. -1.
<scales pt_clust_5="13000.00000" pt_clust_6="13000.00000" pt_clust_7="13000.00000" pt_clust_8="13000.00000" pt_clust_9="58.83120"></scales>
<clustering>
<clus scale="   58.831">  2  9  1 -1</clus>
<clus scale="   91.472">  7  8 -1 -1</clus>
<clus scale="   92.219">  5  6 -1 -1</clus>
<clus scale="  109.282">  1  7  2 -1</clus>
<clus scale="   58.831">  2  5  1 -1</clus>
</clustering>
</event>
<event>
 9    1  0.1881049E-005  0.1122632E+03  0.7546771E-02  0.1258213E+00
         -3   -1    0    0    0  501 -0.00000000000E+00  0.00000000000E+00  0.89082686053E+02  0.89082686053E+02  0.00000000000E+00 0.  1.
         21   -1    0    0  501  502  0.00000000000E+00 -0.00000000000E+00 -0.29209048318E+03  0.29209048318E+03  0.00000000000E+00 0. -1.
         23    2    1    2    0    0  0.47124841590E+02 -0.37002929773E+02 -0.59143340688E+01  0.11065145709E+03  0.92837482205E+02 0.  0.
         23    2    1    2    0    0 -0.82995874152E+02 -0.54363046333E+01 -0.93818489180E+02  0.15324622526E+03  0.88117127223E+02 0.  0.
        -11    1    3    3    0    0  0.61642769478E+02  0.45814705247E+01  0.12236532000E+02  0.63012329083E+02  0.00000000000E+00 0.  1.
         11    1    3    3    0    0 -0.14517927888E+02 -0.41584400297E+02 -0.18150866069E+02  0.47639128007E+02  0.00000000000E+00 0. -1.
        -13    1    4    4    0    0 -0.36601872140E+02 -0.46135199028E+02 -0.53208507242E+02  0.79368122546E+02  0.00000000000E+00 0. -1.
         13    1    4    4    0    0 -0.46394002012E+02  0.40698894395E+02 -0.40609981937E+02  0.73878102714E+02  0.00000000000E+00 0.  1.
         -3    1    1    2    0  502  0.35871032562E+02  0.42439234406E+02 -0.10327497388E+03  0.11727548688E+03  0.00000000000E+00 0.  1.
<scales pt_clust_5="13000.00000" pt_clust_6="13000.00000" pt_clust_7="13000.00000" pt_clust_8="13000.00000" pt_clust_9="55.56815"></scales>
<clustering>
<clus scale="   55.568">  2  9  1 -1</clus>
<clus scale="   88.117">  7  8 -1 -1</clus>
<clus scale="   92.837">  5  6 -1 -1</clus>
<clus scale="  108.392">  2  7  1 -1</clus>
<clus scale="   55.568">  2  5  1 -1</clus>
</clustering>
</event>
<event>
 9    1  0.1881049E-005  0.1004559E+03  0.7546771E-02  0.1280689E+00
         21   -1    0    0  501  502  0.00000000000E+00  0.00000000000E+00  0.51056270013E+03  0.51056270013E+03  0.00000000000E+00 0.  1.
          3   -1    0    0  502    0 -0.00000000000E+00 -0.00000000000E+00 -0.79515410333E+02  0.79515410333E+02  0.00000000000E+00 0. -1.
         23    2    1    2    0    0  0.32421972106E+02  0.11837204985E+02 -0.33365381780E+02  0.10675942973E+03  0.95357346010E+02 0.  0.
         23    2    1    2    0    0 -0.14823452692E+02  0.10833030010E+02  0.25479399114E+03  0.27174448895E+03  0.92671463049E+02 0.  0.
        -11    1    4    4    0    0 -0.35500541348E+02  0.39468339370E+02  0.10276212671E+03  0.11566370621E+03  0.00000000000E+00 0.  1.
         11    1    4    4    0    0  0.20677088657E+02 -0.28635309360E+02  0.15203186443E+03  0.15608078274E+03  0.00000000000E+00 0. -1.
        -11    1    3    3    0    0  0.33408988488E+01  0.41879861573E+02  0.13332821838E+02  0.44077755712E+02  0.00000000000E+00 0.  1.
         11    1    3    3    0    0  0.29081073258E+02 -0.30042656588E+02 -0.46698203618E+02  0.62681674019E+02  0.00000000000E+00 0. -1.
          3    1    1    2  501    0 -0.17598519415E+02 -0.22670234995E+02  0.20961868044E+03  0.21157419178E+03  0.00000000000E+00 0. -1.
<scales pt_clust_5="13000.00000" pt_clust_6="13000.00000" pt_clust_7="13000.00000" pt_clust_8="13000.00000" pt_clust_9="28.69926"></scales>
<clustering>
<clus scale="   28.699">  1  9  2 -1</clus>
<clus scale="   92.671">  5  6 -1 -1</clus>
<clus scale="   95.357">  7  8 -1 -1</clus>
<clus scale="   97.910">  1  5  2 -1</clus>
<clus scale="   28.699">  1  5  2 -1</clus>
</clustering>
</event>
<event>
 9    1  0.1881049E-005  0.9627811E+02  0.7546771E-02  0.1289812E+00
         -1   -1    0    0    0  501 -0.00000000000E+00  0.00000000000E+00  0.11202528791E+03  0.11202528791E+03  0.00000000000E+00 0.  1.
         21   -1    0    0  501  502  0.00000000000E+00 -0.00000000000E+00 -0.18155229156E+03  0.18155229156E+03  0.00000000000E+00 0.  1.
         23    2    1    2    0    0  0.15115192233E+01  0.19017125216E+02  0.32985040455E+02  0.10263745646E+03  0.95302144950E+02 0.  0.
         23    2    1    2    0    0  0.35178583498E+02  0.12823000134E+02 -0.31218232945E+02  0.10466866349E+03  0.92622831844E+02 0.  0.
        -13    1    3    3    0    0  0.43027689923E+02 -0.79595519204E+01  0.29965363597E+02  0.53034513124E+02  0.00000000000E+00 0.  1.
         13    1    3    3    0    0 -0.41516170699E+02  0.26976677136E+02  0.30196768585E+01  0.49602943332E+02  0.00000000000E+00 0. -1.
        -13    1    4    4    0    0 -0.19024913163E+02 -0.25905753145E+02 -0.28666958196E+01  0.32268766816E+02  0.00000000000E+00 0. -1.
         13    1    4    4    0    0  0.54203496661E+02  0.38728753279E+02 -0.28351537125E+02  0.72399896673E+02  0.00000000000E+00 0.  1.
         -1    1    1    2    0  502 -0.36690102721E+02 -0.31840125350E+02 -0.71293811162E+02  0.86271459533E+02  0.00000000000E+00 0.  1.
<scales pt_clust_5="13000.00000" pt_clust_6="13000.00000" pt_clust_7="13000.00000" pt_clust_8="13000.00000" pt_clust_9="48.57939"></scales>
<clustering>
<clus scale="   48.579">  2  9  1 -1</clus>
<clus scale="   92.623">  7  8 -1 -1</clus>
<clus scale="   93.627">  2  7  1 -1</clus>
<clus scale="   95.302">  5  6 -1 -1</clus>
<clus scale="   48.579">  2  5  1 -1</clus>
</clustering>
</event>
<event>
 9    1  0.1881049E-005  0.1072027E+03  0.7546771E-02  0.1266201E+00
          1   -1    0    0  502    0 -0.00000000000E+00  0.00000000000E+00  0.23773713793E+03  0.23773713793E+03  0.00000000000E+00 0. -1.
         21   -1    0    0  501  502  0.00000000000E+00 -0.00000000000E+00 -0.64935891250E+02  0.64935891250E+02  0.00000000000E+00 0.  1.
         23    2    1    2    0    0 -0.52841666751E+02  0.17266094069E+02  0.11777378187E+03  0.15857403339E+03  0.90469335254E+02 0.  0.
         23    2    1    2    0    0  0.45691239602E+02 -0.38156921192E+02  0.54762783925E+02  0.12201675581E+03  0.91353632576E+02 0.  0.
        -11    1    3    3    0    0 -0.39142546219E+02  0.33421778747E+02  0.12580037424E+03  0.13592236158E+03  0.00000000000E+00 0. -1.
         11    1    3    3    0    0 -0.13699120533E+02 -0.16155684678E+02 -0.80265923706E+01  0.22651671812E+02  0.00000000000E+00 0.  1.
        -13    1    4    4    0    0 -0.81847861865E+01 -0.50189647156E+02  0.40476034177E+02  0.64994620925E+02  0.00000000000E+00 0. -1.
         13    1    4    4    0    0  0.53876025788E+02  0.12032725963E+02  0.14286749747E+02  0.57022134888E+02  0.00000000000E+00 0.  1.
          1    1    1    2  501    0  0.71504271494E+01  0.20890827123E+02  0.26468088866E+00  0.22082239975E+02  0.00000000000E+00 0. -1.
<scales pt_clust_5="13000.00000" pt_clust_6="13000.00000" pt_clust_7="13000.00000" pt_clust_8="13000.00000" pt_clust_9="22.08065"></scales>
<clustering>
<clus scale="   22.081">  2  9  1 -1</clus>
<clus scale="   90.469">  5  6 -1 -1</clus>
<clus scale="   91.354">  7  8 -1 -1</clus>
<clus scale="  106.450">  1  5  2 -1</clus>
<clus scale="   22.081">  2  5  1 -1</clus>
</clustering>
</event>
<event>
 9    1  0.1881049E-005  0.9901903E+02  0.7546771E-02  0.1282373E+00
         21   -1    0    0  501  502  0.00000000000E+00  0.00000000000E+00  0.17654020559E+03  0.17654020559E+03  0.00000000000E+00 0. -1.
          2   -1    0    0  502    0 -0.00000000000E+00 -0.00000000000E+00 -0.86988133461E+02  0.86988133461E+02  0.00000000000E+00 0. -1.
         23    2    1    2    0    0 -0.30223033868E+02  0.75979104012E+01  0.18864552586E+02  0.97806360667E+02  0.90769228398E+02 0.  0.
         23    2    1    2    0    0  0.49670239594E+02  0.26563537046E+02  0.34414447243E+02  0.11223427815E+03  0.90771277454E+02 0.  0.
        -11    1    3    3    0    0 -0.13786783319E+02 -0.39966883622E+02 -0.41261780851E+01  0.42478847987E+02  0.00000000000E+00 0.  1.
         11    1    3    3    0    0 -0.16436250549E+02  0.47564794023E+02  0.22990730671E+02  0.55327512680E+02  0.00000000000E+00 0. -1.
        -13    1    4    4    0    0  0.38623075029E+02  0.57402144767E+02  0.70383596288E+01  0.69543415611E+02  0.00000000000E+00 0. -1.
         13    1    4    4    0    0  0.11047164564E+02 -0.30838607721E+02  0.27376087614E+02  0.42690862537E+02  0.00000000000E+00 0.  1.
          2    1    1    2  501    0 -0.19447205726E+02 -0.34161447448E+02  0.36273072296E+02  0.53487700231E+02  0.00000000000E+00 0. -1.
<scales pt_clust_5="13000.00000" pt_clust_6="13000.00000" pt_clust_7="13000.00000" pt_clust_8="13000.00000" pt_clust_9="39.30901"></scales>
<clustering>
<clus scale="   39.309">  1  9  2 -1</clus>
<clus scale="   90.769">  5  6 -1 -1</clus>
<clus scale="   90.771">  7  8 -1 -1</clus>
<clus scale="   99.017">  2  5  1 -1</clus>
<clus scale="   39.309">  1  5  2 -1</clus>
</clustering>
</event>
<event>
 9    1  0.1881049E-005  0.1687551E+03  0.7546771E-02  0.1179971E+00
          1   -1    0    0  502    0 -0.00000000000E+00  0.00000000000E+00  0.15656822553E+04  0.15656822553E+04  0.00000000000E+00 0. -1.
         21   -1    0    0  501  502  0.00000000000E+00 -0.00000000000E+00 -0.40209131208E+02  0.40209131208E+02  0.00000000000E+00 0. -1.
         23    2    1    2    0    0 -0.18994838339E+01 -0.13941187862E+03  0.94239908845E+03  0.95686824695E+03  0.89674523535E+02 0.  0.
         23    2    1    2    0    0 -0.73572112605E+02  0.13572529065E+03  0.25868202641E+03  0.31594697942E+03  0.95246484150E+02 0.  0.
        -11    1    3    3    0    0  0.41396233874E+02 -0.41282316404E+02  0.32084507113E+03  0.32612794651E+03  0.00000000000E+00 0.  1.
         11    1    3    3    0    0 -0.43295717708E+02 -0.98129562215E+02  0.62155401732E+03  0.63074030044E+03  0.00000000000E+00 0. -1.
        -11    1    4    4    0    0 -0.20604462067E+02  0.29742767749E+02  0.15287338394E+03  0.15709693697E+03  0.00000000000E+00 0. -1.
         11    1    4    4    0    0 -0.52967650538E+02  0.10598252290E+03  0.10580864248E+03  0.15885004245E+03  0.00000000000E+00 0.  1.
          1    1    1    2  501    0  0.75471596439E+02  0.36865879736E+01  0.32439200928E+03  0.33307616018E+03  0.00000000000E+00 0. -1.
<scales pt_clust_5="13000.00000" pt_clust_6="13000.00000" pt_clust_7="13000.00000" pt_clust_8="13000.00000" pt_clust_9="75.56162"></scales>
<clustering>
<clus scale="   75.562">  2  9  1 -1</clus>
<clus scale="   89.675">  5  6 -1 -1</clus>
<clus scale="   95.246">  7  8 -1 -1</clus>
<clus scale="  165.674">  1  5  2 -1</clus>
<clus scale="   75.562">  2  5  1 -1</clus>
</clustering>
</event>
<event>
 9    1  0.1881049E-005  0.2965042E+03  0.7546771E-02  0.1087087E+00
         21   -1    0    0  501  502  0.00000000000E+00  0.00000000000E+00  0.18258340797E+03  0.18258340797E+03  0.00000000000E+00 0. -1.
          2   -1    0    0  502    0 -0.00000000000E+00 -0.00000000000E+00 -0.91280041353E+03  0.91280041353E+03  0.00000000000E+00 0. -1.
         23    2    1    2    0    0  0.74536270341E+02 -0.27397698240E+03 -0.48866293087E+03  0.57255818829E+03  0.91719008354E+02 0.  0.
         23    2    1    2    0    0 -0.10773757019E+03  0.25733899316E+03 -0.32075819860E+03  0.43534739453E+03  0.93865811228E+02 0.  0.
        -11    1    4    4    0    0 -0.36549944293E+02  0.10737197669E+03 -0.65855730930E+02  0.13115493549E+03  0.00000000000E+00 0.  1.
         11    1    4    4    0    0 -0.71187625900E+02  0.14996701647E+03 -0.25490246767E+03  0.30419245904E+03  0.00000000000E+00 0. -1.
        -13    1    3    3    0    0  0.68980719376E+02 -0.12656557718E+03 -0.18121009935E+03  0.23154758708E+03  0.00000000000E+00 0.  1.
         13    1    3    3    0    0  0.55555509658E+01 -0.14741140522E+03 -0.30745283152E+03  0.34101060122E+03  0.00000000000E+00 0. -1.
          2    1    1    2  501    0  0.33201299851E+02  0.16637989239E+02  0.79204123913E+02  0.87478238680E+02  0.00000000000E+00 0. -1.
<scales pt_clust_5="13000.00000" pt_clust_6="13000.00000" pt_clust_7="13000.00000" pt_clust_8="13000.00000" pt_clust_9="37.13690"></scales>
<clustering>
<clus scale="   37.137">  1  9  2 -1</clus>
<clus scale="   91.719">  7  8 -1 -1</clus>
<clus scale="   93.866">  5  6 -1 -1</clus>
<clus scale="  295.832">  2  7  1 -1</clus>
<clus scale="   37.137">  1  5  2 -1</clus>
</clustering>
</event>
<event>
 9    1  0.1881049E-005  0.9464952E+02  0.7546771E-02  0.1292381E+00
         21   -1    0    0  501  502  0.00000000000E+00  0.00000000000E+00  0.41597666930E+03  0.41597666930E+03  0.00000000000E+00 0.  1.
          4   -1    0    0  502    0 -0.00000000000E+00 -0.00000000000E+00 -0.62174853314E+02  0.62174853314E+02  0.00000000000E+00 0. -1.
         23    2    1    2    0    0 -0.14037133937E+02  0.20145886845E+02  0.23633915038E+02  0.98072450831E+02  0.91960566473E+02 0.  0.
         23    2    1    2    0    0  0.38588410037E+02  0.30157308707E+02  0.10270265491E+03  0.14582789293E+03  0.91210801839E+02 0.  0.
        -11    1    4    4    0    0  0.18244803225E+02 -0.32275059347E+02  0.28642276242E+02  0.46850104471E+02  0.00000000000E+00 0. -1.
         11    1    4    4    0    0  0.20343606812E+02  0.62432368055E+02  0.74060378672E+02  0.98977788458E+02  0.00000000000E+00 0.  1.
        -13    1    3    3    0    0 -0.17087775258E+02  0.55605998017E+02  0.22772779365E+02  0.62470941714E+02  0.00000000000E+00 0.  1.
         13    1    3    3    0    0  0.30506413211E+01 -0.35460111171E+02  0.86113567302E+00  0.35601509117E+02  0.00000000000E+00 0. -1.
          4    1    1    2  501    0 -0.24551276100E+02 -0.50303195553E+02  0.22746524604E+03  0.23425117886E+03  0.00000000000E+00 0. -1.
<scales pt_clust_5="13000.00000" pt_clust_6="13000.00000" pt_clust_7="13000.00000" pt_clust_8="13000.00000" pt_clust_9="55.97479"></scales>
<clustering>
<clus scale="   55.975">  1  9  2 -1</clus>
<clus scale="   91.211">  5  6 -1 -1</clus>
<clus scale="   91.961">  7  8 -1 -1</clus>
<clus scale="   93.921">  1  5  2 -1</clus>
<clus scale="   55.975">  1  5  2 -1</clus>
</clustering>
</event>
<event>
 9    1  0.1881049E-005  0.1828826E+03  0.7546771E-02  0.1165532E+00
          2   -1    0    0  502    0 -0.00000000000E+00  0.00000000000E+00  0.91796054770E+03  0.91796054770E+03  0.00000000000E+00 0. -1.
         21   -1    0    0  501  502  0.00000000000E+00 -0.00000000000E+00 -0.46419589870E+02  0.46419589870E+02  0.00000000000E+00 0. -1.
         23    2    1    2    0    0 -0.13776728052E+03  0.80945247094E+02  0.56241203204E+03  0.59217487564E+03  0.93977832250E+02 0.  0.
         23    2    1    2    0    0  0.14418267887E+03 -0.52089388599E+02  0.26318583577E+03  0.31757390256E+03  0.89913570427E+02 0.  0.
        -11    1    3    3    0    0 -0.26004921356E+02 -0.21213629906E+02  0.87850812047E+02  0.94042752011E+02  0.00000000000E+00 0.  1.
         11    1    3    3    0    0 -0.11176235916E+03  0.10215887700E+03  0.47456121999E+03  0.49813212363E+03  0.00000000000E+00 0. -1.
        -11    1    4    4    0    0  0.11650873046E+03 -0.77039351709E+02  0.21930353698E+03  0.26000651399E+03  0.00000000000E+00 0.  1.
         11    1    4    4    0    0  0.27673948406E+02  0.24949963110E+02  0.43882298792E+02  0.57567388570E+02  0.00000000000E+00 0. -1.
          2    1    1    2  501    0 -0.64153983512E+01 -0.28855858495E+02  0.45943090024E+02  0.54631359369E+02  0.00000000000E+00 0. -1.
<scales pt_clust_5="13000.00000" pt_clust_6="13000.00000" pt_clust_7="13000.00000" pt_clust_8="13000.00000" pt_clust_9="29.56041"></scales>
<clustering>
<clus scale="   29.560">  2  9  1 -1</clus>
<clus scale="   89.914">  7  8 -1 -1</clus>
<clus scale="   93.978">  5  6 -1 -1</clus>
<clus scale="  180.828">  2  7  1 -1</clus>
<clus scale="   29.560">  2  5  1 -1</clus>
</clustering>
</event>
<event>
 9    1  0.1881049E-005  0.1447239E+03  0.7546771E-02  0.1239730E+00
          1   -1    0    0  502    0 -0.00000000000E+00  0.00000000000E+00  0.35287225753E+03  0.35287225753E+03  0.00000000000E+00 0. -1.
         21   -1    0    0  501  502  0.00000000000E+00 -0.00000000000E+00 -0.97982216700E+02  0.97982216700E+02  0.00000000000E+00 0.  1.
         23    2    1    2    0    0  0.27679066877E+02  0.18801411970E+02  0.13417594711E+03  0.15286267084E+03  0.65147429102E+02 0.  0.
         23    2    1    2    0    0 -0.14185113694E+02 -0.12958131518E+03  0.98309585246E+02  0.18416634170E+03  0.85205235562E+02 0.  0.
        -11    1    4    4    0    0 -0.21745001294E+02 -0.64555785359E+02  0.25479190981E+01  0.68167341127E+02  0.00000000000E+00 0.  1.
         11    1    4    4    0    0  0.75598876001E+01 -0.65025529824E+02  0.95761666148E+02  0.11599900057E+03  0.00000000000E+00 0. -1.
        -13    1    3    3    0    0 -0.95003114008E+01  0.27116750618E+02  0.90267095694E+02  0.94729734750E+02  0.00000000000E+00 0.  1.
         13    1    3    3    0    0  0.37179378278E+02 -0.83153386474E+01  0.43908851419E+02  0.58132936094E+02  0.00000000000E+00 0. -1.
          1    1    1    2  501    0 -0.13493953183E+02  0.11077990321E+03  0.22404508468E+02  0.11382546169E+03  0.00000000000E+00 0. -1.
<scales pt_clust_5="13000.00000" pt_clust_6="13000.00000" pt_clust_7="13000.00000" pt_clust_8="13000.00000" pt_clust_9="116.98326"></scales>
<clustering>
<clus scale="   65.147">  7  8 -1 -1</clus>
<clus scale="   73.238">  1  7  2 -1</clus>
<clus scale="   85.205">  5  6 -1 -1</clus>
<clus scale="  116.983">  2  9  1 -1</clus>
<clus scale="  116.983">  2  5  1 -1</clus>
</clustering>
</event>
<event>
 9    1  0.1881049E-005  0.1381505E+03  0.7546771E-02  0.1216408E+00
         -1   -1    0    0    0  501 -0.00000000000E+00  0.00000000000E+00  0.21530847834E+03  0.21530847834E+03  0.00000000000E+00 0.  1.
         21   -1    0    0  501  502  0.00000000000E+00 -0.00000000000E+00 -0.33393568009E+03  0.33393568009E+03  0.00000000000E+00 0.  1.
         23    2    1    2    0    0  0.21644626272E+02  0.10802668234E+03  0.10144288483E+03  0.17553099293E+03  0.91554446367E+02 0.  0.
         23    2    1    2    0    0 -0.10391238991E+03 -0.56549120355E+02 -0.17505136692E+02  0.14910131530E+03  0.89045969160E+02 0.  0.
        -11    1    4    4    0    0 -0.15690233322E+02  0.15230210352E+02 -0.27263885820E+02  0.34949423444E+02  0.00000000000E+00 0. -1.
         11    1    4    4    0    0 -0.88222156590E+02 -0.71779330706E+02  0.97587491276E+01  0.11415189186E+03  0.00000000000E+00 0.  1.
        -13    1    3    3    0    0  0.60635786056E+01  0.12149685360E+03  0.93606725096E+02  0.15349420642E+03  0.00000000000E+00 0.  1.
         13    1    3    3    0    0  0.15581047667E+02 -0.13470171259E+02  0.78361597389E+01  0.22036786508E+02  0.00000000000E+00 0. -1.
         -1    1    1    2    0  502  0.82267763640E+02 -0.51477561990E+02 -0.20256494990E+03  0.22461185020E+03  0.00000000000E+00 0.  1.
<scales pt_clust_5="13000.00000" pt_clust_6="13000.00000" pt_clust_7="13000.00000" pt_clust_8="13000.00000" pt_clust_9="97.04599"></scales>
<clustering>
<clus scale="   89.046">  5  6 -1 -1</clus>
<clus scale="   91.554">  7  8 -1 -1</clus>
<clus scale="   97.046">  2  9  1 -1</clus>
<clus scale="  136.501">  2  5  1 -1</clus>
<clus scale="   97.046">  2  5  1 -1</clus>
</clustering>
</event>
<event>
 9    1  0.1881049E-005  0.9596262E+02  0.7546771E-02  0.1289206E+00
          1   -1    0    0  502    0 -0.00000000000E+00  0.00000000000E+00  0.14152444556E+03  0.14152444556E+03  0.00000000000E+00 0. -1.
         21   -1    0    0  501  502  0.00000000000E+00 -0.00000000000E+00 -0.12969071338E+03  0.12969071338E+03  0.00000000000E+00 0.  1.
         23    2    1    2    0    0  0.19675095728E+02  0.10651258982E+02  0.60832383640E+02  0.11228284491E+03  0.91685874879E+02 0.  0.
         23    2    1    2    0    0 -0.12376117867E+02 -0.48673365136E+02 -0.11222386691E+02  0.10483978391E+03  0.91340974163E+02 0.  0.
        -11    1    3    3    0    0 -0.31073129964E+02  0.26731810033E+02  0.29631586817E+02  0.50578256303E+02  0.00000000000E+00 0.  1.
         11    1    3    3    0    0  0.50748225692E+02 -0.16080551050E+02  0.31200796823E+02  0.61704588609E+02  0.00000000000E+00 0. -1.
        -11    1    4    4    0    0  0.18570983814E+02  0.20582362517E+02  0.21861940937E+01  0.27808173820E+02  0.00000000000E+00 0. -1.
         11    1    4    4    0    0 -0.30947101681E+02 -0.69255727652E+02 -0.13408580785E+02  0.77031610095E+02  0.00000000000E+00 0.  1.
          1    1    1    2  501    0 -0.72989778609E+01  0.38022106153E+02 -0.37776264772E+02  0.54092530115E+02  0.00000000000E+00 0. -1.
<scales pt_clust_5="13000.00000" pt_clust_6="13000.00000" pt_clust_7="13000.00000" pt_clust_8="13000.00000" pt_clust_9="38.71635"></scales>
<clustering>
<clus scale="   38.716">  2  9  1 -1</clus>
<clus scale="   91.341">  7  8 -1 -1</clus>
<clus scale="   91.686">  5  6 -1 -1</clus>
<clus scale="   95.633">  2  7  1 -1</clus>
<clus scale="   38.716">  2  5  1 -1</clus>
</clustering>
</event>
<event>
 9    1  0.1881049E-005  0.1831881E+03  0.7546771E-02  0.1165268E+00
         21   -1    0    0  501  502  0.00000000000E+00  0.00000000000E+00  0.18041422005E+03  0.18041422005E+03  0.00000000000E+00 0. -1.
         -3   -1    0    0    0  501 -0.00000000000E+00 -0.00000000000E+00 -0.56436638847E+03  0.56436638847E+03  0.00000000000E+00 0.  1.
         23    2    1    2    0    0 -0.12991541731E+01 -0.16224537286E+03 -0.44502229435E+03  0.48152141119E+03  0.86560834942E+02 0.  0.
         23    2    1    2    0    0  0.15995437068E+02  0.14541225728E+03 -0.25222500862E+02  0.17412024990E+03  0.91000595048E+02 0.  0.
        -11    1    4    4    0    0  0.41195877787E+02  0.68697446882E+02 -0.43753509980E+02  0.91273266570E+02  0.00000000000E+00 0.  1.
         11    1    4    4    0    0 -0.25200440719E+02  0.76714810402E+02  0.18531009119E+02  0.82846983327E+02  0.00000000000E+00 0. -1.
        -11    1    3    3    0    0  0.31183310789E+02 -0.45575137575E+02 -0.20988739895E+03  0.21703044089E+03  0.00000000000E+00 0.  1.
         11    1    3    3    0    0 -0.32482464962E+02 -0.11667023528E+03 -0.23513489541E+03  0.26449097030E+03  0.00000000000E+00 0. -1.
         -3    1    1    2    0  502 -0.14696282895E+02  0.16833115572E+02  0.86292626796E+02  0.89138947437E+02  0.00000000000E+00 0.  1.
<scales pt_clust_5="13000.00000" pt_clust_6="13000.00000" pt_clust_7="13000.00000" pt_clust_8="13000.00000" pt_clust_9="22.34579"></scales>
<clustering>
<clus scale="   22.346">  1  9  2 -1</clus>
<clus scale="   86.561">  7  8 -1 -1</clus>
<clus scale="   91.001">  5  6 -1 -1</clus>
<clus scale="  181.024">  2  7  1 -1</clus>
<clus scale="   22.346">  1  5  2 -1</clus>
</clustering>
</event>
<event>
 9    1  0.1881049E-005  0.1770076E+03  0.7546771E-02  0.1171386E+00
         21   -1    0    0  501  502  0.00000000000E+00  0.00000000000E+00  0.49214582208E+03  0.49214582208E+03  0.00000000000E+00 0. -1.
          1   -1    0    0  502    0 -0.00000000000E+00 -0.00000000000E+00 -0.12709150953E+03  0.12709150953E+03  0.00000000000E+00 0. -1.
         23    2    1    2    0    0 -0.28637381325E+02  0.10828819866E+03  0.10609774063E+03  0.17903519313E+03  0.90831911985E+02 0.  0.
         23    2    1    2    0    0  0.74416114581E+01 -0.21892454356E+03  0.20661982914E+03  0.31598943333E+03  0.95782226046E+02 0.  0.
        -11    1    4    4    0    0  0.84962169621E+01 -0.20137003324E+02 -0.81628456827E+01  0.23330594832E+02  0.00000000000E+00 0.  1.
         11    1    4    4    0    0 -0.10546055040E+01 -0.19878754024E+03  0.21478267482E+03  0.29265883850E+03  0.00000000000E+00 0. -1.
        -13    1    3    3    0    0 -0.37432191990E+02  0.74579407671E+02  0.19502073982E+02  0.85694736918E+02  0.00000000000E+00 0. -1.
         13    1    3    3    0    0  0.87948106646E+01  0.33708790992E+02  0.86595666643E+02  0.93340456213E+02  0.00000000000E+00 0.  1.
          1    1    1    2  501    0  0.21195769867E+02  0.11063634490E+03  0.52336742788E+02  0.12421270514E+03  0.00000000000E+00 0. -1.
<scales pt_clust_5="13000.00000" pt_clust_6="13000.00000" pt_clust_7="13000.00000" pt_clust_8="13000.00000" pt_clust_9="112.64845"></scales>
<clustering>
<clus scale="   90.832">  7  8 -1 -1</clus>
<clus scale="   95.782">  5  6 -1 -1</clus>
<clus scale="  112.648">  1  9  2 -1</clus>
<clus scale="  174.379">  2  7  1 -1</clus>
<clus scale="  112.648">  1  5  2 -1</clus>
</clustering>
</event>
<event>
 9    1  0.1881049E-005  0.1419880E+03  0.7546771E-02  0.1231214E+00
         21   -1    0    0  501  502  0.00000000000E+00  0.00000000000E+00  0.59095564476E+02  0.59095564476E+02  0.00000000000E+00 0. -1.
          2   -1    0    0  502    0 -0.00000000000E+00 -0.00000000000E+00 -0.77107479717E+03  0.77107479717E+03  0.00000000000E+00 0. -1.
         23    2    1    2    0    0  0.13776128337E+02  0.11424485365E+02 -0.34258892499E+03  0.35480921345E+03  0.90565478204E+02 0.  0.
         23    2    1    2    0    0  0.90438953839E+02  0.27761294728E+02 -0.33311169190E+03  0.35826099158E+03  0.91856654386E+02 0.  0.
        -11    1    3    3    0    0 -0.34053317535E+02 -0.34361771810E+01 -0.73231921619E+02  0.80835327010E+02  0.00000000000E+00 0.  1.
         11    1    3    3    0    0  0.47829445872E+02  0.14860662546E+02 -0.26935700338E+03  0.27397388644E+03  0.00000000000E+00 0. -1.
        -13    1    4    4    0    0  0.70851373061E+02 -0.19059368116E+02 -0.25301520938E+03  0.26343855594E+03  0.00000000000E+00 0. -1.
         13    1    4    4    0    0  0.19587580778E+02  0.46820662844E+02 -0.80096482521E+02  0.94822435648E+02  0.00000000000E+00 0.  1.
          2    1    1    2  501    0 -0.10421508218E+03 -0.39185780093E+02 -0.36278615803E+02  0.11710015661E+03  0.00000000000E+00 0. -1.
<scales pt_clust_5="13000.00000" pt_clust_6="13000.00000" pt_clust_7="13000.00000" pt_clust_8="13000.00000" pt_clust_9="108.27261"></scales>
<clustering>
<clus scale="   90.565">  5  6 -1 -1</clus>
<clus scale="   91.857">  7  8 -1 -1</clus>
<clus scale="   92.317">  2  5  1 -1</clus>
<clus scale="  108.273">  1  9  2 -1</clus>
<clus scale="  108.273">  1  5  2 -1</clus>
</clustering>
</event>
<event>
 9    1  0.1881049E-005  0.1158802E+03  0.7546771E-02  0.1250749E+00
         21   -1    0    0  501  502  0.00000000000E+00  0.00000000000E+00  0.10346744621E+03  0.10346744621E+03  0.00000000000E+00 0. -1.
          2   -1    0    0  502    0 -0.00000000000E+00 -0.00000000000E+00 -0.47654095766E+03  0.47654095766E+03  0.00000000000E+00 0. -1.
         23    2    1    2    0    0  0.42342408268E+02  0.54326645565E+02 -0.39241699616E+03  0.40876930640E+03  0.91416535843E+02 0.  0.
         23    2    1    2    0    0 -0.76678352424E+02 -0.21767495747E+02  0.15364916916E+02  0.12375347544E+03  0.93410108717E+02 0.  0.
        -11    1    4    4    0    0 -0.65268814390E+02  0.22235605730E+02  0.31109994692E+02  0.75645700894E+02  0.00000000000E+00 0. -1.
         11    1    4    4    0    0 -0.11409538034E+02 -0.44003101477E+02 -0.15745077776E+02  0.48107774547E+02  0.00000000000E+00 0.  1.
        -11    1    3    3    0    0  0.39106643407E+02 -0.65988524008E+01 -0.68466308543E+02  0.79123383504E+02  0.00000000000E+00 0.  1.
         11    1    3    3    0    0  0.32357648617E+01  0.60925497966E+02 -0.32395068761E+03  0.32964592289E+03  0.00000000000E+00 0. -1.
          2    1    1    2  501    0  0.34335944155E+02 -0.32559149818E+02  0.39785677898E+01  0.47485622030E+02  0.00000000000E+00 0. -1.
<scales pt_clust_5="13000.00000" pt_clust_6="13000.00000" pt_clust_7="13000.00000" pt_clust_8="13000.00000" pt_clust_9="47.31866"></scales>
<clustering>
<clus scale="   47.319">  1  9  2 -1</clus>
<clus scale="   91.417">  7  8 -1 -1</clus>
<clus scale="   93.410">  5  6 -1 -1</clus>
<clus scale="  114.279">  2  7  1 -1</clus>
<clus scale="   47.319">  1  5  2 -1</clus>
</clustering>
</event>
<event>
 9    1  0.1881049E-005  0.1028408E+03  0.7546771E-02  0.1274820E+00
         21   -1    0    0  501  502  0.00000000000E+00  0.00000000000E+00  0.73078440468E+02  0.73078440468E+02  0.00000000000E+00 0.  1.
          2   -1    0    0  502    0 -0.00000000000E+00 -0.00000000000E+00 -0.25736767077E+03  0.25736767077E+03  0.00000000000E+00 0. -1.
         23    2    1    2    0    0 -0.35626136902E+02  0.13706821950E+00 -0.14657494918E+03  0.17766571408E+03  0.93870388379E+02 0.  0.
         23    2    1    2    0    0  0.58840039615E+02 -0.25658309758E+02 -0.23394674284E+02  0.11542708153E+03  0.93035483788E+02 0.  0.
        -13    1    4    4    0    0  0.75910926551E+02 -0.59261866612E+01 -0.38454213396E+02  0.85301318783E+02  0.00000000000E+00 0.  1.
         13    1    4    4    0    0 -0.17070886936E+02 -0.19732123097E+02  0.15059539112E+02  0.30125762745E+02  0.00000000000E+00 0. -1.
        -13    1    3    3    0    0  0.19733656365E+02 -0.27527730204E+02 -0.28134412784E+02  0.44031106123E+02  0.00000000000E+00 0.  1.
         13    1    3    3    0    0 -0.55359793266E+02  0.27664798424E+02 -0.11844053639E+03  0.13363460795E+03  0.00000000000E+00 0. -1.
          2    1    1    2  501    0 -0.23213902713E+02  0.25521241539E+02 -0.14319606848E+02  0.37353315638E+02  0.00000000000E+00 0. -1.
<scales pt_clust_5="13000.00000" pt_clust_6="13000.00000" pt_clust_7="13000.00000" pt_clust_8="13000.00000" pt_clust_9="34.49955"></scales>
<clustering>
<clus scale="   34.500">  1  9  2 -1</clus>
<clus scale="   93.035">  5  6 -1 -1</clus>
<clus scale="   93.870">  7  8 -1 -1</clus>
<clus scale="  102.079">  1  5  2 -1</clus>
<clus scale="   34.500">  1  5  2 -1</clus>
</clustering>
</event>
<event>
 9    1  0.1881049E-005  0.1132974E+03  0.7546771E-02  0.1254719E+00
         21   -1    0    0  501  502  0.00000000000E+00  0.00000000000E+00  0.48565366650E+02  0.48565366650E+02  0.00000000000E+00 0.  1.
          2   -1    0    0  502    0 -0.00000000000E+00 -0.00000000000E+00 -0.38287610948E+03  0.38287610948E+03  0.00000000000E+00 0. -1.
         23    2    1    2    0    0 -0.61532334127E+01 -0.58810160507E+02 -0.20927872350E+03  0.23577248801E+03  0.91074610805E+02 0.  0.
         23    2    1    2    0    0  0.94354068935E+01  0.84119864841E+02 -0.11140176461E+03  0.16673565716E+03  0.90693151047E+02 0.  0.
        -13    1    3    3    0    0  0.41859753372E+02 -0.20924464989E+02 -0.10343167967E+03  0.11352614037E+03  0.00000000000E+00 0. -1.
         13    1    3    3    0    0 -0.48012986785E+02 -0.37885695518E+02 -0.10584704383E+03  0.12224634765E+03  0.00000000000E+00 0.  1.
        -13    1    4    4    0    0  0.21812572280E+02  0.41386527750E+02 -0.11291225492E+03  0.12222033505E+03  0.00000000000E+00 0. -1.
         13    1    4    4    0    0 -0.12377165387E+02  0.42733337092E+02  0.15104903072E+01  0.44515322115E+02  0.00000000000E+00 0.  1.
          2    1    1    2  501    0 -0.32821734809E+01 -0.25309704334E+02 -0.13630254715E+02  0.28933330949E+02  0.00000000000E+00 0. -1.
<scales pt_clust_5="13000.00000" pt_clust_6="13000.00000" pt_clust_7="13000.00000" pt_clust_8="13000.00000" pt_clust_9="25.52163"></scales>
<clustering>
<clus scale="   25.522">  1  9  2 -1</clus>
<clus scale="   90.693">  7  8 -1 -1</clus>
<clus scale="   91.075">  5  6 -1 -1</clus>
<clus scale="  112.991">  1  7  2 -1</clus>
<clus scale="   25.522">  1  5  2 -1</clus>
</clustering>
</event>
<event>
 9    1  0.1881049E-005  0.9998774E+02  0.7546771E-02  0.1281073E+00
         21   -1    0    0  501  502  0.00000000000E+00  0.00000000000E+00  0.39261191471E+03  0.39261191471E+03  0.00000000000E+00 0. -1.
         -1   -1    0    0    0  501 -0.00000000000E+00 -0.00000000000E+00 -0.33648078732E+02  0.33648078732E+02  0.00000000000E+00 0.  1.
         23    2    1    2    0    0 -0.41190697198E+02 -0.19183596675E+02  0.15189457389E+03  0.18312609809E+03  0.91643452077E+02 0.  0.
         23    2    1    2    0    0  0.19503889032E+02  0.31698660800E+02  0.18760810427E+03  0.21142141923E+03  0.90094444528E+02 0.  0.
        -11    1    3    3    0    0 -0.79319187701E+01 -0.35766854012E+02  0.12263426461E+02  0.38633855746E+02  0.00000000000E+00 0.  1.
         11    1    3    3    0    0 -0.33258778428E+02  0.16583257336E+02  0.13963114743E+03  0.14449224234E+03  0.00000000000E+00 0. -1.
        -13    1    4    4    0    0 -0.16496991385E+02  0.46402379615E+02  0.57911242561E+02  0.76020020873E+02  0.00000000000E+00 0. -1.
         13    1    4    4    0    0  0.36000880417E+02 -0.14703718815E+02  0.12969686171E+03  0.13540139835E+03  0.00000000000E+00 0.  1.
         -1    1    1    2    0  502  0.21686808166E+02 -0.12515064125E+02  0.19461157820E+02  0.31712476128E+02  0.00000000000E+00 0.  1.
<scales pt_clust_5="13000.00000" pt_clust_6="13000.00000" pt_clust_7="13000.00000" pt_clust_8="13000.00000" pt_clust_9="25.03887"></scales>
<clustering>
<clus scale="   25.039">  1  9  2 -1</clus>
<clus scale="   90.094">  7  8 -1 -1</clus>
<clus scale="   91.643">  5  6 -1 -1</clus>
<clus scale="   98.570">  1  7  2 -1</clus>
<clus scale="   25.039">  1  5  2 -1</clus>
</clustering>
</event>
<event>
 9    1  0.1881049E-005  0.2254976E+03  0.7546771E-02  0.1130126E+00
         21   -1    0    0  501  502  0.00000000000E+00  0.00000000000E+00  0.83226649016E+02  0.83226649016E+02  0.00000000000E+00 0.  1.
          1   -1    0    0  502    0 -0.00000000000E+00 -0.00000000000E+00 -0.17558839835E+04  0.17558839835E+04  0.00000000000E+00 0. -1.
         23    2    1    2    0    0 -0.23547051853E+02  0.18801109969E+03 -0.93685059771E+03  0.96061350097E+03  0.95846849506E+02 0.  0.
         23    2    1    2    0    0  0.18040193095E+03 -0.20804753163E+03 -0.61291391241E+03  0.67822841710E+03  0.92204607404E+02 0.  0.
        -11    1    4    4    0    0  0.44925722530E+02 -0.11670666808E+03 -0.30515856776E+03  0.32978859652E+03  0.00000000000E+00 0. -1.
         11    1    4    4    0    0  0.13547620842E+03 -0.91340863549E+02 -0.30775534466E+03  0.34843982058E+03  0.00000000000E+00 0.  1.
        -13    1    3    3    0    0  0.37483746300E+02  0.75176803782E+02 -0.35992898674E+03  0.36960175670E+03  0.00000000000E+00 0.  1.
         13    1    3    3    0    0 -0.61030798153E+02  0.11283429591E+03 -0.57692161097E+03  0.59101174427E+03  0.00000000000E+00 0. -1.
          1    1    1    2  501    0 -0.15685487910E+03  0.20036431940E+02 -0.12289282435E+03  0.20026871443E+03  0.00000000000E+00 0. -1.
<scales pt_clust_5="13000.00000" pt_clust_6="13000.00000" pt_clust_7="13000.00000" pt_clust_8="13000.00000" pt_clust_9="158.12941"></scales>
<clustering>
<clus scale="   92.205">  5  6 -1 -1</clus>
<clus scale="   95.847">  7  8 -1 -1</clus>
<clus scale="  158.129">  1  9  2 -1</clus>
<clus scale="  223.974">  1  5  2 -1</clus>
<clus scale="  158.129">  1  5  2 -1</clus>
</clustering>
</event>
<event>
 9    1  0.1881049E-005  0.1186094E+03  0.7546771E-02  0.1246040E+00
         21   -1    0    0  501  502  0.00000000000E+00  0.00000000000E+00  0.39388092270E+03  0.39388092270E+03  0.00000000000E+00 0. -1.
          3   -1    0    0  502    0 -0.00000000000E+00 -0.00000000000E+00 -0.10137396817E+03  0.10137396817E+03  0.00000000000E+00 0. -1.
         23    2    1    2    0    0  0.40448577087E+02  0.18650311367E+02  0.32897282649E+02  0.10750072980E+03  0.92142575388E+02 0.  0.
         23    2    1    2    0    0 -0.10015515837E+03 -0.50966662406E+02  0.28521276853E+02  0.14689929044E+03  0.90206883730E+02 0.  0.
        -11    1    4    4    0    0 -0.27108771407E+02 -0.54998043302E+02  0.39477904340E+02  0.72925819744E+02  0.00000000000E+00 0.  1.
         11    1    4    4    0    0 -0.73046386964E+02  0.40313808964E+01 -0.10956627487E+02  0.73973470692E+02  0.00000000000E+00 0. -1.
        -13    1    3    3    0    0  0.40430415649E+02 -0.28320338158E+02 -0.13330402517E+01  0.49380533201E+02  0.00000000000E+00 0.  1.
         13    1    3    3    0    0  0.18161437954E-01  0.46970649525E+02  0.34230322901E+02  0.58120196597E+02  0.00000000000E+00 0. -1.
          3    1    1    2  501    0  0.59706581283E+02  0.32316351038E+02  0.23108839503E+03  0.24085487064E+03  0.00000000000E+00 0. -1.
<scales pt_clust_5="13000.00000" pt_clust_6="13000.00000" pt_clust_7="13000.00000" pt_clust_8="13000.00000" pt_clust_9="67.89125"></scales>
<clustering>
<clus scale="   67.891">  1  9  2 -1</clus>
<clus scale="   90.207">  5  6 -1 -1</clus>
<clus scale="   92.143">  7  8 -1 -1</clus>
<clus scale="  117.112">  1  5  2 -1</clus>
<clus scale="   67.891">  1  5  2 -1</clus>
</clustering>
</event>
<event>
 9    1  0.1881049E-005  0.1056173E+03  0.7546771E-02  0.1270336E+00
         21   -1    0    0  501  502  0.00000000000E+00  0.00000000000E+00  0.12850855611E+03  0.12850855611E+03  0.00000000000E+00 0. -1.
          4   -1    0    0  502    0 -0.00000000000E+00 -0.00000000000E+00 -0.20568695634E+03  0.20568695634E+03  0.00000000000E+00 0. -1.
         23    2    1    2    0    0 -0.80456561451E+01  0.36248594769E+02 -0.10171404055E+03  0.14425863475E+03  0.95321112306E+02 0.  0.
         23    2    1    2    0    0  0.63426194183E+02 -0.44985149347E+02 -0.14786098488E+02  0.12145673078E+03  0.92122543234E+02 0.  0.
        -11    1    3    3    0    0  0.42747992618E+02  0.25161419097E+02 -0.41229264059E+02  0.64500698435E+02  0.00000000000E+00 0.  1.
         11    1    3    3    0    0 -0.50793648763E+02  0.11087175672E+02 -0.60484776488E+02  0.79757936319E+02  0.00000000000E+00 0. -1.
        -13    1    4    4    0    0 -0.21601516351E+02  0.21078935316E+01 -0.10636013370E+02  0.24170095246E+02  0.00000000000E+00 0.  1.
         13    1    4    4    0    0  0.85027710534E+02 -0.47093042879E+02 -0.41500851182E+01  0.97286635530E+02  0.00000000000E+00 0. -1.
          4    1    1    2  501    0 -0.55380538038E+02  0.87365545783E+01  0.39321738802E+02  0.68480146916E+02  0.00000000000E+00 0. -1.
<scales pt_clust_5="13000.00000" pt_clust_6="13000.00000" pt_clust_7="13000.00000" pt_clust_8="13000.00000" pt_clust_9="56.06542"></scales>
<clustering>
<clus scale="   56.065">  1  9  2 -1</clus>
<clus scale="   92.123">  7  8 -1 -1</clus>
<clus scale="   95.321">  5  6 -1 -1</clus>
<clus scale="  102.740">  1  7  2 -1</clus>
<clus scale="   56.065">  1  5  2 -1</clus>
</clustering>
</event>
<event>
 9    1  0.1881049E-005  0.9858749E+02  0.7546771E-02  0.1283990E+00
          2   -1    0    0  502    0 -0.00000000000E+00  0.00000000000E+00  0.52133133217E+03  0.52133133217E+03  0.00000000000E+00 0. -1.
         21   -1    0    0  501  502  0.00000000000E+00 -0.00000000000E+00 -0.59433238077E+02  0.59433238077E+02  0.00000000000E+00 0. -1.
         23    2    1    2    0    0 -0.33801232689E+02  0.30562597058E+02  0.34972947774E+03  0.36397194505E+03  0.89934829238E+02 0.  0.
         23    2    1    2    0    0  0.30770345527E+02  0.11367046280E+02  0.13706194094E+03  0.16793611206E+03  0.91326546943E+02 0.  0.
        -11    1    3    3    0    0 -0.44601519985E+02  0.51428758012E+02  0.31338946515E+03  0.32069794137E+03  0.00000000000E+00 0. -1.
         11    1    3    3    0    0  0.10800287296E+02 -0.20866160955E+02  0.36340012594E+02  0.43274003674E+02  0.00000000000E+00 0.  1.
        -13    1    4    4    0    0  0.60700780320E+02 -0.17380721676E+01  0.65790609970E+02  0.89532172913E+02  0.00000000000E+00 0. -1.
         13    1    4    4    0    0 -0.29930434793E+02  0.13105118448E+02  0.71271330967E+02  0.78403939150E+02  0.00000000000E+00 0.  1.
          2    1    1    2  501    0  0.30308871624E+01 -0.41929643337E+02 -0.24893324582E+02  0.48856513139E+02  0.00000000000E+00 0. -1.
<scales pt_clust_5="13000.00000" pt_clust_6="13000.00000" pt_clust_7="13000.00000" pt_clust_8="13000.00000" pt_clust_9="42.03904"></scales>
<clustering>
<clus scale="   42.039">  2  9  1 -1</clus>
<clus scale="   89.935">  5  6 -1 -1</clus>
<clus scale="   91.327">  7  8 -1 -1</clus>
<clus scale="   97.300">  1  5  2 -1</clus>
<clus scale="   42.039">  2  5  1 -1</clus>
</clustering>
</event>
<event>
 9    1  0.1881049E-005  0.1161870E+03  0.7546771E-02  0.1249790E+00
         21   -1    0    0  501  502  0.00000000000E+00  0.00000000000E+00  0.29546643399E+02  0.29546643399E+02  0.00000000000E+00 0.  1.
          1   -1    0    0  502    0 -0.00000000000E+00 -0.00000000000E+00 -0.10136681703E+04  0.10136681703E+04  0.00000000000E+00 0. -1.
         23    2    1    2    0    0  0.29196561107E+02 -0.57605111169E+02 -0.62674228265E+03  0.63671191341E+03  0.91789889437E+02 0.  0.
         23    2    1    2    0    0 -0.85304519657E+02  0.49951468271E+02 -0.27499794408E+03  0.30653610640E+03  0.92566219671E+02 0.  0.
        -11    1    3    3    0    0  0.59037462303E+02 -0.16251059197E+02 -0.34423711930E+03  0.34964083455E+03  0.00000000000E+00 0. -1.
         11    1    3    3    0    0 -0.29840901196E+02 -0.41354051972E+02 -0.28250516334E+03  0.28707107885E+03  0.00000000000E+00 0.  1.
        -13    1    4    4    0    0 -0.54487938722E+02  0.90341836735E+01 -0.23539626770E+03  0.24178907086E+03  0.00000000000E+00 0. -1.
         13    1    4    4    0    0 -0.30816580936E+02  0.40917284597E+02 -0.39601676380E+02  0.64747035542E+02  0.00000000000E+00 0.  1.
          1    1    1    2  501    0  0.56107958551E+02  0.76536428987E+01 -0.82381300181E+02  0.99966793896E+02  0.00000000000E+00 0. -1.
<scales pt_clust_5="13000.00000" pt_clust_6="13000.00000" pt_clust_7="13000.00000" pt_clust_8="13000.00000" pt_clust_9="56.62757"></scales>
<clustering>
<clus scale="   56.628">  1  9  2 -1</clus>
<clus scale="   91.790">  5  6 -1 -1</clus>
<clus scale="   92.566">  7  8 -1 -1</clus>
<clus scale="  115.569">  2  5  1 -1</clus>
<clus scale="   56.628">  1  5  2 -1</clus>
</clustering>
</event>
<event>
 9    1  0.1881049E-005  0.9340104E+02  0.7546771E-02  0.1295095E+00
         21   -1    0    0  501  502  0.00000000000E+00  0.00000000000E+00  0.16698903771E+03  0.16698903771E+03  0.00000000000E+00 0. -1.
         -3   -1    0    0    0  501 -0.00000000000E+00 -0.00000000000E+00 -0.11024570887E+03  0.11024570887E+03  0.00000000000E+00 0.  1.
         23    2    1    2    0    0 -0.13446885460E+02 -0.22771356570E+02 -0.33814524201E+02  0.10082813588E+03  0.91233423312E+02 0.  0.
         23    2    1    2    0    0 -0.30924021815E+02  0.70263953124E+01  0.34035719597E+02  0.10284416929E+03  0.91721467452E+02 0.  0.
        -13    1    4    4    0    0  0.18257969925E+02 -0.17099661886E+02 -0.15130849290E+02  0.29235158673E+02  0.00000000000E+00 0.  1.
         13    1    4    4    0    0 -0.49181991740E+02  0.24126057199E+02  0.49166568887E+02  0.73609010614E+02  0.00000000000E+00 0. -1.
        -13    1    3    3    0    0  0.66431454098E+01 -0.54034376789E+02 -0.67553078854E+01  0.54858722557E+02  0.00000000000E+00 0.  1.
         13    1    3    3    0    0 -0.20090030870E+02  0.31263020219E+02 -0.27059216316E+02  0.45969413322E+02  0.00000000000E+00 0. -1.
         -3    1    1    2    0  502  0.44370907275E+02  0.15744961258E+02  0.56522133448E+02  0.73562441415E+02  0.00000000000E+00 0.  1.
<scales pt_clust_5="13000.00000" pt_clust_6="13000.00000" pt_clust_7="13000.00000" pt_clust_8="13000.00000" pt_clust_9="47.08164"></scales>
<clustering>
<clus scale="   47.082">  1  9  2 -1</clus>
<clus scale="   91.233">  7  8 -1 -1</clus>
<clus scale="   91.721">  5  6 -1 -1</clus>
<clus scale="   92.922">  2  7  1 -1</clus>
<clus scale="   47.082">  1  5  2 -1</clus>
</clustering>
</event>
<event>
 9    1  0.1881049E-005  0.1500062E+03  0.7546771E-02  0.1201145E+00
         21   -1    0    0  501  502  0.00000000000E+00  0.00000000000E+00  0.47802670297E+02  0.47802670297E+02  0.00000000000E+00 0.  1.
          2   -1    0    0  502    0 -0.00000000000E+00 -0.00000000000E+00 -0.69704409397E+03  0.69704409397E+03  0.00000000000E+00 0. -1.
         23    2    1    2    0    0  0.10367073136E+03 -0.31903974718E+02 -0.40377751320E+03  0.42885196678E+03  0.95458080340E+02 0.  0.
         23    2    1    2    0    0 -0.13399931681E+03  0.14419821873E+02 -0.19043227994E+03  0.25077210929E+03  0.91969828672E+02 0.  0.
        -11    1    3    3    0    0  0.44024720642E+02 -0.44836395717E+02 -0.31444114411E+03  0.32065824723E+03  0.00000000000E+00 0. -1.
         11    1    3    3    0    0  0.59646010720E+02  0.12932420999E+02 -0.89336369089E+02  0.10819371955E+03  0.00000000000E+00 0.  1.
        -11    1    4    4    0    0 -0.97265573035E+02  0.30615670704E+02 -0.69634976639E+02  0.12347850405E+03  0.00000000000E+00 0.  1.
         11    1    4    4    0    0 -0.36733743779E+02 -0.16195848830E+02 -0.12079730330E+03  0.12729360524E+03  0.00000000000E+00 0. -1.
          2    1    1    2  501    0  0.30328585452E+02  0.17484152845E+02 -0.55031630540E+02  0.65222688200E+02  0.00000000000E+00 0. -1.
<scales pt_clust_5="13000.00000" pt_clust_6="13000.00000" pt_clust_7="13000.00000" pt_clust_8="13000.00000" pt_clust_9="35.00741"></scales>
<clustering>
<clus scale="   35.007">  1  9  2 -1</clus>
<clus scale="   91.970">  7  8 -1 -1</clus>
<clus scale="   95.458">  5  6 -1 -1</clus>
<clus scale="  147.811">  1  7  2 -1</clus>
<clus scale="   35.007">  1  5  2 -1</clus>
</clustering>
</event>
<event>
 9    1  0.1881049E-005  0.3179078E+03  0.7546771E-02  0.1076637E+00
         21   -1    0    0  501  502  0.00000000000E+00  0.00000000000E+00  0.35012657322E+03  0.35012657322E+03  0.00000000000E+00 0.  1.
         -1   -1    0    0    0  501 -0.00000000000E+00 -0.00000000000E+00 -0.43282843025E+03  0.43282843025E+03  0.00000000000E+00 0.  1.
         23    2    1    2    0    0 -0.22453998376E+03  0.17302704180E+03 -0.35384914478E+02  0.29960279440E+03  0.90294965181E+02 0.  0.
         23    2    1    2    0    0  0.32682547137E+03 -0.96729723132E+02 -0.45917334142E+02  0.35573731685E+03  0.90934641100E+02 0.  0.
        -11    1    4    4    0    0  0.27071931097E+03 -0.10961397483E+03 -0.55736356362E+02  0.29733938560E+03  0.00000000000E+00 0.  1.
         11    1    4    4    0    0  0.56106160401E+02  0.12884251698E+02  0.98190222200E+01  0.58397931249E+02  0.00000000000E+00 0. -1.
        -13    1    3    3    0    0 -0.12305664410E+03  0.51690022020E+02 -0.45714994984E+02  0.14108386442E+03  0.00000000000E+00 0.  1.
         13    1    3    3    0    0 -0.10148333966E+03  0.12133701978E+03  0.10330080506E+02  0.15851892998E+03  0.00000000000E+00 0. -1.
         -1    1    1    2    0  502 -0.10228548761E+03 -0.76297318666E+02 -0.13996084144E+01  0.12761489222E+03  0.00000000000E+00 0.  1.
<scales pt_clust_5="13000.00000" pt_clust_6="13000.00000" pt_clust_7="13000.00000" pt_clust_8="13000.00000" pt_clust_9="127.60722"></scales>
<clustering>
<clus scale="   90.295">  7  8 -1 -1</clus>
<clus scale="   90.935">  5  6 -1 -1</clus>
<clus scale="  127.607">  1  9  2 -1</clus>
<clus scale="  317.725">  2  7  1 -1</clus>
<clus scale="  127.607">  1  5  2 -1</clus>
</clustering>
</event>
<event>
 9    1  0.1881049E-005  0.1189583E+03  0.7546771E-02  0.1246160E+00
         21   -1    0    0  501  502  0.00000000000E+00  0.00000000000E+00  0.98377826901E+02  0.98377826901E+02  0.00000000000E+00 0. -1.
          1   -1    0    0  502    0 -0.00000000000E+00 -0.00000000000E+00 -0.69043890167E+03  0.69043890167E+03  0.00000000000E+00 0. -1.
         23    2    1    2    0    0 -0.52286071250E+02 -0.34708565709E+02 -0.42605974541E+03  0.44072245032E+03  0.93652836464E+02 0.  0.
         23    2    1    2    0    0  0.69749274862E+02  0.73321927810E+02 -0.23267652896E+03  0.26909087672E+03  0.89612869389E+02 0.  0.
        -13    1    4    4    0    0 -0.17611855157E+02  0.27750829354E+02 -0.33811907543E+02  0.47154332395E+02  0.00000000000E+00 0.  1.
         13    1    4    4    0    0  0.87361130019E+02  0.45571098455E+02 -0.19886462142E+03  0.22193654432E+03  0.00000000000E+00 0. -1.
        -13    1    3    3    0    0 -0.15128783886E+00 -0.50485465123E+02 -0.12562683362E+03  0.13539167775E+03  0.00000000000E+00 0.  1.
         13    1    3    3    0    0 -0.52134783411E+02  0.15776899414E+02 -0.30043291179E+03  0.30533077257E+03  0.00000000000E+00 0. -1.
          1    1    1    2  501    0 -0.17463203612E+02 -0.38613362101E+02  0.66675199599E+02  0.79003401539E+02  0.00000000000E+00 0. -1.
<scales pt_clust_5="13000.00000" pt_clust_6="13000.00000" pt_clust_7="13000.00000" pt_clust_8="13000.00000" pt_clust_9="42.37871"></scales>
<clustering>
<clus scale="   42.379">  1  9  2 -1</clus>
<clus scale="   89.613">  5  6 -1 -1</clus>
<clus scale="   93.653">  7  8 -1 -1</clus>
<clus scale="  115.805">  1  5  2 -1</clus>
<clus scale="   42.379">  1  5  2 -1</clus>
</clustering>
</event>
<event>
 9    1  0.1881049E-005  0.1942041E+03  0.7546771E-02  0.1154792E+00
          1   -1    0    0  502    0 -0.00000000000E+00  0.00000000000E+00  0.51174862860E+03  0.51174862860E+03  0.00000000000E+00 0. -1.
         21   -1    0    0  501  502  0.00000000000E+00 -0.00000000000E+00 -0.18607063620E+03  0.18607063620E+03  0.00000000000E+00 0. -1.
         23    2    1    2    0    0 -0.14388343368E+03  0.12710353356E+03  0.35726559478E+03  0.41550231519E+03  0.90253631440E+02 0.  0.
         23    2    1    2    0    0  0.44379695243E+02 -0.77647734788E+02 -0.90658271729E+02  0.15647492971E+03  0.90921687889E+02 0.  0.
        -11    1    3    3    0    0 -0.13769011372E+03  0.93388599284E+02  0.33660885603E+03  0.37548038544E+03  0.00000000000E+00 0. -1.
         11    1    3    3    0    0 -0.61933199592E+01  0.33714934277E+02  0.20656738745E+02  0.40021929751E+02  0.00000000000E+00 0.  1.
        -13    1    4    4    0    0  0.91994185690E+01 -0.54273634789E+02  0.15325230518E+01  0.55069096253E+02  0.00000000000E+00 0.  1.
         13    1    4    4    0    0  0.35180276674E+02 -0.23374099998E+02 -0.92190794781E+02  0.10140583346E+03  0.00000000000E+00 0. -1.
          1    1    1    2  501    0  0.99503738432E+02 -0.49455798773E+02  0.59070669353E+02  0.12584201990E+03  0.00000000000E+00 0. -1.
<scales pt_clust_5="13000.00000" pt_clust_6="13000.00000" pt_clust_7="13000.00000" pt_clust_8="13000.00000" pt_clust_9="111.11653"></scales>
<clustering>
<clus scale="   90.254">  5  6 -1 -1</clus>
<clus scale="   90.922">  7  8 -1 -1</clus>
<clus scale="  111.117">  2  9  1 -1</clus>
<clus scale="  193.892">  1  5  2 -1</clus>
<clus scale="  111.117">  2  5  1 -1</clus>
</clustering>
</event>
<event>
 9    1  0.1881049E-005  0.9598601E+02  0.7546771E-02  0.1289511E+00
         21   -1    0    0  501  502  0.00000000000E+00  0.00000000000E+00  0.78954918779E+02  0.78954918779E+02  0.00000000000E+00 0. -1.
          2   -1    0    0  502    0 -0.00000000000E+00 -0.00000000000E+00 -0.18820174816E+03  0.18820174816E+03  0.00000000000E+00 0. -1.
         23    2    1    2    0    0 -0.12169178889E+02  0.39888641391E+02 -0.82575030121E+02  0.12998928921E+03  0.91320244650E+02 0.  0.
         23    2    1    2    0    0 -0.19249273754E+02 -0.13393457265E+02 -0.21506106403E+02  0.95745181614E+02  0.90303421597E+02 0.  0.
        -11    1    3    3    0    0  0.39816598936E+02  0.18426939040E+02 -0.31430305802E+02  0.53970156161E+02  0.00000000000E+00 0.  1.
         11    1    3    3    0    0 -0.51985777825E+02  0.21461702351E+02 -0.51144724318E+02  0.76019133048E+02  0.00000000000E+00 0. -1.
        -11    1    4    4    0    0 -0.46441566387E+02  0.19176982608E+02 -0.61396122402E+01  0.50618875816E+02  0.00000000000E+00 0. -1.
         11    1    4    4    0    0  0.27192292633E+02 -0.32570439873E+02 -0.15366494163E+02  0.45126305798E+02  0.00000000000E+00 0.  1.
          2    1    1    2  501    0  0.31418452643E+02 -0.26495184126E+02 -0.51656928567E+01  0.41422196115E+02  0.00000000000E+00 0. -1.
<scales pt_clust_5="13000.00000" pt_clust_6="13000.00000" pt_clust_7="13000.00000" pt_clust_8="13000.00000" pt_clust_9="41.09883"></scales>
<clustering>
<clus scale="   41.099">  1  9  2 -1</clus>
<clus scale="   90.303">  7  8 -1 -1</clus>
<clus scale="   91.320">  5  6 -1 -1</clus>
<clus scale="   95.019">  1  7  2 -1</clus>
<clus scale="   41.099">  1  5  2 -1</clus>
</clustering>
</event>
<event>
 9    1  0.2181543E-005  0.1012216E+03  0.7546771E-02  0.1279923E+00
         21   -1    0    0  501  502  0.00000000000E+00  0.00000000000E+00  0.27393187261E+03  0.27393187261E+03  0.00000000000E+00 0.  1.
         -4   -1    0    0    0  501 -0.00000000000E+00 -0.00000000000E+00 -0.18910743249E+03  0.18910743249E+03  0.00000000000E+00 0.  1.
         23    2    1    2    0    0  0.27163517825E+02 -0.30216565174E+02 -0.13523721913E+03  0.16840775821E+03  0.91766933454E+02 0.  0.
         23    2    1    2    0    0 -0.61956352627E+02  0.11844195450E+02  0.47508975047E+02  0.11764986946E+03  0.87209600825E+02 0.  0.
        -11    1    3    3    0    0  0.21864128257E+02  0.31535611029E+02 -0.52676320013E+02  0.65171539475E+02  0.00000000000E+00 0. -1.
         11    1    3    3    0    0  0.52993895684E+01 -0.61752176203E+02 -0.82560899120E+02  0.10323621874E+03  0.00000000000E+00 0.  1.
        -13    1    4    4    0    0 -0.70833269844E+02 -0.13100497997E+02  0.11488140541E+02  0.72944859569E+02  0.00000000000E+00 0.  1.
         13    1    4    4    0    0  0.88769172164E+01  0.24944693446E+02  0.36020834506E+02  0.44705009886E+02  0.00000000000E+00 0. -1.
         -4    1    1    2    0  502  0.34792834802E+02  0.18372369724E+02  0.17255268420E+03  0.17698167744E+03  0.00000000000E+00 0.  1.
<scales pt_clust_5="13000.00000" pt_clust_6="13000.00000" pt_clust_7="13000.00000" pt_clust_8="13000.00000" pt_clust_9="39.34572"></scales>
<clustering>
<clus scale="   39.346">  1  9  2 -1</clus>
<clus scale="   87.210">  7  8 -1 -1</clus>
<clus scale="   91.767">  5  6 -1 -1</clus>
<clus scale="   97.109">  1  7  2 -1</clus>
<clus scale="   39.346">  1  5  2 -1</clus>
</clustering>
</event>
<event>
 9    1  0.1881049E-005  0.1445888E+03  0.7546771E-02  0.1208607E+00
         21   -1    0    0  501  502  0.00000000000E+00  0.00000000000E+00  0.43301620039E+02  0.43301620039E+02  0.00000000000E+00 0. -1.
          2   -1    0    0  502    0 -0.00000000000E+00 -0.00000000000E+00 -0.69288507909E+03  0.69288507909E+03  0.00000000000E+00 0. -1.
         23    2    1    2    0    0  0.94072243764E+02  0.56676168133E+02 -0.43311377228E+03  0.45740103189E+03  0.97807919707E+02 0.  0.
         23    2    1    2    0    0 -0.10139860313E+03 -0.22470862405E+02 -0.18875044953E+03  0.23415345248E+03  0.91730533271E+02 0.  0.
        -11    1    3    3    0    0 -0.65470544203E+01  0.32258573100E+02 -0.45253360671E+02  0.55958432001E+02  0.00000000000E+00 0.  1.
         11    1    3    3    0    0  0.10061929818E+03  0.24417595033E+02 -0.38786041161E+03  0.40144259989E+03  0.00000000000E+00 0. -1.
        -13    1    4    4    0    0 -0.72459011041E+01 -0.22137296633E+02 -0.78139953629E-01  0.23293112520E+02  0.00000000000E+00 0.  1.
         13    1    4    4    0    0 -0.94152702023E+02 -0.33356577276E+00 -0.18867230958E+03  0.21086033996E+03  0.00000000000E+00 0. -1.
          2    1    1    2  501    0  0.73263593628E+01 -0.34205305728E+02 -0.27719237240E+02  0.44632214763E+02  0.00000000000E+00 0. -1.
<scales pt_clust_5="13000.00000" pt_clust_6="13000.00000" pt_clust_7="13000.00000" pt_clust_8="13000.00000" pt_clust_9="34.98112"></scales>
<clustering>
<clus scale="   34.981">  1  9  2 -1</clus>
<clus scale="   91.731">  7  8 -1 -1</clus>
<clus scale="   97.808">  5  6 -1 -1</clus>
<clus scale="  140.549">  1  7  2 -1</clus>
<clus scale="   34.981">  1  5  2 -1</clus>
</clustering>
</event>
<event>
 9    1  0.1881049E-005  0.1563223E+03  0.7546771E-02  0.1214580E+00
         21   -1    0    0  501  502  0.00000000000E+00  0.00000000000E+00  0.14980371227E+03  0.14980371227E+03  0.00000000000E+00 0. -1.
          1   -1    0    0  502    0 -0.00000000000E+00 -0.00000000000E+00 -0.28265832095E+03  0.28265832095E+03  0.00000000000E+00 0. -1.
         23    2    1    2    0    0  0.24968660673E+02 -0.20400233375E+02 -0.10761426776E+03  0.14550385034E+03  0.92471272843E+02 0.  0.
         23    2    1    2    0    0  0.64034746723E+02 -0.73103140420E+02 -0.60882197365E+02  0.15303720107E+03  0.10133718482E+03 0.  0.
        -11    1    4    4    0    0 -0.23285566274E+02 -0.14033309149E+02  0.64557637783E+01  0.27943304177E+02  0.00000000000E+00 0.  1.
         11    1    4    4    0    0  0.87320312997E+02 -0.59069831271E+02 -0.67337961143E+02  0.12509389689E+03  0.00000000000E+00 0. -1.
        -13    1    3    3    0    0 -0.31864046625E+02 -0.58795427525E+01 -0.14602854882E+02  0.35540538276E+02  0.00000000000E+00 0.  1.
         13    1    3    3    0    0  0.56832707298E+02 -0.14520690622E+02 -0.93011412876E+02  0.10996331206E+03  0.00000000000E+00 0. -1.
          1    1    1    2  501    0 -0.89003407396E+02  0.93503373795E+02  0.35641856440E+02  0.13392098181E+03  0.00000000000E+00 0. -1.
<scales pt_clust_5="13000.00000" pt_clust_6="13000.00000" pt_clust_7="13000.00000" pt_clust_8="13000.00000" pt_clust_9="119.02698"></scales>
<clustering>
<clus scale="   92.471">  7  8 -1 -1</clus>
<clus scale="   97.931">  2  7  1 -1</clus>
<clus scale="  101.337">  5  6 -1 -1</clus>
<clus scale="  119.027">  1  9  2 -1</clus>
<clus scale="  119.027">  1  5  2 -1</clus>
</clustering>
</event>
<event>
 9    1  0.1881049E-005  0.1123368E+03  0.7546771E-02  0.1257997E+00
          1   -1    0    0  502    0 -0.00000000000E+00  0.00000000000E+00  0.91741271855E+03  0.91741271855E+03  0.00000000000E+00 0. -1.
         21   -1    0    0  501  502  0.00000000000E+00 -0.00000000000E+00 -0.17952964016E+02  0.17952964016E+02  0.00000000000E+00 0.  1.
         23    2    1    2    0    0  0.45952180300E+01  0.64025010154E+02  0.54591454338E+03  0.55763724254E+03  0.93895088502E+02 0.  0.
         23    2    1    2    0    0 -0.27385955803E+02 -0.54004104346E+02  0.29220942935E+03  0.31153240984E+03  0.89440806809E+02 0.  0.
        -11    1    3    3    0    0 -0.28517034523E+02  0.72721859760E+02  0.41707174830E+03  0.42432361869E+03  0.00000000000E+00 0.  1.
         11    1    3    3    0    0  0.33112252553E+02 -0.86968496059E+01  0.12884279508E+03  0.13331362385E+03  0.00000000000E+00 0. -1.
        -11    1    4    4    0    0 -0.11335689721E+02 -0.78039428517E+02  0.22290790551E+03  0.23644573289E+03  0.00000000000E+00 0. -1.
         11    1    4    4    0    0 -0.16050266082E+02  0.24035324172E+02  0.69301523837E+02  0.75086676951E+02  0.00000000000E+00 0.  1.
          1    1    1    2  501    0  0.22790737773E+02 -0.10020905808E+02  0.61335781813E+02  0.66196030184E+02  0.00000000000E+00 0. -1.
<scales pt_clust_5="13000.00000" pt_clust_6="13000.00000" pt_clust_7="13000.00000" pt_clust_8="13000.00000" pt_clust_9="24.89651"></scales>
<clustering>
<clus scale="   24.897">  2  9  1 -1</clus>
<clus scale="   89.441">  7  8 -1 -1</clus>
<clus scale="   93.895">  5  6 -1 -1</clus>
<clus scale="  108.641">  2  7  1 -1</clus>
<clus scale="   24.897">  2  5  1 -1</clus>
</clustering>
</event>
<event>
 9    1  0.1881049E-005  0.9242136E+02  0.7546771E-02  0.1304235E+00
         21   -1    0    0  501  502  0.00000000000E+00  0.00000000000E+00  0.69968976380E+02  0.69968976380E+02  0.00000000000E+00 0. -1.
         -1   -1    0    0    0  501 -0.00000000000E+00 -0.00000000000E+00 -0.23462048885E+03  0.23462048885E+03  0.00000000000E+00 0.  1.
         23    2    1    2    0    0 -0.41866298588E+01 -0.11033991172E+01 -0.15263459499E+03  0.17804306417E+03  0.91560186502E+02 0.  0.
         23    2    1    2    0    0  0.37545975403E+02  0.14738753866E+02 -0.45957015768E+01  0.89751791673E+02  0.80045815013E+02 0.  0.
        -11    1    3    3    0    0  0.16623231274E+01  0.31193281916E+02 -0.13905891927E+03  0.14252426875E+03  0.00000000000E+00 0.  1.
         11    1    3    3    0    0 -0.58489529862E+01 -0.32296681033E+02 -0.13575675722E+02  0.35518795420E+02  0.00000000000E+00 0. -1.
        -13    1    4    4    0    0  0.54939920885E+02  0.26596178273E+02  0.12890796926E+02  0.62385288738E+02  0.00000000000E+00 0.  1.
         13    1    4    4    0    0 -0.17393945482E+02 -0.11857424407E+02 -0.17486498503E+02  0.27366502935E+02  0.00000000000E+00 0. -1.
         -1    1    1    2    0  502 -0.33359345544E+02 -0.13635354748E+02 -0.74212159022E+01  0.36794609384E+02  0.00000000000E+00 0.  1.
<scales pt_clust_5="13000.00000" pt_clust_6="13000.00000" pt_clust_7="13000.00000" pt_clust_8="13000.00000" pt_clust_9="36.03844"></scales>
<clustering>
<clus scale="   36.038">  1  9  2 -1</clus>
<clus scale="   80.046">  7  8 -1 -1</clus>
<clus scale="   81.029">  1  7  2 -1</clus>
<clus scale="   91.560">  5  6 -1 -1</clus>
<clus scale="   36.038">  1  5  2 -1</clus>
</clustering>
</event>
<event>
 9    1  0.1881049E-005  0.1234879E+03  0.7546771E-02  0.1237545E+00
         -2   -1    0    0    0  501 -0.00000000000E+00  0.00000000000E+00  0.44928863524E+03  0.44928863524E+03  0.00000000000E+00 0.  1.
         21   -1    0    0  501  502  0.00000000000E+00 -0.00000000000E+00 -0.73561759606E+02  0.73561759606E+02  0.00000000000E+00 0.  1.
         23    2    1    2    0    0 -0.65383458552E+02 -0.71112409922E+02  0.28593816194E+03  0.31485215020E+03  0.89661990472E+02 0.  0.
         23    2    1    2    0    0  0.48281298049E+02  0.45613134413E+02  0.12061477502E+03  0.16449027984E+03  0.89986034665E+02 0.  0.
        -11    1    3    3    0    0  0.15004457807E+02 -0.15918782672E+02  0.14030746920E+02  0.25988521601E+02  0.00000000000E+00 0. -1.
         11    1    3    3    0    0 -0.80387916359E+02 -0.55193627250E+02  0.27190741502E+03  0.28886362860E+03  0.00000000000E+00 0.  1.
        -13    1    4    4    0    0  0.62559220352E+02  0.63196552612E+02  0.91355579284E+02  0.12748843939E+03  0.00000000000E+00 0. -1.
         13    1    4    4    0    0 -0.14277922302E+02 -0.17583418198E+02  0.29259195739E+02  0.37001840442E+02  0.00000000000E+00 0.  1.
         -2    1    1    2    0  502  0.17102160503E+02  0.25499275509E+02 -0.30826061324E+02  0.43507964812E+02  0.00000000000E+00 0.  1.
<scales pt_clust_5="13000.00000" pt_clust_6="13000.00000" pt_clust_7="13000.00000" pt_clust_8="13000.00000" pt_clust_9="30.70337"></scales>
<clustering>
<clus scale="   30.703">  2  9  1 -1</clus>
<clus scale="   89.662">  5  6 -1 -1</clus>
<clus scale="   89.986">  7  8 -1 -1</clus>
<clus scale="  123.252">  1  5  2 -1</clus>
<clus scale="   30.703">  2  5  1 -1</clus>
</clustering>
</event>
<event>
 9    1  0.1881049E-005  0.1569527E+03  0.7546771E-02  0.1192518E+00
         21   -1    0    0  501  502  0.00000000000E+00  0.00000000000E+00  0.24224245531E+03  0.24224245531E+03  0.00000000000E+00 0.  1.
         -3   -1    0    0    0  501 -0.00000000000E+00 -0.00000000000E+00 -0.38242067623E+03  0.38242067623E+03  0.00000000000E+00 0.  1.
         23    2    1    2    0    0  0.11910106127E+03  0.38798525329E+02 -0.32257509109E+03  0.35812204881E+03  0.92229735396E+02 0.  0.
         23    2    1    2    0    0 -0.14138822914E+03 -0.38364664452E+02  0.16089257046E+03  0.23556785247E+03  0.90240318428E+02 0.  0.
        -11    1    3    3    0    0  0.81371504551E+02  0.65882535881E+02 -0.18072358881E+03  0.20886082888E+03  0.00000000000E+00 0.  1.
         11    1    3    3    0    0  0.37729556721E+02 -0.27084010552E+02 -0.14185150227E+03  0.14926121993E+03  0.00000000000E+00 0. -1.
        -13    1    4    4    0    0 -0.12872061987E+02 -0.22337931294E+02 -0.37915987637E+01  0.26058575853E+02  0.00000000000E+00 0. -1.
         13    1    4    4    0    0 -0.12851616715E+03 -0.16026733158E+02  0.16468416922E+03  0.20950927661E+03  0.00000000000E+00 0.  1.
         -3    1    1    2    0  502  0.22287167864E+02 -0.43386087649E+00  0.21504299713E+02  0.30973230262E+02  0.00000000000E+00 0.  1.
<scales pt_clust_5="13000.00000" pt_clust_6="13000.00000" pt_clust_7="13000.00000" pt_clust_8="13000.00000" pt_clust_9="22.29139"></scales>
<clustering>
<clus scale="   22.291">  1  9  2 -1</clus>
<clus scale="   90.240">  7  8 -1 -1</clus>
<clus scale="   92.230">  5  6 -1 -1</clus>
<clus scale="  155.792">  1  7  2 -1</clus>
<clus scale="   22.291">  1  5  2 -1</clus>
</clustering>
</event>
<event>
 9    1  0.1881049E-005  0.2076142E+03  0.7546771E-02  0.1143615E+00
          1   -1    0    0  502    0 -0.00000000000E+00  0.00000000000E+00  0.75462416922E+03  0.75462416922E+03  0.00000000000E+00 0. -1.
         21   -1    0    0  501  502  0.00000000000E+00 -0.00000000000E+00 -0.14045431020E+03  0.14045431020E+03  0.00000000000E+00 0. -1.
         23    2    1    2    0    0  0.16326605314E+03 -0.40079076263E+02  0.22144090995E+03  0.29278809028E+03  0.91796801390E+02 0.  0.
         23    2    1    2    0    0 -0.13183942480E+03  0.22028331653E+03  0.25943807278E+03  0.37595510934E+03  0.90154074577E+02 0.  0.
        -11    1    4    4    0    0 -0.10732058121E+03  0.22287366173E+03  0.23831739349E+03  0.34349025646E+03  0.00000000000E+00 0. -1.
         11    1    4    4    0    0 -0.24518843588E+02 -0.25903451989E+01  0.21120679283E+02  0.32464852880E+02  0.00000000000E+00 0.  1.
        -13    1    3    3    0    0  0.48172818871E+02 -0.22341663662E+02  0.14032997954E+02  0.54924452157E+02  0.00000000000E+00 0.  1.
         13    1    3    3    0    0  0.11509323427E+03 -0.17737412600E+02  0.20740791200E+03  0.23786363812E+03  0.00000000000E+00 0. -1.
          1    1    1    2  501    0 -0.31426628344E+02 -0.18020424027E+03  0.13329087628E+03  0.22633527980E+03  0.00000000000E+00 0. -1.
<scales pt_clust_5="13000.00000" pt_clust_6="13000.00000" pt_clust_7="13000.00000" pt_clust_8="13000.00000" pt_clust_9="182.92403"></scales>
<clustering>
<clus scale="   90.154">  5  6 -1 -1</clus>
<clus scale="   91.797">  7  8 -1 -1</clus>
<clus scale="  182.924">  2  9  1 -1</clus>
<clus scale="  206.893">  2  5  1 -1</clus>
<clus scale="  182.924">  2  5  1 -1</clus>
</clustering>
</event>
<event>
 9    1  0.1881049E-005  0.9753059E+02  0.7546771E-02  0.1286019E+00
         21   -1    0    0  501  502  0.00000000000E+00  0.00000000000E+00  0.18175899269E+03  0.18175899269E+03  0.00000000000E+00 0.  1.
         -2   -1    0    0    0  501 -0.00000000000E+00 -0.00000000000E+00 -0.31580448712E+03  0.31580448712E+03  0.00000000000E+00 0.  1.
         23    2    1    2    0    0  0.66052469125E+01  0.45616538116E+02 -0.24329657464E+03  0.26390869208E+03  0.91269253789E+02 0.  0.
         23    2    1    2    0    0  0.87791599646E+00  0.64223879841E+01 -0.21136876459E+02  0.93066499443E+02  0.90402367050E+02 0.  0.
        -11    1    4    4    0    0 -0.11350367496E+02  0.42871342811E+02 -0.30089281144E+02  0.53592422193E+02  0.00000000000E+00 0.  1.
         11    1    4    4    0    0  0.12228283492E+02 -0.36448954827E+02  0.89524046845E+01  0.39474077251E+02  0.00000000000E+00 0. -1.
        -13    1    3    3    0    0 -0.28769904783E+02  0.28677038565E+02 -0.20537030748E+03  0.20934909400E+03  0.00000000000E+00 0.  1.
         13    1    3    3    0    0  0.35375151696E+02  0.16939499551E+02 -0.37926267164E+02  0.54559598088E+02  0.00000000000E+00 0. -1.
         -2    1    1    2    0  502 -0.74831629090E+01 -0.52038926100E+02  0.13038795668E+03  0.14058828828E+03  0.00000000000E+00 0.  1.
<scales pt_clust_5="13000.00000" pt_clust_6="13000.00000" pt_clust_7="13000.00000" pt_clust_8="13000.00000" pt_clust_9="52.57421"></scales>
<clustering>
<clus scale="   52.574">  1  9  2 -1</clus>
<clus scale="   90.402">  5  6 -1 -1</clus>
<clus scale="   91.269">  7  8 -1 -1</clus>
<clus scale="   96.720">  1  5  2 -1</clus>
<clus scale="   52.574">  1  5  2 -1</clus>
</clustering>
</event>
<event>
 9    1  0.1881049E-005  0.1030323E+03  0.7546771E-02  0.1274062E+00
         21   -1    0    0  501  502  0.00000000000E+00  0.00000000000E+00  0.21747755024E+03  0.21747755024E+03  0.00000000000E+00 0.  1.
          3   -1    0    0  502    0 -0.00000000000E+00 -0.00000000000E+00 -0.98010081826E+02  0.98010081826E+02  0.00000000000E+00 0. -1.
         23    2    1    2    0    0  0.11030904145E+00  0.46943076548E+02 -0.24239030039E+01  0.10340155293E+03  0.92099626705E+02 0.  0.
         23    2    1    2    0    0  0.36935904150E+02 -0.38755226748E+02  0.26966577729E+02  0.10985996088E+03  0.92064032469E+02 0.  0.
        -13    1    3    3    0    0  0.28748890654E+02  0.58886987885E+02 -0.18991022443E+02  0.68226351137E+02  0.00000000000E+00 0.  1.
         13    1    3    3    0    0 -0.28638581613E+02 -0.11943911337E+02  0.16567119439E+02  0.35175201795E+02  0.00000000000E+00 0. -1.
        -13    1    4    4    0    0 -0.27688999375E+02 -0.28151815624E+02  0.19214976047E+02  0.43913787286E+02  0.00000000000E+00 0. -1.
         13    1    4    4    0    0  0.64624903525E+02 -0.10603411124E+02  0.77516016820E+01  0.65946173594E+02  0.00000000000E+00 0.  1.
          3    1    1    2  501    0 -0.37046213192E+02 -0.81878498001E+01  0.94924793689E+02  0.10222611825E+03  0.00000000000E+00 0. -1.
<scales pt_clust_5="13000.00000" pt_clust_6="13000.00000" pt_clust_7="13000.00000" pt_clust_8="13000.00000" pt_clust_9="37.94025"></scales>
<clustering>
<clus scale="   37.940">  1  9  2 -1</clus>
<clus scale="   92.064">  7  8 -1 -1</clus>
<clus scale="   92.100">  5  6 -1 -1</clus>
<clus scale="  103.001">  1  7  2 -1</clus>
<clus scale="   37.940">  1  5  2 -1</clus>
</clustering>
</event>
<event>
 9    1  0.1881049E-005  0.9967378E+02  0.7546771E-02  0.1283147E+00
          1   -1    0    0  502    0 -0.00000000000E+00  0.00000000000E+00  0.27585000743E+03  0.27585000743E+03  0.00000000000E+00 0. -1.
         21   -1    0    0  501  502  0.00000000000E+00 -0.00000000000E+00 -0.15341987380E+03  0.15341987380E+03  0.00000000000E+00 0. -1.
         23    2    1    2    0    0 -0.14009405668E+02  0.26163710402E+02  0.21163854903E+03  0.23389793809E+03  0.95060858493E+02 0.  0.
         23    2    1    2    0    0 -0.24265806660E+02 -0.43090782087E+02 -0.76720556120E+01  0.10372208988E+03  0.90850242808E+02 0.  0.
        -13    1    3    3    0    0  0.37600975433E+02 -0.20464932218E+01  0.11238366683E+03  0.11852472341E+03  0.00000000000E+00 0.  1.
         13    1    3    3    0    0 -0.51610381101E+02  0.28210203624E+02  0.99254882195E+02  0.11537321468E+03  0.00000000000E+00 0. -1.
        -13    1    4    4    0    0 -0.55055163281E+02 -0.71362241934E+01  0.13577701502E+01  0.55532335080E+02  0.00000000000E+00 0. -1.
         13    1    4    4    0    0  0.30789356621E+02 -0.35954557894E+02 -0.90298257622E+01  0.48189754801E+02  0.00000000000E+00 0.  1.
          1    1    1    2  501    0  0.38275212329E+02  0.16927071685E+02 -0.81536359789E+02  0.91649853258E+02  0.00000000000E+00 0. -1.
<scales pt_clust_5="13000.00000" pt_clust_6="13000.00000" pt_clust_7="13000.00000" pt_clust_8="13000.00000" pt_clust_9="41.85114"></scales>
<clustering>
<clus scale="   41.851">  2  9  1 -1</clus>
<clus scale="   90.850">  7  8 -1 -1</clus>
<clus scale="   95.061">  5  6 -1 -1</clus>
<clus scale="   95.666">  2  7  1 -1</clus>
<clus scale="   41.851">  2  5  1 -1</clus>
</clustering>
</event>
<event>
 9    1  0.1881049E-005  0.9403567E+02  0.7546771E-02  0.1295579E+00
          1   -1    0    0  502    0 -0.00000000000E+00  0.00000000000E+00  0.42045677554E+03  0.42045677554E+03  0.00000000000E+00 0. -1.
         21   -1    0    0  501  502  0.00000000000E+00 -0.00000000000E+00 -0.22734631036E+03  0.22734631036E+03  0.00000000000E+00 0. -1.
         23    2    1    2    0    0  0.90777938605E+01  0.27480064857E+02  0.38718706842E+03  0.39762023803E+03  0.85734867044E+02 0.  0.
         23    2    1    2    0    0  0.11906364531E+02 -0.20611963749E+02 -0.51996540014E+02  0.10639741717E+03  0.89722659570E+02 0.  0.
        -11    1    3    3    0    0 -0.36730416036E+02  0.24680686405E+02  0.17283349766E+03  0.17840873761E+03  0.00000000000E+00 0.  1.
         11    1    3    3    0    0  0.45808209896E+02  0.27993784517E+01  0.21435357076E+03  0.21921150041E+03  0.00000000000E+00 0. -1.
        -13    1    4    4    0    0  0.14003411379E+02  0.34009553807E+02 -0.12080384669E+02  0.38712801166E+02  0.00000000000E+00 0. -1.
         13    1    4    4    0    0 -0.20970468480E+01 -0.54621517556E+02 -0.39916155345E+02  0.67684616000E+02  0.00000000000E+00 0.  1.
          1    1    1    2  501    0 -0.20984158391E+02 -0.68681011071E+01 -0.14208006323E+03  0.14378543071E+03  0.00000000000E+00 0. -1.
<scales pt_clust_5="13000.00000" pt_clust_6="13000.00000" pt_clust_7="13000.00000" pt_clust_8="13000.00000" pt_clust_9="22.07953"></scales>
<clustering>
<clus scale="   22.080">  2  9  1 -1</clus>
<clus scale="   85.735">  5  6 -1 -1</clus>
<clus scale="   89.723">  7  8 -1 -1</clus>
<clus scale="   90.239">  1  5  2 -1</clus>
<clus scale="   22.080">  2  5  1 -1</clus>
</clustering>
</event>
<event>
 9    1  0.1881049E-005  0.1078555E+03  0.7546771E-02  0.1265919E+00
          1   -1    0    0  502    0 -0.00000000000E+00  0.00000000000E+00  0.30044720245E+03  0.30044720245E+03  0.00000000000E+00 0. -1.
         21   -1    0    0  501  502  0.00000000000E+00 -0.00000000000E+00 -0.11789916639E+03  0.11789916639E+03  0.00000000000E+00 0.  1.
         23    2    1    2    0    0 -0.99662357398E+01 -0.53926037635E+02  0.23442431090E+03  0.25640854871E+03  0.88222689388E+02 0.  0.
         23    2    1    2    0    0 -0.13403898358E+02  0.76855256651E+02 -0.35695877720E+02  0.12541772288E+03  0.91482318294E+02 0.  0.
        -13    1    3    3    0    0 -0.43584796598E+02 -0.13215984325E+02  0.68270044348E+02  0.82067628767E+02  0.00000000000E+00 0.  1.
         13    1    3    3    0    0  0.33618560858E+02 -0.40710053310E+02  0.16615426655E+03  0.17434091995E+03  0.00000000000E+00 0. -1.
        -13    1    4    4    0    0  0.39337146910E+02  0.37776137626E+02 -0.18014279348E+02  0.57436590788E+02  0.00000000000E+00 0. -1.
         13    1    4    4    0    0 -0.52741045268E+02  0.39079119025E+02 -0.17681598372E+02  0.67981132094E+02  0.00000000000E+00 0.  1.
          1    1    1    2  501    0  0.23370134098E+02 -0.22929219017E+02 -0.16180397117E+02  0.36520097253E+02  0.00000000000E+00 0. -1.
<scales pt_clust_5="13000.00000" pt_clust_6="13000.00000" pt_clust_7="13000.00000" pt_clust_8="13000.00000" pt_clust_9="32.74007"></scales>
<clustering>
<clus scale="   32.740">  2  9  1 -1</clus>
<clus scale="   88.223">  5  6 -1 -1</clus>
<clus scale="   91.482">  7  8 -1 -1</clus>
<clus scale="  105.105">  1  5  2 -1</clus>
<clus scale="   32.740">  2  5  1 -1</clus>
</clustering>
</event>
<event>
 9    1  0.1881049E-005  0.1004763E+03  0.7546771E-02  0.1280146E+00
         -1   -1    0    0    0  501 -0.00000000000E+00  0.00000000000E+00  0.38023687609E+03  0.38023687609E+03  0.00000000000E+00 0.  1.
         21   -1    0    0  501  502  0.00000000000E+00 -0.00000000000E+00 -0.11431010602E+03  0.11431010602E+03  0.00000000000E+00 0.  1.
         23    2    1    2    0    0  0.25065368678E+02 -0.34644780944E+02  0.30074502524E+03  0.31772612655E+03  0.93133172042E+02 0.  0.
         23    2    1    2    0    0 -0.32810486151E+01 -0.20018009592E+02 -0.61706969018E+02  0.11212479539E+03  0.91393291476E+02 0.  0.
        -11    1    3    3    0    0 -0.28588094282E+02 -0.39013607728E+02  0.15415932689E+03  0.16156868134E+03  0.00000000000E+00 0.  1.
         11    1    3    3    0    0  0.53653462959E+02  0.43688267844E+01  0.14658569834E+03  0.15615744521E+03  0.00000000000E+00 0. -1.
        -13    1    4    4    0    0  0.29678204157E+01 -0.48777230057E+02 -0.66273873277E+02  0.82342288097E+02  0.00000000000E+00 0.  1.
         13    1    4    4    0    0 -0.62488690307E+01  0.28759220464E+02  0.45669042589E+01  0.29782507288E+02  0.00000000000E+00 0. -1.
         -1    1    1    2    0  502 -0.21784320062E+02  0.54662790536E+02  0.26888713852E+02  0.64696060177E+02  0.00000000000E+00 0.  1.
<scales pt_clust_5="13000.00000" pt_clust_6="13000.00000" pt_clust_7="13000.00000" pt_clust_8="13000.00000" pt_clust_9="58.84367"></scales>
<clustering>
<clus scale="   58.844">  2  9  1 -1</clus>
<clus scale="   91.393">  7  8 -1 -1</clus>
<clus scale="   93.133">  5  6 -1 -1</clus>
<clus scale="   98.866">  2  7  1 -1</clus>
<clus scale="   58.844">  2  5  1 -1</clus>
</clustering>
</event>
<event>
 9    1  0.1881049E-005  0.1496435E+03  0.7546771E-02  0.1201419E+00
         21   -1    0    0  501  502  0.00000000000E+00  0.00000000000E+00  0.18292684281E+03  0.18292684281E+03  0.00000000000E+00 0.  1.
          3   -1    0    0  502    0 -0.00000000000E+00 -0.00000000000E+00 -0.68871808629E+03  0.68871808629E+03  0.00000000000E+00 0. -1.
         23    2    1    2    0    0  0.11043052965E+03 -0.46349538738E+02 -0.59696200212E+03  0.61546256518E+03  0.89929725566E+02 0.  0.
         23    2    1    2    0    0 -0.78882944166E+02  0.13657260876E+02  0.14235302540E+03  0.18774509620E+03  0.92600203311E+02 0.  0.
        -11    1    4    4    0    0 -0.32418055493E+02 -0.32947078757E+02  0.23414762407E+02  0.51814007943E+02  0.00000000000E+00 0. -1.
         11    1    4    4    0    0 -0.46464888673E+02  0.46604339633E+02  0.11893826299E+03  0.13593108826E+03  0.00000000000E+00 0.  1.
        -13    1    3    3    0    0  0.24590046770E+02 -0.57325526729E+02 -0.21825313997E+03  0.22699189308E+03  0.00000000000E+00 0.  1.
         13    1    3    3    0    0  0.85840482880E+02  0.10975987991E+02 -0.37870886215E+03  0.38847067210E+03  0.00000000000E+00 0. -1.
          3    1    1    2  501    0 -0.31547585484E+02  0.32692277862E+02 -0.51182266757E+02  0.68437267714E+02  0.00000000000E+00 0. -1.
<scales pt_clust_5="13000.00000" pt_clust_6="13000.00000" pt_clust_7="13000.00000" pt_clust_8="13000.00000" pt_clust_9="45.43168"></scales>
<clustering>
<clus scale="   45.432">  1  9  2 -1</clus>
<clus scale="   89.930">  7  8 -1 -1</clus>
<clus scale="   92.600">  5  6 -1 -1</clus>
<clus scale="  148.006">  2  7  1 -1</clus>
<clus scale="   45.432">  1  5  2 -1</clus>
</clustering>
</event>
<event>
 9    1  0.1881049E-005  0.1286535E+03  0.7546771E-02  0.1235824E+00
         21   -1    0    0  501  502  0.00000000000E+00  0.00000000000E+00  0.11115146983E+03  0.11115146983E+03  0.00000000000E+00 0.  1.
          2   -1    0    0  502    0 -0.00000000000E+00 -0.00000000000E+00 -0.45102806133E+03  0.45102806133E+03  0.00000000000E+00 0. -1.
         23    2    1    2    0    0 -0.43263844489E+02  0.28362477142E+02 -0.19221101263E+03  0.21962508267E+03  0.92811169662E+02 0.  0.
         23    2    1    2    0    0  0.75837444921E+02 -0.33897084096E+02 -0.22159209065E+03  0.26158037570E+03  0.11144912719E+03 0.  0.
        -11    1    4    4    0    0  0.56732038045E+02  0.35540780490E+02 -0.10372636076E+03  0.12345375302E+03  0.00000000000E+00 0.  1.
         11    1    4    4    0    0  0.19105406876E+02 -0.69437864586E+02 -0.11786572989E+03  0.13812662268E+03  0.00000000000E+00 0. -1.
        -13    1    3    3    0    0 -0.50510020911E+02 -0.20726392648E+02 -0.12189573488E+03  0.13356427571E+03  0.00000000000E+00 0. -1.
         13    1    3    3    0    0  0.72461764215E+01  0.49088869790E+02 -0.70315277748E+02  0.86060806961E+02  0.00000000000E+00 0.  1.
          2    1    1    2  501    0 -0.32573600431E+02  0.55346069535E+01  0.73926511776E+02  0.80974072780E+02  0.00000000000E+00 0. -1.
<scales pt_clust_5="13000.00000" pt_clust_6="13000.00000" pt_clust_7="13000.00000" pt_clust_8="13000.00000" pt_clust_9="33.04045"></scales>
<clustering>
<clus scale="   33.040">  1  9  2 -1</clus>
<clus scale="   92.811">  7  8 -1 -1</clus>
<clus scale="  111.449">  5  6 -1 -1</clus>
<clus scale="  112.893">  2  7  1 -1</clus>
<clus scale="   33.040">  1  5  2 -1</clus>
</clustering>
</event>
<event>
 9    1  0.1881049E-005  0.9761565E+02  0.7546771E-02  0.1287206E+00
          2   -1    0    0  502    0 -0.00000000000E+00  0.00000000000E+00  0.57878933195E+02  0.57878933195E+02  0.00000000000E+00 0. -1.
         21   -1    0    0  501  502  0.00000000000E+00 -0.00000000000E+00 -0.29005252094E+03  0.29005252094E+03  0.00000000000E+00 0.  1.
         23    2    1    2    0    0  0.10033745108E+02  0.90567697429E+01 -0.74463689591E+02  0.11479639685E+03  0.86317266766E+02 0.  0.
         23    2    1    2    0    0 -0.55308836282E+02 -0.43933932771E+02 -0.99497158178E+02  0.15155703649E+03  0.89892118707E+02 0.  0.
        -11    1    3    3    0    0  0.36174263745E+02  0.17190797532E+02 -0.52860162659E+01  0.40398550039E+02  0.00000000000E+00 0. -1.
         11    1    3    3    0    0 -0.26140518637E+02 -0.81340277896E+01 -0.69177673325E+02  0.74397846806E+02  0.00000000000E+00 0.  1.
        -11    1    4    4    0    0  0.25466701598E+01  0.24534577101E+02 -0.22579749719E+02  0.33440635457E+02  0.00000000000E+00 0. -1.
         11    1    4    4    0    0 -0.57855506442E+02 -0.68468509872E+02 -0.76917408459E+02  0.11811640104E+03  0.00000000000E+00 0.  1.
          2    1    1    2  501    0  0.45275091174E+02  0.34877163029E+02 -0.58212739980E+02  0.81578020800E+02  0.00000000000E+00 0. -1.
<scales pt_clust_5="13000.00000" pt_clust_6="13000.00000" pt_clust_7="13000.00000" pt_clust_8="13000.00000" pt_clust_9="57.15112"></scales>
<clustering>
<clus scale="   57.151">  2  9  1 -1</clus>
<clus scale="   86.317">  5  6 -1 -1</clus>
<clus scale="   89.892">  7  8 -1 -1</clus>
<clus scale="   94.334">  1  5  2 -1</clus>
<clus scale="   57.151">  2  5  1 -1</clus>
</clustering>
</event>
<event>
 9    1  0.1881049E-005  0.2774177E+03  0.7546771E-02  0.1097891E+00
         21   -1    0    0  501  502  0.00000000000E+00  0.00000000000E+00  0.51365507684E+03  0.51365507684E+03  0.00000000000E+00 0.  1.
         -1   -1    0    0    0  501 -0.00000000000E+00 -0.00000000000E+00 -0.22390693601E+03  0.22390693601E+03  0.00000000000E+00 0.  1.
         23    2    1    2    0    0  0.28445515749E+03 -0.73959358912E+02  0.13171374849E+02  0.31106358399E+03  0.10100665709E+03 0.  0.
         23    2    1    2    0    0 -0.20459899312E+03  0.59818505380E+02  0.14291477029E+03  0.27015745593E+03  0.84388493616E+02 0.  0.
        -11    1    3    3    0    0  0.14407640812E+03 -0.10873706836E+01 -0.29873210566E+02  0.14714483498E+03  0.00000000000E+00 0.  1.
         11    1    3    3    0    0  0.14037874936E+03 -0.72871988229E+02  0.43044585415E+02  0.16391874900E+03  0.00000000000E+00 0. -1.
        -13    1    4    4    0    0 -0.10041787665E+03 -0.13029385040E+02  0.51698764796E+02  0.11369378658E+03  0.00000000000E+00 0. -1.
         13    1    4    4    0    0 -0.10418111647E+03  0.72847890420E+02  0.91216005494E+02  0.15646366935E+03  0.00000000000E+00 0.  1.
         -1    1    1    2    0  502 -0.79856164367E+02  0.14140853532E+02  0.13366199569E+03  0.15634097293E+03  0.00000000000E+00 0.  1.
<scales pt_clust_5="13000.00000" pt_clust_6="13000.00000" pt_clust_7="13000.00000" pt_clust_8="13000.00000" pt_clust_9="81.09852"></scales>
<clustering>
<clus scale="   81.099">  1  9  2 -1</clus>
<clus scale="   84.388">  7  8 -1 -1</clus>
<clus scale="  101.007">  5  6 -1 -1</clus>
<clus scale="  271.808">  1  7  2 -1</clus>
<clus scale="   81.099">  1  5  2 -1</clus>
</clustering>
</event>
<event>
 9    1  0.1881049E-005  0.1210494E+03  0.7546771E-02  0.1241503E+00
         21   -1    0    0  501  502  0.00000000000E+00  0.00000000000E+00  0.40625435078E+03  0.40625435078E+03  0.00000000000E+00 0.  1.
         -3   -1    0    0    0  501 -0.00000000000E+00 -0.00000000000E+00 -0.90124299382E+02  0.90124299382E+02  0.00000000000E+00 0.  1.
         23    2    1    2    0    0 -0.49952515430E+02  0.55036710947E+02 -0.10500838218E+02  0.11807348192E+03  0.91141572187E+02 0.  0.
         23    2    1    2    0    0  0.93514322780E+02 -0.49896521815E+02  0.19660267692E+03  0.24107766116E+03  0.90726152133E+02 0.  0.
        -11    1    3    3    0    0  0.22076069867E+02  0.12317057406E+02 -0.22039565500E+02  0.33538115799E+02  0.00000000000E+00 0. -1.
         11    1    3    3    0    0 -0.72028585297E+02  0.42719653541E+02  0.11538727282E+02  0.84535366125E+02  0.00000000000E+00 0.  1.
        -13    1    4    4    0    0  0.55879635423E+02 -0.41854733517E+02  0.41386053477E+02  0.81161307254E+02  0.00000000000E+00 0.  1.
         13    1    4    4    0    0  0.37634687358E+02 -0.80417882985E+01  0.15521662345E+03  0.15991635390E+03  0.00000000000E+00 0. -1.
         -3    1    1    2    0  502 -0.43561807351E+02 -0.51401891320E+01  0.13002821269E+03  0.13722750708E+03  0.00000000000E+00 0.  1.
<scales pt_clust_5="13000.00000" pt_clust_6="13000.00000" pt_clust_7="13000.00000" pt_clust_8="13000.00000" pt_clust_9="43.86402"></scales>
<clustering>
<clus scale="   43.864">  1  9  2 -1</clus>
<clus scale="   90.726">  7  8 -1 -1</clus>
<clus scale="   91.142">  5  6 -1 -1</clus>
<clus scale="  120.737">  1  7  2 -1</clus>
<clus scale="   43.864">  1  5  2 -1</clus>
</clustering>
</event>
<event>
 9    1  0.1881049E-005  0.9612229E+02  0.7546771E-02  0.1290592E+00
         21   -1    0    0  501  502  0.00000000000E+00  0.00000000000E+00  0.47047704868E+02  0.47047704868E+02  0.00000000000E+00 0. -1.
          1   -1    0    0  502    0 -0.00000000000E+00 -0.00000000000E+00 -0.36737711594E+03  0.36737711594E+03  0.00000000000E+00 0. -1.
         23    2    1    2    0    0 -0.26229187041E+02  0.91502543106E+01 -0.98439408717E+02  0.13995139473E+03  0.95521611645E+02 0.  0.
         23    2    1    2    0    0 -0.10638207447E+02  0.23597334460E+02 -0.81494362173E+02  0.12566971266E+03  0.92095276543E+02 0.  0.
        -11    1    4    4    0    0  0.39551601364E+02  0.38400297892E+01 -0.47424850277E+02  0.61872380131E+02  0.00000000000E+00 0.  1.
         11    1    4    4    0    0 -0.50189808812E+02  0.19757304671E+02 -0.34069511896E+02  0.63797332524E+02  0.00000000000E+00 0. -1.
        -11    1    3    3    0    0 -0.61176677836E+01  0.51645279703E+02 -0.44973830186E+02  0.68755408342E+02  0.00000000000E+00 0. -1.
         11    1    3    3    0    0 -0.20111519257E+02 -0.42495025392E+02 -0.53465578531E+02  0.71195986387E+02  0.00000000000E+00 0.  1.
          1    1    1    2  501    0  0.36867394488E+02 -0.32747588771E+02 -0.14039564018E+03  0.14880371342E+03  0.00000000000E+00 0. -1.
<scales pt_clust_5="13000.00000" pt_clust_6="13000.00000" pt_clust_7="13000.00000" pt_clust_8="13000.00000" pt_clust_9="49.31138"></scales>
<clustering>
<clus scale="   49.311">  1  9  2 -1</clus>
<clus scale="   92.095">  5  6 -1 -1</clus>
<clus scale="   92.718">  1  5  2 -1</clus>
<clus scale="   95.522">  7  8 -1 -1</clus>
<clus scale="   49.311">  1  5  2 -1</clus>
</clustering>
</event>
<event>
 9    1  0.1881049E-005  0.9878859E+02  0.7546771E-02  0.1284335E+00
         21   -1    0    0  501  502  0.00000000000E+00  0.00000000000E+00  0.30211755331E+02  0.30211755331E+02  0.00000000000E+00 0. -1.
          2   -1    0    0  502    0 -0.00000000000E+00 -0.00000000000E+00 -0.80964135863E+03  0.80964135863E+03  0.00000000000E+00 0. -1.
         23    2    1    2    0    0  0.23201304739E+01 -0.39088442476E+02 -0.43505409856E+03  0.44655035534E+03  0.92746222773E+02 0.  0.
         23    2    1    2    0    0 -0.46153672487E+02 -0.22415827695E+02 -0.24937224744E+03  0.27193648014E+03  0.95552606571E+02 0.  0.
        -11    1    3    3    0    0  0.33481393493E+02 -0.53839741612E+02 -0.22823986207E+03  0.23688215662E+03  0.00000000000E+00 0. -1.
         11    1    3    3    0    0 -0.31161263019E+02  0.14751299136E+02 -0.20681423649E+03  0.20966819872E+03  0.00000000000E+00 0.  1.
        -11    1    4    4    0    0  0.23773197203E+02 -0.14094933724E+02 -0.13360410474E+03  0.13643272652E+03  0.00000000000E+00 0.  1.
         11    1    4    4    0    0 -0.69926869690E+02 -0.83208939709E+01 -0.11576814269E+03  0.13550375362E+03  0.00000000000E+00 0. -1.
          2    1    1    2  501    0  0.43833542013E+02  0.61504270171E+02 -0.95003257292E+02  0.12136627847E+03  0.00000000000E+00 0. -1.
<scales pt_clust_5="13000.00000" pt_clust_6="13000.00000" pt_clust_7="13000.00000" pt_clust_8="13000.00000" pt_clust_9="75.52585"></scales>
<clustering>
<clus scale="   75.526">  1  9  2 -1</clus>
<clus scale="   92.746">  5  6 -1 -1</clus>
<clus scale="   95.553">  7  8 -1 -1</clus>
<clus scale="   96.077">  2  5  1 -1</clus>
<clus scale="   75.526">  1  5  2 -1</clus>
</clustering>
</event>
<event>
 9    1  0.1881049E-005  0.1087057E+03  0.7546771E-02  0.1263456E+00
          1   -1    0    0  502    0 -0.00000000000E+00  0.00000000000E+00  0.14711885006E+03  0.14711885006E+03  0.00000000000E+00 0. -1.
         21   -1    0    0  501  502  0.00000000000E+00 -0.00000000000E+00 -0.23465133076E+03  0.23465133076E+03  0.00000000000E+00 0.  1.
         23    2    1    2    0    0 -0.58667297171E+02  0.22419898319E+02  0.10243696856E+03  0.15063313063E+03  0.90843293191E+02 0.  0.
         23    2    1    2    0    0  0.44728813951E+02  0.30731832605E+01 -0.12702683200E+03  0.16181207930E+03  0.89650553293E+02 0.  0.
        -11    1    3    3    0    0 -0.34564995627E+02  0.30844039490E+02  0.11366375486E+03  0.12274177310E+03  0.00000000000E+00 0. -1.
         11    1    3    3    0    0 -0.24102301545E+02 -0.84241411712E+01 -0.11226786301E+02  0.27891357530E+02  0.00000000000E+00 0.  1.
        -11    1    4    4    0    0  0.20200835355E+02  0.46055030713E+02 -0.56295802423E+02  0.75487462360E+02  0.00000000000E+00 0. -1.
         11    1    4    4    0    0  0.24527978596E+02 -0.42981847453E+02 -0.70731029577E+02  0.86324616938E+02  0.00000000000E+00 0.  1.
          1    1    1    2  501    0  0.13938483220E+02 -0.25493081579E+02 -0.62942617252E+02  0.69324970894E+02  0.00000000000E+00 0. -1.
<scales pt_clust_5="13000.00000" pt_clust_6="13000.00000" pt_clust_7="13000.00000" pt_clust_8="13000.00000" pt_clust_9="29.05475"></scales>
<clustering>
<clus scale="   29.055">  2  9  1 -1</clus>
<clus scale="   89.651">  7  8 -1 -1</clus>
<clus scale="   90.843">  5  6 -1 -1</clus>
<clus scale="  107.711">  2  7  1 -1</clus>
<clus scale="   29.055">  2  5  1 -1</clus>
</clustering>
</event>
<event>
 9    1  0.1881049E-005  0.9854268E+02  0.7546771E-02  0.1284830E+00
         21   -1    0    0  501  502  0.00000000000E+00  0.00000000000E+00  0.72052643537E+02  0.72052643537E+02  0.00000000000E+00 0. -1.
          1   -1    0    0  502    0 -0.00000000000E+00 -0.00000000000E+00 -0.27914561644E+03  0.27914561644E+03  0.00000000000E+00 0. -1.
         23    2    1    2    0    0  0.27493866783E+02  0.37419520061E+00 -0.17796769003E+03  0.20238353562E+03  0.92360944460E+02 0.  0.
         23    2    1    2    0    0 -0.52555549552E+02  0.23257900946E+01 -0.50769119305E+02  0.11559073424E+03  0.89533341718E+02 0.  0.
        -11    1    3    3    0    0  0.58989709995E+02  0.95503760273E+01 -0.13991557769E+03  0.15214257934E+03  0.00000000000E+00 0. -1.
         11    1    3    3    0    0 -0.31495843212E+02 -0.91761808266E+01 -0.38052112340E+02  0.50240956278E+02  0.00000000000E+00 0.  1.
        -13    1    4    4    0    0  0.10732973967E+02 -0.29706327327E+02 -0.73694638559E+01  0.32434111842E+02  0.00000000000E+00 0. -1.
         13    1    4    4    0    0 -0.63288523520E+02  0.32032117422E+02 -0.43399655449E+02  0.83156622400E+02  0.00000000000E+00 0.  1.
          1    1    1    2  501    0  0.25061682770E+02 -0.26999852952E+01  0.21643836432E+02  0.33223990118E+02  0.00000000000E+00 0. -1.
<scales pt_clust_5="13000.00000" pt_clust_6="13000.00000" pt_clust_7="13000.00000" pt_clust_8="13000.00000" pt_clust_9="25.20670"></scales>
<clustering>
<clus scale="   25.207">  1  9  2 -1</clus>
<clus scale="   89.533">  7  8 -1 -1</clus>
<clus scale="   92.361">  5  6 -1 -1</clus>
<clus scale="   95.898">  1  7  2 -1</clus>
<clus scale="   25.207">  1  5  2 -1</clus>
</clustering>
</event>
<event>
 9    1  0.1881049E-005  0.9028469E+02  0.7546771E-02  0.1302586E+00
         -1   -1    0    0    0  501 -0.00000000000E+00  0.00000000000E+00  0.35044349739E+03  0.35044349739E+03  0.00000000000E+00 0.  1.
         21   -1    0    0  501  502  0.00000000000E+00 -0.00000000000E+00 -0.94750172806E+02  0.94750172806E+02  0.00000000000E+00 0.  1.
         23    2    1    2    0    0 -0.10887493958E+02 -0.22150146425E+02  0.25220409265E+03  0.26846981303E+03  0.88656469847E+02 0.  0.
         23    2    1    2    0    0 -0.19794624397E+02 -0.23133536008E+02  0.48272267587E+02  0.10603068520E+03  0.89360543543E+02 0.  0.
        -13    1    4    4    0    0 -0.43896747316E+02 -0.42831861437E+02  0.21552433923E+02  0.65007693292E+02  0.00000000000E+00 0.  1.
         13    1    4    4    0    0  0.24102122919E+02  0.19698325429E+02  0.26719833663E+02  0.41022991906E+02  0.00000000000E+00 0. -1.
        -13    1    3    3    0    0  0.55696774239E+01 -0.46518744846E+02  0.21969392989E+03  0.22463400847E+03  0.00000000000E+00 0.  1.
         13    1    3    3    0    0 -0.16457171382E+02  0.24368598421E+02  0.32510162763E+02  0.43835804564E+02  0.00000000000E+00 0. -1.
         -1    1    1    2    0  502  0.30682118356E+02  0.45283682433E+02 -0.44783035651E+02  0.70693171973E+02  0.00000000000E+00 0.  1.
<scales pt_clust_5="13000.00000" pt_clust_6="13000.00000" pt_clust_7="13000.00000" pt_clust_8="13000.00000" pt_clust_9="54.69922"></scales>
<clustering>
<clus scale="   54.699">  2  9  1 -1</clus>
<clus scale="   88.656">  7  8 -1 -1</clus>
<clus scale="   89.361">  5  6 -1 -1</clus>
<clus scale="   89.588">  1  7  2 -1</clus>
<clus scale="   54.699">  2  5  1 -1</clus>
</clustering>
</event>
<event>
 9    1  0.1881049E-005  0.1797948E+03  0.7546771E-02  0.1168866E+00
          2   -1    0    0  502    0 -0.00000000000E+00  0.00000000000E+00  0.42108008829E+03  0.42108008829E+03  0.00000000000E+00 0. -1.
         21   -1    0    0  501  502  0.00000000000E+00 -0.00000000000E+00 -0.97324644026E+02  0.97324644026E+02  0.00000000000E+00 0.  1.
         23    2    1    2    0    0  0.64635221474E+02  0.13155609935E+03  0.17174662614E+03  0.24510254957E+03  0.95360563578E+02 0.  0.
         23    2    1    2    0    0 -0.92082242455E+02 -0.13082148160E+03  0.16179918301E+03  0.24415205635E+03  0.88531641669E+02 0.  0.
        -11    1    4    4    0    0 -0.74604753182E+01 -0.70477015884E+02  0.31707638859E+02  0.77640471546E+02  0.00000000000E+00 0.  1.
         11    1    4    4    0    0 -0.84621767137E+02 -0.60344465711E+02  0.13009154415E+03  0.16651158481E+03  0.00000000000E+00 0. -1.
        -11    1    3    3    0    0 -0.19016157814E+02  0.54771661638E+02  0.81702823835E+02  0.10018433310E+03  0.00000000000E+00 0. -1.
         11    1    3    3    0    0  0.83651379288E+02  0.76784437708E+02  0.90043802301E+02  0.14491821647E+03  0.00000000000E+00 0.  1.
          2    1    1    2  501    0  0.27447020981E+02 -0.73461775010E+00 -0.97903648854E+01  0.29150126390E+02  0.00000000000E+00 0. -1.
<scales pt_clust_5="13000.00000" pt_clust_6="13000.00000" pt_clust_7="13000.00000" pt_clust_8="13000.00000" pt_clust_9="27.45685"></scales>
<clustering>
<clus scale="   27.457">  2  9  1 -1</clus>
<clus scale="   88.532">  5  6 -1 -1</clus>
<clus scale="   95.361">  7  8 -1 -1</clus>
<clus scale="  176.268">  2  5  1 -1</clus>
<clus scale="   27.457">  2  5  1 -1</clus>
</clustering>
</event>
<event>
 9    1  0.1881049E-005  0.1495886E+03  0.7546771E-02  0.1203616E+00
         -1   -1    0    0    0  501 -0.00000000000E+00  0.00000000000E+00  0.27029680163E+03  0.27029680163E+03  0.00000000000E+00 0.  1.
         21   -1    0    0  501  502  0.00000000000E+00 -0.00000000000E+00 -0.26567205018E+03  0.26567205018E+03  0.00000000000E+00 0.  1.
         23    2    1    2    0    0  0.51891001644E+02 -0.79031499468E+02  0.14306592419E+03  0.20089618618E+03  0.10465545852E+03 0.  0.
         23    2    1    2    0    0 -0.12531420409E+03  0.13692722323E+03 -0.12064219816E+03  0.23989028814E+03  0.92412640666E+02 0.  0.
        -11    1    4    4    0    0 -0.12924388075E+03  0.10227546189E+03 -0.12189448098E+03  0.20499393969E+03  0.00000000000E+00 0.  1.
         11    1    4    4    0    0  0.39296766564E+01  0.34651761344E+02  0.12522828142E+01  0.34896348449E+02  0.00000000000E+00 0. -1.
        -11    1    3    3    0    0  0.64448405696E+01 -0.77070657511E+02  0.13369407595E+03  0.15445234916E+03  0.00000000000E+00 0. -1.
         11    1    3    3    0    0  0.45446161074E+02 -0.19608419571E+01  0.93718482445E+01  0.46443837019E+02  0.00000000000E+00 0.  1.
         -1    1    1    2    0  502  0.73423202449E+02 -0.57895723763E+02 -0.17798974580E+02  0.95182377487E+02  0.00000000000E+00 0.  1.
<scales pt_clust_5="13000.00000" pt_clust_6="13000.00000" pt_clust_7="13000.00000" pt_clust_8="13000.00000" pt_clust_9="93.50338"></scales>
<clustering>
<clus scale="   92.413">  5  6 -1 -1</clus>
<clus scale="   93.503">  2  9  1 -1</clus>
<clus scale="  104.655">  7  8 -1 -1</clus>
<clus scale="  141.294">  2  5  1 -1</clus>
<clus scale="   93.503">  2  5  1 -1</clus>
</clustering>
</event>
<event>
 9    1  0.1881049E-005  0.9357313E+02  0.7546771E-02  0.1294567E+00
         -1   -1    0    0    0  501 -0.00000000000E+00  0.00000000000E+00  0.47754170448E+03  0.47754170448E+03  0.00000000000E+00 0.  1.
         21   -1    0    0  501  502  0.00000000000E+00 -0.00000000000E+00 -0.27434643770E+02  0.27434643770E+02  0.00000000000E+00 0. -1.
         23    2    1    2    0    0  0.14833844211E+02  0.19941455029E+02  0.19197655862E+03  0.21387334530E+03  0.90934615020E+02 0.  0.
         23    2    1    2    0    0  0.22615539652E+02 -0.21306800489E+02  0.19906438415E+03  0.22115211440E+03  0.91193126307E+02 0.  0.
        -11    1    3    3    0    0  0.37649524322E+01 -0.31622800970E+02  0.12293786180E+03  0.12699564667E+03  0.00000000000E+00 0.  1.
         11    1    3    3    0    0  0.11068891779E+02  0.51564255999E+02  0.69038696819E+02  0.86877698637E+02  0.00000000000E+00 0. -1.
        -11    1    4    4    0    0  0.22034482858E+02  0.33046456589E+02  0.10833012970E+03  0.11538199048E+03  0.00000000000E+00 0. -1.
         11    1    4    4    0    0  0.58105679457E+00 -0.54353257078E+02  0.90734254455E+02  0.10577012392E+03  0.00000000000E+00 0.  1.
         -1    1    1    2    0  502 -0.37449383863E+02  0.13653454598E+01  0.59066117936E+02  0.69950888543E+02  0.00000000000E+00 0.  1.
<scales pt_clust_5="13000.00000" pt_clust_6="13000.00000" pt_clust_7="13000.00000" pt_clust_8="13000.00000" pt_clust_9="37.47426"></scales>
<clustering>
<clus scale="   37.474">  2  9  1 -1</clus>
<clus scale="   90.935">  5  6 -1 -1</clus>
<clus scale="   91.193">  7  8 -1 -1</clus>
<clus scale="   93.321">  1  5  2 -1</clus>
<clus scale="   37.474">  2  5  1 -1</clus>
</clustering>
</event>
<event>
 9    1  0.1881049E-005  0.1211082E+03  0.7546771E-02  0.1243567E+00
         -3   -1    0    0    0  501 -0.00000000000E+00  0.00000000000E+00  0.64993156267E+03  0.64993156267E+03  0.00000000000E+00 0.  1.
         21   -1    0    0  501  502  0.00000000000E+00 -0.00000000000E+00 -0.29524669621E+02  0.29524669621E+02  0.00000000000E+00 0. -1.
         23    2    1    2    0    0  0.61546436040E+02  0.39853584649E+02  0.34492801459E+03  0.36530186290E+03  0.95361647377E+02 0.  0.
         23    2    1    2    0    0 -0.79124489967E+02 -0.14411924661E+02  0.20635753794E+03  0.23843101924E+03  0.88303618196E+02 0.  0.
        -13    1    4    4    0    0 -0.53771239185E+02  0.94040755160E+01  0.37985295360E+02  0.66503123712E+02  0.00000000000E+00 0. -1.
         13    1    4    4    0    0 -0.25353250781E+02 -0.23816000177E+02  0.16837224258E+03  0.17192789553E+03  0.00000000000E+00 0.  1.
        -13    1    3    3    0    0  0.67016857811E+02 -0.11989115768E+02  0.18869672503E+03  0.20060272222E+03  0.00000000000E+00 0.  1.
         13    1    3    3    0    0 -0.54704217704E+01  0.51842700417E+02  0.15623128956E+03  0.16469914067E+03  0.00000000000E+00 0. -1.
         -3    1    1    2    0  502  0.17578053926E+02 -0.25441659988E+02  0.69121340521E+02  0.75723350152E+02  0.00000000000E+00 0.  1.
<scales pt_clust_5="13000.00000" pt_clust_6="13000.00000" pt_clust_7="13000.00000" pt_clust_8="13000.00000" pt_clust_9="30.92355"></scales>
<clustering>
<clus scale="   30.924">  2  9  1 -1</clus>
<clus scale="   88.304">  5  6 -1 -1</clus>
<clus scale="   95.362">  7  8 -1 -1</clus>
<clus scale="  115.633">  2  5  1 -1</clus>
<clus scale="   30.924">  2  5  1 -1</clus>
</clustering>
</event>
<event>
 9    1  0.1881049E-005  0.1792671E+03  0.7546771E-02  0.1172350E+00
          1   -1    0    0  502    0 -0.00000000000E+00  0.00000000000E+00  0.34128882521E+03  0.34128882521E+03  0.00000000000E+00 0. -1.
         21   -1    0    0  501  502  0.00000000000E+00 -0.00000000000E+00 -0.15862844256E+03  0.15862844256E+03  0.00000000000E+00 0.  1.
         23    2    1    2    0    0 -0.19078461042E+01 -0.12097516203E+03  0.10973885696E+03  0.19972380303E+03  0.11492759053E+03 0.  0.
         23    2    1    2    0    0  0.41154312826E+01  0.15346986843E+03  0.13955928753E+03  0.22602223933E+03  0.89662258768E+02 0.  0.
        -11    1    4    4    0    0 -0.24098582880E+02  0.14585239935E+03  0.12378938752E+03  0.19281461707E+03  0.00000000000E+00 0.  1.
         11    1    4    4    0    0  0.28214014162E+02  0.76174690850E+01  0.15769900009E+02  0.33207622268E+02  0.00000000000E+00 0. -1.
        -13    1    3    3    0    0 -0.33569011740E+02  0.12548479342E+01  0.18494772313E+01  0.33643331561E+02  0.00000000000E+00 0.  1.
         13    1    3    3    0    0  0.31661165635E+02 -0.12223000997E+03  0.10788937973E+03  0.16608047147E+03  0.00000000000E+00 0. -1.
          1    1    1    2  501    0 -0.22075851783E+01 -0.32494706398E+02 -0.66637761827E+02  0.74171225402E+02  0.00000000000E+00 0. -1.
<scales pt_clust_5="13000.00000" pt_clust_6="13000.00000" pt_clust_7="13000.00000" pt_clust_8="13000.00000" pt_clust_9="32.56961"></scales>
<clustering>
<clus scale="   32.570">  2  9  1 -1</clus>
<clus scale="   89.662">  5  6 -1 -1</clus>
<clus scale="  114.928">  7  8 -1 -1</clus>
<clus scale="  164.218">  2  5  1 -1</clus>
<clus scale="   32.570">  2  5  1 -1</clus>
</clustering>
</event>
<event>
 9    1  0.1881049E-005  0.2052337E+03  0.7546771E-02  0.1145429E+00
         21   -1    0    0  501  502  0.00000000000E+00  0.00000000000E+00  0.85890231569E+02  0.85890231569E+02  0.00000000000E+00 0.  1.
          1   -1    0    0  502    0 -0.00000000000E+00 -0.00000000000E+00 -0.69875017545E+03  0.69875017545E+03  0.00000000000E+00 0. -1.
         23    2    1    2    0    0 -0.26450912641E+02 -0.16197415290E+03 -0.26513890767E+03  0.32480598434E+03  0.90912101038E+02 0.  0.
         23    2    1    2    0    0  0.79393131023E+01  0.20724927274E+03 -0.34267786233E+03  0.41066177382E+03  0.90552092186E+02 0.  0.
        -13    1    3    3    0    0 -0.83047621939E+01 -0.12314588652E+03 -0.25094823735E+03  0.27965853513E+03  0.00000000000E+00 0. -1.
         13    1    3    3    0    0 -0.18146150447E+02 -0.38828266382E+02 -0.14190670323E+02  0.45147449213E+02  0.00000000000E+00 0.  1.
        -13    1    4    4    0    0  0.47173892581E+02  0.14697154528E+03 -0.23070238258E+03  0.27757809818E+03  0.00000000000E+00 0.  1.
         13    1    4    4    0    0 -0.39234579479E+02  0.60277727458E+02 -0.11197547975E+03  0.13308367563E+03  0.00000000000E+00 0. -1.
          1    1    1    2  501    0  0.18511599539E+02 -0.45275119835E+02 -0.50431738837E+01  0.49172648864E+02  0.00000000000E+00 0. -1.
<scales pt_clust_5="13000.00000" pt_clust_6="13000.00000" pt_clust_7="13000.00000" pt_clust_8="13000.00000" pt_clust_9="48.91335"></scales>
<clustering>
<clus scale="   48.913">  1  9  2 -1</clus>
<clus scale="   90.552">  7  8 -1 -1</clus>
<clus scale="   90.912">  5  6 -1 -1</clus>
<clus scale="  205.074">  1  7  2 -1</clus>
<clus scale="   48.913">  1  5  2 -1</clus>
</clustering>
</event>
<event>
 9    1  0.1881049E-005  0.5132163E+03  0.7546771E-02  0.1070393E+00
         21   -1    0    0  501  502  0.00000000000E+00  0.00000000000E+00  0.14832946505E+03  0.14832946505E+03  0.00000000000E+00 0. -1.
          2   -1    0    0  502    0 -0.00000000000E+00 -0.00000000000E+00 -0.20956796455E+04  0.20956796455E+04  0.00000000000E+00 0. -1.
         23    2    1    2    0    0 -0.22197548695E+01  0.30739284638E+01 -0.11009649997E+03  0.14191031648E+03  0.89459053602E+02 0.  0.
         23    2    1    2    0    0  0.47995137113E+03 -0.15978349976E+03 -0.10197722118E+04  0.11423793879E+04  0.95975082728E+02 0.  0.
        -13    1    4    4    0    0  0.12321945088E+03 -0.86809692521E+02 -0.30386829452E+03  0.33919742954E+03  0.00000000000E+00 0.  1.
         13    1    4    4    0    0  0.35673192025E+03 -0.72973807236E+02 -0.71590391730E+03  0.80318195838E+03  0.00000000000E+00 0. -1.
        -13    1    3    3    0    0  0.18134876271E+02 -0.29345996965E+02 -0.11860155802E+02  0.36479097726E+02  0.00000000000E+00 0.  1.
         13    1    3    3    0    0 -0.20354631140E+02  0.32419925429E+02 -0.98236344168E+02  0.10543121876E+03  0.00000000000E+00 0. -1.
          2    1    1    2  501    0 -0.47773161626E+03  0.15670957129E+03 -0.81748146863E+03  0.95971940611E+03  0.00000000000E+00 0. -1.
<scales pt_clust_5="13000.00000" pt_clust_6="13000.00000" pt_clust_7="13000.00000" pt_clust_8="13000.00000" pt_clust_9="504.16245"></scales>
<clustering>
<clus scale="   89.459">  7  8 -1 -1</clus>
<clus scale="   89.539">  2  7  1 -1</clus>
<clus scale="   95.975">  5  6 -1 -1</clus>
<clus scale="  504.162">  1  9  2 -1</clus>
<clus scale="  504.162">  1  5  2 -1</clus>
</clustering>
</event>
<event>
 9    1  0.1881049E-005  0.9737006E+02  0.7546771E-02  0.1286511E+00
         -3   -1    0    0    0  501 -0.00000000000E+00  0.00000000000E+00  0.11044503810E+03  0.11044503810E+03  0.00000000000E+00 0.  1.
         21   -1    0    0  501  502  0.00000000000E+00 -0.00000000000E+00 -0.11864121131E+03  0.11864121131E+03  0.00000000000E+00 0. -1.
         23    2    1    2    0    0  0.10040192484E+02  0.47883355851E+02  0.25447661341E+01  0.10269434360E+03  0.90255366268E+02 0.  0.
         23    2    1    2    0    0  0.45791166374E+01 -0.18854374865E+02 -0.77873206779E+01  0.93755579429E+02  0.91394805925E+02 0.  0.
        -11    1    3    3    0    0  0.18308443481E+02 -0.89713849123E+01  0.32144298928E+02  0.38064955058E+02  0.00000000000E+00 0. -1.
         11    1    3    3    0    0 -0.82682509969E+01  0.56854740763E+02 -0.29599532794E+02  0.64629388543E+02  0.00000000000E+00 0.  1.
        -13    1    4    4    0    0  0.16049857434E+02  0.22106714780E+02  0.27295235337E+02  0.38617802036E+02  0.00000000000E+00 0.  1.
         13    1    4    4    0    0 -0.11470740797E+02 -0.40961089645E+02 -0.35082556015E+02  0.55137777393E+02  0.00000000000E+00 0. -1.
         -3    1    1    2    0  502 -0.14619309121E+02 -0.29028980985E+02 -0.29536186686E+01  0.32636326378E+02  0.00000000000E+00 0.  1.
<scales pt_clust_5="13000.00000" pt_clust_6="13000.00000" pt_clust_7="13000.00000" pt_clust_8="13000.00000" pt_clust_9="32.50240"></scales>
<clustering>
<clus scale="   32.502">  2  9  1 -1</clus>
<clus scale="   90.255">  5  6 -1 -1</clus>
<clus scale="   91.395">  7  8 -1 -1</clus>
<clus scale="   96.301">  1  5  2 -1</clus>
<clus scale="   32.502">  2  5  1 -1</clus>
</clustering>
</event>
<event>
 9    1  0.1881049E-005  0.1683031E+03  0.7546771E-02  0.1180051E+00
         21   -1    0    0  501  502  0.00000000000E+00  0.00000000000E+00  0.13247615941E+03  0.13247615941E+03  0.00000000000E+00 0.  1.
          1   -1    0    0  502    0 -0.00000000000E+00 -0.00000000000E+00 -0.50702203462E+03  0.50702203462E+03  0.00000000000E+00 0. -1.
         23    2    1    2    0    0  0.13130720201E+03 -0.54882986106E+02 -0.41817261889E+03  0.45099138754E+03  0.90945967368E+02 0.  0.
         23    2    1    2    0    0 -0.11444956306E+03  0.43232626258E+02  0.56615862483E+02  0.16424514778E+03  0.93826170279E+02 0.  0.
        -11    1    4    4    0    0 -0.36867473953E+01  0.37010001628E+02 -0.47024158396E+01  0.37489265685E+02  0.00000000000E+00 0. -1.
         11    1    4    4    0    0 -0.11076281566E+03  0.62226246296E+01  0.61318278323E+02  0.12675588210E+03  0.00000000000E+00 0.  1.
        -13    1    3    3    0    0  0.11117891854E+03 -0.52214699528E+02 -0.41177297939E+03  0.42970235434E+03  0.00000000000E+00 0. -1.
         13    1    3    3    0    0  0.20128283468E+02 -0.26682865781E+01 -0.63996395042E+01  0.21289033195E+02  0.00000000000E+00 0.  1.
          1    1    1    2  501    0 -0.16857638951E+02  0.11650359848E+02 -0.12989118803E+02  0.24261658700E+02  0.00000000000E+00 0. -1.
<scales pt_clust_5="13000.00000" pt_clust_6="13000.00000" pt_clust_7="13000.00000" pt_clust_8="13000.00000" pt_clust_9="20.49173"></scales>
<clustering>
<clus scale="   20.492">  1  9  2 -1</clus>
<clus scale="   90.946">  7  8 -1 -1</clus>
<clus scale="   93.826">  5  6 -1 -1</clus>
<clus scale="  166.715">  2  7  1 -1</clus>
<clus scale="   20.492">  1  5  2 -1</clus>
</clustering>
</event>
<event>
 9    1  0.1881049E-005  0.1036876E+03  0.7546771E-02  0.1273611E+00
         21   -1    0    0  501  502  0.00000000000E+00  0.00000000000E+00  0.15612188820E+03  0.15612188820E+03  0.00000000000E+00 0.  1.
          1   -1    0    0  502    0 -0.00000000000E+00 -0.00000000000E+00 -0.11484562954E+03  0.11484562954E+03  0.00000000000E+00 0. -1.
         23    2    1    2    0    0  0.26049644460E+02  0.41159267338E+02 -0.49180396672E+02  0.11692806386E+03  0.94237951149E+02 0.  0.
         23    2    1    2    0    0 -0.84680000409E+01 -0.24938807267E+02  0.87586406066E+02  0.12994680197E+03  0.92310030238E+02 0.  0.
        -11    1    4    4    0    0  0.31392034339E+02  0.34448116774E+00  0.74682042066E+02  0.81012257680E+02  0.00000000000E+00 0. -1.
         11    1    4    4    0    0 -0.39860034380E+02 -0.25283288435E+02  0.12904364000E+02  0.48934544292E+02  0.00000000000E+00 0.  1.
        -11    1    3    3    0    0 -0.51993321718E+01  0.26959879932E+02  0.23763470718E+02  0.36312129125E+02  0.00000000000E+00 0.  1.
         11    1    3    3    0    0  0.31248976632E+02  0.14199387406E+02 -0.72943867390E+02  0.80615934734E+02  0.00000000000E+00 0. -1.
          1    1    1    2  501    0 -0.17581644419E+02 -0.16220460071E+02  0.28702492638E+01  0.24092651914E+02  0.00000000000E+00 0. -1.
<scales pt_clust_5="13000.00000" pt_clust_6="13000.00000" pt_clust_7="13000.00000" pt_clust_8="13000.00000" pt_clust_9="23.92108"></scales>
<clustering>
<clus scale="   23.921">  1  9  2 -1</clus>
<clus scale="   92.310">  5  6 -1 -1</clus>
<clus scale="   94.238">  7  8 -1 -1</clus>
<clus scale="  101.939">  1  5  2 -1</clus>
<clus scale="   23.921">  1  5  2 -1</clus>
</clustering>
</event>
<event>
 9    1  0.1881049E-005  0.9668408E+02  0.7546771E-02  0.1288474E+00
         21   -1    0    0  501  502  0.00000000000E+00  0.00000000000E+00  0.29717196246E+03  0.29717196246E+03  0.00000000000E+00 0.  1.
         -4   -1    0    0    0  501 -0.00000000000E+00 -0.00000000000E+00 -0.30692499909E+03  0.30692499909E+03  0.00000000000E+00 0.  1.
         23    2    1    2    0    0 -0.71412733575E+01 -0.16246469196E+02 -0.12498549774E+03  0.15505937943E+03  0.90039385598E+02 0.  0.
         23    2    1    2    0    0 -0.28269487134E+02  0.41032448235E+02 -0.14856648924E+03  0.18172100404E+03  0.92020084065E+02 0.  0.
        -11    1    3    3    0    0 -0.29893925372E+02  0.26164833155E+02 -0.34704852635E+02  0.52751038516E+02  0.00000000000E+00 0.  1.
         11    1    3    3    0    0  0.22752652014E+02 -0.42411302351E+02 -0.90280645100E+02  0.10230834091E+03  0.00000000000E+00 0. -1.
        -13    1    4    4    0    0 -0.50218824036E+02 -0.30546767792E+00 -0.11055319318E+03  0.12142500616E+03  0.00000000000E+00 0.  1.
         13    1    4    4    0    0  0.21949336903E+02  0.41337915913E+02 -0.38013296056E+02  0.60295997873E+02  0.00000000000E+00 0. -1.
         -4    1    1    2    0  502  0.35410760491E+02 -0.24785979039E+02  0.26379895035E+03  0.26731657808E+03  0.00000000000E+00 0.  1.
<scales pt_clust_5="13000.00000" pt_clust_6="13000.00000" pt_clust_7="13000.00000" pt_clust_8="13000.00000" pt_clust_9="43.22345"></scales>
<clustering>
<clus scale="   43.223">  1  9  2 -1</clus>
<clus scale="   90.039">  5  6 -1 -1</clus>
<clus scale="   92.020">  7  8 -1 -1</clus>
<clus scale="   94.801">  2  5  1 -1</clus>
<clus scale="   43.223">  1  5  2 -1</clus>
</clustering>
</event>
<event>
 9    1  0.1881049E-005  0.3638746E+03  0.7546771E-02  0.1085703E+00
         21   -1    0    0  501  502  0.00000000000E+00  0.00000000000E+00  0.17854367895E+04  0.17854367895E+04  0.00000000000E+00 0. -1.
          1   -1    0    0  502    0 -0.00000000000E+00 -0.00000000000E+00 -0.17417837818E+03  0.17417837818E+03  0.00000000000E+00 0. -1.
         23    2    1    2    0    0  0.12887167095E+02  0.13903061848E+03 -0.20037789772E+02  0.16726892904E+03  0.89898774477E+02 0.  0.
         23    2    1    2    0    0  0.69666145758E+02  0.28656846668E+03  0.68541513962E+03  0.75184606410E+03  0.92215684794E+02 0.  0.
        -13    1    3    3    0    0  0.37902395552E+02  0.11963943216E+03  0.69246755309E+01  0.12569063787E+03  0.00000000000E+00 0. -1.
         13    1    3    3    0    0 -0.25015228458E+02  0.19391186322E+02 -0.26962465303E+02  0.41578291174E+02  0.00000000000E+00 0.  1.
        -13    1    4    4    0    0  0.58958266041E+02  0.74197440332E+02  0.17749179062E+03  0.20120803419E+03  0.00000000000E+00 0.  1.
         13    1    4    4    0    0  0.10707879716E+02  0.21237102635E+03  0.50792334899E+03  0.55063802990E+03  0.00000000000E+00 0. -1.
          1    1    1    2  501    0 -0.82553312852E+02 -0.42559908516E+03  0.94588106146E+03  0.10405001745E+04  0.00000000000E+00 0. -1.
<scales pt_clust_5="13000.00000" pt_clust_6="13000.00000" pt_clust_7="13000.00000" pt_clust_8="13000.00000" pt_clust_9="351.99588"></scales>
<clustering>
<clus scale="   89.899">  5  6 -1 -1</clus>
<clus scale="   92.216">  7  8 -1 -1</clus>
<clus scale="  166.064">  2  5  1 -1</clus>
<clus scale="  351.996">  1  9  2 -1</clus>
<clus scale="  351.996">  1  5  2 -1</clus>
</clustering>
</event>
<event>
 9    1  0.1881049E-005  0.1589776E+03  0.7546771E-02  0.1210136E+00
          2   -1    0    0  502    0 -0.00000000000E+00  0.00000000000E+00  0.21382588986E+03  0.21382588986E+03  0.00000000000E+00 0. -1.
         21   -1    0    0  501  502  0.00000000000E+00 -0.00000000000E+00 -0.61169314581E+03  0.61169314581E+03  0.00000000000E+00 0. -1.
         23    2    1    2    0    0 -0.49736172436E+01  0.37582054167E+02  0.14426744150E+03  0.17687821365E+03  0.95056089359E+02 0.  0.
         23    2    1    2    0    0  0.74843184409E+02  0.77836258534E+02 -0.71008375858E+02  0.15857638318E+03  0.91892842290E+02 0.  0.
        -13    1    4    4    0    0  0.11670029036E+02  0.68535958597E+02 -0.99554795196E+01  0.70231608062E+02  0.00000000000E+00 0.  1.
         13    1    4    4    0    0  0.63173155373E+02  0.93002999373E+01 -0.61052896338E+02  0.88344775114E+02  0.00000000000E+00 0. -1.
        -13    1    3    3    0    0 -0.43626760825E+02 -0.60509130944E+01  0.61738249107E+02  0.75838771167E+02  0.00000000000E+00 0.  1.
         13    1    3    3    0    0  0.38653143581E+02  0.43632967262E+02  0.82529192389E+02  0.10103944248E+03  0.00000000000E+00 0. -1.
          2    1    1    2  501    0 -0.69869567166E+02 -0.11541831270E+03 -0.47112632159E+03  0.49006443884E+03  0.00000000000E+00 0. -1.
<scales pt_clust_5="13000.00000" pt_clust_6="13000.00000" pt_clust_7="13000.00000" pt_clust_8="13000.00000" pt_clust_9="129.72889"></scales>
<clustering>
<clus scale="   91.893">  5  6 -1 -1</clus>
<clus scale="   95.056">  7  8 -1 -1</clus>
<clus scale="  102.337">  1  7  2 -1</clus>
<clus scale="  129.729">  2  9  1 -1</clus>
<clus scale="  129.729">  2  5  1 -1</clus>
</clustering>
</event>
<event>
 9    1  0.1881049E-005  0.1552703E+03  0.7546771E-02  0.1194314E+00
          1   -1    0    0  502    0 -0.00000000000E+00  0.00000000000E+00  0.10186486774E+04  0.10186486774E+04  0.00000000000E+00 0. -1.
         21   -1    0    0  501  502  0.00000000000E+00 -0.00000000000E+00 -0.54680236230E+02  0.54680236230E+02  0.00000000000E+00 0.  1.
         23    2    1    2    0    0 -0.31835588843E+02  0.11020234926E+03  0.66829474429E+03  0.68434926996E+03  0.92509434918E+02 0.  0.
         23    2    1    2    0    0  0.50357464529E+02 -0.16418898418E+03  0.21295823999E+03  0.28848355699E+03  0.91529524839E+02 0.  0.
        -13    1    4    4    0    0  0.65992744820E+02 -0.12470146344E+03  0.19867760680E+03  0.24367660699E+03  0.00000000000E+00 0.  1.
         13    1    4    4    0    0 -0.15635280291E+02 -0.39487520742E+02  0.14280633189E+02  0.44806950001E+02  0.00000000000E+00 0. -1.
        -13    1    3    3    0    0 -0.63684827942E+02  0.62816849253E+02  0.44221732950E+03  0.45117389150E+03  0.00000000000E+00 0. -1.
         13    1    3    3    0    0  0.31849239099E+02  0.47385500007E+02  0.22607741478E+03  0.23317537845E+03  0.00000000000E+00 0.  1.
          1    1    1    2  501    0 -0.18521875685E+02  0.53986634925E+02  0.82715456938E+02  0.10049608672E+03  0.00000000000E+00 0. -1.
<scales pt_clust_5="13000.00000" pt_clust_6="13000.00000" pt_clust_7="13000.00000" pt_clust_8="13000.00000" pt_clust_9="57.07553"></scales>
<clustering>
<clus scale="   57.076">  2  9  1 -1</clus>
<clus scale="   91.530">  5  6 -1 -1</clus>
<clus scale="   92.509">  7  8 -1 -1</clus>
<clus scale="  154.688">  2  5  1 -1</clus>
<clus scale="   57.076">  2  5  1 -1</clus>
</clustering>
</event>
<event>
 9    1  0.1881049E-005  0.1018393E+03  0.7546771E-02  0.1276765E+00
         21   -1    0    0  501  502  0.00000000000E+00  0.00000000000E+00  0.93052622948E+02  0.93052622948E+02  0.00000000000E+00 0. -1.
          1   -1    0    0  502    0 -0.00000000000E+00 -0.00000000000E+00 -0.43012796244E+03  0.43012796244E+03  0.00000000000E+00 0. -1.
         23    2    1    2    0    0 -0.57427384389E+01 -0.96818361076E+01 -0.15451465544E+03  0.17993392383E+03  0.91513502851E+02 0.  0.
         23    2    1    2    0    0 -0.21873616848E+02  0.93035361339E+02 -0.21242740340E+03  0.25049702990E+03  0.92137542289E+02 0.  0.
        -11    1    3    3    0    0  0.38527618061E+02  0.12897694801E+02 -0.51836836335E+02  0.65861866705E+02  0.00000000000E+00 0.  1.
         11    1    3    3    0    0 -0.44270356500E+02 -0.22579530908E+02 -0.10267781911E+03  0.11407205713E+03  0.00000000000E+00 0. -1.
        -13    1    4    4    0    0  0.32556350952E+02  0.28164465348E+02 -0.41756478997E+02  0.59972965859E+02  0.00000000000E+00 0. -1.
         13    1    4    4    0    0 -0.54429967801E+02  0.64870895991E+02 -0.17067092441E+03  0.19052406404E+03  0.00000000000E+00 0.  1.
          1    1    1    2  501    0  0.27616355287E+02 -0.83353525231E+02  0.29866719351E+02  0.92749631658E+02  0.00000000000E+00 0. -1.
<scales pt_clust_5="13000.00000" pt_clust_6="13000.00000" pt_clust_7="13000.00000" pt_clust_8="13000.00000" pt_clust_9="87.80930"></scales>
<clustering>
<clus scale="   87.809">  1  9  2 -1</clus>
<clus scale="   91.514">  5  6 -1 -1</clus>
<clus scale="   92.138">  7  8 -1 -1</clus>
<clus scale="  101.275">  2  5  1 -1</clus>
<clus scale="   87.809">  1  5  2 -1</clus>
</clustering>
</event>
<event>
 9    1  0.1881049E-005  0.1025940E+03  0.7546771E-02  0.1275023E+00
         21   -1    0    0  501  502  0.00000000000E+00  0.00000000000E+00  0.15391307055E+03  0.15391307055E+03  0.00000000000E+00 0. -1.
          2   -1    0    0  502    0 -0.00000000000E+00 -0.00000000000E+00 -0.32708470640E+03  0.32708470640E+03  0.00000000000E+00 0. -1.
         23    2    1    2    0    0 -0.10953027560E+02 -0.33079649009E+02 -0.16833820056E+03  0.19470010064E+03  0.91411965469E+02 0.  0.
         23    2    1    2    0    0  0.11697182736E+02  0.64450691660E+02 -0.12139320929E+03  0.16558778856E+03  0.91609435762E+02 0.  0.
        -13    1    3    3    0    0 -0.39531502888E+02 -0.37597269361E+02 -0.54012710462E+02  0.76770223886E+02  0.00000000000E+00 0.  1.
         13    1    3    3    0    0  0.28578475328E+02  0.45176203523E+01 -0.11432549009E+03  0.11792987675E+03  0.00000000000E+00 0. -1.
        -13    1    4    4    0    0  0.33114349311E+02 -0.10424301288E+02 -0.35840358148E+02  0.49897469473E+02  0.00000000000E+00 0.  1.
         13    1    4    4    0    0 -0.21417166575E+02  0.74874992948E+02 -0.85552851141E+02  0.11569031909E+03  0.00000000000E+00 0. -1.
          2    1    1    2  501    0 -0.74415517581E+00 -0.31371042651E+02  0.11655977400E+03  0.12070988774E+03  0.00000000000E+00 0. -1.
<scales pt_clust_5="13000.00000" pt_clust_6="13000.00000" pt_clust_7="13000.00000" pt_clust_8="13000.00000" pt_clust_9="31.37987"></scales>
<clustering>
<clus scale="   31.380">  1  9  2 -1</clus>
<clus scale="   91.412">  5  6 -1 -1</clus>
<clus scale="   91.609">  7  8 -1 -1</clus>
<clus scale="  102.418">  2  5  1 -1</clus>
<clus scale="   31.380">  1  5  2 -1</clus>
</clustering>
</event>
<event>
 9    1  0.1881049E-005  0.9106384E+02  0.7546771E-02  0.1302471E+00
         21   -1    0    0  501  502  0.00000000000E+00  0.00000000000E+00  0.46924878089E+03  0.46924878089E+03  0.00000000000E+00 0.  1.
         -2   -1    0    0    0  501 -0.00000000000E+00 -0.00000000000E+00 -0.11380808521E+03  0.11380808521E+03  0.00000000000E+00 0.  1.
         23    2    1    2    0    0 -0.63745179167E+01  0.20422885558E+02 -0.56804028596E+02  0.10928664726E+03  0.90879837540E+02 0.  0.
         23    2    1    2    0    0 -0.20093623246E+02  0.47934955492E+02  0.69074196009E+02  0.12285802413E+03  0.87300262800E+02 0.  0.
        -13    1    4    4    0    0  0.20094310151E+02 -0.90116324673E+01  0.43239867845E+02  0.48525014080E+02  0.00000000000E+00 0. -1.
         13    1    4    4    0    0 -0.40187933397E+02  0.56946587960E+02  0.25834328164E+02  0.74333010047E+02  0.00000000000E+00 0.  1.
        -13    1    3    3    0    0 -0.19701864794E+02  0.50286162893E+02 -0.54146216076E+02  0.76476626300E+02  0.00000000000E+00 0.  1.
         13    1    3    3    0    0  0.13327346877E+02 -0.29863277335E+02 -0.26578125202E+01  0.32810020960E+02  0.00000000000E+00 0. -1.
         -2    1    1    2    0  502  0.26468141163E+02 -0.68357841050E+02  0.34317052827E+03  0.35091219472E+03  0.00000000000E+00 0.  1.
<scales pt_clust_5="13000.00000" pt_clust_6="13000.00000" pt_clust_7="13000.00000" pt_clust_8="13000.00000" pt_clust_9="73.30318"></scales>
<clustering>
<clus scale="   73.303">  1  9  2 -1</clus>
<clus scale="   87.300">  5  6 -1 -1</clus>
<clus scale="   87.492">  1  5  2 -1</clus>
<clus scale="   90.880">  7  8 -1 -1</clus>
<clus scale="   73.303">  1  5  2 -1</clus>
</clustering>
</event>
<event>
 9    1  0.1881049E-005  0.1484017E+03  0.7546771E-02  0.1225214E+00
         21   -1    0    0  501  502  0.00000000000E+00  0.00000000000E+00  0.22941517561E+03  0.22941517561E+03  0.00000000000E+00 0. -1.
          2   -1    0    0  502    0 -0.00000000000E+00 -0.00000000000E+00 -0.29666417203E+03  0.29666417203E+03  0.00000000000E+00 0. -1.
         23    2    1    2    0    0  0.85953897072E+01  0.17388541165E+02 -0.44279040425E+02  0.10170121482E+03  0.89477715590E+02 0.  0.
         23    2    1    2    0    0  0.91848878409E+02 -0.72209039327E+02 -0.17722432181E+03  0.23231369731E+03  0.94397202767E+02 0.  0.
        -13    1    3    3    0    0  0.22328923199E+02 -0.17418541404E+02  0.14658933122E+02  0.31888410373E+02  0.00000000000E+00 0. -1.
         13    1    3    3    0    0 -0.13733533492E+02  0.34807082569E+02 -0.58937973547E+02  0.69812804448E+02  0.00000000000E+00 0.  1.
        -13    1    4    4    0    0  0.27508247690E+01 -0.26870887645E+02 -0.10645853076E+03  0.10983182786E+03  0.00000000000E+00 0. -1.
         13    1    4    4    0    0  0.89098053640E+02 -0.45338151682E+02 -0.70765791054E+02  0.12248186945E+03  0.00000000000E+00 0.  1.
          2    1    1    2  501    0 -0.10044426812E+03  0.54820498163E+02  0.15425436582E+03  0.19206443552E+03  0.00000000000E+00 0. -1.
<scales pt_clust_5="13000.00000" pt_clust_6="13000.00000" pt_clust_7="13000.00000" pt_clust_8="13000.00000" pt_clust_9="114.50861"></scales>
<clustering>
<clus scale="   89.478">  5  6 -1 -1</clus>
<clus scale="   91.556">  2  5  1 -1</clus>
<clus scale="   94.397">  7  8 -1 -1</clus>
<clus scale="  114.509">  1  9  2 -1</clus>
<clus scale="  114.509">  1  5  2 -1</clus>
</clustering>
</event>
<event>
 9    1  0.1881049E-005  0.9845668E+02  0.7546771E-02  0.1295033E+00
          1   -1    0    0  502    0 -0.00000000000E+00  0.00000000000E+00  0.67695661119E+02  0.67695661119E+02  0.00000000000E+00 0. -1.
         21   -1    0    0  501  502  0.00000000000E+00 -0.00000000000E+00 -0.51928569765E+03  0.51928569765E+03  0.00000000000E+00 0.  1.
         23    2    1    2    0    0  0.25487209650E+02  0.13998253877E+02  0.29371466423E+02  0.83818502796E+02  0.72919883460E+02 0.  0.
         23    2    1    2    0    0 -0.48260542402E+02 -0.33697468883E+02 -0.29842174904E+03  0.31815624659E+03  0.93291251369E+02 0.  0.
        -11    1    3    3    0    0  0.47921278953E+02 -0.42441437926E+01  0.10354779986E+02  0.49210600500E+02  0.00000000000E+00 0. -1.
         11    1    3    3    0    0 -0.22434069304E+02  0.18242397670E+02  0.19016686437E+02  0.34607902296E+02  0.00000000000E+00 0.  1.
        -13    1    4    4    0    0 -0.12495154781E+02  0.31727385872E+02 -0.12076591551E+03  0.12548769763E+03  0.00000000000E+00 0.  1.
         13    1    4    4    0    0 -0.35765387620E+02 -0.65424854755E+02 -0.17765583353E+03  0.19266854896E+03  0.00000000000E+00 0. -1.
          1    1    1    2  501    0  0.22773332752E+02  0.19699215006E+02 -0.18253975392E+03  0.18500660939E+03  0.00000000000E+00 0. -1.
<scales pt_clust_5="13000.00000" pt_clust_6="13000.00000" pt_clust_7="13000.00000" pt_clust_8="13000.00000" pt_clust_9="30.11119"></scales>
<clustering>
<clus scale="   30.111">  2  9  1 -1</clus>
<clus scale="   72.920">  5  6 -1 -1</clus>
<clus scale="   79.421">  1  5  2 -1</clus>
<clus scale="   93.291">  7  8 -1 -1</clus>
<clus scale="   30.111">  2  5  1 -1</clus>
</clustering>
</event>
<event>
 9    1  0.1881049E-005  0.1722669E+03  0.7546771E-02  0.1199919E+00
          2   -1    0    0  502    0 -0.00000000000E+00  0.00000000000E+00  0.37384545917E+03  0.37384545917E+03  0.00000000000E+00 0. -1.
         21   -1    0    0  501  502  0.00000000000E+00 -0.00000000000E+00 -0.17551709902E+03  0.17551709902E+03  0.00000000000E+00 0. -1.
         23    2    1    2    0    0  0.30891334502E+02  0.21142904932E+02  0.40601447698E+02  0.10813872736E+03  0.92974242791E+02 0.  0.
         23    2    1    2    0    0 -0.14539020255E+03  0.66575697102E+02  0.21766182798E+03  0.28502927899E+03  0.91073509191E+02 0.  0.
        -13    1    3    3    0    0 -0.13846403752E+02 -0.24251333250E+02 -0.67612469592E+01  0.28732638613E+02  0.00000000000E+00 0. -1.
         13    1    3    3    0    0  0.44737738253E+02  0.45394238181E+02  0.47362694657E+02  0.79406088742E+02  0.00000000000E+00 0.  1.
        -13    1    4    4    0    0 -0.63463876559E+02  0.63782180800E+02  0.62530421513E+02  0.10957136410E+03  0.00000000000E+00 0.  1.
         13    1    4    4    0    0 -0.81926325990E+02  0.27935163016E+01  0.15513140647E+03  0.17545791489E+03  0.00000000000E+00 0. -1.
          2    1    1    2  501    0  0.11449886805E+03 -0.87718602033E+02 -0.59934915533E+02  0.15619455185E+03  0.00000000000E+00 0. -1.
<scales pt_clust_5="13000.00000" pt_clust_6="13000.00000" pt_clust_7="13000.00000" pt_clust_8="13000.00000" pt_clust_9="146.22417"></scales>
<clustering>
<clus scale="   91.074">  7  8 -1 -1</clus>
<clus scale="   92.974">  5  6 -1 -1</clus>
<clus scale="  100.227">  1  5  2 -1</clus>
<clus scale="  146.224">  2  9  1 -1</clus>
<clus scale="  146.224">  2  5  1 -1</clus>
</clustering>
</event>
<event>
 9    1  0.1881049E-005  0.1195854E+03  0.7546771E-02  0.1244598E+00
         21   -1    0    0  501  502  0.00000000000E+00  0.00000000000E+00  0.32160700509E+03  0.32160700509E+03  0.00000000000E+00 0.  1.
         -3   -1    0    0    0  501 -0.00000000000E+00 -0.00000000000E+00 -0.74798885163E+02  0.74798885163E+02  0.00000000000E+00 0.  1.
         23    2    1    2    0    0 -0.98094683329E+02  0.20277575827E+02  0.44378261974E+02  0.13903672327E+03  0.85603932760E+02 0.  0.
         23    2    1    2    0    0  0.46309057814E+02 -0.29760727245E+02  0.11297893816E+03  0.15357538960E+03  0.88266245538E+02 0.  0.
        -11    1    3    3    0    0 -0.88399957291E+02 -0.14347561997E+02  0.50115122445E+02  0.10262519419E+03  0.00000000000E+00 0.  1.
         11    1    3    3    0    0 -0.96947260383E+01  0.34625137825E+02 -0.57368604705E+01  0.36411529086E+02  0.00000000000E+00 0. -1.
        -13    1    4    4    0    0 -0.34830285073E+01  0.26623355305E+02  0.17606339493E+02  0.32107907525E+02  0.00000000000E+00 0.  1.
         13    1    4    4    0    0  0.49792086321E+02 -0.56384082550E+02  0.95372598670E+02  0.12146748208E+03  0.00000000000E+00 0. -1.
         -3    1    1    2    0  502  0.51785625515E+02  0.94831514175E+01  0.89450919787E+02  0.10379377737E+03  0.00000000000E+00 0.  1.
<scales pt_clust_5="13000.00000" pt_clust_6="13000.00000" pt_clust_7="13000.00000" pt_clust_8="13000.00000" pt_clust_9="52.64676"></scales>
<clustering>
<clus scale="   52.647">  1  9  2 -1</clus>
<clus scale="   85.604">  5  6 -1 -1</clus>
<clus scale="   88.266">  7  8 -1 -1</clus>
<clus scale="  117.634">  2  5  1 -1</clus>
<clus scale="   52.647">  1  5  2 -1</clus>
</clustering>
</event>
<event>
 9    1  0.1881049E-005  0.1844069E+03  0.7546771E-02  0.1165292E+00
         21   -1    0    0  501  502  0.00000000000E+00  0.00000000000E+00  0.65212952377E+02  0.65212952377E+02  0.00000000000E+00 0.  1.
          1   -1    0    0  502    0 -0.00000000000E+00 -0.00000000000E+00 -0.94609116108E+03  0.94609116108E+03  0.00000000000E+00 0. -1.
         23    2    1    2    0    0 -0.53625104905E+02 -0.14760547779E+03 -0.64206685011E+03  0.66736454997E+03  0.91992247451E+02 0.  0.
         23    2    1    2    0    0  0.67232240691E+00  0.13807594668E+03 -0.11269817238E+03  0.20682886050E+03  0.10493750716E+03 0.  0.
        -11    1    3    3    0    0  0.25609408358E+02 -0.46276287383E+02 -0.16567011252E+03  0.17390779957E+03  0.00000000000E+00 0. -1.
         11    1    3    3    0    0 -0.79234513262E+02 -0.10132919041E+03 -0.47639673759E+03  0.49345675040E+03  0.00000000000E+00 0.  1.
        -13    1    4    4    0    0  0.73689415970E+00  0.85655085956E+02 -0.35345086488E+01  0.85731146700E+02  0.00000000000E+00 0.  1.
         13    1    4    4    0    0 -0.64571752786E-01  0.52420860728E+02 -0.10916366373E+03  0.12109771380E+03  0.00000000000E+00 0. -1.
          1    1    1    2  501    0  0.52952782498E+02  0.95295311075E+01 -0.12611318621E+03  0.13711070299E+03  0.00000000000E+00 0. -1.
<scales pt_clust_5="13000.00000" pt_clust_6="13000.00000" pt_clust_7="13000.00000" pt_clust_8="13000.00000" pt_clust_9="53.80346"></scales>
<clustering>
<clus scale="   53.803">  1  9  2 -1</clus>
<clus scale="   91.992">  5  6 -1 -1</clus>
<clus scale="  104.938">  7  8 -1 -1</clus>
<clus scale="  177.360">  2  5  1 -1</clus>
<clus scale="   53.803">  1  5  2 -1</clus>
</clustering>
</event>
<event>
 9    1  0.1881049E-005  0.9387383E+02  0.7546771E-02  0.1293829E+00
         21   -1    0    0  501  502  0.00000000000E+00  0.00000000000E+00  0.91941867671E+02  0.91941867671E+02  0.00000000000E+00 0. -1.
          2   -1    0    0  502    0 -0.00000000000E+00 -0.00000000000E+00 -0.46783220887E+03  0.46783220887E+03  0.00000000000E+00 0. -1.
         23    2    1    2    0    0  0.30918810313E+00  0.24188008719E+02 -0.35113496836E+03  0.36356079171E+03  0.91079788677E+02 0.  0.
         23    2    1    2    0    0 -0.65739032454E+02  0.11193586672E+01 -0.48394304982E+02  0.12218405757E+03  0.90906885427E+02 0.  0.
        -11    1    4    4    0    0  0.22132615513E+02 -0.50798941553E+01 -0.24708958511E+01  0.22842139137E+02  0.00000000000E+00 0.  1.
         11    1    4    4    0    0 -0.87871647967E+02  0.61992528226E+01 -0.45923409131E+02  0.99341918434E+02  0.00000000000E+00 0. -1.
        -11    1    3    3    0    0 -0.34426391809E+02 -0.10881336027E+02 -0.77346244094E+02  0.85358194698E+02  0.00000000000E+00 0.  1.
         11    1    3    3    0    0  0.34735579912E+02  0.35069344746E+02 -0.27378872426E+03  0.27820259701E+03  0.00000000000E+00 0. -1.
          2    1    1    2  501    0  0.65429844351E+02 -0.25307367386E+02  0.23638932138E+02  0.74029227258E+02  0.00000000000E+00 0. -1.
<scales pt_clust_5="13000.00000" pt_clust_6="13000.00000" pt_clust_7="13000.00000" pt_clust_8="13000.00000" pt_clust_9="70.15360"></scales>
<clustering>
<clus scale="   70.154">  1  9  2 -1</clus>
<clus scale="   90.907">  5  6 -1 -1</clus>
<clus scale="   91.080">  7  8 -1 -1</clus>
<clus scale="   93.706">  1  5  2 -1</clus>
<clus scale="   70.154">  1  5  2 -1</clus>
</clustering>
</event>
<event>
 9    1  0.1881049E-005  0.1005211E+03  0.7546771E-02  0.1284011E+00
         21   -1    0    0  501  502  0.00000000000E+00  0.00000000000E+00  0.31566567765E+03  0.31566567765E+03  0.00000000000E+00 0. -1.
         -3   -1    0    0    0  501 -0.00000000000E+00 -0.00000000000E+00 -0.12452923658E+03  0.12452923658E+03  0.00000000000E+00 0.  1.
         23    2    1    2    0    0 -0.16513967950E+02 -0.59509924494E+01 -0.74912090443E+02  0.11866967651E+03  0.90346806137E+02 0.  0.
         23    2    1    2    0    0 -0.33835594485E+01  0.25413702475E+02  0.71440713269E+02  0.12493706005E+03  0.99238040653E+02 0.  0.
        -11    1    4    4    0    0 -0.39466466596E+02  0.45663553810E+02  0.49767970635E+02  0.78227955574E+02  0.00000000000E+00 0. -1.
         11    1    4    4    0    0  0.36082907147E+02 -0.20249851336E+02  0.21672742634E+02  0.46709104472E+02  0.00000000000E+00 0.  1.
        -13    1    3    3    0    0 -0.14090194340E+02  0.39257107973E+02 -0.16707967621E+02  0.44931172753E+02  0.00000000000E+00 0. -1.
         13    1    3    3    0    0 -0.24237736101E+01 -0.45208100423E+02 -0.58204122822E+02  0.73738503754E+02  0.00000000000E+00 0.  1.
         -3    1    1    2    0  502  0.19897527399E+02 -0.19462710025E+02  0.19460781825E+03  0.19658817768E+03  0.00000000000E+00 0.  1.
<scales pt_clust_5="13000.00000" pt_clust_6="13000.00000" pt_clust_7="13000.00000" pt_clust_8="13000.00000" pt_clust_9="27.83359"></scales>
<clustering>
<clus scale="   27.834">  1  9  2 -1</clus>
<clus scale="   90.347">  7  8 -1 -1</clus>
<clus scale="   91.754">  2  7  1 -1</clus>
<clus scale="   99.238">  5  6 -1 -1</clus>
<clus scale="   27.834">  1  5  2 -1</clus>
</clustering>
</event>
<event>
 9    1  0.1881049E-005  0.1207240E+03  0.7546771E-02  0.1242071E+00
         21   -1    0    0  501  502  0.00000000000E+00  0.00000000000E+00  0.40887844573E+02  0.40887844573E+02  0.00000000000E+00 0. -1.
          2   -1    0    0  502    0 -0.00000000000E+00 -0.00000000000E+00 -0.63988153226E+03  0.63988153226E+03  0.00000000000E+00 0.  1.
         23    2    1    2    0    0 -0.94511975880E+02 -0.18886187255E+02 -0.33426376475E+03  0.35941629948E+03  0.90325025608E+02 0.  0.
         23    2    1    2    0    0  0.41011449657E+02  0.57046303604E+02 -0.18823168265E+03  0.22050427194E+03  0.90855642831E+02 0.  0.
        -13    1    4    4    0    0  0.10758858840E+02 -0.24941695947E+02 -0.38138787383E+02  0.46823160330E+02  0.00000000000E+00 0.  1.
         13    1    4    4    0    0  0.30252590817E+02  0.81987999552E+02 -0.15009289526E+03  0.17368111161E+03  0.00000000000E+00 0. -1.
        -13    1    3    3    0    0 -0.34589923405E+02 -0.51206158710E+02 -0.19203164420E+03  0.20172923899E+03  0.00000000000E+00 0.  1.
         13    1    3    3    0    0 -0.59922052476E+02  0.32319971455E+02 -0.14223212056E+03  0.15768706049E+03  0.00000000000E+00 0. -1.
          2    1    1    2  501    0  0.53500526223E+02 -0.38160116349E+02 -0.76498240283E+02  0.10084880541E+03  0.00000000000E+00 0.  1.
<scales pt_clust_5="13000.00000" pt_clust_6="13000.00000" pt_clust_7="13000.00000" pt_clust_8="13000.00000" pt_clust_9="65.71530"></scales>
<clustering>
<clus scale="   65.715">  1  9  2 -1</clus>
<clus scale="   90.325">  7  8 -1 -1</clus>
<clus scale="   90.856">  5  6 -1 -1</clus>
<clus scale="  120.325">  2  7  1 -1</clus>
<clus scale="   65.715">  1  5  2 -1</clus>
</clustering>
</event>
<event>
 9    1  0.1881049E-005  0.1162686E+03  0.7546771E-02  0.1250067E+00
          4   -1    0    0  502    0 -0.00000000000E+00  0.00000000000E+00  0.39006364073E+03  0.39006364073E+03  0.00000000000E+00 0. -1.
         21   -1    0    0  501  502  0.00000000000E+00 -0.00000000000E+00 -0.14056483201E+03  0.14056483201E+03  0.00000000000E+00 0.  1.
         23    2    1    2    0    0  0.60136983801E+02 -0.40891990385E+02  0.32598182881E+03  0.34526667745E+03  0.87500366557E+02 0.  0.
         23    2    1    2    0    0 -0.91993850119E+02  0.20211027408E+02 -0.50970699581E+02  0.13960766258E+03  0.89559662505E+02 0.  0.
        -11    1    3    3    0    0  0.36865147018E+02  0.21732812379E+02  0.84571222549E+02  0.94782096843E+02  0.00000000000E+00 0.  1.
         11    1    3    3    0    0  0.23271836783E+02 -0.62624802764E+02  0.24141060626E+03  0.25048458061E+03  0.00000000000E+00 0. -1.
        -11    1    4    4    0    0 -0.53221980468E+02  0.22273258868E+02 -0.74484594317E+02  0.94215880063E+02  0.00000000000E+00 0.  1.
         11    1    4    4    0    0 -0.38771869651E+02 -0.20622314592E+01  0.23513894736E+02  0.45391782521E+02  0.00000000000E+00 0. -1.
          4    1    1    2  501    0  0.31856866318E+02  0.20680962976E+02 -0.25512320517E+02  0.45754132703E+02  0.00000000000E+00 0. -1.
<scales pt_clust_5="13000.00000" pt_clust_6="13000.00000" pt_clust_7="13000.00000" pt_clust_8="13000.00000" pt_clust_9="37.98108"></scales>
<clustering>
<clus scale="   37.981">  2  9  1 -1</clus>
<clus scale="   87.500">  5  6 -1 -1</clus>
<clus scale="   89.560">  7  8 -1 -1</clus>
<clus scale="  114.690">  1  5  2 -1</clus>
<clus scale="   37.981">  2  5  1 -1</clus>
</clustering>
</event>
<event>
 9    1  0.1881049E-005  0.1086394E+03  0.7546771E-02  0.1263138E+00
         21   -1    0    0  501  502  0.00000000000E+00  0.00000000000E+00  0.10121145082E+03  0.10121145082E+03  0.00000000000E+00 0. -1.
          3   -1    0    0  502    0 -0.00000000000E+00 -0.00000000000E+00 -0.32449950357E+03  0.32449950357E+03  0.00000000000E+00 0. -1.
         23    2    1    2    0    0  0.35913370143E+02 -0.28639194936E+00 -0.13415631828E+03  0.16609970834E+03  0.91111707254E+02 0.  0.
         23    2    1    2    0    0 -0.11223064652E+03  0.18051465065E+02 -0.10506533037E+03  0.17964998059E+03  0.91180142971E+02 0.  0.
        -11    1    4    4    0    0 -0.12208676430E+01  0.29858770901E+02 -0.61797223254E+01  0.30515990653E+02  0.00000000000E+00 0.  1.
         11    1    4    4    0    0 -0.11100977887E+03 -0.11807305835E+02 -0.98885608044E+02  0.14913398994E+03  0.00000000000E+00 0. -1.
        -13    1    3    3    0    0  0.29479308976E+02  0.43788421588E+02 -0.63500038981E+02  0.82575483489E+02  0.00000000000E+00 0.  1.
         13    1    3    3    0    0  0.64340611671E+01 -0.44074813538E+02 -0.70656279303E+02  0.83524224848E+02  0.00000000000E+00 0. -1.
          3    1    1    2  501    0  0.76317276374E+02 -0.17765073116E+02  0.15933595903E+02  0.79961265462E+02  0.00000000000E+00 0. -1.
<scales pt_clust_5="13000.00000" pt_clust_6="13000.00000" pt_clust_7="13000.00000" pt_clust_8="13000.00000" pt_clust_9="78.35767"></scales>
<clustering>
<clus scale="   78.358">  1  9  2 -1</clus>
<clus scale="   91.112">  7  8 -1 -1</clus>
<clus scale="   91.180">  5  6 -1 -1</clus>
<clus scale="  108.582">  2  7  1 -1</clus>
<clus scale="   78.358">  1  5  2 -1</clus>
</clustering>
</event>
<event>
 9    1  0.1881049E-005  0.1241600E+03  0.7546771E-02  0.1236694E+00
          2   -1    0    0  502    0 -0.00000000000E+00  0.00000000000E+00  0.27251061826E+03  0.27251061826E+03  0.00000000000E+00 0. -1.
         21   -1    0    0  501  502  0.00000000000E+00 -0.00000000000E+00 -0.17393344491E+03  0.17393344491E+03  0.00000000000E+00 0. -1.
         23    2    1    2    0    0  0.45014521452E+02  0.92478001554E+02  0.16396654813E+03  0.21496435065E+03  0.93520881250E+02 0.  0.
         23    2    1    2    0    0 -0.59589427397E+02 -0.14265877155E+02  0.22206395993E+02  0.11314720075E+03  0.92491891030E+02 0.  0.
        -11    1    3    3    0    0  0.59769328820E+02  0.75202615596E+02  0.16637762119E+03  0.19211798171E+03  0.00000000000E+00 0. -1.
         11    1    3    3    0    0 -0.14754807368E+02  0.17275385957E+02 -0.24110730640E+01  0.22846368941E+02  0.00000000000E+00 0.  1.
        -13    1    4    4    0    0 -0.72925094497E+02  0.17013747801E+02  0.50319521988E+01  0.75052365483E+02  0.00000000000E+00 0. -1.
         13    1    4    4    0    0  0.13335667100E+02 -0.31279624957E+02  0.17174443794E+02  0.38094835268E+02  0.00000000000E+00 0.  1.
          2    1    1    2  501    0  0.14574905945E+02 -0.78212124398E+02 -0.87595770771E+02  0.11833251178E+03  0.00000000000E+00 0. -1.
<scales pt_clust_5="13000.00000" pt_clust_6="13000.00000" pt_clust_7="13000.00000" pt_clust_8="13000.00000" pt_clust_9="79.55856"></scales>
<clustering>
<clus scale="   79.559">  2  9  1 -1</clus>
<clus scale="   92.492">  7  8 -1 -1</clus>
<clus scale="   93.521">  5  6 -1 -1</clus>
<clus scale="  123.387">  2  7  1 -1</clus>
<clus scale="   79.559">  2  5  1 -1</clus>
</clustering>
</event>
<event>
 9    1  0.1881049E-005  0.2322542E+03  0.7546771E-02  0.1125136E+00
          2   -1    0    0  502    0 -0.00000000000E+00  0.00000000000E+00  0.19328368188E+04  0.19328368188E+04  0.00000000000E+00 0. -1.
         21   -1    0    0  501  502  0.00000000000E+00 -0.00000000000E+00 -0.43439646759E+02  0.43439646759E+02  0.00000000000E+00 0.  1.
         23    2    1    2    0    0  0.17996990458E+03 -0.11268523977E+03  0.11313140538E+04  0.11547029596E+04  0.91544015975E+02 0.  0.
         23    2    1    2    0    0 -0.20221183516E+03  0.79817564801E+02  0.74249175897E+03  0.77893457987E+03  0.90468766162E+02 0.  0.
        -11    1    4    4    0    0 -0.10189649765E+02  0.36175937625E+02  0.14699847314E+03  0.15172698683E+03  0.00000000000E+00 0. -1.
         11    1    4    4    0    0 -0.19202218539E+03  0.43641627176E+02  0.59549328582E+03  0.62720759304E+03  0.00000000000E+00 0.  1.
        -11    1    3    3    0    0  0.27530119575E+02 -0.34114611549E+02  0.99430696151E+02  0.10866543858E+03  0.00000000000E+00 0.  1.
         11    1    3    3    0    0  0.15243978501E+03 -0.78570628218E+02  0.10318833577E+04  0.10460375211E+04  0.00000000000E+00 0. -1.
          2    1    1    2  501    0  0.22241930573E+02  0.32867674966E+02  0.15591359321E+02  0.42638926098E+02  0.00000000000E+00 0. -1.
<scales pt_clust_5="13000.00000" pt_clust_6="13000.00000" pt_clust_7="13000.00000" pt_clust_8="13000.00000" pt_clust_9="39.68611"></scales>
<clustering>
<clus scale="   39.686">  2  9  1 -1</clus>
<clus scale="   90.469">  5  6 -1 -1</clus>
<clus scale="   91.544">  7  8 -1 -1</clus>
<clus scale="  231.832">  2  5  1 -1</clus>
<clus scale="   39.686">  2  5  1 -1</clus>
</clustering>
</event>
<event>
 9    1  0.1881049E-005  0.1424585E+03  0.7546771E-02  0.1210128E+00
         -1   -1    0    0    0  501 -0.00000000000E+00  0.00000000000E+00  0.15807155607E+03  0.15807155607E+03  0.00000000000E+00 0.  1.
         21   -1    0    0  501  502  0.00000000000E+00 -0.00000000000E+00 -0.23180539387E+03  0.23180539387E+03  0.00000000000E+00 0.  1.
         23    2    1    2    0    0  0.88382790408E+02 -0.56802644179E+02  0.36998362181E+02  0.14399713196E+03  0.91259175883E+02 0.  0.
         23    2    1    2    0    0 -0.83177677578E+02  0.83442666882E+02 -0.18781528852E+02  0.15000641222E+03  0.90928395883E+02 0.  0.
        -13    1    3    3    0    0  0.70621660520E+02  0.64807831339E+01  0.32795553235E+02  0.78134293346E+02  0.00000000000E+00 0. -1.
         13    1    3    3    0    0  0.17761129888E+02 -0.63283427313E+02  0.42028089465E+01  0.65862838615E+02  0.00000000000E+00 0.  1.
        -13    1    4    4    0    0 -0.25149573110E+02  0.75636826642E+02  0.16844462908E+02  0.81468806932E+02  0.00000000000E+00 0.  1.
         13    1    4    4    0    0 -0.58028104468E+02  0.78058402391E+01 -0.35625991760E+02  0.68537605290E+02  0.00000000000E+00 0. -1.
         -1    1    1    2    0  502 -0.52051128295E+01 -0.26640022702E+02 -0.91950671130E+02  0.95873405751E+02  0.00000000000E+00 0.  1.
<scales pt_clust_5="13000.00000" pt_clust_6="13000.00000" pt_clust_7="13000.00000" pt_clust_8="13000.00000" pt_clust_9="27.14377"></scales>
<clustering>
<clus scale="   27.144">  2  9  1 -1</clus>
<clus scale="   90.928">  7  8 -1 -1</clus>
<clus scale="   91.259">  5  6 -1 -1</clus>
<clus scale="  142.247">  2  7  1 -1</clus>
<clus scale="   27.144">  2  5  1 -1</clus>
</clustering>
</event>
<event>
 9    1  0.1881049E-005  0.2465069E+03  0.7546771E-02  0.1125912E+00
          1   -1    0    0  502    0 -0.00000000000E+00  0.00000000000E+00  0.94179221349E+03  0.94179221349E+03  0.00000000000E+00 0. -1.
         21   -1    0    0  501  502  0.00000000000E+00 -0.00000000000E+00 -0.27689626881E+03  0.27689626881E+03  0.00000000000E+00 0. -1.
         23    2    1    2    0    0 -0.15277124435E+03  0.67284527530E+02  0.23884063526E+03  0.30532872574E+03  0.91183995114E+02 0.  0.
         23    2    1    2    0    0  0.21340120008E+03  0.15527259471E+03  0.57466588649E+03  0.63896447998E+03  0.91570053632E+02 0.  0.
        -11    1    4    4    0    0  0.12414320514E+02  0.39008623948E+02  0.14385019794E+03  0.14956158445E+03  0.00000000000E+00 0.  1.
         11    1    4    4    0    0  0.20098687957E+03  0.11626397076E+03  0.43081568855E+03  0.48940289554E+03  0.00000000000E+00 0. -1.
        -13    1    3    3    0    0 -0.78411566566E+02  0.79552345841E+02  0.16900263888E+03  0.20258045673E+03  0.00000000000E+00 0.  1.
         13    1    3    3    0    0 -0.74359677780E+02 -0.12267818311E+02  0.69837996375E+02  0.10274826900E+03  0.00000000000E+00 0. -1.
          1    1    1    2  501    0 -0.60629955739E+02 -0.22255712224E+03 -0.14861057707E+03  0.27439527658E+03  0.00000000000E+00 0. -1.
<scales pt_clust_5="13000.00000" pt_clust_6="13000.00000" pt_clust_7="13000.00000" pt_clust_8="13000.00000" pt_clust_9="228.86801"></scales>
<clustering>
<clus scale="   91.184">  7  8 -1 -1</clus>
<clus scale="   91.570">  5  6 -1 -1</clus>
<clus scale="  190.212">  1  7  2 -1</clus>
<clus scale="  228.868">  2  9  1 -1</clus>
<clus scale="  228.868">  2  5  1 -1</clus>
</clustering>
</event>
<event>
 9    1  0.1881049E-005  0.1531548E+03  0.7546771E-02  0.1197002E+00
          2   -1    0    0  502    0 -0.00000000000E+00  0.00000000000E+00  0.80510459636E+03  0.80510459636E+03  0.00000000000E+00 0. -1.
         21   -1    0    0  501  502  0.00000000000E+00 -0.00000000000E+00 -0.16133597852E+03  0.16133597852E+03  0.00000000000E+00 0. -1.
         23    2    1    2    0    0 -0.10953946569E+03 -0.51498093535E+02  0.61573190266E+03  0.63408006355E+03  0.90998916766E+02 0.  0.
         23    2    1    2    0    0  0.13227088972E+03  0.64803942559E+01  0.13718503079E+03  0.21212463612E+03  0.92949151690E+02 0.  0.
        -11    1    4    4    0    0  0.36331733899E+02 -0.39952821995E+02  0.58692284552E+02  0.79755922284E+02  0.00000000000E+00 0. -1.
         11    1    4    4    0    0  0.95939155822E+02  0.46433216251E+02  0.78492746241E+02  0.13236871384E+03  0.00000000000E+00 0.  1.
        -13    1    3    3    0    0  0.84448174834E+01 -0.30180259509E+02  0.11491446980E+03  0.11911128568E+03  0.00000000000E+00 0.  1.
         13    1    3    3    0    0 -0.11798428317E+03 -0.21317834026E+02  0.50081743286E+03  0.51496877787E+03  0.00000000000E+00 0. -1.
          2    1    1    2  501    0 -0.22731424032E+02  0.45017699279E+02 -0.10914831561E+03  0.12023587521E+03  0.00000000000E+00 0. -1.
<scales pt_clust_5="13000.00000" pt_clust_6="13000.00000" pt_clust_7="13000.00000" pt_clust_8="13000.00000" pt_clust_9="50.43125"></scales>
<clustering>
<clus scale="   50.431">  2  9  1 -1</clus>
<clus scale="   90.999">  7  8 -1 -1</clus>
<clus scale="   92.949">  5  6 -1 -1</clus>
<clus scale="  151.979">  1  7  2 -1</clus>
<clus scale="   50.431">  2  5  1 -1</clus>
</clustering>
</event>
<event>
 9    1  0.1881049E-005  0.3316982E+03  0.7546771E-02  0.1070471E+00
          2   -1    0    0  502    0 -0.00000000000E+00  0.00000000000E+00  0.26442232784E+04  0.26442232784E+04  0.00000000000E+00 0. -1.
         21   -1    0    0  501  502  0.00000000000E+00 -0.00000000000E+00 -0.70964746620E+02  0.70964746620E+02  0.00000000000E+00 0. -1.
         23    2    1    2    0    0  0.29450981670E+03  0.41807860872E+02  0.14878846719E+04  0.15202332272E+04  0.93937952499E+02 0.  0.
         23    2    1    2    0    0 -0.37381636876E+03  0.34076178303E+02  0.90203640378E+03  0.98127152888E+03  0.91237471330E+02 0.  0.
        -11    1    4    4    0    0 -0.59543759878E+02  0.66803445802E+01  0.74243627554E+02  0.95405464081E+02  0.00000000000E+00 0.  1.
         11    1    4    4    0    0 -0.31427260888E+03  0.27395833723E+02  0.82779277622E+03  0.88586606480E+03  0.00000000000E+00 0. -1.
        -11    1    3    3    0    0  0.89753187254E+02 -0.25518453165E+02  0.55352935942E+03  0.56133909343E+03  0.00000000000E+00 0.  1.
         11    1    3    3    0    0  0.20475662945E+03  0.67326314038E+02  0.93435531248E+03  0.95889413379E+03  0.00000000000E+00 0. -1.
          2    1    1    2  501    0  0.79306552057E+02 -0.75884039175E+02  0.18333745606E+03  0.21368326887E+03  0.00000000000E+00 0. -1.
<scales pt_clust_5="13000.00000" pt_clust_6="13000.00000" pt_clust_7="13000.00000" pt_clust_8="13000.00000" pt_clust_9="109.76300"></scales>
<clustering>
<clus scale="   91.237">  5  6 -1 -1</clus>
<clus scale="   93.938">  7  8 -1 -1</clus>
<clus scale="  109.763">  2  9  1 -1</clus>
<clus scale="  330.944">  2  5  1 -1</clus>
<clus scale="  109.763">  2  5  1 -1</clus>
</clustering>
</event>
<event>
 9    1  0.1881049E-005  0.1165124E+03  0.7546771E-02  0.1249302E+00
          1   -1    0    0  502    0 -0.00000000000E+00  0.00000000000E+00  0.70720720871E+02  0.70720720871E+02  0.00000000000E+00 0. -1.
         21   -1    0    0  501  502  0.00000000000E+00 -0.00000000000E+00 -0.47749295113E+03  0.47749295113E+03  0.00000000000E+00 0. -1.
         23    2    1    2    0    0 -0.10530074377E+03 -0.23105003535E+01 -0.61440401172E+02  0.15088331555E+03  0.88866568318E+02 0.  0.
         23    2    1    2    0    0  0.41371766869E+02 -0.51414698624E+01 -0.89482457481E+02  0.13350968459E+03  0.89886972789E+02 0.  0.
        -11    1    3    3    0    0 -0.52697494768E+02 -0.20203707821E+02 -0.74832523997E+02  0.93728983843E+02  0.00000000000E+00 0.  1.
         11    1    3    3    0    0 -0.52603249002E+02  0.17893207467E+02  0.13392122825E+02  0.57154331707E+02  0.00000000000E+00 0. -1.
        -13    1    4    4    0    0  0.62277913887E+02 -0.87035063727E+01 -0.28679571244E+02  0.69114451369E+02  0.00000000000E+00 0.  1.
         13    1    4    4    0    0 -0.20906147018E+02  0.35620365102E+01 -0.60802886237E+02  0.64395233224E+02  0.00000000000E+00 0. -1.
          1    1    1    2  501    0  0.63928976901E+02  0.74519702159E+01 -0.25584937161E+03  0.26382067186E+03  0.00000000000E+00 0. -1.
<scales pt_clust_5="13000.00000" pt_clust_6="13000.00000" pt_clust_7="13000.00000" pt_clust_8="13000.00000" pt_clust_9="64.36184"></scales>
<clustering>
<clus scale="   64.362">  2  9  1 -1</clus>
<clus scale="   88.867">  5  6 -1 -1</clus>
<clus scale="   89.887">  7  8 -1 -1</clus>
<clus scale="  115.727">  1  5  2 -1</clus>
<clus scale="   64.362">  2  5  1 -1</clus>
</clustering>
</event>
<event>
 9    1  0.1881049E-005  0.9628584E+02  0.7546771E-02  0.1289887E+00
         21   -1    0    0  501  502  0.00000000000E+00  0.00000000000E+00  0.18222792689E+03  0.18222792689E+03  0.00000000000E+00 0.  1.
         -3   -1    0    0    0  501 -0.00000000000E+00 -0.00000000000E+00 -0.12948480370E+03  0.12948480370E+03  0.00000000000E+00 0.  1.
         23    2    1    2    0    0 -0.71188491591E+01  0.73467319893E+01 -0.50448195934E+02  0.10753461486E+03  0.94414090240E+02 0.  0.
         23    2    1    2    0    0  0.38569216028E+01 -0.36586922108E+02  0.18754015643E+01  0.98676722182E+02  0.91542884246E+02 0.  0.
        -11    1    4    4    0    0  0.47098986754E+02 -0.19863248488E+02  0.85795904286E+01  0.51831192980E+02  0.00000000000E+00 0. -1.
         11    1    4    4    0    0 -0.43242065152E+02 -0.16723673620E+02 -0.67041888643E+01  0.46845529202E+02  0.00000000000E+00 0.  1.
        -13    1    3    3    0    0  0.11006011430E+02 -0.19177043339E+02 -0.67595295182E+02  0.71119724476E+02  0.00000000000E+00 0. -1.
         13    1    3    3    0    0 -0.18124860589E+02  0.26523775328E+02  0.17147099248E+02  0.36414890384E+02  0.00000000000E+00 0.  1.
         -3    1    1    2    0  502  0.32619275563E+01  0.29240190119E+02  0.10131591756E+03  0.10550139355E+03  0.00000000000E+00 0.  1.
<scales pt_clust_5="13000.00000" pt_clust_6="13000.00000" pt_clust_7="13000.00000" pt_clust_8="13000.00000" pt_clust_9="29.42157"></scales>
<clustering>
<clus scale="   29.422">  1  9  2 -1</clus>
<clus scale="   91.543">  5  6 -1 -1</clus>
<clus scale="   93.472">  1  5  2 -1</clus>
<clus scale="   94.414">  7  8 -1 -1</clus>
<clus scale="   29.422">  1  5  2 -1</clus>
</clustering>
</event>
<event>
 9    1  0.1881049E-005  0.1244505E+03  0.7546771E-02  0.1236239E+00
         -2   -1    0    0    0  501 -0.00000000000E+00  0.00000000000E+00  0.71184199110E+03  0.71184199110E+03  0.00000000000E+00 0.  1.
         21   -1    0    0  501  502  0.00000000000E+00 -0.00000000000E+00 -0.64422963005E+02  0.64422963005E+02  0.00000000000E+00 0. -1.
         23    2    1    2    0    0 -0.77415201557E+01 -0.84594061905E+02  0.62545242356E+03  0.63782928596E+03  0.91757165685E+02 0.  0.
         23    2    1    2    0    0 -0.57513477047E+01  0.67660380243E+02  0.19579865847E+02  0.11665256507E+03  0.92808645803E+02 0.  0.
        -11    1    4    4    0    0 -0.14491486453E+02 -0.20570227125E+02 -0.24883921230E+01  0.25284966264E+02  0.00000000000E+00 0.  1.
         11    1    4    4    0    0  0.87401387486E+01  0.88230607368E+02  0.22068257971E+02  0.91367598807E+02  0.00000000000E+00 0. -1.
        -13    1    3    3    0    0  0.40700900770E+02 -0.28251981216E+02  0.20832731415E+03  0.21413782382E+03  0.00000000000E+00 0. -1.
         13    1    3    3    0    0 -0.48442420925E+02 -0.56342080689E+02  0.41712510940E+03  0.42369146215E+03  0.00000000000E+00 0.  1.
         -2    1    1    2    0  502  0.13492867860E+02  0.16933681662E+02  0.23867386870E+01  0.21783103068E+02  0.00000000000E+00 0.  1.
<scales pt_clust_5="13000.00000" pt_clust_6="13000.00000" pt_clust_7="13000.00000" pt_clust_8="13000.00000" pt_clust_9="21.65195"></scales>
<clustering>
<clus scale="   21.652">  2  9  1 -1</clus>
<clus scale="   91.757">  7  8 -1 -1</clus>
<clus scale="   92.809">  5  6 -1 -1</clus>
<clus scale="  123.668">  1  7  2 -1</clus>
<clus scale="   21.652">  2  5  1 -1</clus>
</clustering>
</event>
<event>
 9    1  0.1881049E-005  0.1024954E+03  0.7546771E-02  0.1275650E+00
          4   -1    0    0  502    0 -0.00000000000E+00  0.00000000000E+00  0.60079178443E+02  0.60079178443E+02  0.00000000000E+00 0. -1.
         21   -1    0    0  501  502  0.00000000000E+00 -0.00000000000E+00 -0.53655771814E+03  0.53655771814E+03  0.00000000000E+00 0. -1.
         23    2    1    2    0    0 -0.29796162001E+02 -0.47754519234E+02 -0.39590287573E+02  0.11527080665E+03  0.92475200015E+02 0.  0.
         23    2    1    2    0    0  0.49323967253E+02 -0.19586726274E+02 -0.13492350318E+03  0.17136788328E+03  0.91357025552E+02 0.  0.
        -11    1    4    4    0    0  0.20061577815E+02 -0.43665921954E+02 -0.12233720395E+03  0.13143656689E+03  0.00000000000E+00 0. -1.
         11    1    4    4    0    0  0.29262389439E+02  0.24079195681E+02 -0.12586299223E+02  0.39931316387E+02  0.00000000000E+00 0.  1.
        -11    1    3    3    0    0 -0.50764371752E+02 -0.44526805179E+02  0.31034347326E+01  0.67596517115E+02  0.00000000000E+00 0. -1.
         11    1    3    3    0    0  0.20968209751E+02 -0.32277140550E+01 -0.42693722306E+02  0.47674289534E+02  0.00000000000E+00 0.  1.
          4    1    1    2  501    0 -0.19527805252E+02  0.67341245508E+02 -0.30196474894E+03  0.30999820665E+03  0.00000000000E+00 0. -1.
<scales pt_clust_5="13000.00000" pt_clust_6="13000.00000" pt_clust_7="13000.00000" pt_clust_8="13000.00000" pt_clust_9="70.11547"></scales>
<clustering>
<clus scale="   70.115">  2  9  1 -1</clus>
<clus scale="   91.357">  5  6 -1 -1</clus>
<clus scale="   92.475">  7  8 -1 -1</clus>
<clus scale="  101.488">  2  5  1 -1</clus>
<clus scale="   70.115">  2  5  1 -1</clus>
</clustering>
</event>
<event>
 9    1  0.1881049E-005  0.1874685E+03  0.7546771E-02  0.1179898E+00
          1   -1    0    0  502    0 -0.00000000000E+00  0.00000000000E+00  0.16116300652E+04  0.16116300652E+04  0.00000000000E+00 0. -1.
         21   -1    0    0  501  502  0.00000000000E+00 -0.00000000000E+00 -0.40204542232E+02  0.40204542232E+02  0.00000000000E+00 0. -1.
         23    2    1    2    0    0  0.21215129095E+02 -0.75493403874E+02  0.19986305831E+03  0.23366228444E+03  0.92214344660E+02 0.  0.
         23    2    1    2    0    0 -0.39309054322E+02 -0.12086239297E+03  0.75264071609E+03  0.76859775458E+03  0.90119592965E+02 0.  0.
        -11    1    3    3    0    0  0.38058052995E+02 -0.71457841660E+01  0.12518507144E+03  0.13103732194E+03  0.00000000000E+00 0.  1.
         11    1    3    3    0    0 -0.16842923900E+02 -0.68347619708E+02  0.74677986866E+02  0.10262496250E+03  0.00000000000E+00 0. -1.
        -13    1    4    4    0    0 -0.61938414341E+02 -0.53533808719E+02  0.32831419347E+03  0.33836732330E+03  0.00000000000E+00 0.  1.
         13    1    4    4    0    0  0.22629360019E+02 -0.67328584253E+02  0.42432652263E+03  0.43023043128E+03  0.00000000000E+00 0. -1.
          1    1    1    2  501    0  0.18093925227E+02  0.19635579685E+03  0.61892174858E+03  0.64957456843E+03  0.00000000000E+00 0. -1.
<scales pt_clust_5="13000.00000" pt_clust_6="13000.00000" pt_clust_7="13000.00000" pt_clust_8="13000.00000" pt_clust_9="164.38637"></scales>
<clustering>
<clus scale="   90.120">  7  8 -1 -1</clus>
<clus scale="   92.214">  5  6 -1 -1</clus>
<clus scale="  121.049">  1  5  2 -1</clus>
<clus scale="  164.386">  2  9  1 -1</clus>
<clus scale="  164.386">  2  5  1 -1</clus>
</clustering>
</event>
<event>
 9    1  0.1881049E-005  0.1313815E+03  0.7546771E-02  0.1242968E+00
          2   -1    0    0  502    0 -0.00000000000E+00  0.00000000000E+00  0.32678066093E+03  0.32678066093E+03  0.00000000000E+00 0. -1.
         21   -1    0    0  501  502  0.00000000000E+00 -0.00000000000E+00 -0.16773132456E+03  0.16773132456E+03  0.00000000000E+00 0. -1.
         23    2    1    2    0    0  0.18613852745E+02  0.43044059720E+01  0.88066196464E+02  0.12712297031E+03  0.89663767468E+02 0.  0.
         23    2    1    2    0    0 -0.53040994808E+02 -0.92012424393E+02  0.17707384192E+03  0.22549764243E+03  0.90633370671E+02 0.  0.
        -11    1    3    3    0    0  0.42737509437E+02  0.30862148155E+02  0.67913275273E+02  0.85971971363E+02  0.00000000000E+00 0.  1.
         11    1    3    3    0    0 -0.24123656692E+02 -0.26557742183E+02  0.20152921192E+02  0.41150998950E+02  0.00000000000E+00 0. -1.
        -13    1    4    4    0    0 -0.31942599109E+02 -0.12233625622E+02  0.48802962741E+01  0.34551534342E+02  0.00000000000E+00 0.  1.
         13    1    4    4    0    0 -0.21098395700E+02 -0.79778798771E+02  0.17219354564E+03  0.19094610809E+03  0.00000000000E+00 0. -1.
          2    1    1    2  501    0  0.34427142063E+02  0.87708018421E+02 -0.10609070201E+03  0.14189137274E+03  0.00000000000E+00 0. -1.
<scales pt_clust_5="13000.00000" pt_clust_6="13000.00000" pt_clust_7="13000.00000" pt_clust_8="13000.00000" pt_clust_9="95.11410"></scales>
<clustering>
<clus scale="   89.664">  5  6 -1 -1</clus>
<clus scale="   90.633">  7  8 -1 -1</clus>
<clus scale="   91.677">  1  5  2 -1</clus>
<clus scale="   95.114">  2  9  1 -1</clus>
<clus scale="   95.114">  2  5  1 -1</clus>
</clustering>
</event>
<event>
 9    1  0.1881049E-005  0.1106080E+03  0.7546771E-02  0.1260305E+00
          2   -1    0    0  502    0 -0.00000000000E+00  0.00000000000E+00  0.88846447774E+03  0.88846447774E+03  0.00000000000E+00 0. -1.
         21   -1    0    0  501  502  0.00000000000E+00 -0.00000000000E+00 -0.42450732505E+02  0.42450732505E+02  0.00000000000E+00 0. -1.
         23    2    1    2    0    0 -0.58567420836E+02  0.14288438109E+02  0.63272633327E+03  0.64188568640E+03  0.89667827855E+02 0.  0.
         23    2    1    2    0    0  0.78328241841E+02  0.41509477572E+02  0.10375728998E+03  0.16452753565E+03  0.91898773466E+02 0.  0.
        -11    1    4    4    0    0  0.21687548495E+02  0.13159480853E+02  0.97653491821E+02  0.10089462900E+03  0.00000000000E+00 0.  1.
         11    1    4    4    0    0  0.56640693347E+02  0.28349996720E+02  0.61037981587E+01  0.63632906650E+02  0.00000000000E+00 0. -1.
        -11    1    3    3    0    0 -0.81657019483E+02  0.20382489288E+02  0.48994179002E+03  0.49711796619E+03  0.00000000000E+00 0. -1.
         11    1    3    3    0    0  0.23089598647E+02 -0.60940511789E+01  0.14278454325E+03  0.14476772022E+03  0.00000000000E+00 0.  1.
          2    1    1    2  501    0 -0.19760821005E+02 -0.55797915681E+02  0.10953012199E+03  0.12450198819E+03  0.00000000000E+00 0. -1.
<scales pt_clust_5="13000.00000" pt_clust_6="13000.00000" pt_clust_7="13000.00000" pt_clust_8="13000.00000" pt_clust_9="59.19373"></scales>
<clustering>
<clus scale="   59.194">  2  9  1 -1</clus>
<clus scale="   89.668">  7  8 -1 -1</clus>
<clus scale="   91.899">  5  6 -1 -1</clus>
<clus scale="  108.761">  1  7  2 -1</clus>
<clus scale="   59.194">  2  5  1 -1</clus>
</clustering>
</event>
<event>
 9    1  0.1881049E-005  0.9604887E+02  0.7546771E-02  0.1289964E+00
         21   -1    0    0  501  502  0.00000000000E+00  0.00000000000E+00  0.53419889129E+02  0.53419889129E+02  0.00000000000E+00 0.  1.
          1   -1    0    0  502    0 -0.00000000000E+00 -0.00000000000E+00 -0.30852973969E+03  0.30852973969E+03  0.00000000000E+00 0. -1.
         23    2    1    2    0    0  0.60530900959E+01  0.10566375981E+02 -0.14807994754E+03  0.17381192563E+03  0.90192163885E+02 0.  0.
         23    2    1    2    0    0 -0.10785189942E+02 -0.55150553736E+02 -0.88307537453E+02  0.13955099053E+03  0.92294928827E+02 0.  0.
        -11    1    3    3    0    0  0.39821102293E+02 -0.58399762173E+01 -0.12101075256E+03  0.12752814492E+03  0.00000000000E+00 0. -1.
         11    1    3    3    0    0 -0.33768012197E+02  0.16406352198E+02 -0.27069194974E+02  0.46283780709E+02  0.00000000000E+00 0.  1.
        -11    1    4    4    0    0 -0.18265367113E+02 -0.78351315568E+02 -0.51913477689E+02  0.95747383529E+02  0.00000000000E+00 0.  1.
         11    1    4    4    0    0  0.74801771712E+01  0.23200761832E+02 -0.36394059764E+02  0.43803607000E+02  0.00000000000E+00 0. -1.
          1    1    1    2  501    0  0.47320998457E+01  0.44584177755E+02 -0.18722365574E+02  0.48586712667E+02  0.00000000000E+00 0. -1.
<scales pt_clust_5="13000.00000" pt_clust_6="13000.00000" pt_clust_7="13000.00000" pt_clust_8="13000.00000" pt_clust_9="44.83460"></scales>
<clustering>
<clus scale="   44.835">  1  9  2 -1</clus>
<clus scale="   90.192">  5  6 -1 -1</clus>
<clus scale="   92.295">  7  8 -1 -1</clus>
<clus scale="   94.030">  2  5  1 -1</clus>
<clus scale="   44.835">  1  5  2 -1</clus>
</clustering>
</event>
<event>
 9    1  0.1881049E-005  0.1818837E+03  0.7546771E-02  0.1166334E+00
         21   -1    0    0  501  502  0.00000000000E+00  0.00000000000E+00  0.59833739657E+02  0.59833739657E+02  0.00000000000E+00 0.  1.
          1   -1    0    0  502    0 -0.00000000000E+00 -0.00000000000E+00 -0.99883078308E+03  0.99883078308E+03  0.00000000000E+00 0. -1.
         23    2    1    2    0    0 -0.15277657751E+03  0.52824962224E+02 -0.79722683916E+03  0.81839977818E+03  0.89868818659E+02 0.  0.
         23    2    1    2    0    0  0.12791058615E+03 -0.50458724214E+02 -0.13639084132E+03  0.21471373373E+03  0.92694794668E+02 0.  0.
        -11    1    4    4    0    0  0.57053780160E+02 -0.51090416717E+01 -0.11411950250E+03  0.12768906370E+03  0.00000000000E+00 0. -1.
         11    1    4    4    0    0  0.70856805988E+02 -0.45349682543E+02 -0.22271338820E+02  0.87024670033E+02  0.00000000000E+00 0.  1.
        -13    1    3    3    0    0 -0.13224434055E+03  0.43014931253E+02 -0.77200432491E+03  0.78442942805E+03  0.00000000000E+00 0. -1.
         13    1    3    3    0    0 -0.20532236959E+02  0.98100309713E+01 -0.25222514258E+02  0.33970350126E+02  0.00000000000E+00 0.  1.
          1    1    1    2  501    0  0.24865991364E+02 -0.23662380097E+01 -0.53793629410E+01  0.25551010831E+02  0.00000000000E+00 0. -1.
<scales pt_clust_5="13000.00000" pt_clust_6="13000.00000" pt_clust_7="13000.00000" pt_clust_8="13000.00000" pt_clust_9="24.97832"></scales>
<clustering>
<clus scale="   24.978">  1  9  2 -1</clus>
<clus scale="   89.869">  7  8 -1 -1</clus>
<clus scale="   92.695">  5  6 -1 -1</clus>
<clus scale="  180.460">  2  7  1 -1</clus>
<clus scale="   24.978">  1  5  2 -1</clus>
</clustering>
</event>
<event>
 9    1  0.1881049E-005  0.9256056E+02  0.7546771E-02  0.1297912E+00
         21   -1    0    0  501  502  0.00000000000E+00  0.00000000000E+00  0.32764955289E+02  0.32764955289E+02  0.00000000000E+00 0.  1.
          2   -1    0    0  502    0 -0.00000000000E+00 -0.00000000000E+00 -0.49282417814E+03  0.49282417814E+03  0.00000000000E+00 0. -1.
         23    2    1    2    0    0  0.12923477866E+02  0.21486412919E+02 -0.29457716640E+03  0.30943182128E+03  0.91343652407E+02 0.  0.
         23    2    1    2    0    0  0.16124290167E+01 -0.69368010584E+00 -0.16836397961E+03  0.19062427849E+03  0.89376198177E+02 0.  0.
        -13    1    4    4    0    0 -0.55017907976E+01 -0.43285888226E+02 -0.61875067530E+02  0.75713022679E+02  0.00000000000E+00 0.  1.
         13    1    4    4    0    0  0.71142198143E+01  0.42592208120E+02 -0.10648891208E+03  0.11491125581E+03  0.00000000000E+00 0. -1.
        -13    1    3    3    0    0 -0.38435764995E+02  0.18741610101E+02 -0.15013021926E+03  0.15610137320E+03  0.00000000000E+00 0.  1.
         13    1    3    3    0    0  0.51359242861E+02  0.27448028176E+01 -0.14444694714E+03  0.15333044808E+03  0.00000000000E+00 0. -1.
          2    1    1    2  501    0 -0.14535906882E+02 -0.20792732813E+02  0.28819231601E+01  0.25533033659E+02  0.00000000000E+00 0. -1.
<scales pt_clust_5="13000.00000" pt_clust_6="13000.00000" pt_clust_7="13000.00000" pt_clust_8="13000.00000" pt_clust_9="25.36987"></scales>
<clustering>
<clus scale="   25.370">  1  9  2 -1</clus>
<clus scale="   89.376">  5  6 -1 -1</clus>
<clus scale="   90.620">  1  5  2 -1</clus>
<clus scale="   91.344">  7  8 -1 -1</clus>
<clus scale="   25.370">  1  5  2 -1</clus>
</clustering>
</event>
<event>
 9    1  0.1881049E-005  0.1175871E+03  0.7546771E-02  0.1250881E+00
         -1   -1    0    0    0  501 -0.00000000000E+00  0.00000000000E+00  0.36198308059E+03  0.36198308059E+03  0.00000000000E+00 0.  1.
         21   -1    0    0  501  502  0.00000000000E+00 -0.00000000000E+00 -0.11469493844E+03  0.11469493844E+03  0.00000000000E+00 0.  1.
         23    2    1    2    0    0  0.61368880156E+02 -0.16503745586E+02  0.27547196915E+03  0.29704803747E+03  0.91182332213E+02 0.  0.
         23    2    1    2    0    0 -0.28212918547E+02  0.49220502593E+02  0.13911070672E+02  0.11684714641E+03  0.10119837493E+03 0.  0.
        -11    1    3    3    0    0  0.60605747692E+02  0.16139334953E+02  0.24313282484E+03  0.25109182644E+03  0.00000000000E+00 0.  1.
         11    1    3    3    0    0  0.76313246376E+00 -0.32643080539E+02  0.32339144304E+02  0.45956211034E+02  0.00000000000E+00 0. -1.
        -13    1    4    4    0    0  0.27699224305E+02 -0.11518959021E+02  0.16526588327E+02  0.34249986361E+02  0.00000000000E+00 0.  1.
         13    1    4    4    0    0 -0.55912142851E+02  0.60739461614E+02 -0.26155176546E+01  0.82597160048E+02  0.00000000000E+00 0. -1.
         -1    1    1    2    0  502 -0.33155961609E+02 -0.32716757007E+02 -0.42094897669E+02  0.62782835147E+02  0.00000000000E+00 0.  1.
<scales pt_clust_5="13000.00000" pt_clust_6="13000.00000" pt_clust_7="13000.00000" pt_clust_8="13000.00000" pt_clust_9="46.58008"></scales>
<clustering>
<clus scale="   46.580">  2  9  1 -1</clus>
<clus scale="   91.182">  5  6 -1 -1</clus>
<clus scale="  101.198">  7  8 -1 -1</clus>
<clus scale="  109.086">  1  5  2 -1</clus>
<clus scale="   46.580">  2  5  1 -1</clus>
</clustering>
</event>
<event>
 9    1  0.1881049E-005  0.1106084E+03  0.7546771E-02  0.1262357E+00
         21   -1    0    0  501  502  0.00000000000E+00  0.00000000000E+00  0.49825480865E+02  0.49825480865E+02  0.00000000000E+00 0.  1.
          1   -1    0    0  502    0 -0.00000000000E+00 -0.00000000000E+00 -0.10050296367E+04  0.10050296367E+04  0.00000000000E+00 0. -1.
         23    2    1    2    0    0 -0.28291701612E+02 -0.25316345173E+02 -0.38878875372E+03  0.40156422442E+03  0.93036517563E+02 0.  0.
         23    2    1    2    0    0  0.10302823197E+03 -0.33516521603E+02 -0.53588611839E+03  0.55339648714E+03  0.85647920481E+02 0.  0.
        -11    1    4    4    0    0  0.86120305426E+02  0.14130308829E+02 -0.35594489663E+03  0.36648757424E+03  0.00000000000E+00 0.  1.
         11    1    4    4    0    0  0.16907926545E+02 -0.47646830432E+02 -0.17994122177E+03  0.18690891290E+03  0.00000000000E+00 0. -1.
        -13    1    3    3    0    0 -0.14154681985E+02  0.34012887476E+02 -0.19340296744E+03  0.19688052050E+03  0.00000000000E+00 0.  1.
         13    1    3    3    0    0 -0.14137019628E+02 -0.59329232649E+02 -0.19538578628E+03  0.20468370392E+03  0.00000000000E+00 0. -1.
          1    1    1    2  501    0 -0.74736530359E+02  0.58832866776E+02 -0.30529283686E+02  0.99894405977E+02  0.00000000000E+00 0. -1.
<scales pt_clust_5="13000.00000" pt_clust_6="13000.00000" pt_clust_7="13000.00000" pt_clust_8="13000.00000" pt_clust_9="95.11496"></scales>
<clustering>
<clus scale="   85.648">  5  6 -1 -1</clus>
<clus scale="   93.037">  7  8 -1 -1</clus>
<clus scale="   95.115">  1  9  2 -1</clus>
<clus scale="  104.470">  1  5  2 -1</clus>
<clus scale="   95.115">  1  5  2 -1</clus>
</clustering>
</event>
<event>
 9    1  0.1881049E-005  0.9605934E+02  0.7546771E-02  0.1288975E+00
          2   -1    0    0  502    0 -0.00000000000E+00  0.00000000000E+00  0.90658634406E+03  0.90658634406E+03  0.00000000000E+00 0. -1.
         21   -1    0    0  501  502  0.00000000000E+00 -0.00000000000E+00 -0.43277874189E+02  0.43277874189E+02  0.00000000000E+00 0. -1.
         23    2    1    2    0    0 -0.42118237621E+02 -0.15231297705E+01  0.52925051611E+03  0.53849008059E+03  0.89939936748E+02 0.  0.
         23    2    1    2    0    0  0.20517141998E+02  0.79034593912E+01  0.36300099433E+03  0.37469968422E+03  0.90259147378E+02 0.  0.
        -13    1    3    3    0    0  0.27798025839E+02  0.74987098430E+01  0.14685259370E+03  0.14964840516E+03  0.00000000000E+00 0.  1.
         13    1    3    3    0    0 -0.69916263460E+02 -0.90218396136E+01  0.38239792241E+03  0.38884167543E+03  0.00000000000E+00 0. -1.
        -13    1    4    4    0    0  0.14303983827E+02  0.49148717858E+02  0.19998580538E+03  0.20643285294E+03  0.00000000000E+00 0.  1.
         13    1    4    4    0    0  0.62131581710E+01 -0.41245258467E+02  0.16301518895E+03  0.16826683128E+03  0.00000000000E+00 0. -1.
          2    1    1    2  501    0  0.21601095623E+02 -0.63803296207E+01 -0.28943040567E+02  0.36674453444E+02  0.00000000000E+00 0. -1.
<scales pt_clust_5="13000.00000" pt_clust_6="13000.00000" pt_clust_7="13000.00000" pt_clust_8="13000.00000" pt_clust_9="22.52368"></scales>
<clustering>
<clus scale="   22.524">  2  9  1 -1</clus>
<clus scale="   89.940">  5  6 -1 -1</clus>
<clus scale="   90.259">  7  8 -1 -1</clus>
<clus scale="   95.759">  1  5  2 -1</clus>
<clus scale="   22.524">  2  5  1 -1</clus>
</clustering>
</event>
<event>
 9    1  0.1881049E-005  0.1056389E+03  0.7546771E-02  0.1269374E+00
          1   -1    0    0  502    0 -0.00000000000E+00  0.00000000000E+00  0.22017164815E+03  0.22017164815E+03  0.00000000000E+00 0. -1.
         21   -1    0    0  501  502  0.00000000000E+00 -0.00000000000E+00 -0.17512189436E+03  0.17512189436E+03  0.00000000000E+00 0.  1.
         23    2    1    2    0    0  0.53782143552E+02 -0.34595483630E+01  0.14461391564E+03  0.17924780504E+03  0.91170738603E+02 0.  0.
         23    2    1    2    0    0 -0.50786221049E+02 -0.34340950777E+02  0.67372104404E+00  0.10887537563E+03  0.89971397514E+02 0.  0.
        -11    1    4    4    0    0 -0.61567007382E+02 -0.99248422030E+01 -0.29162136788E+02  0.68843511770E+02  0.00000000000E+00 0.  1.
         11    1    4    4    0    0  0.10780786333E+02 -0.24416108574E+02  0.29835857832E+02  0.40031863864E+02  0.00000000000E+00 0. -1.
        -13    1    3    3    0    0  0.20027519611E+02  0.41635997560E+02  0.43265244211E+02  0.63297228939E+02  0.00000000000E+00 0. -1.
         13    1    3    3    0    0  0.33754623941E+02 -0.45095545923E+02  0.10134867143E+03  0.11595057611E+03  0.00000000000E+00 0.  1.
          1    1    1    2  501    0 -0.29959225029E+01  0.37800499140E+02 -0.10023788290E+03  0.10717036183E+03  0.00000000000E+00 0. -1.
<scales pt_clust_5="13000.00000" pt_clust_6="13000.00000" pt_clust_7="13000.00000" pt_clust_8="13000.00000" pt_clust_9="37.91904"></scales>
<clustering>
<clus scale="   37.919">  2  9  1 -1</clus>
<clus scale="   89.971">  5  6 -1 -1</clus>
<clus scale="   91.171">  7  8 -1 -1</clus>
<clus scale="  104.606">  2  5  1 -1</clus>
<clus scale="   37.919">  2  5  1 -1</clus>
</clustering>
</event>
<event>
 9    1  0.1881049E-005  0.2361496E+03  0.7546771E-02  0.1122590E+00
         21   -1    0    0  501  502  0.00000000000E+00  0.00000000000E+00  0.82754337383E+02  0.82754337383E+02  0.00000000000E+00 0. -1.
          1   -1    0    0  502    0 -0.00000000000E+00 -0.00000000000E+00 -0.17181412367E+04  0.17181412367E+04  0.00000000000E+00 0. -1.
         23    2    1    2    0    0 -0.14230970847E+03 -0.11851942861E+03 -0.78105048640E+03  0.80789940996E+03  0.91447723999E+02 0.  0.
         23    2    1    2    0    0  0.14955774109E+03  0.26303794243E+03 -0.75107286162E+03  0.81522806844E+03  0.94498058369E+02 0.  0.
        -11    1    3    3    0    0 -0.55430728200E+02 -0.76644619992E+02 -0.54087282556E+03  0.54908139363E+03  0.00000000000E+00 0.  1.
         11    1    3    3    0    0 -0.86878980270E+02 -0.41874808616E+02 -0.24017766083E+03  0.25881801632E+03  0.00000000000E+00 0. -1.
        -11    1    4    4    0    0  0.15395905311E+03  0.21338408227E+03 -0.57712761078E+03  0.63428103845E+03  0.00000000000E+00 0.  1.
         11    1    4    4    0    0 -0.44013120215E+01  0.49653860157E+02 -0.17394525083E+03  0.18094702999E+03  0.00000000000E+00 0. -1.
          1    1    1    2  501    0 -0.72480326226E+01 -0.14451851382E+03 -0.10326355129E+03  0.17776809567E+03  0.00000000000E+00 0. -1.
<scales pt_clust_5="13000.00000" pt_clust_6="13000.00000" pt_clust_7="13000.00000" pt_clust_8="13000.00000" pt_clust_9="144.70015"></scales>
<clustering>
<clus scale="   91.448">  5  6 -1 -1</clus>
<clus scale="   94.498">  7  8 -1 -1</clus>
<clus scale="  144.700">  1  9  2 -1</clus>
<clus scale="  234.946">  2  5  1 -1</clus>
<clus scale="  144.700">  1  5  2 -1</clus>
</clustering>
</event>
<event>
 9    1  0.1881049E-005  0.1064092E+03  0.7546771E-02  0.1267540E+00
         21   -1    0    0  501  502  0.00000000000E+00  0.00000000000E+00  0.73992955190E+02  0.73992955190E+02  0.00000000000E+00 0.  1.
          2   -1    0    0  502    0 -0.00000000000E+00 -0.00000000000E+00 -0.22027040508E+03  0.22027040508E+03  0.00000000000E+00 0. -1.
         23    2    1    2    0    0 -0.43186586008E+01  0.58251541114E+02 -0.11978150315E+03  0.16187524265E+03  0.91891745182E+02 0.  0.
         23    2    1    2    0    0 -0.13402334678E+02 -0.45490953868E+02 -0.35187322216E+02  0.10888479450E+03  0.91480606527E+02 0.  0.
        -11    1    4    4    0    0  0.20631652666E+02 -0.51516548782E+02  0.51877312937E+01  0.55736275854E+02  0.00000000000E+00 0.  1.
         11    1    4    4    0    0 -0.34033987344E+02  0.60255949136E+01 -0.40375053510E+02  0.53148518648E+02  0.00000000000E+00 0. -1.
        -13    1    3    3    0    0  0.64830484897E+01 -0.23637924240E+02 -0.16148842091E+02  0.29352452725E+02  0.00000000000E+00 0.  1.
         13    1    3    3    0    0 -0.10801707090E+02  0.81889465354E+02 -0.10363266106E+03  0.13252278993E+03  0.00000000000E+00 0. -1.
          2    1    1    2  501    0  0.17720993279E+02 -0.12760587246E+02  0.86913754776E+01  0.23503323113E+02  0.00000000000E+00 0. -1.
<scales pt_clust_5="13000.00000" pt_clust_6="13000.00000" pt_clust_7="13000.00000" pt_clust_8="13000.00000" pt_clust_9="21.83727"></scales>
<clustering>
<clus scale="   21.837">  1  9  2 -1</clus>
<clus scale="   91.481">  5  6 -1 -1</clus>
<clus scale="   91.892">  7  8 -1 -1</clus>
<clus scale="  106.054">  1  5  2 -1</clus>
<clus scale="   21.837">  1  5  2 -1</clus>
</clustering>
</event>
<event>
 9    1  0.1881049E-005  0.1440934E+03  0.7546771E-02  0.1216146E+00
         21   -1    0    0  501  502  0.00000000000E+00  0.00000000000E+00  0.12532882698E+03  0.12532882698E+03  0.00000000000E+00 0. -1.
          4   -1    0    0  502    0 -0.00000000000E+00 -0.00000000000E+00 -0.52396905821E+03  0.52396905821E+03  0.00000000000E+00 0. -1.
         23    2    1    2    0    0  0.23094808692E+02 -0.80791204152E+02 -0.27876224755E+03  0.31547134514E+03  0.12146271068E+03 0.  0.
         23    2    1    2    0    0 -0.60579068878E+00  0.73330190160E+02 -0.20978307665E+03  0.24085155200E+03  0.92859286464E+02 0.  0.
        -11    1    4    4    0    0  0.26291335198E+02  0.37827973835E+02 -0.18337026116E+03  0.18906835427E+03  0.00000000000E+00 0. -1.
         11    1    4    4    0    0 -0.26897125887E+02  0.35502216325E+02 -0.26412815495E+02  0.51783197731E+02  0.00000000000E+00 0.  1.
        -11    1    3    3    0    0 -0.20420278166E+02  0.54908973541E+01 -0.76715156644E+00  0.21159542426E+02  0.00000000000E+00 0.  1.
         11    1    3    3    0    0  0.43515086858E+02 -0.86282101506E+02 -0.27799509598E+03  0.29431180271E+03  0.00000000000E+00 0. -1.
          4    1    1    2  501    0 -0.22489018003E+02  0.74610139921E+01  0.89905092968E+02  0.92974988046E+02  0.00000000000E+00 0. -1.
<scales pt_clust_5="13000.00000" pt_clust_6="13000.00000" pt_clust_7="13000.00000" pt_clust_8="13000.00000" pt_clust_9="23.69436"></scales>
<clustering>
<clus scale="   23.694">  1  9  2 -1</clus>
<clus scale="   92.859">  5  6 -1 -1</clus>
<clus scale="  120.965">  1  5  2 -1</clus>
<clus scale="  121.463">  7  8 -1 -1</clus>
<clus scale="   23.694">  1  5  2 -1</clus>
</clustering>
</event>
<event>
 9    1  0.1881049E-005  0.1355506E+03  0.7546771E-02  0.1219641E+00
         -1   -1    0    0    0  501 -0.00000000000E+00  0.00000000000E+00  0.12574884773E+03  0.12574884773E+03  0.00000000000E+00 0.  1.
         21   -1    0    0  501  502  0.00000000000E+00 -0.00000000000E+00 -0.19359314971E+03  0.19359314971E+03  0.00000000000E+00 0. -1.
         23    2    1    2    0    0  0.43799024976E+02 -0.10510591315E+03 -0.22928583332E+01  0.14521872744E+03  0.90097802594E+02 0.  0.
         23    2    1    2    0    0 -0.41292768781E+02  0.75700439346E+02 -0.31801957554E+02  0.12929034659E+03  0.90933931760E+02 0.  0.
        -11    1    4    4    0    0  0.22290798472E+02 -0.47295179970E+01 -0.61714691888E+01  0.23607945039E+02  0.00000000000E+00 0. -1.
         11    1    4    4    0    0 -0.63583567253E+02  0.80429957343E+02 -0.25630488366E+02  0.10568240155E+03  0.00000000000E+00 0.  1.
        -13    1    3    3    0    0 -0.26808728690E+02 -0.38980251346E+02  0.78322797788E+01  0.47953232795E+02  0.00000000000E+00 0.  1.
         13    1    3    3    0    0  0.70607753667E+02 -0.66125661806E+02 -0.10125138112E+02  0.97265494647E+02  0.00000000000E+00 0. -1.
         -1    1    1    2    0  502 -0.25062561953E+01  0.29405473806E+02 -0.33749486092E+02  0.44832923408E+02  0.00000000000E+00 0.  1.
<scales pt_clust_5="13000.00000" pt_clust_6="13000.00000" pt_clust_7="13000.00000" pt_clust_8="13000.00000" pt_clust_9="29.51209"></scales>
<clustering>
<clus scale="   29.512">  2  9  1 -1</clus>
<clus scale="   90.098">  7  8 -1 -1</clus>
<clus scale="   90.934">  5  6 -1 -1</clus>
<clus scale="  134.991">  1  7  2 -1</clus>
<clus scale="   29.512">  2  5  1 -1</clus>
</clustering>
</event>
<event>
 9    1  0.1881049E-005  0.1116452E+03  0.7546771E-02  0.1257614E+00
         21   -1    0    0  501  502  0.00000000000E+00  0.00000000000E+00  0.30428690933E+03  0.30428690933E+03  0.00000000000E+00 0.  1.
          1   -1    0    0  502    0 -0.00000000000E+00 -0.00000000000E+00 -0.23555261834E+03  0.23555261834E+03  0.00000000000E+00 0. -1.
         23    2    1    2    0    0  0.12625714291E+01 -0.59297219901E+02 -0.16973401481E+03  0.20160469788E+03  0.91197938842E+02 0.  0.
         23    2    1    2    0    0 -0.33209622533E+02  0.90945447672E+02  0.46402997520E+02  0.14097533815E+03  0.91361120323E+02 0.  0.
        -11    1    4    4    0    0 -0.18244735104E+02  0.10616041176E+03  0.50944436242E+02  0.11915636353E+03  0.00000000000E+00 0.  1.
         11    1    4    4    0    0 -0.14964887429E+02 -0.15214964090E+02 -0.45414387225E+01  0.21818974625E+02  0.00000000000E+00 0. -1.
        -13    1    3    3    0    0 -0.19522573381E+01 -0.81558968243E+02 -0.15360845697E+03  0.17392882068E+03  0.00000000000E+00 0. -1.
         13    1    3    3    0    0  0.32148287672E+01  0.22261748343E+02 -0.16125557842E+02  0.27675877203E+02  0.00000000000E+00 0.  1.
          1    1    1    2  501    0  0.31947051104E+02 -0.31648227772E+02  0.19206530828E+03  0.19725949163E+03  0.00000000000E+00 0. -1.
<scales pt_clust_5="13000.00000" pt_clust_6="13000.00000" pt_clust_7="13000.00000" pt_clust_8="13000.00000" pt_clust_9="44.96915"></scales>
<clustering>
<clus scale="   44.969">  1  9  2 -1</clus>
<clus scale="   91.198">  7  8 -1 -1</clus>
<clus scale="   91.361">  5  6 -1 -1</clus>
<clus scale="  111.512">  2  7  1 -1</clus>
<clus scale="   44.969">  1  5  2 -1</clus>
</clustering>
</event>
<event>
 9    1  0.1881049E-005  0.1463114E+03  0.7546771E-02  0.1222006E+00
         21   -1    0    0  501  502  0.00000000000E+00  0.00000000000E+00  0.26437295196E+03  0.26437295196E+03  0.00000000000E+00 0. -1.
          1   -1    0    0  502    0 -0.00000000000E+00 -0.00000000000E+00 -0.40915286044E+03  0.40915286044E+03  0.00000000000E+00 0. -1.
         23    2    1    2    0    0 -0.16329822068E+01  0.47284224094E+02 -0.25454135235E+03  0.27427354441E+03  0.90532936710E+02 0.  0.
         23    2    1    2    0    0 -0.10884551334E+03 -0.67038908098E+02 -0.81271678758E+02  0.17769099101E+03  0.92884022018E+02 0.  0.
        -11    1    3    3    0    0  0.28349317750E+02  0.13921882151E+02 -0.24696173085E+02  0.40092437997E+02  0.00000000000E+00 0.  1.
         11    1    3    3    0    0 -0.29982299957E+02  0.33362341943E+02 -0.22984517926E+03  0.23418110641E+03  0.00000000000E+00 0. -1.
        -11    1    4    4    0    0  0.12770620463E+02 -0.22651853416E+02 -0.26472393623E+02  0.37107719336E+02  0.00000000000E+00 0.  1.
         11    1    4    4    0    0 -0.12161613380E+03 -0.44387054682E+02 -0.54799285135E+02  0.14058327168E+03  0.00000000000E+00 0. -1.
          1    1    1    2  501    0  0.11047849555E+03  0.19754684005E+02  0.19103312262E+03  0.22156127698E+03  0.00000000000E+00 0. -1.
<scales pt_clust_5="13000.00000" pt_clust_6="13000.00000" pt_clust_7="13000.00000" pt_clust_8="13000.00000" pt_clust_9="113.04688"></scales>
<clustering>
<clus scale="   90.533">  5  6 -1 -1</clus>
<clus scale="   92.884">  7  8 -1 -1</clus>
<clus scale="  102.150">  2  5  1 -1</clus>
<clus scale="  113.047">  1  9  2 -1</clus>
<clus scale="  113.047">  1  5  2 -1</clus>
</clustering>
</event>
<event>
 9    1  0.1881049E-005  0.9996506E+02  0.7546771E-02  0.1281333E+00
         21   -1    0    0  501  502  0.00000000000E+00  0.00000000000E+00  0.33788731030E+02  0.33788731030E+02  0.00000000000E+00 0.  1.
          1   -1    0    0  502    0 -0.00000000000E+00 -0.00000000000E+00 -0.64548687455E+03  0.64548687455E+03  0.00000000000E+00 0. -1.
         23    2    1    2    0    0 -0.75816430318E+01 -0.29805537962E+02 -0.29013143136E+03  0.30616951271E+03  0.92831415199E+02 0.  0.
         23    2    1    2    0    0  0.32772676256E+02  0.48703183652E+02 -0.93844085026E+02  0.14321632781E+03  0.90874396014E+02 0.  0.
        -11    1    3    3    0    0  0.17730802441E+02 -0.57515183398E+02 -0.18453567705E+03  0.19410253419E+03  0.00000000000E+00 0. -1.
         11    1    3    3    0    0 -0.25312445472E+02  0.27709645436E+02 -0.10559575431E+03  0.11206697852E+03  0.00000000000E+00 0.  1.
        -13    1    4    4    0    0 -0.20277870032E+02 -0.14969317447E+02 -0.19268674381E+02  0.31726239775E+02  0.00000000000E+00 0. -1.
         13    1    4    4    0    0  0.53050546289E+02  0.63672501099E+02 -0.74575410645E+02  0.11149008804E+03  0.00000000000E+00 0.  1.
          1    1    1    2  501    0 -0.25191033224E+02 -0.18897645690E+02 -0.22772262713E+03  0.22988976505E+03  0.00000000000E+00 0. -1.
<scales pt_clust_5="13000.00000" pt_clust_6="13000.00000" pt_clust_7="13000.00000" pt_clust_8="13000.00000" pt_clust_9="31.49143"></scales>
<clustering>
<clus scale="   31.491">  1  9  2 -1</clus>
<clus scale="   90.874">  7  8 -1 -1</clus>
<clus scale="   92.831">  5  6 -1 -1</clus>
<clus scale="   98.150">  1  7  2 -1</clus>
<clus scale="   31.491">  1  5  2 -1</clus>
</clustering>
</event>
<event>
 9    1  0.1881049E-005  0.9317947E+02  0.7546771E-02  0.1295994E+00
         -1   -1    0    0    0  501 -0.00000000000E+00  0.00000000000E+00  0.76388943994E+03  0.76388943994E+03  0.00000000000E+00 0.  1.
         21   -1    0    0  501  502  0.00000000000E+00 -0.00000000000E+00 -0.20122155414E+02  0.20122155414E+02  0.00000000000E+00 0. -1.
         23    2    1    2    0    0  0.16495356887E+02 -0.25721752423E+01  0.47783228519E+03  0.48693181859E+03  0.92196476584E+02 0.  0.
         23    2    1    2    0    0 -0.34610160318E+01 -0.14540954620E+02  0.12975748863E+03  0.15921365447E+03  0.91041550527E+02 0.  0.
        -11    1    4    4    0    0 -0.29131205566E+02  0.27069941390E+02  0.80629537345E+02  0.89902898491E+02  0.00000000000E+00 0.  1.
         11    1    4    4    0    0  0.25670189535E+02 -0.41610896010E+02  0.49127951285E+02  0.69310755984E+02  0.00000000000E+00 0. -1.
        -11    1    3    3    0    0  0.53405019952E+02 -0.12885830922E+02  0.25803159733E+03  0.26381517397E+03  0.00000000000E+00 0.  1.
         11    1    3    3    0    0 -0.36909663065E+02  0.10313655680E+02  0.21980068786E+03  0.22311664462E+03  0.00000000000E+00 0. -1.
         -1    1    1    2    0  502 -0.13034340856E+02  0.17113129862E+02  0.13617751071E+03  0.13786612230E+03  0.00000000000E+00 0.  1.
<scales pt_clust_5="13000.00000" pt_clust_6="13000.00000" pt_clust_7="13000.00000" pt_clust_8="13000.00000" pt_clust_9="21.51171"></scales>
<clustering>
<clus scale="   21.512">  2  9  1 -1</clus>
<clus scale="   91.042">  5  6 -1 -1</clus>
<clus scale="   92.037">  2  5  1 -1</clus>
<clus scale="   92.196">  7  8 -1 -1</clus>
<clus scale="   21.512">  2  5  1 -1</clus>
</clustering>
</event>
<event>
 9    1  0.1881049E-005  0.1138035E+03  0.7546771E-02  0.1254424E+00
         -3   -1    0    0    0  501 -0.00000000000E+00  0.00000000000E+00  0.49165710316E+02  0.49165710316E+02  0.00000000000E+00 0.  1.
         21   -1    0    0  501  502  0.00000000000E+00 -0.00000000000E+00 -0.40075877561E+03  0.40075877561E+03  0.00000000000E+00 0.  1.
         23    2    1    2    0    0 -0.53300103938E+02 -0.53793048862E+02 -0.10095180804E+03  0.15565579715E+03  0.91120066143E+02 0.  0.
         23    2    1    2    0    0  0.84877848078E+01  0.56288859970E+02 -0.18310126695E+03  0.21317600533E+03  0.93152869202E+02 0.  0.
        -11    1    3    3    0    0 -0.97635102817E+01 -0.45177834075E+02 -0.93025048418E+00  0.46230165376E+02  0.00000000000E+00 0.  1.
         11    1    3    3    0    0 -0.43536593657E+02 -0.86152147867E+01 -0.10002155755E+03  0.10942563177E+03  0.00000000000E+00 0. -1.
        -13    1    4    4    0    0  0.15502037233E+02 -0.21194725023E+02 -0.21940053403E+02  0.34218349909E+02  0.00000000000E+00 0. -1.
         13    1    4    4    0    0 -0.70142524248E+01  0.77483584993E+02 -0.16116121355E+03  0.17895765542E+03  0.00000000000E+00 0.  1.
         -3    1    1    2    0  502  0.44812319130E+02 -0.24958111080E+01 -0.67539990308E+02  0.81092683453E+02  0.00000000000E+00 0.  1.
<scales pt_clust_5="13000.00000" pt_clust_6="13000.00000" pt_clust_7="13000.00000" pt_clust_8="13000.00000" pt_clust_9="44.88177"></scales>
<clustering>
<clus scale="   44.882">  2  9  1 -1</clus>
<clus scale="   91.120">  5  6 -1 -1</clus>
<clus scale="   93.153">  7  8 -1 -1</clus>
<clus scale="  112.146">  1  5  2 -1</clus>
<clus scale="   44.882">  2  5  1 -1</clus>
</clustering>
</event>
<event>
 9    1  0.1881049E-005  0.1051406E+03  0.7546771E-02  0.1271974E+00
         21   -1    0    0  501  502  0.00000000000E+00  0.00000000000E+00  0.24624660263E+03  0.24624660263E+03  0.00000000000E+00 0.  1.
          1   -1    0    0  502    0 -0.00000000000E+00 -0.00000000000E+00 -0.15361744614E+03  0.15361744614E+03  0.00000000000E+00 0. -1.
         23    2    1    2    0    0  0.37897881905E+02  0.31633261287E+02 -0.86462400320E+02  0.13802814293E+03  0.95598686700E+02 0.  0.
         23    2    1    2    0    0  0.34194084544E+02 -0.56444543735E+02  0.85839250790E+02  0.14138324318E+03  0.90915469202E+02 0.  0.
        -11    1    3    3    0    0  0.46120620834E+02 -0.21167110276E+02 -0.24954537343E+02  0.56549864346E+02  0.00000000000E+00 0.  1.
         11    1    3    3    0    0 -0.82227389290E+01  0.52800371564E+02 -0.61507862977E+02  0.81478278583E+02  0.00000000000E+00 0. -1.
        -13    1    4    4    0    0  0.61042396509E+02 -0.51951443853E+02  0.43919764580E+02  0.91400614936E+02  0.00000000000E+00 0.  1.
         13    1    4    4    0    0 -0.26848311965E+02 -0.44930998824E+01  0.41919486210E+02  0.49982628243E+02  0.00000000000E+00 0. -1.
          1    1    1    2  501    0 -0.72091966449E+02  0.24811282448E+02  0.93252306028E+02  0.12045266266E+03  0.00000000000E+00 0. -1.
<scales pt_clust_5="13000.00000" pt_clust_6="13000.00000" pt_clust_7="13000.00000" pt_clust_8="13000.00000" pt_clust_9="76.24206"></scales>
<clustering>
<clus scale="   76.242">  1  9  2 -1</clus>
<clus scale="   90.915">  7  8 -1 -1</clus>
<clus scale="   95.599">  5  6 -1 -1</clus>
<clus scale="  100.901">  1  7  2 -1</clus>
<clus scale="   76.242">  1  5  2 -1</clus>
</clustering>
</event>
<event>
 9    1  0.1881049E-005  0.9592717E+02  0.7546771E-02  0.1289218E+00
         -1   -1    0    0    0  501 -0.00000000000E+00  0.00000000000E+00  0.11266854244E+03  0.11266854244E+03  0.00000000000E+00 0.  1.
         21   -1    0    0  501  502  0.00000000000E+00 -0.00000000000E+00 -0.12173855258E+03  0.12173855258E+03  0.00000000000E+00 0. -1.
         23    2    1    2    0    0  0.20128351592E+02 -0.36703457668E+02  0.27195363455E+02  0.10326496474E+03  0.90397847352E+02 0.  0.
         23    2    1    2    0    0 -0.10503665798E+02  0.14704981366E+02 -0.61253253662E+01  0.92606561730E+02  0.90619491240E+02 0.  0.
        -11    1    4    4    0    0 -0.44955019342E+01 -0.37847788462E+02  0.53315255359E+01  0.38484929436E+02  0.00000000000E+00 0.  1.
         11    1    4    4    0    0 -0.60081638635E+01  0.52552769828E+02 -0.11456850902E+02  0.54121632295E+02  0.00000000000E+00 0. -1.
        -11    1    3    3    0    0  0.54225086483E+02 -0.18133579926E+02  0.29562749479E+02  0.64367250071E+02  0.00000000000E+00 0.  1.
         11    1    3    3    0    0 -0.34096734891E+02 -0.18569877743E+02 -0.23673860235E+01  0.38897714665E+02  0.00000000000E+00 0. -1.
         -1    1    1    2    0  502 -0.96246857945E+01  0.21998476302E+02 -0.30140048229E+02  0.38535568550E+02  0.00000000000E+00 0.  1.
<scales pt_clust_5="13000.00000" pt_clust_6="13000.00000" pt_clust_7="13000.00000" pt_clust_8="13000.00000" pt_clust_9="24.01182"></scales>
<clustering>
<clus scale="   24.012">  2  9  1 -1</clus>
<clus scale="   90.398">  7  8 -1 -1</clus>
<clus scale="   90.619">  5  6 -1 -1</clus>
<clus scale="   95.718">  1  7  2 -1</clus>
<clus scale="   24.012">  2  5  1 -1</clus>
</clustering>
</event>
<event>
 9    1  0.1881049E-005  0.1022224E+03  0.7546771E-02  0.1276595E+00
         21   -1    0    0  501  502  0.00000000000E+00  0.00000000000E+00  0.10085831278E+03  0.10085831278E+03  0.00000000000E+00 0. -1.
          2   -1    0    0  502    0 -0.00000000000E+00 -0.00000000000E+00 -0.22178682102E+03  0.22178682102E+03  0.00000000000E+00 0. -1.
         23    2    1    2    0    0  0.32258275681E+02  0.34404165480E+02 -0.93374974187E+02  0.13950701764E+03  0.92298858136E+02 0.  0.
         23    2    1    2    0    0  0.14445680473E+02 -0.52535048936E+02 -0.61964953873E+02  0.12235872599E+03  0.90351498415E+02 0.  0.
        -11    1    3    3    0    0 -0.27034855358E+02 -0.57967433036E+01 -0.95738428397E+01  0.29259940258E+02  0.00000000000E+00 0.  1.
         11    1    3    3    0    0  0.59293131040E+02  0.40200908784E+02 -0.83801131347E+02  0.11024707738E+03  0.00000000000E+00 0. -1.
        -13    1    4    4    0    0 -0.20994892609E+02 -0.13756226712E+02  0.14949978121E+02  0.29215084030E+02  0.00000000000E+00 0.  1.
         13    1    4    4    0    0  0.35440573083E+02 -0.38778822224E+02 -0.76914931994E+02  0.93143641958E+02  0.00000000000E+00 0. -1.
          2    1    1    2  501    0 -0.46703956155E+02  0.18130883456E+02  0.34411419824E+02  0.60779390172E+02  0.00000000000E+00 0. -1.
<scales pt_clust_5="13000.00000" pt_clust_6="13000.00000" pt_clust_7="13000.00000" pt_clust_8="13000.00000" pt_clust_9="50.09978"></scales>
<clustering>
<clus scale="   50.100">  1  9  2 -1</clus>
<clus scale="   90.351">  7  8 -1 -1</clus>
<clus scale="   92.299">  5  6 -1 -1</clus>
<clus scale="  100.468">  1  7  2 -1</clus>
<clus scale="   50.100">  1  5  2 -1</clus>
</clustering>
</event>
<event>
 9    1  0.1881049E-005  0.1049449E+03  0.7546771E-02  0.1273407E+00
         -1   -1    0    0    0  501 -0.00000000000E+00  0.00000000000E+00  0.18306994400E+03  0.18306994400E+03  0.00000000000E+00 0.  1.
         21   -1    0    0  501  502  0.00000000000E+00 -0.00000000000E+00 -0.10386556015E+03  0.10386556015E+03  0.00000000000E+00 0.  1.
         23    2    1    2    0    0  0.35556081967E+02 -0.48665344819E+02  0.70534330231E+02  0.12889610436E+03  0.89479401135E+02 0.  0.
         23    2    1    2    0    0 -0.19455459810E+02 -0.62954014925E+01 -0.68478512999E+01  0.98703752476E+02  0.96319212461E+02 0.  0.
        -11    1    3    3    0    0  0.62050205234E+02 -0.47831779267E+02  0.65041248653E+02  0.10182568980E+03  0.00000000000E+00 0.  1.
         11    1    3    3    0    0 -0.26494123267E+02 -0.83356555258E+00  0.54930815781E+01  0.27070414560E+02  0.00000000000E+00 0. -1.
        -13    1    4    4    0    0 -0.39686686161E+02 -0.25483015312E+02 -0.35266243327E+02  0.58890789146E+02  0.00000000000E+00 0.  1.
         13    1    4    4    0    0  0.20231226351E+02  0.19187613819E+02  0.28418392027E+02  0.39812963330E+02  0.00000000000E+00 0. -1.
         -1    1    1    2    0  502 -0.16100622157E+02  0.54960746312E+02  0.15517904914E+02  0.59335647312E+02  0.00000000000E+00 0.  1.
<scales pt_clust_5="13000.00000" pt_clust_6="13000.00000" pt_clust_7="13000.00000" pt_clust_8="13000.00000" pt_clust_9="57.27053"></scales>
<clustering>
<clus scale="   57.271">  2  9  1 -1</clus>
<clus scale="   89.479">  5  6 -1 -1</clus>
<clus scale="   96.319">  7  8 -1 -1</clus>
<clus scale="   98.705">  1  5  2 -1</clus>
<clus scale="   57.271">  2  5  1 -1</clus>
</clustering>
</event>
<event>
 9    1  0.1881049E-005  0.2006118E+03  0.7546771E-02  0.1150468E+00
         21   -1    0    0  501  502  0.00000000000E+00  0.00000000000E+00  0.60144340844E+03  0.60144340844E+03  0.00000000000E+00 0.  1.
         -3   -1    0    0    0  501 -0.00000000000E+00 -0.00000000000E+00 -0.11835264079E+03  0.11835264079E+03  0.00000000000E+00 0.  1.
         23    2    1    2    0    0  0.13224615602E+03  0.49559675778E+02  0.10768928303E+03  0.20098742472E+03  0.94094399253E+02 0.  0.
         23    2    1    2    0    0 -0.23047788659E+03 -0.51735647708E+02  0.28962278653E+03  0.38837782758E+03  0.10563780112E+03 0.  0.
        -13    1    3    3    0    0  0.21824062648E+02  0.26569705863E+02  0.76643445741E+02  0.84002718737E+02  0.00000000000E+00 0. -1.
         13    1    3    3    0    0  0.11042209337E+03  0.22989969915E+02  0.31045837293E+02  0.11698470598E+03  0.00000000000E+00 0.  1.
        -13    1    4    4    0    0 -0.65723758688E+02 -0.30459343724E+02  0.16658576106E+03  0.18165406646E+03  0.00000000000E+00 0. -1.
         13    1    4    4    0    0 -0.16475412790E+03 -0.21276303983E+02  0.12303702547E+03  0.20672376111E+03  0.00000000000E+00 0.  1.
         -3    1    1    2    0  502  0.98231730568E+02  0.21759719294E+01  0.85778698083E+02  0.13043079694E+03  0.00000000000E+00 0.  1.
<scales pt_clust_5="13000.00000" pt_clust_6="13000.00000" pt_clust_7="13000.00000" pt_clust_8="13000.00000" pt_clust_9="98.25588"></scales>
<clustering>
<clus scale="   94.094">  5  6 -1 -1</clus>
<clus scale="   98.256">  1  9  2 -1</clus>
<clus scale="  105.638">  7  8 -1 -1</clus>
<clus scale="  194.781">  2  5  1 -1</clus>
<clus scale="   98.256">  1  5  2 -1</clus>
</clustering>
</event>
<event>
 9    1  0.1881049E-005  0.1545990E+03  0.7546771E-02  0.1196222E+00
          2   -1    0    0  502    0 -0.00000000000E+00  0.00000000000E+00  0.74032540155E+03  0.74032540155E+03  0.00000000000E+00 0. -1.
         21   -1    0    0  501  502  0.00000000000E+00 -0.00000000000E+00 -0.73666239291E+02  0.73666239291E+02  0.00000000000E+00 0.  1.
         23    2    1    2    0    0  0.18470437831E+02 -0.90952943203E+02  0.26094945210E+03  0.29083006404E+03  0.88735081256E+02 0.  0.
         23    2    1    2    0    0 -0.14193627370E+01  0.19900251251E+03  0.26794476650E+03  0.34725072355E+03  0.95836592886E+02 0.  0.
        -11    1    4    4    0    0 -0.14369383555E+02  0.16417159544E+03  0.14737430613E+03  0.22108364490E+03  0.00000000000E+00 0.  1.
         11    1    4    4    0    0  0.12950020818E+02  0.34830917072E+02  0.12057046036E+03  0.12616707865E+03  0.00000000000E+00 0. -1.
        -11    1    3    3    0    0  0.16575502375E+01 -0.61237457809E+02  0.24608003513E+03  0.25359053098E+03  0.00000000000E+00 0. -1.
         11    1    3    3    0    0  0.16812887593E+02 -0.29715485394E+02  0.14869416969E+02  0.37239533059E+02  0.00000000000E+00 0.  1.
          2    1    1    2  501    0 -0.17051075094E+02 -0.10804956931E+03  0.13776494365E+03  0.17591085325E+03  0.00000000000E+00 0. -1.
<scales pt_clust_5="13000.00000" pt_clust_6="13000.00000" pt_clust_7="13000.00000" pt_clust_8="13000.00000" pt_clust_9="109.38669"></scales>
<clustering>
<clus scale="   88.735">  7  8 -1 -1</clus>
<clus scale="   95.837">  5  6 -1 -1</clus>
<clus scale="  109.387">  2  9  1 -1</clus>
<clus scale="  150.300">  1  7  2 -1</clus>
<clus scale="  109.387">  2  5  1 -1</clus>
</clustering>
</event>
<event>
 9    1  0.1881049E-005  0.1018022E+03  0.7546771E-02  0.1277792E+00
          1   -1    0    0  502    0 -0.00000000000E+00  0.00000000000E+00  0.33554341148E+03  0.33554341148E+03  0.00000000000E+00 0. -1.
         21   -1    0    0  501  502  0.00000000000E+00 -0.00000000000E+00 -0.89142142426E+02  0.89142142426E+02  0.00000000000E+00 0. -1.
         23    2    1    2    0    0  0.58471857363E+02  0.75230680132E+01  0.18073539308E+03  0.20993136477E+03  0.89052461774E+02 0.  0.
         23    2    1    2    0    0 -0.27505617598E+02  0.39925093220E+01  0.11852626667E+03  0.15241850569E+03  0.91708373973E+02 0.  0.
        -11    1    4    4    0    0 -0.22091967672E+02 -0.42357182449E+02  0.47003159880E+02  0.67018527135E+02  0.00000000000E+00 0.  1.
         11    1    4    4    0    0 -0.54136499253E+01  0.46349691771E+02  0.71523106789E+02  0.85399978557E+02  0.00000000000E+00 0. -1.
        -11    1    3    3    0    0 -0.72626514630E+01  0.31722116528E+02  0.87200536363E+02  0.93075089714E+02  0.00000000000E+00 0.  1.
         11    1    3    3    0    0  0.65734508826E+02 -0.24199048515E+02  0.93534856713E+02  0.11685627506E+03  0.00000000000E+00 0. -1.
          1    1    1    2  501    0 -0.30966239766E+02 -0.11515577335E+02 -0.52860390690E+02  0.62335683444E+02  0.00000000000E+00 0. -1.
<scales pt_clust_5="13000.00000" pt_clust_6="13000.00000" pt_clust_7="13000.00000" pt_clust_8="13000.00000" pt_clust_9="33.03811"></scales>
<clustering>
<clus scale="   33.038">  2  9  1 -1</clus>
<clus scale="   89.052">  7  8 -1 -1</clus>
<clus scale="   91.708">  5  6 -1 -1</clus>
<clus scale="   99.416">  1  7  2 -1</clus>
<clus scale="   33.038">  2  5  1 -1</clus>
</clustering>
</event>
<event>
 9    1  0.1881049E-005  0.9567071E+02  0.7546771E-02  0.1290857E+00
         21   -1    0    0  501  502  0.00000000000E+00  0.00000000000E+00  0.10220885272E+03  0.10220885272E+03  0.00000000000E+00 0. -1.
          3   -1    0    0  502    0 -0.00000000000E+00 -0.00000000000E+00 -0.25437604187E+03  0.25437604187E+03  0.00000000000E+00 0. -1.
         23    2    1    2    0    0  0.10558141270E+02 -0.36332058469E+02 -0.12961721246E+03  0.16298538429E+03  0.91280451940E+02 0.  0.
         23    2    1    2    0    0 -0.14604174559E+02  0.13442432144E+02 -0.86384900551E+02  0.12566422577E+03  0.89079547031E+02 0.  0.
        -11    1    4    4    0    0  0.24595473398E+02 -0.12335376342E+02 -0.71232469641E+02  0.76362055711E+02  0.00000000000E+00 0. -1.
         11    1    4    4    0    0 -0.39199647957E+02  0.25777808486E+02 -0.15152430910E+02  0.49302170062E+02  0.00000000000E+00 0.  1.
        -11    1    3    3    0    0 -0.39833980696E+02 -0.22167441365E+02 -0.71237655440E+02  0.84575085146E+02  0.00000000000E+00 0.  1.
         11    1    3    3    0    0  0.50392121966E+02 -0.14164617103E+02 -0.58379557019E+02  0.78410299143E+02  0.00000000000E+00 0. -1.
          3    1    1    2  501    0  0.40460332892E+01  0.22889626325E+02  0.63834923862E+02  0.67935284522E+02  0.00000000000E+00 0. -1.
<scales pt_clust_5="13000.00000" pt_clust_6="13000.00000" pt_clust_7="13000.00000" pt_clust_8="13000.00000" pt_clust_9="23.24447"></scales>
<clustering>
<clus scale="   23.244">  1  9  2 -1</clus>
<clus scale="   89.080">  5  6 -1 -1</clus>
<clus scale="   91.280">  7  8 -1 -1</clus>
<clus scale="   93.573">  1  5  2 -1</clus>
<clus scale="   23.244">  1  5  2 -1</clus>
</clustering>
</event>
<event>
 9    1  0.1881049E-005  0.9651775E+02  0.7546771E-02  0.1288331E+00
         21   -1    0    0  501  502  0.00000000000E+00  0.00000000000E+00  0.74393201903E+02  0.74393201903E+02  0.00000000000E+00 0.  1.
          3   -1    0    0  502    0 -0.00000000000E+00 -0.00000000000E+00 -0.27887558445E+03  0.27887558445E+03  0.00000000000E+00 0. -1.
         23    2    1    2    0    0  0.39445874778E+02 -0.17255388952E+02 -0.10144334493E+03  0.14283788415E+03  0.90874547776E+02 0.  0.
         23    2    1    2    0    0 -0.94081187422E+01 -0.50957487035E+02 -0.40040437288E+02  0.11283947388E+03  0.91893046876E+02 0.  0.
        -11    1    4    4    0    0 -0.48974129732E+02 -0.41317370876E+02 -0.18103002219E+02  0.66583100021E+02  0.00000000000E+00 0.  1.
         11    1    4    4    0    0  0.39566010990E+02 -0.96401161597E+01 -0.21937435069E+02  0.46256373859E+02  0.00000000000E+00 0. -1.
        -11    1    3    3    0    0 -0.26030405663E+02  0.24368384505E+00 -0.76727405138E+01  0.27138760984E+02  0.00000000000E+00 0.  1.
         11    1    3    3    0    0  0.65476280440E+02 -0.17499072797E+02 -0.93770604419E+02  0.11569912317E+03  0.00000000000E+00 0. -1.
          3    1    1    2  501    0 -0.30037756035E+02  0.68212875987E+02 -0.62998600323E+02  0.97591428316E+02  0.00000000000E+00 0. -1.
<scales pt_clust_5="13000.00000" pt_clust_6="13000.00000" pt_clust_7="13000.00000" pt_clust_8="13000.00000" pt_clust_9="74.53368"></scales>
<clustering>
<clus scale="   74.534">  1  9  2 -1</clus>
<clus scale="   90.875">  7  8 -1 -1</clus>
<clus scale="   91.893">  5  6 -1 -1</clus>
<clus scale="   95.549">  2  7  1 -1</clus>
<clus scale="   74.534">  1  5  2 -1</clus>
</clustering>
</event>
<event>
 9    1  0.1881049E-005  0.1286051E+03  0.7546771E-02  0.1232397E+00
          4   -1    0    0  502    0 -0.00000000000E+00  0.00000000000E+00  0.33372392941E+03  0.33372392941E+03  0.00000000000E+00 0.  1.
         21   -1    0    0  501  502  0.00000000000E+00 -0.00000000000E+00 -0.85091539411E+02  0.85091539411E+02  0.00000000000E+00 0.  1.
         23    2    1    2    0    0  0.10883113705E+02 -0.59714065667E+02  0.81508188509E+02  0.13552110020E+03  0.89655853149E+02 0.  0.
         23    2    1    2    0    0 -0.78856706455E+02  0.83934053861E+02  0.13831382502E+03  0.20559588130E+03  0.99376288246E+02 0.  0.
        -11    1    4    4    0    0 -0.31078951012E+02  0.96062647182E+02  0.10742245684E+03  0.14742292092E+03  0.00000000000E+00 0. -1.
         11    1    4    4    0    0 -0.47777755443E+02 -0.12128593321E+02  0.30891368175E+02  0.58172960375E+02  0.00000000000E+00 0.  1.
        -13    1    3    3    0    0  0.43866632057E+02 -0.25079311017E+02  0.69993448597E+02  0.86326914086E+02  0.00000000000E+00 0. -1.
         13    1    3    3    0    0 -0.32983518352E+02 -0.34634754650E+02  0.11514739912E+02  0.49194186117E+02  0.00000000000E+00 0.  1.
          4    1    1    2  501    0  0.67973592750E+02 -0.24219988194E+02  0.28810376476E+02  0.77698487322E+02  0.00000000000E+00 0.  1.
<scales pt_clust_5="13000.00000" pt_clust_6="13000.00000" pt_clust_7="13000.00000" pt_clust_8="13000.00000" pt_clust_9="72.15966"></scales>
<clustering>
<clus scale="   72.160">  2  9  1 -1</clus>
<clus scale="   89.656">  7  8 -1 -1</clus>
<clus scale="   99.376">  5  6 -1 -1</clus>
<clus scale="  121.251">  1  7  2 -1</clus>
<clus scale="   72.160">  2  5  1 -1</clus>
</clustering>
</event>
<event>
 9    1  0.1881049E-005  0.9897770E+02  0.7546771E-02  0.1283091E+00
          1   -1    0    0  502    0 -0.00000000000E+00  0.00000000000E+00  0.13789652817E+03  0.13789652817E+03  0.00000000000E+00 0. -1.
         21   -1    0    0  501  502  0.00000000000E+00 -0.00000000000E+00 -0.31994164377E+03  0.31994164377E+03  0.00000000000E+00 0. -1.
         23    2    1    2    0    0 -0.37630390931E+02 -0.21206060958E+02  0.80274647900E+02  0.12798949027E+03  0.89841789732E+02 0.  0.
         23    2    1    2    0    0 -0.84557944032E+01  0.47726469762E+02 -0.57304808560E+02  0.11805066395E+03  0.91119711366E+02 0.  0.
        -11    1    3    3    0    0 -0.41362179884E+02 -0.52106985313E+02  0.42082176406E+02  0.78720247804E+02  0.00000000000E+00 0. -1.
         11    1    3    3    0    0  0.37317889531E+01  0.30900924355E+02  0.38192471495E+02  0.49269242471E+02  0.00000000000E+00 0.  1.
        -11    1    4    4    0    0  0.40964072623E+02  0.19901589382E+02 -0.33530529169E+02  0.56554618663E+02  0.00000000000E+00 0.  1.
         11    1    4    4    0    0 -0.49419867026E+02  0.27824880380E+02 -0.23774279391E+02  0.61496045285E+02  0.00000000000E+00 0. -1.
          1    1    1    2  501    0  0.46086185334E+02 -0.26520408804E+02 -0.20501495493E+03  0.21179801772E+03  0.00000000000E+00 0. -1.
<scales pt_clust_5="13000.00000" pt_clust_6="13000.00000" pt_clust_7="13000.00000" pt_clust_8="13000.00000" pt_clust_9="53.17207"></scales>
<clustering>
<clus scale="   53.172">  2  9  1 -1</clus>
<clus scale="   89.842">  5  6 -1 -1</clus>
<clus scale="   91.120">  7  8 -1 -1</clus>
<clus scale="   97.803">  1  5  2 -1</clus>
<clus scale="   53.172">  2  5  1 -1</clus>
</clustering>
</event>
<event>
 9    1  0.1881049E-005  0.2005384E+03  0.7546771E-02  0.1182716E+00
         21   -1    0    0  501  502  0.00000000000E+00  0.00000000000E+00  0.19488612667E+03  0.19488612667E+03  0.00000000000E+00 0.  1.
         -1   -1    0    0    0  501 -0.00000000000E+00 -0.00000000000E+00 -0.82440768583E+03  0.82440768583E+03  0.00000000000E+00 0.  1.
         23    2    1    2    0    0 -0.41810019218E+01  0.29446268456E+00  0.51412067774E+02  0.10611853764E+03  0.92738211282E+02 0.  0.
         23    2    1    2    0    0 -0.77966622997E+02  0.15842658815E+03 -0.70531394842E+03  0.73280065267E+03  0.91385188008E+02 0.  0.
        -13    1    4    4    0    0 -0.79159887014E+02  0.76199042823E+02 -0.49348106465E+03  0.50556517187E+03  0.00000000000E+00 0. -1.
         13    1    4    4    0    0  0.11932640168E+01  0.82227545327E+02 -0.21183288377E+03  0.22723548080E+03  0.00000000000E+00 0.  1.
        -13    1    3    3    0    0 -0.37365215404E+02 -0.24870890212E+02  0.73403331582E+01  0.45481875434E+02  0.00000000000E+00 0.  1.
         13    1    3    3    0    0  0.33184213482E+02  0.25165352897E+02  0.44071734615E+02  0.60636662201E+02  0.00000000000E+00 0. -1.
         -1    1    1    2    0  502  0.82147624919E+02 -0.15872105083E+03  0.24380321477E+02  0.18037462220E+03  0.00000000000E+00 0.  1.
<scales pt_clust_5="13000.00000" pt_clust_6="13000.00000" pt_clust_7="13000.00000" pt_clust_8="13000.00000" pt_clust_9="178.50604"></scales>
<clustering>
<clus scale="   91.385">  5  6 -1 -1</clus>
<clus scale="   92.738">  7  8 -1 -1</clus>
<clus scale="   92.833">  2  7  1 -1</clus>
<clus scale="  178.506">  1  9  2 -1</clus>
<clus scale="  178.506">  1  5  2 -1</clus>
</clustering>
</event>
<event>
 9    1  0.1881049E-005  0.1003479E+03  0.7546771E-02  0.1280516E+00
         21   -1    0    0  501  502  0.00000000000E+00  0.00000000000E+00  0.12624588612E+03  0.12624588612E+03  0.00000000000E+00 0. -1.
         -3   -1    0    0    0  501 -0.00000000000E+00 -0.00000000000E+00 -0.14607585589E+03  0.14607585589E+03  0.00000000000E+00 0.  1.
         23    2    1    2    0    0  0.44871722717E+02  0.28423861671E+01 -0.66378518260E+02  0.12196048564E+03  0.91905939479E+02 0.  0.
         23    2    1    2    0    0 -0.21888615649E+02 -0.38205313725E+02  0.26075230312E+02  0.10347931302E+03  0.89940497530E+02 0.  0.
        -13    1    4    4    0    0  0.20994294036E+02 -0.36527892252E+01  0.41186418701E+02  0.46372667990E+02  0.00000000000E+00 0.  1.
         13    1    4    4    0    0 -0.42882909685E+02 -0.34552524499E+02 -0.15111188388E+02  0.57106645032E+02  0.00000000000E+00 0. -1.
        -13    1    3    3    0    0  0.65967607612E+02 -0.22169364974E+02 -0.44906332271E+02  0.82823817078E+02  0.00000000000E+00 0.  1.
         13    1    3    3    0    0 -0.21095884896E+02  0.25011751141E+02 -0.21472185989E+02  0.39136668558E+02  0.00000000000E+00 0. -1.
         -3    1    1    2    0  502 -0.22983107067E+02  0.35362927557E+02  0.20473318174E+02  0.46881943357E+02  0.00000000000E+00 0.  1.
<scales pt_clust_5="13000.00000" pt_clust_6="13000.00000" pt_clust_7="13000.00000" pt_clust_8="13000.00000" pt_clust_9="42.17535"></scales>
<clustering>
<clus scale="   42.175">  1  9  2 -1</clus>
<clus scale="   89.940">  5  6 -1 -1</clus>
<clus scale="   91.906">  7  8 -1 -1</clus>
<clus scale="   98.551">  1  5  2 -1</clus>
<clus scale="   42.175">  1  5  2 -1</clus>
</clustering>
</event>
<event>
 9    1  0.1881049E-005  0.2661790E+03  0.7546771E-02  0.1103737E+00
          1   -1    0    0  502    0 -0.00000000000E+00  0.00000000000E+00  0.32900060002E+03  0.32900060002E+03  0.00000000000E+00 0. -1.
         21   -1    0    0  501  502  0.00000000000E+00 -0.00000000000E+00 -0.84872513135E+03  0.84872513135E+03  0.00000000000E+00 0.  1.
         23    2    1    2    0    0  0.72137651501E+02  0.24026538390E+03  0.24615583635E+03  0.36384537749E+03  0.94124744277E+02 0.  0.
         23    2    1    2    0    0 -0.79422643955E+02 -0.21381760521E+03 -0.64504257835E+03  0.68996777405E+03  0.89160959297E+02 0.  0.
        -11    1    3    3    0    0  0.42545723102E+02  0.40408208401E+02  0.23550444517E+02  0.63226460421E+02  0.00000000000E+00 0.  1.
         11    1    3    3    0    0  0.29591928398E+02  0.19985717550E+03  0.22260539183E+03  0.30061891707E+03  0.00000000000E+00 0. -1.
        -13    1    4    4    0    0 -0.98810710077E+02 -0.17867664863E+03 -0.52033362866E+03  0.55895973585E+03  0.00000000000E+00 0.  1.
         13    1    4    4    0    0  0.19388066122E+02 -0.35140956579E+02 -0.12470894969E+03  0.13100803819E+03  0.00000000000E+00 0. -1.
          1    1    1    2  501    0  0.72849924545E+01 -0.26447778693E+02 -0.12083778932E+03  0.12391257984E+03  0.00000000000E+00 0. -1.
<scales pt_clust_5="13000.00000" pt_clust_6="13000.00000" pt_clust_7="13000.00000" pt_clust_8="13000.00000" pt_clust_9="27.43276"></scales>
<clustering>
<clus scale="   27.433">  2  9  1 -1</clus>
<clus scale="   89.161">  7  8 -1 -1</clus>
<clus scale="   94.125">  5  6 -1 -1</clus>
<clus scale="  264.464">  2  7  1 -1</clus>
<clus scale="   27.433">  2  5  1 -1</clus>
</clustering>
</event>
<event>
 9    1  0.1881049E-005  0.9704752E+02  0.7546771E-02  0.1288105E+00
         -1   -1    0    0    0  501 -0.00000000000E+00  0.00000000000E+00  0.30011785680E+03  0.30011785680E+03  0.00000000000E+00 0.  1.
         21   -1    0    0  501  502  0.00000000000E+00 -0.00000000000E+00 -0.72287198549E+02  0.72287198549E+02  0.00000000000E+00 0. -1.
         23    2    1    2    0    0  0.12358445832E+02 -0.27808669829E+02  0.17194861950E+03  0.19562408135E+03  0.88183899644E+02 0.  0.
         23    2    1    2    0    0 -0.34898121610E+02  0.25417592780E+02  0.90488032630E+02  0.13541276101E+03  0.91019771926E+02 0.  0.
        -11    1    4    4    0    0 -0.20297307544E+02  0.39346748761E+02  0.10269255026E+03  0.11182981361E+03  0.00000000000E+00 0.  1.
         11    1    4    4    0    0 -0.14600814066E+02 -0.13929155981E+02 -0.12204517634E+02  0.23582947407E+02  0.00000000000E+00 0. -1.
        -13    1    3    3    0    0 -0.88060328102E+01  0.20816617965E+02  0.11736145550E+03  0.11951815358E+03  0.00000000000E+00 0.  1.
         13    1    3    3    0    0  0.21164478642E+02 -0.48625287794E+02  0.54587164000E+02  0.76105927777E+02  0.00000000000E+00 0. -1.
         -1    1    1    2    0  502  0.22539675778E+02  0.23910770491E+01 -0.34605993874E+02  0.41368212986E+02  0.00000000000E+00 0.  1.
<scales pt_clust_5="13000.00000" pt_clust_6="13000.00000" pt_clust_7="13000.00000" pt_clust_8="13000.00000" pt_clust_9="22.66615"></scales>
<clustering>
<clus scale="   22.666">  2  9  1 -1</clus>
<clus scale="   88.184">  7  8 -1 -1</clus>
<clus scale="   91.020">  5  6 -1 -1</clus>
<clus scale="   94.393">  1  7  2 -1</clus>
<clus scale="   22.666">  2  5  1 -1</clus>
</clustering>
</event>
<event>
 9    1  0.1881049E-005  0.1042732E+03  0.7546771E-02  0.1272080E+00
         21   -1    0    0  501  502  0.00000000000E+00  0.00000000000E+00  0.58813612086E+03  0.58813612086E+03  0.00000000000E+00 0. -1.
          1   -1    0    0  502    0 -0.00000000000E+00 -0.00000000000E+00 -0.13138248368E+03  0.13138248368E+03  0.00000000000E+00 0. -1.
         23    2    1    2    0    0  0.43382036160E+02  0.36175025640E+02 -0.84835624110E+02  0.13694322324E+03  0.91464363185E+02 0.  0.
         23    2    1    2    0    0  0.54123343546E+02 -0.41353268032E+02  0.23463863596E+03  0.26046856724E+03  0.90272675496E+02 0.  0.
        -11    1    4    4    0    0  0.58880894357E+02 -0.65181106804E+02  0.16874603086E+03  0.19023869043E+03  0.00000000000E+00 0. -1.
         11    1    4    4    0    0 -0.47575508102E+01  0.23827838772E+02  0.65892605097E+02  0.70229876810E+02  0.00000000000E+00 0.  1.
        -13    1    3    3    0    0  0.28792605198E+02  0.50102747831E+02 -0.90150554500E+01  0.58485645068E+02  0.00000000000E+00 0.  1.
         13    1    3    3    0    0  0.14589430962E+02 -0.13927722191E+02 -0.75820568660E+02  0.78457578176E+02  0.00000000000E+00 0. -1.
          1    1    1    2  501    0 -0.97505379706E+02  0.51782423921E+01  0.30695062534E+03  0.32210681405E+03  0.00000000000E+00 0. -1.
<scales pt_clust_5="13000.00000" pt_clust_6="13000.00000" pt_clust_7="13000.00000" pt_clust_8="13000.00000" pt_clust_9="97.64278"></scales>
<clustering>
<clus scale="   90.273">  5  6 -1 -1</clus>
<clus scale="   91.464">  7  8 -1 -1</clus>
<clus scale="   97.643">  1  9  2 -1</clus>
<clus scale="  103.229">  1  5  2 -1</clus>
<clus scale="   97.643">  1  5  2 -1</clus>
</clustering>
</event>
<event>
 9    1  0.1881049E-005  0.9963915E+02  0.7546771E-02  0.1282216E+00
         21   -1    0    0  501  502  0.00000000000E+00  0.00000000000E+00  0.49838875403E+02  0.49838875403E+02  0.00000000000E+00 0.  1.
          1   -1    0    0  502    0 -0.00000000000E+00 -0.00000000000E+00 -0.36923979181E+03  0.36923979181E+03  0.00000000000E+00 0. -1.
         23    2    1    2    0    0 -0.41735273936E+02  0.11935768319E+02 -0.26904615826E+03  0.28782060186E+03  0.92577361836E+02 0.  0.
         23    2    1    2    0    0  0.16847480422E+02  0.36130922048E+01 -0.38231037851E+02  0.99506625650E+02  0.90238928746E+02 0.  0.
        -11    1    3    3    0    0  0.24368186914E+02  0.15983793602E+02 -0.40655196903E+02  0.50021347709E+02  0.00000000000E+00 0.  1.
         11    1    3    3    0    0 -0.66103460850E+02 -0.40480252832E+01 -0.22839096135E+03  0.23779925415E+03  0.00000000000E+00 0. -1.
        -13    1    4    4    0    0 -0.22975452785E+02 -0.30994031267E+02 -0.21450468894E+02  0.44143221684E+02  0.00000000000E+00 0. -1.
         13    1    4    4    0    0  0.39822933207E+02  0.34607123472E+02 -0.16780568957E+02  0.55363403966E+02  0.00000000000E+00 0.  1.
          1    1    1    2  501    0  0.24887793514E+02 -0.15548860523E+02 -0.12123720300E+02  0.31751439707E+02  0.00000000000E+00 0. -1.
<scales pt_clust_5="13000.00000" pt_clust_6="13000.00000" pt_clust_7="13000.00000" pt_clust_8="13000.00000" pt_clust_9="29.34569"></scales>
<clustering>
<clus scale="   29.346">  1  9  2 -1</clus>
<clus scale="   90.239">  7  8 -1 -1</clus>
<clus scale="   92.577">  5  6 -1 -1</clus>
<clus scale="   97.470">  1  7  2 -1</clus>
<clus scale="   29.346">  1  5  2 -1</clus>
</clustering>
</event>
<event>
 9    1  0.1881049E-005  0.1057852E+03  0.7546771E-02  0.1272072E+00
          1   -1    0    0  502    0 -0.00000000000E+00  0.00000000000E+00  0.76371242220E+02  0.76371242220E+02  0.00000000000E+00 0. -1.
         21   -1    0    0  501  502  0.00000000000E+00 -0.00000000000E+00 -0.44856803648E+03  0.44856803648E+03  0.00000000000E+00 0. -1.
         23    2    1    2    0    0 -0.79292339822E+02 -0.25765836920E+02 -0.32577158801E+02  0.12985892257E+03  0.94079301593E+02 0.  0.
         23    2    1    2    0    0  0.90286808533E+01  0.12313507942E+02 -0.59288570727E+02  0.10576486609E+03  0.86243450324E+02 0.  0.
        -11    1    3    3    0    0 -0.27689671599E+02  0.22179663381E+02  0.21118958847E+02  0.41287598667E+02  0.00000000000E+00 0. -1.
         11    1    3    3    0    0 -0.51602668223E+02 -0.47945500301E+02 -0.53696117648E+02  0.88571323900E+02  0.00000000000E+00 0.  1.
        -13    1    4    4    0    0 -0.34790707126E+02  0.13399065930E+02 -0.76988564229E+01  0.38068368238E+02  0.00000000000E+00 0.  1.
         13    1    4    4    0    0  0.43819387979E+02 -0.10855579877E+01 -0.51589714304E+02  0.67696497849E+02  0.00000000000E+00 0. -1.
          1    1    1    2  501    0  0.70263658969E+02  0.13452328978E+02 -0.28033106473E+03  0.28931549004E+03  0.00000000000E+00 0. -1.
<scales pt_clust_5="13000.00000" pt_clust_6="13000.00000" pt_clust_7="13000.00000" pt_clust_8="13000.00000" pt_clust_9="71.53983"></scales>
<clustering>
<clus scale="   71.540">  2  9  1 -1</clus>
<clus scale="   86.243">  7  8 -1 -1</clus>
<clus scale="   94.079">  5  6 -1 -1</clus>
<clus scale="   98.881">  2  7  1 -1</clus>
<clus scale="   71.540">  2  5  1 -1</clus>
</clustering>
</event>
<event>
 9    1  0.1881049E-005  0.1311725E+03  0.7546771E-02  0.1225893E+00
         21   -1    0    0  501  502  0.00000000000E+00  0.00000000000E+00  0.55937166443E+03  0.55937166443E+03  0.00000000000E+00 0. -1.
          1   -1    0    0  502    0 -0.00000000000E+00 -0.00000000000E+00 -0.12282070098E+03  0.12282070098E+03  0.00000000000E+00 0. -1.
         23    2    1    2    0    0 -0.88115548737E+02 -0.62505502460E+02 -0.60655522079E+02  0.15299789868E+03  0.89766234606E+02 0.  0.
         23    2    1    2    0    0  0.19200781266E+02  0.33056737449E+02  0.20157849633E+03  0.22421515115E+03  0.90427462243E+02 0.  0.
        -11    1    4    4    0    0  0.33168337259E+02 -0.15714360410E+02  0.37497793745E+02  0.52470603726E+02  0.00000000000E+00 0.  1.
         11    1    4    4    0    0 -0.13967555994E+02  0.48771097858E+02  0.16408070259E+03  0.17174454742E+03  0.00000000000E+00 0. -1.
        -13    1    3    3    0    0 -0.56519681751E+02 -0.63799763348E+02 -0.79190035492E+02  0.11634408429E+03  0.00000000000E+00 0. -1.
         13    1    3    3    0    0 -0.31595866986E+02  0.12942608885E+01  0.18534513413E+02  0.36653814390E+02  0.00000000000E+00 0.  1.
          1    1    1    2  501    0  0.68914767472E+02  0.29448765011E+02  0.29562798920E+03  0.30497931558E+03  0.00000000000E+00 0. -1.
<scales pt_clust_5="13000.00000" pt_clust_6="13000.00000" pt_clust_7="13000.00000" pt_clust_8="13000.00000" pt_clust_9="74.94314"></scales>
<clustering>
<clus scale="   74.943">  1  9  2 -1</clus>
<clus scale="   89.766">  7  8 -1 -1</clus>
<clus scale="   90.427">  5  6 -1 -1</clus>
<clus scale="  130.718">  2  7  1 -1</clus>
<clus scale="   74.943">  1  5  2 -1</clus>
</clustering>
</event>
<event>
 9    1  0.1881049E-005  0.9998343E+02  0.7546771E-02  0.1282460E+00
         21   -1    0    0  501  502  0.00000000000E+00  0.00000000000E+00  0.79968442161E+02  0.79968442161E+02  0.00000000000E+00 0. -1.
         -1   -1    0    0    0  501 -0.00000000000E+00 -0.00000000000E+00 -0.16484549116E+03  0.16484549116E+03  0.00000000000E+00 0.  1.
         23    2    1    2    0    0 -0.38673540415E+02  0.74012659695E+01 -0.53400603835E+02  0.11525320319E+03  0.94240410070E+02 0.  0.
         23    2    1    2    0    0  0.26261843560E+02  0.19730595906E+02 -0.24747996577E+02  0.98975436802E+02  0.90026067968E+02 0.  0.
        -11    1    3    3    0    0 -0.64592929137E+02  0.23316115968E+02 -0.23447476676E+02  0.72564949671E+02  0.00000000000E+00 0.  1.
         11    1    3    3    0    0  0.25919388722E+02 -0.15914849998E+02 -0.29953127159E+02  0.42688253522E+02  0.00000000000E+00 0. -1.
        -13    1    4    4    0    0  0.20588929602E+02  0.51439162143E+02  0.43362572726E+01  0.55576024968E+02  0.00000000000E+00 0. -1.
         13    1    4    4    0    0  0.56729139578E+01 -0.31708566237E+02 -0.29084253849E+02  0.43399411834E+02  0.00000000000E+00 0.  1.
         -1    1    1    2    0  502  0.12411696855E+02 -0.27131861875E+02 -0.67284485919E+01  0.30585293330E+02  0.00000000000E+00 0.  1.
<scales pt_clust_5="13000.00000" pt_clust_6="13000.00000" pt_clust_7="13000.00000" pt_clust_8="13000.00000" pt_clust_9="29.83602"></scales>
<clustering>
<clus scale="   29.836">  1  9  2 -1</clus>
<clus scale="   90.026">  7  8 -1 -1</clus>
<clus scale="   94.240">  5  6 -1 -1</clus>
<clus scale="   96.021">  1  7  2 -1</clus>
<clus scale="   29.836">  1  5  2 -1</clus>
</clustering>
</event>
<event>
 9    1  0.1881049E-005  0.1004426E+03  0.7546771E-02  0.1284177E+00
         21   -1    0    0  501  502  0.00000000000E+00  0.00000000000E+00  0.25621804167E+03  0.25621804167E+03  0.00000000000E+00 0.  1.
          2   -1    0    0  502    0 -0.00000000000E+00 -0.00000000000E+00 -0.19316059934E+03  0.19316059934E+03  0.00000000000E+00 0. -1.
         23    2    1    2    0    0 -0.37791540503E+02  0.13382358704E+02 -0.15857004982E+03  0.18273809896E+03  0.81495178092E+02 0.  0.
         23    2    1    2    0    0  0.61279247587E+02 -0.27081885995E+02  0.13679085203E+03  0.17755291700E+03  0.91239938628E+02 0.  0.
        -11    1    3    3    0    0  0.66670079686E+01 -0.24910974569E+02 -0.21278082779E+02  0.33432954640E+02  0.00000000000E+00 0.  1.
         11    1    3    3    0    0 -0.44458548471E+02  0.38293333273E+02 -0.13729196704E+03  0.14930514432E+03  0.00000000000E+00 0. -1.
        -13    1    4    4    0    0  0.17759111919E+02  0.17515556276E+02  0.10437174634E+03  0.10731096031E+03  0.00000000000E+00 0.  1.
         13    1    4    4    0    0  0.43520135668E+02 -0.44597442271E+02  0.32419105688E+02  0.70241956687E+02  0.00000000000E+00 0. -1.
          2    1    1    2  501    0 -0.23487707084E+02  0.13699527291E+02  0.84836640116E+02  0.89087625057E+02  0.00000000000E+00 0. -1.
<scales pt_clust_5="13000.00000" pt_clust_6="13000.00000" pt_clust_7="13000.00000" pt_clust_8="13000.00000" pt_clust_9="27.19098"></scales>
<clustering>
<clus scale="   27.191">  1  9  2 -1</clus>
<clus scale="   81.495">  5  6 -1 -1</clus>
<clus scale="   91.240">  7  8 -1 -1</clus>
<clus scale="   91.681">  2  5  1 -1</clus>
<clus scale="   27.191">  1  5  2 -1</clus>
</clustering>
</event>
<event>
 9    1  0.1881049E-005  0.1703488E+03  0.7546771E-02  0.1179231E+00
          2   -1    0    0  502    0 -0.00000000000E+00  0.00000000000E+00  0.13458344960E+04  0.13458344960E+04  0.00000000000E+00 0. -1.
         21   -1    0    0  501  502  0.00000000000E+00 -0.00000000000E+00 -0.37239963939E+02  0.37239963939E+02  0.00000000000E+00 0. -1.
         23    2    1    2    0    0 -0.16780399061E+03 -0.34655343400E+01  0.73861834392E+03  0.76297923591E+03  0.91706418869E+02 0.  0.
         23    2    1    2    0    0  0.92439179052E+02  0.57244828744E+02  0.38847740106E+03  0.41634567914E+03  0.10299058774E+03 0.  0.
        -11    1    4    4    0    0  0.10195728131E+03  0.17612636268E+02  0.32349063958E+03  0.33963463613E+03  0.00000000000E+00 0.  1.
         11    1    4    4    0    0 -0.95181022554E+01  0.39632192477E+02  0.64986761485E+02  0.76711043008E+02  0.00000000000E+00 0. -1.
        -11    1    3    3    0    0 -0.19555994923E+02 -0.33821841103E+02  0.18291048523E+03  0.18703635871E+03  0.00000000000E+00 0.  1.
         11    1    3    3    0    0 -0.14824799569E+03  0.30356306763E+02  0.55570785869E+03  0.57594287720E+03  0.00000000000E+00 0. -1.
          2    1    1    2  501    0  0.75364811561E+02 -0.53779294404E+02  0.18149878704E+03  0.20374954485E+03  0.00000000000E+00 0. -1.
<scales pt_clust_5="13000.00000" pt_clust_6="13000.00000" pt_clust_7="13000.00000" pt_clust_8="13000.00000" pt_clust_9="92.58546"></scales>
<clustering>
<clus scale="   91.706">  7  8 -1 -1</clus>
<clus scale="   92.585">  2  9  1 -1</clus>
<clus scale="  102.991">  5  6 -1 -1</clus>
<clus scale="  163.773">  1  7  2 -1</clus>
<clus scale="   92.585">  2  5  1 -1</clus>
</clustering>
</event>
<event>
 9    1  0.1881049E-005  0.2322834E+03  0.7546771E-02  0.1125202E+00
         -1   -1    0    0    0  501 -0.00000000000E+00  0.00000000000E+00  0.71971912238E+03  0.71971912238E+03  0.00000000000E+00 0.  1.
         21   -1    0    0  501  502  0.00000000000E+00 -0.00000000000E+00 -0.30481652332E+03  0.30481652332E+03  0.00000000000E+00 0.  1.
         23    2    1    2    0    0 -0.17588607296E+03  0.42858309635E+02  0.28595979395E+03  0.34945814051E+03  0.87035871065E+02 0.  0.
         23    2    1    2    0    0  0.29036375196E+03  0.53197068248E+02  0.31202525394E+03  0.43874943306E+03  0.89444225009E+02 0.  0.
        -13    1    4    4    0    0  0.23357441109E+03  0.61936332561E+02  0.28933914207E+03  0.37697513704E+03  0.00000000000E+00 0.  1.
         13    1    4    4    0    0  0.56789340869E+02 -0.87392643137E+01  0.22686111867E+02  0.61774296020E+02  0.00000000000E+00 0. -1.
        -13    1    3    3    0    0 -0.10380076307E+03  0.10561889900E+02  0.88606176501E+02  0.13688391595E+03  0.00000000000E+00 0. -1.
         13    1    3    3    0    0 -0.72085309890E+02  0.32296419735E+02  0.19735361744E+03  0.21257422456E+03  0.00000000000E+00 0.  1.
         -1    1    1    2    0  502 -0.11447767900E+03 -0.96055377883E+02 -0.18308244882E+03  0.23632807213E+03  0.00000000000E+00 0.  1.
<scales pt_clust_5="13000.00000" pt_clust_6="13000.00000" pt_clust_7="13000.00000" pt_clust_8="13000.00000" pt_clust_9="149.43820"></scales>
<clustering>
<clus scale="   87.036">  7  8 -1 -1</clus>
<clus scale="   89.444">  5  6 -1 -1</clus>
<clus scale="  149.438">  2  9  1 -1</clus>
<clus scale="  231.367">  1  7  2 -1</clus>
<clus scale="  149.438">  2  5  1 -1</clus>
</clustering>
</event>
<event>
 9    1  0.1881049E-005  0.1527682E+03  0.7546771E-02  0.1197899E+00
         21   -1    0    0  501  502  0.00000000000E+00  0.00000000000E+00  0.80423101264E+03  0.80423101264E+03  0.00000000000E+00 0.  1.
          3   -1    0    0  502    0 -0.00000000000E+00 -0.00000000000E+00 -0.45361692551E+02  0.45361692551E+02  0.00000000000E+00 0. -1.
         23    2    1    2    0    0  0.55445818093E+02 -0.11550868235E+03  0.15841996200E+03  0.22387678041E+03  0.92776257779E+02 0.  0.
         23    2    1    2    0    0 -0.19833434975E+02  0.10531400346E+03  0.46924824192E+03  0.48938578799E+03  0.88431512941E+02 0.  0.
        -13    1    3    3    0    0 -0.57106130314E+01 -0.87953358397E+02  0.11096656242E+03  0.14171091112E+03  0.00000000000E+00 0. -1.
         13    1    3    3    0    0  0.61156431124E+02 -0.27555323956E+02  0.47453399577E+02  0.82165869298E+02  0.00000000000E+00 0.  1.
        -13    1    4    4    0    0  0.77884630974E+01  0.10987515117E+03  0.39362929425E+03  0.40875081688E+03  0.00000000000E+00 0.  1.
         13    1    4    4    0    0 -0.27621898072E+02 -0.45611477116E+01  0.75618947663E+02  0.80634971118E+02  0.00000000000E+00 0. -1.
          3    1    1    2  501    0 -0.35612383118E+02  0.10194678897E+02  0.13120111618E+03  0.13633013679E+03  0.00000000000E+00 0. -1.
<scales pt_clust_5="13000.00000" pt_clust_6="13000.00000" pt_clust_7="13000.00000" pt_clust_8="13000.00000" pt_clust_9="37.04286"></scales>
<clustering>
<clus scale="   37.043">  1  9  2 -1</clus>
<clus scale="   88.432">  7  8 -1 -1</clus>
<clus scale="   92.776">  5  6 -1 -1</clus>
<clus scale="  150.169">  1  7  2 -1</clus>
<clus scale="   37.043">  1  5  2 -1</clus>
</clustering>
</event>
<event>
 9    1  0.1881049E-005  0.1571275E+03  0.7546771E-02  0.1202193E+00
         21   -1    0    0  501  502  0.00000000000E+00  0.00000000000E+00  0.56836417818E+03  0.56836417818E+03  0.00000000000E+00 0. -1.
          1   -1    0    0  502    0 -0.00000000000E+00 -0.00000000000E+00 -0.74712924189E+03  0.74712924189E+03  0.00000000000E+00 0. -1.
         23    2    1    2    0    0 -0.50424636236E+02  0.71141016064E+02  0.16791845938E+03  0.20976897511E+03  0.90568900912E+02 0.  0.
         23    2    1    2    0    0  0.13773046815E+03  0.23634792552E+02 -0.70530004065E+03  0.72465939953E+03  0.90304001575E+02 0.  0.
        -11    1    3    3    0    0 -0.55685668351E+02  0.16915356232E+02  0.13268775718E+03  0.14488983347E+03  0.00000000000E+00 0.  1.
         11    1    3    3    0    0  0.52610321153E+01  0.54225659832E+02  0.35230702200E+02  0.64879141645E+02  0.00000000000E+00 0. -1.
        -11    1    4    4    0    0  0.10103050677E+03 -0.19345245622E+02 -0.54662586341E+03  0.55622049259E+03  0.00000000000E+00 0. -1.
         11    1    4    4    0    0  0.36699961377E+02  0.42980038173E+02 -0.15867417724E+03  0.16843890694E+03  0.00000000000E+00 0.  1.
          1    1    1    2  501    0 -0.87305831914E+02 -0.94775808616E+02  0.35861651756E+03  0.38106504543E+03  0.00000000000E+00 0. -1.
<scales pt_clust_5="13000.00000" pt_clust_6="13000.00000" pt_clust_7="13000.00000" pt_clust_8="13000.00000" pt_clust_9="128.58554"></scales>
<clustering>
<clus scale="   90.304">  7  8 -1 -1</clus>
<clus scale="   90.569">  5  6 -1 -1</clus>
<clus scale="  125.724">  2  5  1 -1</clus>
<clus scale="  128.586">  1  9  2 -1</clus>
<clus scale="  128.586">  1  5  2 -1</clus>
</clustering>
</event>
<event>
 9    1  0.1881049E-005  0.1008134E+03  0.7546771E-02  0.1280420E+00
         21   -1    0    0  501  502  0.00000000000E+00  0.00000000000E+00  0.24711292811E+03  0.24711292811E+03  0.00000000000E+00 0.  1.
          4   -1    0    0  502    0 -0.00000000000E+00 -0.00000000000E+00 -0.10422478465E+03  0.10422478465E+03  0.00000000000E+00 0. -1.
         23    2    1    2    0    0  0.53343312853E+01  0.40853038512E+02 -0.58364305509E+02  0.11461588926E+03  0.89626915970E+02 0.  0.
         23    2    1    2    0    0 -0.92387994601E+01 -0.15498306401E+02  0.17932427990E+03  0.20297346191E+03  0.93356713521E+02 0.  0.
        -11    1    3    3    0    0 -0.32755618258E+00 -0.25227554861E+02 -0.37294458033E+02  0.45026807763E+02  0.00000000000E+00 0.  1.
         11    1    3    3    0    0  0.56618874679E+01  0.66080593374E+02 -0.21069847476E+02  0.69589081493E+02  0.00000000000E+00 0. -1.
        -13    1    4    4    0    0  0.12728202548E+02 -0.50355812872E+02  0.79300044211E+02  0.94795633032E+02  0.00000000000E+00 0.  1.
         13    1    4    4    0    0 -0.21967002008E+02  0.34857506471E+02  0.10002423569E+03  0.10817782888E+03  0.00000000000E+00 0. -1.
          4    1    1    2  501    0  0.39044681748E+01 -0.25354732112E+02  0.21928169062E+02  0.33748361599E+02  0.00000000000E+00 0. -1.
<scales pt_clust_5="13000.00000" pt_clust_6="13000.00000" pt_clust_7="13000.00000" pt_clust_8="13000.00000" pt_clust_9="25.65360"></scales>
<clustering>
<clus scale="   25.654">  1  9  2 -1</clus>
<clus scale="   89.627">  5  6 -1 -1</clus>
<clus scale="   93.357">  7  8 -1 -1</clus>
<clus scale="   97.370">  2  5  1 -1</clus>
<clus scale="   25.654">  1  5  2 -1</clus>
</clustering>
</event>
<event>
 9    1  0.1881049E-005  0.1048521E+03  0.7546771E-02  0.1270684E+00
         21   -1    0    0  501  502  0.00000000000E+00  0.00000000000E+00  0.41466363213E+03  0.41466363213E+03  0.00000000000E+00 0. -1.
          3   -1    0    0  502    0 -0.00000000000E+00 -0.00000000000E+00 -0.76528771898E+02  0.76528771898E+02  0.00000000000E+00 0. -1.
         23    2    1    2    0    0  0.46955027090E+02 -0.60115504668E+01 -0.16059551622E+02  0.10365213495E+03  0.90801666132E+02 0.  0.
         23    2    1    2    0    0 -0.71088451431E+02  0.97048953176E+00  0.19780082996E+03  0.22921532815E+03  0.91432972969E+02 0.  0.
        -11    1    3    3    0    0  0.14417449713E+02 -0.47376266454E+02 -0.41636603849E+01  0.49696172359E+02  0.00000000000E+00 0. -1.
         11    1    3    3    0    0  0.32537577377E+02  0.41364715987E+02 -0.11895891237E+02  0.53955962586E+02  0.00000000000E+00 0.  1.
        -11    1    4    4    0    0 -0.25254176637E+02 -0.32863943455E+02  0.14751553902E+03  0.15322743380E+03  0.00000000000E+00 0.  1.
         11    1    4    4    0    0 -0.45834274795E+02  0.33834432987E+02  0.50285290941E+02  0.75987894342E+02  0.00000000000E+00 0. -1.
          3    1    1    2  501    0  0.24133424341E+02  0.50410609350E+01  0.15639358189E+03  0.15832494094E+03  0.00000000000E+00 0. -1.
<scales pt_clust_5="13000.00000" pt_clust_6="13000.00000" pt_clust_7="13000.00000" pt_clust_8="13000.00000" pt_clust_9="24.65430"></scales>
<clustering>
<clus scale="   24.654">  1  9  2 -1</clus>
<clus scale="   90.802">  5  6 -1 -1</clus>
<clus scale="   91.433">  7  8 -1 -1</clus>
<clus scale="  104.302">  2  5  1 -1</clus>
<clus scale="   24.654">  1  5  2 -1</clus>
</clustering>
</event>
<event>
 9    1  0.1881049E-005  0.3181792E+03  0.7546771E-02  0.1085534E+00
         -4   -1    0    0    0  501 -0.00000000000E+00  0.00000000000E+00  0.56523939825E+03  0.56523939825E+03  0.00000000000E+00 0.  1.
         21   -1    0    0  501  502  0.00000000000E+00 -0.00000000000E+00 -0.50968315523E+03  0.50968315523E+03  0.00000000000E+00 0. -1.
         23    2    1    2    0    0  0.19664737018E+03 -0.12218857547E+03  0.25427323156E+03  0.35623626418E+03  0.93000878752E+02 0.  0.
         23    2    1    2    0    0  0.95390011034E+02  0.29257061512E+03 -0.19566994204E+03  0.38056625743E+03  0.10884452692E+03 0.  0.
        -11    1    4    4    0    0 -0.22486246456E+02  0.25264906673E+02 -0.26593774656E+02  0.43025290694E+02  0.00000000000E+00 0.  1.
         11    1    4    4    0    0  0.11787625749E+03  0.26730570845E+03 -0.16907616738E+03  0.33754096674E+03  0.00000000000E+00 0. -1.
        -11    1    3    3    0    0  0.77270466258E+02 -0.96918422551E+02  0.98272015811E+02  0.15818120836E+03  0.00000000000E+00 0.  1.
         11    1    3    3    0    0  0.11937690392E+03 -0.25270152919E+02  0.15600121575E+03  0.19805505582E+03  0.00000000000E+00 0. -1.
         -4    1    1    2    0  502 -0.29203738121E+03 -0.17038203965E+03 -0.30470465028E+01  0.33812003187E+03  0.00000000000E+00 0.  1.
<scales pt_clust_5="13000.00000" pt_clust_6="13000.00000" pt_clust_7="13000.00000" pt_clust_8="13000.00000" pt_clust_9="298.98325"></scales>
<clustering>
<clus scale="   93.001">  7  8 -1 -1</clus>
<clus scale="  108.845">  5  6 -1 -1</clus>
<clus scale="  249.498">  1  7  2 -1</clus>
<clus scale="  298.983">  2  9  1 -1</clus>
<clus scale="  298.983">  2  5  1 -1</clus>
</clustering>
</event>
<event>
 9    1  0.1881049E-005  0.1202295E+03  0.7546771E-02  0.1242727E+00
         21   -1    0    0  501  502  0.00000000000E+00  0.00000000000E+00  0.43709246946E+02  0.43709246946E+02  0.00000000000E+00 0.  1.
         -2   -1    0    0    0  501 -0.00000000000E+00 -0.00000000000E+00 -0.47990188016E+03  0.47990188016E+03  0.00000000000E+00 0.  1.
         23    2    1    2    0    0 -0.17200141039E+02 -0.64009816381E+02 -0.20917904222E+03  0.23748268855E+03  0.90824304076E+02 0.  0.
         23    2    1    2    0    0  0.16437184552E+02  0.93596655507E+02 -0.21908762953E+03  0.25548885604E+03  0.90800061607E+02 0.  0.
        -11    1    4    4    0    0  0.39712233968E+02  0.19870521327E+02 -0.37477907942E+02  0.58107596132E+02  0.00000000000E+00 0. -1.
         11    1    4    4    0    0 -0.23275049416E+02  0.73726134181E+02 -0.18160972159E+03  0.19738125990E+03  0.00000000000E+00 0.  1.
        -13    1    3    3    0    0 -0.52939651466E+02 -0.23471980959E+02 -0.11917854854E+03  0.13250308306E+03  0.00000000000E+00 0.  1.
         13    1    3    3    0    0  0.35739510428E+02 -0.40537835422E+02 -0.90000493678E+02  0.10497960549E+03  0.00000000000E+00 0. -1.
         -2    1    1    2    0  502  0.76295648710E+00 -0.29586839127E+02 -0.79259614682E+01  0.30639582525E+02  0.00000000000E+00 0.  1.
<scales pt_clust_5="13000.00000" pt_clust_6="13000.00000" pt_clust_7="13000.00000" pt_clust_8="13000.00000" pt_clust_9="29.59667"></scales>
<clustering>
<clus scale="   29.597">  1  9  2 -1</clus>
<clus scale="   90.800">  5  6 -1 -1</clus>
<clus scale="   90.824">  7  8 -1 -1</clus>
<clus scale="  120.211">  1  5  2 -1</clus>
<clus scale="   29.597">  1  5  2 -1</clus>
</clustering>
</event>
<event>
 9    1  0.2058048E-005  0.9119819E+02  0.7546771E-02  0.1301583E+00
         21   -1    0    0  501  502  0.00000000000E+00  0.00000000000E+00  0.71056078419E+02  0.71056078419E+02  0.00000000000E+00 0.  1.
          4   -1    0    0  502    0 -0.00000000000E+00 -0.00000000000E+00 -0.23354852156E+03  0.23354852156E+03  0.00000000000E+00 0. -1.
         23    2    1    2    0    0  0.45819862606E+01  0.23681922794E+01 -0.16559740266E+03  0.18783216994E+03  0.88497578309E+02 0.  0.
         23    2    1    2    0    0  0.66026434223E+01  0.16014872257E+02 -0.68916290007E+01  0.93045551077E+02  0.91158702226E+02 0.  0.
        -11    1    4    4    0    0 -0.40519677776E+01  0.48914053363E+02  0.15942113086E+02  0.51605755773E+02  0.00000000000E+00 0. -1.
         11    1    4    4    0    0  0.10654611200E+02 -0.32899181106E+02 -0.22833742086E+02  0.41439795305E+02  0.00000000000E+00 0.  1.
        -13    1    3    3    0    0  0.36606972879E+02  0.20202053017E+02 -0.13068560166E+03  0.13721122363E+03  0.00000000000E+00 0. -1.
         13    1    3    3    0    0 -0.32024986618E+02 -0.17833860737E+02 -0.34911800997E+02  0.50620946312E+02  0.00000000000E+00 0.  1.
          4    1    1    2  501    0 -0.11184629683E+02 -0.18383064536E+02  0.99965885195E+01  0.23726878954E+02  0.00000000000E+00 0. -1.
<scales pt_clust_5="13000.00000" pt_clust_6="13000.00000" pt_clust_7="13000.00000" pt_clust_8="13000.00000" pt_clust_9="21.51820"></scales>
<clustering>
<clus scale="   21.518">  1  9  2 -1</clus>
<clus scale="   88.498">  7  8 -1 -1</clus>
<clus scale="   88.538">  2  7  1 -1</clus>
<clus scale="   91.159">  5  6 -1 -1</clus>
<clus scale="   21.518">  1  5  2 -1</clus>
</clustering>
</event>
<event>
 9    1  0.1881049E-005  0.1254967E+03  0.7546771E-02  0.1234804E+00
         21   -1    0    0  501  502  0.00000000000E+00  0.00000000000E+00  0.48292949602E+03  0.48292949602E+03  0.00000000000E+00 0. -1.
         -2   -1    0    0    0  501 -0.00000000000E+00 -0.00000000000E+00 -0.47435795622E+02  0.47435795622E+02  0.00000000000E+00 0.  1.
         23    2    1    2    0    0  0.27573206227E+02  0.72785760773E+02  0.16088296334E+03  0.19968545582E+03  0.89066855210E+02 0.  0.
         23    2    1    2    0    0 -0.68955236179E+02 -0.71290682123E+02  0.16124610882E+03  0.20998912948E+03  0.90873213530E+02 0.  0.
        -11    1    3    3    0    0  0.59733949883E+02  0.56290223001E+02  0.11462675129E+03  0.14098236090E+03  0.00000000000E+00 0. -1.
         11    1    3    3    0    0 -0.32160743656E+02  0.16495537771E+02  0.46256212057E+02  0.58703094916E+02  0.00000000000E+00 0.  1.
        -11    1    4    4    0    0 -0.51774323021E+02 -0.33845982682E+02  0.23425936834E+02  0.66143069059E+02  0.00000000000E+00 0.  1.
         11    1    4    4    0    0 -0.17180913159E+02 -0.37444699441E+02  0.13782017199E+03  0.14384606043E+03  0.00000000000E+00 0. -1.
         -2    1    1    2    0  502  0.41382029952E+02 -0.14950786491E+01  0.11336462823E+03  0.12069070634E+03  0.00000000000E+00 0.  1.
<scales pt_clust_5="13000.00000" pt_clust_6="13000.00000" pt_clust_7="13000.00000" pt_clust_8="13000.00000" pt_clust_9="41.40903"></scales>
<clustering>
<clus scale="   41.409">  1  9  2 -1</clus>
<clus scale="   89.067">  5  6 -1 -1</clus>
<clus scale="   90.873">  7  8 -1 -1</clus>
<clus scale="  124.195">  2  5  1 -1</clus>
<clus scale="   41.409">  1  5  2 -1</clus>
</clustering>
</event>
<event>
 9    1  0.1881049E-005  0.1345382E+03  0.7546771E-02  0.1221763E+00
         21   -1    0    0  501  502  0.00000000000E+00  0.00000000000E+00  0.92310781193E+02  0.92310781193E+02  0.00000000000E+00 0. -1.
          3   -1    0    0  502    0 -0.00000000000E+00 -0.00000000000E+00 -0.60739034476E+03  0.60739034476E+03  0.00000000000E+00 0. -1.
         23    2    1    2    0    0 -0.23071379143E+02 -0.95511653661E+02 -0.44775097528E+03  0.46716925827E+03  0.90063397066E+02 0.  0.
         23    2    1    2    0    0 -0.39791794452E+01  0.94066044432E+02 -0.11632270146E+03  0.17654753388E+03  0.93668598038E+02 0.  0.
        -11    1    3    3    0    0  0.26217227155E+02 -0.19312028015E+02 -0.53683157741E+02  0.62786772897E+02  0.00000000000E+00 0.  1.
         11    1    3    3    0    0 -0.49288606298E+02 -0.76199625647E+02 -0.39406781754E+03  0.40438248538E+03  0.00000000000E+00 0. -1.
        -11    1    4    4    0    0  0.39588040001E+02  0.74533663362E+02 -0.65629940969E+02  0.10691009792E+03  0.00000000000E+00 0.  1.
         11    1    4    4    0    0 -0.43567219446E+02  0.19532381070E+02 -0.50692760491E+02  0.69637435957E+02  0.00000000000E+00 0. -1.
          3    1    1    2  501    0  0.27050558588E+02  0.14456092290E+01  0.48994113173E+02  0.55984333804E+02  0.00000000000E+00 0. -1.
<scales pt_clust_5="13000.00000" pt_clust_6="13000.00000" pt_clust_7="13000.00000" pt_clust_8="13000.00000" pt_clust_9="27.08916"></scales>
<clustering>
<clus scale="   27.089">  1  9  2 -1</clus>
<clus scale="   90.063">  5  6 -1 -1</clus>
<clus scale="   93.669">  7  8 -1 -1</clus>
<clus scale="  132.054">  2  5  1 -1</clus>
<clus scale="   27.089">  1  5  2 -1</clus>
</clustering>
</event>
<event>
 9    1  0.1881049E-005  0.1150353E+03  0.7546771E-02  0.1252335E+00
          3   -1    0    0  502    0 -0.00000000000E+00  0.00000000000E+00  0.32668547543E+03  0.32668547543E+03  0.00000000000E+00 0. -1.
         21   -1    0    0  501  502  0.00000000000E+00 -0.00000000000E+00 -0.81263243233E+02  0.81263243233E+02  0.00000000000E+00 0. -1.
         23    2    1    2    0    0  0.71857729662E+02  0.22968725396E+02  0.25155989706E+03  0.27787280132E+03  0.90773433595E+02 0.  0.
         23    2    1    2    0    0 -0.52664492717E+02 -0.87410284128E+01  0.56499905524E+01  0.10343466126E+03  0.88412965028E+02 0.  0.
        -11    1    4    4    0    0  0.17527327886E+02 -0.20601252501E+02  0.16111459200E+02  0.31483296285E+02  0.00000000000E+00 0.  1.
         11    1    4    4    0    0 -0.70191820603E+02  0.11860224089E+02 -0.10461468647E+02  0.71951364971E+02  0.00000000000E+00 0. -1.
        -11    1    3    3    0    0 -0.13396048211E+02  0.29591008773E+02  0.66192928776E+02  0.73733206412E+02  0.00000000000E+00 0.  1.
         11    1    3    3    0    0  0.85253777873E+02 -0.66222833776E+01  0.18536696828E+03  0.20413959491E+03  0.00000000000E+00 0. -1.
          3    1    1    2  501    0 -0.19193236945E+02 -0.14227696983E+02 -0.11787655412E+02  0.26641256088E+02  0.00000000000E+00 0. -1.
<scales pt_clust_5="13000.00000" pt_clust_6="13000.00000" pt_clust_7="13000.00000" pt_clust_8="13000.00000" pt_clust_9="23.89158"></scales>
<clustering>
<clus scale="   23.892">  2  9  1 -1</clus>
<clus scale="   88.413">  5  6 -1 -1</clus>
<clus scale="   90.773">  7  8 -1 -1</clus>
<clus scale="  113.182">  2  5  1 -1</clus>
<clus scale="   23.892">  2  5  1 -1</clus>
</clustering>
</event>
<event>
 9    1  0.1881049E-005  0.1570411E+03  0.7546771E-02  0.1192332E+00
         21   -1    0    0  501  502  0.00000000000E+00  0.00000000000E+00  0.13464912868E+03  0.13464912868E+03  0.00000000000E+00 0.  1.
         -4   -1    0    0    0  501 -0.00000000000E+00 -0.00000000000E+00 -0.34423352237E+03  0.34423352237E+03  0.00000000000E+00 0.  1.
         23    2    1    2    0    0 -0.52665140156E+02  0.14876536698E+03 -0.19315911497E+03  0.26515048388E+03  0.89942114730E+02 0.  0.
         23    2    1    2    0    0  0.49544554807E+02 -0.76015294306E+02 -0.43607560343E+02  0.13600709037E+03  0.91451197004E+02 0.  0.
        -11    1    3    3    0    0 -0.28728844941E+02  0.12980153732E+03 -0.19331070230E+03  0.23461204838E+03  0.00000000000E+00 0.  1.
         11    1    3    3    0    0 -0.23936295215E+02  0.18963829660E+02  0.15158732099E+00  0.30538435499E+02  0.00000000000E+00 0. -1.
        -11    1    4    4    0    0 -0.76520313210E+01 -0.26065969762E+02  0.22540676779E+02  0.35299723407E+02  0.00000000000E+00 0. -1.
         11    1    4    4    0    0  0.57196586128E+02 -0.49949324545E+02 -0.66148237122E+02  0.10070736697E+03  0.00000000000E+00 0.  1.
         -4    1    1    2    0  502  0.31205853486E+01 -0.72750072677E+02  0.27182281627E+02  0.77725076789E+02  0.00000000000E+00 0.  1.
<scales pt_clust_5="13000.00000" pt_clust_6="13000.00000" pt_clust_7="13000.00000" pt_clust_8="13000.00000" pt_clust_9="72.81697"></scales>
<clustering>
<clus scale="   72.817">  1  9  2 -1</clus>
<clus scale="   89.942">  5  6 -1 -1</clus>
<clus scale="   91.451">  7  8 -1 -1</clus>
<clus scale="  156.167">  2  5  1 -1</clus>
<clus scale="   72.817">  1  5  2 -1</clus>
</clustering>
</event>
<event>
 9    1  0.1881049E-005  0.9536992E+02  0.7546771E-02  0.1290561E+00
          3   -1    0    0  502    0 -0.00000000000E+00  0.00000000000E+00  0.29723094732E+03  0.29723094732E+03  0.00000000000E+00 0. -1.
         21   -1    0    0  501  502  0.00000000000E+00 -0.00000000000E+00 -0.84742220955E+02  0.84742220955E+02  0.00000000000E+00 0.  1.
         23    2    1    2    0    0  0.29519222867E+02 -0.21353989466E+02  0.23251099704E+03  0.25197948844E+03  0.90027337323E+02 0.  0.
         23    2    1    2    0    0  0.49320006636E+00 -0.71055374467E+00 -0.77287997234E+01  0.90767170616E+02  0.90433383125E+02 0.  0.
        -11    1    3    3    0    0  0.35828793377E+02 -0.49627011580E+02  0.10796335689E+03  0.12410732913E+03  0.00000000000E+00 0. -1.
         11    1    3    3    0    0 -0.63095705099E+01  0.28273022115E+02  0.12454764014E+03  0.12787215930E+03  0.00000000000E+00 0.  1.
        -11    1    4    4    0    0 -0.13864416177E+02  0.24649986016E+02 -0.38900296868E+02  0.48094458547E+02  0.00000000000E+00 0.  1.
         11    1    4    4    0    0  0.14357616243E+02 -0.25360539761E+02  0.31171497144E+02  0.42672712069E+02  0.00000000000E+00 0. -1.
          3    1    1    2  501    0 -0.30012422933E+02  0.22064543210E+02 -0.12293470952E+02  0.39226509219E+02  0.00000000000E+00 0. -1.
<scales pt_clust_5="13000.00000" pt_clust_6="13000.00000" pt_clust_7="13000.00000" pt_clust_8="13000.00000" pt_clust_9="37.25036"></scales>
<clustering>
<clus scale="   37.250">  2  9  1 -1</clus>
<clus scale="   90.027">  5  6 -1 -1</clus>
<clus scale="   90.433">  7  8 -1 -1</clus>
<clus scale="   94.985">  1  5  2 -1</clus>
<clus scale="   37.250">  2  5  1 -1</clus>
</clustering>
</event>
<event>
 9    1  0.1881049E-005  0.2167799E+03  0.7546771E-02  0.1136382E+00
          1   -1    0    0  502    0 -0.00000000000E+00  0.00000000000E+00  0.19436029839E+03  0.19436029839E+03  0.00000000000E+00 0. -1.
         21   -1    0    0  501  502  0.00000000000E+00 -0.00000000000E+00 -0.42126684883E+03  0.42126684883E+03  0.00000000000E+00 0. -1.
         23    2    1    2    0    0  0.17305618223E+03 -0.47735561821E+02  0.29107602377E+00  0.20204649070E+03  0.92712316378E+02 0.  0.
         23    2    1    2    0    0 -0.21778907993E+03  0.45060599286E+02 -0.70661517277E+02  0.25075639224E+03  0.91777869232E+02 0.  0.
        -11    1    3    3    0    0  0.11206517706E+03 -0.73004939295E+02 -0.14066098783E+02  0.13448486980E+03  0.00000000000E+00 0.  1.
         11    1    3    3    0    0  0.60991005174E+02  0.25269377475E+02  0.14357174806E+02  0.67561620899E+02  0.00000000000E+00 0. -1.
        -13    1    4    4    0    0 -0.83006663308E+02  0.47879828677E+02 -0.65066451117E+02  0.11582843869E+03  0.00000000000E+00 0.  1.
         13    1    4    4    0    0 -0.13478241662E+03 -0.28192293909E+01 -0.55950661597E+01  0.13492795355E+03  0.00000000000E+00 0. -1.
          1    1    1    2  501    0  0.44732897697E+02  0.26749625343E+01 -0.15653610918E+03  0.16282426428E+03  0.00000000000E+00 0. -1.
<scales pt_clust_5="13000.00000" pt_clust_6="13000.00000" pt_clust_7="13000.00000" pt_clust_8="13000.00000" pt_clust_9="44.81281"></scales>
<clustering>
<clus scale="   44.813">  2  9  1 -1</clus>
<clus scale="   91.778">  7  8 -1 -1</clus>
<clus scale="   92.712">  5  6 -1 -1</clus>
<clus scale="  216.382">  2  7  1 -1</clus>
<clus scale="   44.813">  2  5  1 -1</clus>
</clustering>
</event>
<event>
 9    1  0.1881049E-005  0.1196057E+03  0.7546771E-02  0.1243897E+00
         -3   -1    0    0    0  501 -0.00000000000E+00  0.00000000000E+00  0.54494059892E+03  0.54494059892E+03  0.00000000000E+00 0.  1.
         21   -1    0    0  501  502  0.00000000000E+00 -0.00000000000E+00 -0.66226855386E+02  0.66226855386E+02  0.00000000000E+00 0.  1.
         23    2    1    2    0    0 -0.94881273090E+01 -0.78654850720E+02  0.30571475856E+03  0.32907751603E+03  0.92487230743E+02 0.  0.
         23    2    1    2    0    0 -0.49731932113E+02  0.68283904510E+02  0.18256636246E+03  0.22121213711E+03  0.92023780718E+02 0.  0.
        -11    1    3    3    0    0 -0.24041365094E+02  0.13943188204E+02  0.61334270745E+02  0.67337155425E+02  0.00000000000E+00 0. -1.
         11    1    3    3    0    0  0.14553237785E+02 -0.92598038925E+02  0.24438048782E+03  0.26174036060E+03  0.00000000000E+00 0.  1.
        -13    1    4    4    0    0 -0.57367036346E+02  0.87225510352E+02  0.15579929263E+03  0.18754382447E+03  0.00000000000E+00 0.  1.
         13    1    4    4    0    0  0.76351042332E+01 -0.18941605842E+02  0.26767069829E+02  0.33668312636E+02  0.00000000000E+00 0. -1.
         -3    1    1    2    0  502  0.59220059422E+02  0.10370946211E+02 -0.95673774840E+01  0.60877801169E+02  0.00000000000E+00 0.  1.
<scales pt_clust_5="13000.00000" pt_clust_6="13000.00000" pt_clust_7="13000.00000" pt_clust_8="13000.00000" pt_clust_9="60.12131"></scales>
<clustering>
<clus scale="   60.121">  2  9  1 -1</clus>
<clus scale="   92.024">  7  8 -1 -1</clus>
<clus scale="   92.487">  5  6 -1 -1</clus>
<clus scale="  119.248">  2  7  1 -1</clus>
<clus scale="   60.121">  2  5  1 -1</clus>
</clustering>
</event>
<event>
 9    1  0.1881049E-005  0.1374583E+03  0.7546771E-02  0.1216901E+00
         21   -1    0    0  501  502  0.00000000000E+00  0.00000000000E+00  0.18675677346E+03  0.18675677346E+03  0.00000000000E+00 0. -1.
         -2   -1    0    0    0  501 -0.00000000000E+00 -0.00000000000E+00 -0.31257288519E+03  0.31257288519E+03  0.00000000000E+00 0.  1.
         23    2    1    2    0    0  0.45175500774E+02 -0.93667128603E+02 -0.25726148908E+03  0.29285071698E+03  0.93614698728E+02 0.  0.
         23    2    1    2    0    0 -0.42456986253E+02  0.68542818911E+02  0.73975578778E+02  0.14369837935E+03  0.93145715226E+02 0.  0.
        -11    1    4    4    0    0  0.15599183474E+01 -0.20210203641E+02  0.36099682532E+00  0.20273529421E+02  0.00000000000E+00 0.  1.
         11    1    4    4    0    0 -0.44016904600E+02  0.88753022553E+02  0.73614581953E+02  0.12342484992E+03  0.00000000000E+00 0. -1.
        -11    1    3    3    0    0 -0.14309213050E+02 -0.43636121505E+02 -0.16953173038E+03  0.17564131713E+03  0.00000000000E+00 0.  1.
         11    1    3    3    0    0  0.59484713825E+02 -0.50031007098E+02 -0.87729758702E+02  0.11720939984E+03  0.00000000000E+00 0. -1.
         -2    1    1    2    0  502 -0.27185145217E+01  0.25124309692E+02  0.57469798567E+02  0.62780562326E+02  0.00000000000E+00 0.  1.
<scales pt_clust_5="13000.00000" pt_clust_6="13000.00000" pt_clust_7="13000.00000" pt_clust_8="13000.00000" pt_clust_9="25.27096"></scales>
<clustering>
<clus scale="   25.271">  1  9  2 -1</clus>
<clus scale="   93.146">  5  6 -1 -1</clus>
<clus scale="   93.615">  7  8 -1 -1</clus>
<clus scale="  137.139">  1  5  2 -1</clus>
<clus scale="   25.271">  1  5  2 -1</clus>
</clustering>
</event>
<event>
 9    1  0.1881049E-005  0.3239226E+03  0.7546771E-02  0.1073982E+00
          1   -1    0    0  502    0 -0.00000000000E+00  0.00000000000E+00  0.68023265669E+03  0.68023265669E+03  0.00000000000E+00 0. -1.
         21   -1    0    0  501  502  0.00000000000E+00 -0.00000000000E+00 -0.23405953293E+03  0.23405953293E+03  0.00000000000E+00 0.  1.
         23    2    1    2    0    0 -0.31921908349E+03  0.63329760155E+02  0.42166631664E+03  0.54075400199E+03  0.93278755873E+02 0.  0.
         23    2    1    2    0    0  0.26755788672E+03 -0.87141539691E+02  0.66720845142E+02  0.30270101447E+03  0.89416789793E+02 0.  0.
        -11    1    3    3    0    0 -0.20399026363E+03  0.29892303796E+02  0.19244313730E+03  0.28202825847E+03  0.00000000000E+00 0.  1.
         11    1    3    3    0    0 -0.11522881986E+03  0.33437456359E+02  0.22922317934E+03  0.25872574352E+03  0.00000000000E+00 0. -1.
        -11    1    4    4    0    0  0.24292376340E+03 -0.97393675404E+02  0.39678189855E+02  0.26471086412E+03  0.00000000000E+00 0. -1.
         11    1    4    4    0    0  0.24634123323E+02  0.10252135713E+02  0.27042655288E+02  0.37990150350E+02  0.00000000000E+00 0.  1.
          1    1    1    2  501    0  0.51661196765E+02  0.23811779536E+02 -0.42214038016E+02  0.70837173161E+02  0.00000000000E+00 0. -1.
<scales pt_clust_5="13000.00000" pt_clust_6="13000.00000" pt_clust_7="13000.00000" pt_clust_8="13000.00000" pt_clust_9="56.88480"></scales>
<clustering>
<clus scale="   56.885">  2  9  1 -1</clus>
<clus scale="   89.417">  7  8 -1 -1</clus>
<clus scale="   93.279">  5  6 -1 -1</clus>
<clus scale="  322.832">  2  7  1 -1</clus>
<clus scale="   56.885">  2  5  1 -1</clus>
</clustering>
</event>
<event>
 9    1  0.1881049E-005  0.9272623E+02  0.7546771E-02  0.1297382E+00
          1   -1    0    0  502    0 -0.00000000000E+00  0.00000000000E+00  0.64244649655E+03  0.64244649655E+03  0.00000000000E+00 0. -1.
         21   -1    0    0  501  502  0.00000000000E+00 -0.00000000000E+00 -0.65731689838E+02  0.65731689838E+02  0.00000000000E+00 0. -1.
         23    2    1    2    0    0 -0.53239488634E+01 -0.48779806448E+01  0.41837982083E+03  0.42843825696E+03  0.92008295406E+02 0.  0.
         23    2    1    2    0    0 -0.83639355138E+01  0.24933139764E+02  0.20588670767E+03  0.22634766564E+03  0.90290157108E+02 0.  0.
        -11    1    3    3    0    0 -0.30548536836E+02 -0.37007612528E+02  0.28266050145E+03  0.28670496258E+03  0.00000000000E+00 0. -1.
         11    1    3    3    0    0  0.25224587972E+02  0.32129631883E+02  0.13571931938E+03  0.14173329439E+03  0.00000000000E+00 0.  1.
        -13    1    4    4    0    0 -0.33043425859E+02  0.46472817981E+02  0.95757083877E+02  0.11144958464E+03  0.00000000000E+00 0.  1.
         13    1    4    4    0    0  0.24679490345E+02 -0.21539678216E+02  0.11012962379E+03  0.11489808100E+03  0.00000000000E+00 0. -1.
          1    1    1    2  501    0  0.13687884377E+02 -0.20055159120E+02 -0.47551721793E+02  0.53392263780E+02  0.00000000000E+00 0. -1.
<scales pt_clust_5="13000.00000" pt_clust_6="13000.00000" pt_clust_7="13000.00000" pt_clust_8="13000.00000" pt_clust_9="24.28101"></scales>
<clustering>
<clus scale="   24.281">  2  9  1 -1</clus>
<clus scale="   90.290">  7  8 -1 -1</clus>
<clus scale="   91.022">  2  7  1 -1</clus>
<clus scale="   92.008">  5  6 -1 -1</clus>
<clus scale="   24.281">  2  5  1 -1</clus>
</clustering>
</event>
<event>
 9    1  0.1881049E-005  0.1062401E+03  0.7546771E-02  0.1267718E+00
          2   -1    0    0  502    0 -0.00000000000E+00  0.00000000000E+00  0.15750214882E+03  0.15750214882E+03  0.00000000000E+00 0. -1.
         21   -1    0    0  501  502  0.00000000000E+00 -0.00000000000E+00 -0.17526466703E+03  0.17526466703E+03  0.00000000000E+00 0. -1.
         23    2    1    2    0    0  0.27151452268E+02 -0.38032370415E+02  0.79107308058E+02  0.13021350918E+03  0.92270955482E+02 0.  0.
         23    2    1    2    0    0 -0.27723148599E+02  0.62251358630E+02 -0.13270702281E+02  0.11551481083E+03  0.92324186226E+02 0.  0.
        -11    1    3    3    0    0  0.24072640690E+02 -0.68114533296E+02  0.63501057227E+02  0.96184541091E+02  0.00000000000E+00 0.  1.
         11    1    3    3    0    0  0.30788115787E+01  0.30082162881E+02  0.15606250831E+02  0.34028968091E+02  0.00000000000E+00 0. -1.
        -11    1    4    4    0    0 -0.41949271678E+01 -0.24468644458E+02 -0.45306232617E+01  0.25235659744E+02  0.00000000000E+00 0.  1.
         11    1    4    4    0    0 -0.23528221432E+02  0.86720003089E+02 -0.87400790191E+01  0.90279151085E+02  0.00000000000E+00 0. -1.
          2    1    1    2  501    0  0.57169633088E+00 -0.24218988215E+02 -0.83599123986E+02  0.87038495840E+02  0.00000000000E+00 0. -1.
<scales pt_clust_5="13000.00000" pt_clust_6="13000.00000" pt_clust_7="13000.00000" pt_clust_8="13000.00000" pt_clust_9="24.22573"></scales>
<clustering>
<clus scale="   24.226">  2  9  1 -1</clus>
<clus scale="   92.271">  5  6 -1 -1</clus>
<clus scale="   92.324">  7  8 -1 -1</clus>
<clus scale="  106.194">  1  5  2 -1</clus>
<clus scale="   24.226">  2  5  1 -1</clus>
</clustering>
</event>
<event>
 9    1  0.1881049E-005  0.9696842E+02  0.7546771E-02  0.1288771E+00
         21   -1    0    0  501  502  0.00000000000E+00  0.00000000000E+00  0.70220146192E+02  0.70220146192E+02  0.00000000000E+00 0. -1.
         -3   -1    0    0    0  501 -0.00000000000E+00 -0.00000000000E+00 -0.20386832794E+03  0.20386832794E+03  0.00000000000E+00 0.  1.
         23    2    1    2    0    0  0.12291749814E+02 -0.13713242418E+02 -0.79015987723E+02  0.12581783631E+03  0.96163722296E+02 0.  0.
         23    2    1    2    0    0  0.12469915278E+02  0.85684572438E+01 -0.67036951698E+01  0.94078849932E+02  0.92611949710E+02 0.  0.
        -11    1    4    4    0    0 -0.35231610422E+02  0.21582082391E+02 -0.14975757881E+02  0.43946854010E+02  0.00000000000E+00 0.  1.
         11    1    4    4    0    0  0.47701525701E+02 -0.13013625148E+02  0.82720627108E+01  0.50131995922E+02  0.00000000000E+00 0. -1.
        -13    1    3    3    0    0  0.21856896501E+01  0.28904140789E+02 -0.76657817016E+02  0.81955155443E+02  0.00000000000E+00 0.  1.
         13    1    3    3    0    0  0.10106060164E+02 -0.42617383207E+02 -0.23581707069E+01  0.43862680864E+02  0.00000000000E+00 0. -1.
         -3    1    1    2    0  502 -0.24761665092E+02  0.51447851746E+01 -0.47928498856E+02  0.54191787895E+02  0.00000000000E+00 0.  1.
<scales pt_clust_5="13000.00000" pt_clust_6="13000.00000" pt_clust_7="13000.00000" pt_clust_8="13000.00000" pt_clust_9="25.29050"></scales>
<clustering>
<clus scale="   25.291">  1  9  2 -1</clus>
<clus scale="   92.612">  5  6 -1 -1</clus>
<clus scale="   93.447">  1  5  2 -1</clus>
<clus scale="   96.164">  7  8 -1 -1</clus>
<clus scale="   25.291">  1  5  2 -1</clus>
</clustering>
</event>
<event>
 9    1  0.1881049E-005  0.1519527E+03  0.7546771E-02  0.1198182E+00
         21   -1    0    0  501  502  0.00000000000E+00  0.00000000000E+00  0.70113554570E+02  0.70113554570E+02  0.00000000000E+00 0.  1.
          1   -1    0    0  502    0 -0.00000000000E+00 -0.00000000000E+00 -0.61601760821E+03  0.61601760821E+03  0.00000000000E+00 0. -1.
         23    2    1    2    0    0 -0.65226489833E+02  0.94455946701E+02 -0.42470226754E+03  0.44946300860E+03  0.92024774930E+02 0.  0.
         23    2    1    2    0    0  0.72654188776E+02 -0.12364155807E+03 -0.11647279848E+03  0.20618317514E+03  0.91540826397E+02 0.  0.
        -11    1    4    4    0    0  0.15129601669E+02 -0.13322819678E+02 -0.70856461809E+02  0.73668450173E+02  0.00000000000E+00 0. -1.
         11    1    4    4    0    0  0.57524587107E+02 -0.11031873839E+03 -0.45616336670E+02  0.13251472497E+03  0.00000000000E+00 0.  1.
        -11    1    3    3    0    0 -0.74937023133E+02  0.73827172632E+02 -0.40761589088E+03  0.42097116689E+03  0.00000000000E+00 0. -1.
         11    1    3    3    0    0  0.97105332999E+01  0.20628774070E+02 -0.17086376663E+02  0.28491841710E+02  0.00000000000E+00 0.  1.
          1    1    1    2  501    0 -0.74276989431E+01  0.29185611372E+02 -0.47289876152E+01  0.30484979032E+02  0.00000000000E+00 0. -1.
<scales pt_clust_5="13000.00000" pt_clust_6="13000.00000" pt_clust_7="13000.00000" pt_clust_8="13000.00000" pt_clust_9="30.11595"></scales>
<clustering>
<clus scale="   30.116">  1  9  2 -1</clus>
<clus scale="   91.541">  5  6 -1 -1</clus>
<clus scale="   92.025">  7  8 -1 -1</clus>
<clus scale="  151.660">  1  5  2 -1</clus>
<clus scale="   30.116">  1  5  2 -1</clus>
</clustering>
</event>
<event>
 9    1  0.1881049E-005  0.1005010E+03  0.7546771E-02  0.1283183E+00
         21   -1    0    0  501  502  0.00000000000E+00  0.00000000000E+00  0.66279213460E+02  0.66279213460E+02  0.00000000000E+00 0. -1.
          1   -1    0    0  502    0 -0.00000000000E+00 -0.00000000000E+00 -0.28619300240E+03  0.28619300240E+03  0.00000000000E+00 0.  1.
         23    2    1    2    0    0 -0.28328398435E+02 -0.25643391491E+02 -0.14103530424E+03  0.17622864400E+03  0.98516477004E+02 0.  0.
         23    2    1    2    0    0 -0.45650260982E+01  0.55900819352E+01 -0.97336715210E+02  0.13352567309E+03  0.91118498483E+02 0.  0.
        -11    1    3    3    0    0 -0.52098895900E+02 -0.26020105828E+02 -0.35839335090E+02  0.68379812818E+02  0.00000000000E+00 0. -1.
         11    1    3    3    0    0  0.23770497465E+02  0.37671433688E+00 -0.10519596915E+03  0.10784883119E+03  0.00000000000E+00 0.  1.
        -11    1    4    4    0    0 -0.46613495249E+02 -0.34432644766E+01 -0.63258412439E+02  0.78653040334E+02  0.00000000000E+00 0. -1.
         11    1    4    4    0    0  0.42048469151E+02  0.90333464117E+01 -0.34078302771E+02  0.54872632751E+02  0.00000000000E+00 0.  1.
          1    1    1    2  501    0  0.32893424533E+02  0.20053309556E+02  0.18458230509E+02  0.42717898768E+02  0.00000000000E+00 0.  1.
<scales pt_clust_5="13000.00000" pt_clust_6="13000.00000" pt_clust_7="13000.00000" pt_clust_8="13000.00000" pt_clust_9="38.52418"></scales>
<clustering>
<clus scale="   38.524">  1  9  2 -1</clus>
<clus scale="   91.118">  7  8 -1 -1</clus>
<clus scale="   93.261">  1  7  2 -1</clus>
<clus scale="   98.516">  5  6 -1 -1</clus>
<clus scale="   38.524">  1  5  2 -1</clus>
</clustering>
</event>
<event>
 9    1  0.1881049E-005  0.1134747E+03  0.7546771E-02  0.1255032E+00
         -2   -1    0    0    0  501 -0.00000000000E+00  0.00000000000E+00  0.12239075960E+03  0.12239075960E+03  0.00000000000E+00 0.  1.
         21   -1    0    0  501  502  0.00000000000E+00 -0.00000000000E+00 -0.28460410747E+03  0.28460410747E+03  0.00000000000E+00 0. -1.
         23    2    1    2    0    0  0.63489113134E+02 -0.10040178369E+02  0.68163669791E+02  0.13104995500E+03  0.91630410663E+02 0.  0.
         23    2    1    2    0    0 -0.83522052481E+02  0.23273409543E+02 -0.21117269827E+03  0.24520010844E+03  0.89507540713E+02 0.  0.
        -11    1    4    4    0    0 -0.42182459186E+02  0.27674765226E+02 -0.19359995017E+03  0.20006547228E+03  0.00000000000E+00 0. -1.
         11    1    4    4    0    0 -0.41339593294E+02 -0.44013556833E+01 -0.17572748095E+02  0.45134636159E+02  0.00000000000E+00 0.  1.
        -13    1    3    3    0    0  0.46177239861E+02 -0.38611432474E+02  0.75788839384E+02  0.96783926217E+02  0.00000000000E+00 0.  1.
         13    1    3    3    0    0  0.17311873273E+02  0.28571254104E+02 -0.76251695930E+01  0.34266028784E+02  0.00000000000E+00 0. -1.
         -2    1    1    2    0  502  0.20032939346E+02 -0.13233231174E+02 -0.19204319395E+02  0.30744803619E+02  0.00000000000E+00 0.  1.
<scales pt_clust_5="13000.00000" pt_clust_6="13000.00000" pt_clust_7="13000.00000" pt_clust_8="13000.00000" pt_clust_9="24.00910"></scales>
<clustering>
<clus scale="   24.009">  2  9  1 -1</clus>
<clus scale="   89.508">  5  6 -1 -1</clus>
<clus scale="   91.630">  7  8 -1 -1</clus>
<clus scale="  111.768">  2  5  1 -1</clus>
<clus scale="   24.009">  2  5  1 -1</clus>
</clustering>
</event>
<event>
 9    1  0.1881049E-005  0.1125913E+03  0.7546771E-02  0.1255876E+00
          1   -1    0    0  502    0 -0.00000000000E+00  0.00000000000E+00  0.67150265276E+03  0.67150265276E+03  0.00000000000E+00 0. -1.
         21   -1    0    0  501  502  0.00000000000E+00 -0.00000000000E+00 -0.24394652750E+02  0.24394652750E+02  0.00000000000E+00 0.  1.
         23    2    1    2    0    0 -0.56822023154E+02  0.22168838456E+02  0.33508846895E+03  0.35288905669E+03  0.92337449567E+02 0.  0.
         23    2    1    2    0    0  0.54236579489E+02 -0.45692364645E+02  0.27980123726E+03  0.30303251544E+03  0.92252773971E+02 0.  0.
        -11    1    3    3    0    0 -0.68746345604E+02 -0.12474467634E+02  0.26165851963E+03  0.27082624184E+03  0.00000000000E+00 0. -1.
         11    1    3    3    0    0  0.11924322451E+02  0.34643306090E+02  0.73429949324E+02  0.82062814847E+02  0.00000000000E+00 0.  1.
        -13    1    4    4    0    0  0.13414659942E+01 -0.44685555137E+02  0.21390502772E+03  0.21852679299E+03  0.00000000000E+00 0. -1.
         13    1    4    4    0    0  0.52895113495E+02 -0.10068095078E+01  0.65896209535E+02  0.84505722458E+02  0.00000000000E+00 0.  1.
          1    1    1    2  501    0  0.25854436647E+01  0.23523526189E+02  0.32218293797E+02  0.39975733371E+02  0.00000000000E+00 0. -1.
<scales pt_clust_5="13000.00000" pt_clust_6="13000.00000" pt_clust_7="13000.00000" pt_clust_8="13000.00000" pt_clust_9="23.66518"></scales>
<clustering>
<clus scale="   23.665">  2  9  1 -1</clus>
<clus scale="   92.253">  7  8 -1 -1</clus>
<clus scale="   92.337">  5  6 -1 -1</clus>
<clus scale="  112.522">  2  7  1 -1</clus>
<clus scale="   23.665">  2  5  1 -1</clus>
</clustering>
</event>
<event>
 9    1  0.1881049E-005  0.2869132E+03  0.7546771E-02  0.1091995E+00
         21   -1    0    0  501  502  0.00000000000E+00  0.00000000000E+00  0.40436056532E+02  0.40436056532E+02  0.00000000000E+00 0. -1.
          1   -1    0    0  502    0 -0.00000000000E+00 -0.00000000000E+00 -0.25895916216E+04  0.25895916216E+04  0.00000000000E+00 0. -1.
         23    2    1    2    0    0  0.57985261058E+02 -0.27246397270E+03 -0.15223293887E+04  0.15502905911E+04  0.91187950407E+02 0.  0.
         23    2    1    2    0    0 -0.22424343575E+02  0.26007457875E+03 -0.73256728923E+03  0.78307841346E+03  0.91735111465E+02 0.  0.
        -13    1    3    3    0    0  0.28471086909E+02 -0.24233267364E+03 -0.13944101508E+04  0.14155971871E+04  0.00000000000E+00 0. -1.
         13    1    3    3    0    0  0.29514174149E+02 -0.30131299066E+02 -0.12791923790E+03  0.13469340401E+03  0.00000000000E+00 0.  1.
        -13    1    4    4    0    0  0.16636179301E+01  0.82709770819E+02 -0.12663541867E+03  0.15126203448E+03  0.00000000000E+00 0.  1.
         13    1    4    4    0    0 -0.24087961505E+02  0.17736480793E+03 -0.60593187056E+03  0.63181637898E+03  0.00000000000E+00 0. -1.
          1    1    1    2  501    0 -0.35560917484E+02  0.12389393955E+02 -0.29425888714E+03  0.29665867356E+03  0.00000000000E+00 0. -1.
<scales pt_clust_5="13000.00000" pt_clust_6="13000.00000" pt_clust_7="13000.00000" pt_clust_8="13000.00000" pt_clust_9="37.65737"></scales>
<clustering>
<clus scale="   37.657">  1  9  2 -1</clus>
<clus scale="   91.188">  5  6 -1 -1</clus>
<clus scale="   91.735">  7  8 -1 -1</clus>
<clus scale="  286.739">  2  5  1 -1</clus>
<clus scale="   37.657">  1  5  2 -1</clus>
</clustering>
</event>
<event>
 9    1  0.1881049E-005  0.1356572E+03  0.7546771E-02  0.1237481E+00
         21   -1    0    0  501  502  0.00000000000E+00  0.00000000000E+00  0.25165894570E+03  0.25165894570E+03  0.00000000000E+00 0. -1.
          1   -1    0    0  502    0 -0.00000000000E+00 -0.00000000000E+00 -0.17364913060E+03  0.17364913060E+03  0.00000000000E+00 0. -1.
         23    2    1    2    0    0  0.27958575078E+02 -0.12806790857E+02 -0.67992445318E+02  0.11527694876E+03  0.87864136503E+02 0.  0.
         23    2    1    2    0    0 -0.15122453710E+02 -0.89101085621E+02 -0.30620172476E+01  0.12900588019E+03  0.92007875262E+02 0.  0.
        -11    1    4    4    0    0 -0.23980771909E+02  0.82185875878E+00 -0.26407396769E+02  0.35680575630E+02  0.00000000000E+00 0.  1.
         11    1    4    4    0    0  0.88583181984E+01 -0.89922944379E+02  0.23345379522E+02  0.93325304565E+02  0.00000000000E+00 0. -1.
        -13    1    3    3    0    0 -0.90046142800E+01  0.32922133770E+02 -0.28251485779E+02  0.44306843929E+02  0.00000000000E+00 0.  1.
         13    1    3    3    0    0  0.36963189358E+02 -0.45728924626E+02 -0.39740959539E+02  0.70970104834E+02  0.00000000000E+00 0. -1.
          1    1    1    2  501    0 -0.12836121368E+02  0.10190787648E+03  0.14906427767E+03  0.18102524735E+03  0.00000000000E+00 0. -1.
<scales pt_clust_5="13000.00000" pt_clust_6="13000.00000" pt_clust_7="13000.00000" pt_clust_8="13000.00000" pt_clust_9="99.68666"></scales>
<clustering>
<clus scale="   87.864">  7  8 -1 -1</clus>
<clus scale="   92.008">  5  6 -1 -1</clus>
<clus scale="   93.090">  2  7  1 -1</clus>
<clus scale="   99.687">  1  9  2 -1</clus>
<clus scale="   99.687">  1  5  2 -1</clus>
</clustering>
</event>
<event>
 9    1  0.1881049E-005  0.9250764E+02  0.7546771E-02  0.1297960E+00
         21   -1    0    0  501  502  0.00000000000E+00  0.00000000000E+00  0.16710207132E+03  0.16710207132E+03  0.00000000000E+00 0. -1.
          1   -1    0    0  502    0 -0.00000000000E+00 -0.00000000000E+00 -0.10381399539E+03  0.10381399539E+03  0.00000000000E+00 0. -1.
         23    2    1    2    0    0 -0.80296703242E+01 -0.94716005982E+01 -0.38150507836E+02  0.10071744933E+03  0.92381581104E+02 0.  0.
         23    2    1    2    0    0 -0.12197371040E+02 -0.55627425388E+01  0.33084054688E+02  0.97345983106E+02  0.90564704977E+02 0.  0.
        -11    1    3    3    0    0 -0.62942204424E+01  0.30436590192E+02 -0.50156996238E+02  0.59006164976E+02  0.00000000000E+00 0. -1.
         11    1    3    3    0    0 -0.17354498818E+01 -0.39908190790E+02  0.12006488402E+02  0.41711284351E+02  0.00000000000E+00 0.  1.
        -13    1    4    4    0    0 -0.45781121152E+02 -0.82902335304E+01 -0.46503592644E+01  0.46757511346E+02  0.00000000000E+00 0.  1.
         13    1    4    4    0    0  0.33583750113E+02  0.27274909917E+01  0.37734413952E+02  0.50588471761E+02  0.00000000000E+00 0. -1.
          1    1    1    2  501    0  0.20227041364E+02  0.15034343137E+02  0.68354529075E+02  0.72852634276E+02  0.00000000000E+00 0. -1.
<scales pt_clust_5="13000.00000" pt_clust_6="13000.00000" pt_clust_7="13000.00000" pt_clust_8="13000.00000" pt_clust_9="25.20247"></scales>
<clustering>
<clus scale="   25.202">  1  9  2 -1</clus>
<clus scale="   90.565">  7  8 -1 -1</clus>
<clus scale="   90.693">  1  7  2 -1</clus>
<clus scale="   92.382">  5  6 -1 -1</clus>
<clus scale="   25.202">  1  5  2 -1</clus>
</clustering>
</event>
<event>
 9    1  0.1881049E-005  0.9665697E+02  0.7546771E-02  0.1289501E+00
         21   -1    0    0  501  502  0.00000000000E+00  0.00000000000E+00  0.38003353867E+03  0.38003353867E+03  0.00000000000E+00 0. -1.
          3   -1    0    0  502    0 -0.00000000000E+00 -0.00000000000E+00 -0.67378995934E+02  0.67378995934E+02  0.00000000000E+00 0. -1.
         23    2    1    2    0    0  0.33163417440E+02 -0.19516092015E+01  0.95937053553E+01  0.95972115582E+02  0.89526458391E+02 0.  0.
         23    2    1    2    0    0 -0.10356989726E+02 -0.15000720920E+02  0.73493895755E+02  0.12012138537E+03  0.93249695151E+02 0.  0.
        -11    1    4    4    0    0  0.26085810594E+02 -0.15309420627E+02  0.77753357426E+02  0.83429206308E+02  0.00000000000E+00 0.  1.
         11    1    4    4    0    0 -0.36442800320E+02  0.30869970719E+00 -0.42594616703E+01  0.36692179063E+02  0.00000000000E+00 0. -1.
        -11    1    3    3    0    0  0.39886445014E+02 -0.27151118412E+02  0.34964226191E+02  0.59586985492E+02  0.00000000000E+00 0. -1.
         11    1    3    3    0    0 -0.67230275739E+01  0.25199509211E+02 -0.25370520835E+02  0.36385130090E+02  0.00000000000E+00 0.  1.
          3    1    1    2  501    0 -0.22806427714E+02  0.16952330121E+02  0.22956694162E+03  0.23131903365E+03  0.00000000000E+00 0. -1.
<scales pt_clust_5="13000.00000" pt_clust_6="13000.00000" pt_clust_7="13000.00000" pt_clust_8="13000.00000" pt_clust_9="28.41680"></scales>
<clustering>
<clus scale="   28.417">  1  9  2 -1</clus>
<clus scale="   89.526">  7  8 -1 -1</clus>
<clus scale="   93.070">  2  7  1 -1</clus>
<clus scale="   93.250">  5  6 -1 -1</clus>
<clus scale="   28.417">  1  5  2 -1</clus>
</clustering>
</event>
<event>
 9    1  0.1881049E-005  0.2374929E+03  0.7546771E-02  0.1121700E+00
         21   -1    0    0  501  502  0.00000000000E+00  0.00000000000E+00  0.24803977316E+03  0.24803977316E+03  0.00000000000E+00 0.  1.
          2   -1    0    0  502    0 -0.00000000000E+00 -0.00000000000E+00 -0.92092997741E+03  0.92092997741E+03  0.00000000000E+00 0. -1.
         23    2    1    2    0    0 -0.85013966760E+02  0.19469859785E+03 -0.70013731637E+03  0.73738438733E+03  0.91698169914E+02 0.  0.
         23    2    1    2    0    0  0.10192432305E+03 -0.25927473941E+03  0.11951241813E+03  0.31770417558E+03  0.95082947847E+02 0.  0.
        -11    1    4    4    0    0  0.72409108854E+02 -0.25235147947E+03  0.96752931808E+02  0.27979542178E+03  0.00000000000E+00 0.  1.
         11    1    4    4    0    0  0.29515214197E+02 -0.69232599385E+01  0.22759486322E+02  0.37908753803E+02  0.00000000000E+00 0. -1.
        -13    1    3    3    0    0 -0.99304313286E+02  0.12958613405E+03 -0.53301059757E+03  0.55745332531E+03  0.00000000000E+00 0. -1.
         13    1    3    3    0    0  0.14290346526E+02  0.65112463799E+02 -0.16712671880E+03  0.17993106203E+03  0.00000000000E+00 0.  1.
          2    1    1    2  501    0 -0.16910356291E+02  0.64576141562E+02 -0.92265306013E+02  0.11388118766E+03  0.00000000000E+00 0. -1.
<scales pt_clust_5="13000.00000" pt_clust_6="13000.00000" pt_clust_7="13000.00000" pt_clust_8="13000.00000" pt_clust_9="66.75360"></scales>
<clustering>
<clus scale="   66.754">  1  9  2 -1</clus>
<clus scale="   91.698">  7  8 -1 -1</clus>
<clus scale="   95.083">  5  6 -1 -1</clus>
<clus scale="  236.158">  2  7  1 -1</clus>
<clus scale="   66.754">  1  5  2 -1</clus>
</clustering>
</event>
<event>
 9    1  0.1881049E-005  0.1287602E+03  0.7546771E-02  0.1230613E+00
         -3   -1    0    0    0  501 -0.00000000000E+00  0.00000000000E+00  0.96937474729E+02  0.96937474729E+02  0.00000000000E+00 0.  1.
         21   -1    0    0  501  502  0.00000000000E+00 -0.00000000000E+00 -0.23414483372E+03  0.23414483372E+03  0.00000000000E+00 0. -1.
         23    2    1    2    0    0 -0.89610956103E+02  0.32178082258E+02 -0.26133994585E+02  0.13526289602E+03  0.92452760565E+02 0.  0.
         23    2    1    2    0    0  0.64388677284E+02 -0.16099927056E+02 -0.11639227067E+03  0.16543913614E+03  0.97045544356E+02 0.  0.
        -11    1    3    3    0    0 -0.41144235503E+02 -0.27357611419E+02 -0.31017534298E+02  0.58338447456E+02  0.00000000000E+00 0. -1.
         11    1    3    3    0    0 -0.48466720600E+02  0.59535693676E+02  0.48835397134E+01  0.76924448567E+02  0.00000000000E+00 0.  1.
        -11    1    4    4    0    0  0.56415232033E+02  0.90965371734E+01 -0.12516551896E+03  0.13759299593E+03  0.00000000000E+00 0. -1.
         11    1    4    4    0    0  0.79734452513E+01 -0.25196464229E+02  0.87732482834E+01  0.27846140204E+02  0.00000000000E+00 0.  1.
         -3    1    1    2    0  502  0.25222278819E+02 -0.16078155202E+02  0.53189062667E+01  0.30380276289E+02  0.00000000000E+00 0.  1.
<scales pt_clust_5="13000.00000" pt_clust_6="13000.00000" pt_clust_7="13000.00000" pt_clust_8="13000.00000" pt_clust_9="29.91106"></scales>
<clustering>
<clus scale="   29.911">  2  9  1 -1</clus>
<clus scale="   92.453">  5  6 -1 -1</clus>
<clus scale="   97.046">  7  8 -1 -1</clus>
<clus scale="  125.335">  1  5  2 -1</clus>
<clus scale="   29.911">  2  5  1 -1</clus>
</clustering>
</event>
<event>
 9    1  0.1881049E-005  0.9024008E+02  0.7546771E-02  0.1303198E+00
          1   -1    0    0  502    0 -0.00000000000E+00  0.00000000000E+00  0.41828039709E+03  0.41828039709E+03  0.00000000000E+00 0. -1.
         21   -1    0    0  501  502  0.00000000000E+00 -0.00000000000E+00 -0.43021398898E+02  0.43021398898E+02  0.00000000000E+00 0.  1.
         23    2    1    2    0    0 -0.17920027317E+02 -0.75961744438E+01  0.12302604331E+03  0.15287837727E+03  0.88642888378E+02 0.  0.
         23    2    1    2    0    0 -0.35539889048E+02 -0.54697543361E+01  0.74497853089E+02  0.12236308559E+03  0.90165362941E+02 0.  0.
        -11    1    3    3    0    0 -0.15419503449E+02 -0.45100639269E+02  0.93979258245E+02  0.10537518555E+03  0.00000000000E+00 0.  1.
         11    1    3    3    0    0 -0.25005238677E+01  0.37504464825E+02  0.29046785064E+02  0.47503191725E+02  0.00000000000E+00 0. -1.
        -11    1    4    4    0    0  0.21135255142E+02  0.24983441910E+02  0.24366571587E+02  0.40799524391E+02  0.00000000000E+00 0. -1.
         11    1    4    4    0    0 -0.56675144190E+02 -0.30453196246E+02  0.50131281502E+02  0.81563561200E+02  0.00000000000E+00 0.  1.
          1    1    1    2  501    0  0.53459916365E+02  0.13065928780E+02  0.17773510179E+03  0.18606033312E+03  0.00000000000E+00 0. -1.
<scales pt_clust_5="13000.00000" pt_clust_6="13000.00000" pt_clust_7="13000.00000" pt_clust_8="13000.00000" pt_clust_9="55.03348"></scales>
<clustering>
<clus scale="   55.033">  2  9  1 -1</clus>
<clus scale="   88.643">  5  6 -1 -1</clus>
<clus scale="   88.719">  1  5  2 -1</clus>
<clus scale="   90.165">  7  8 -1 -1</clus>
<clus scale="   55.033">  2  5  1 -1</clus>
</clustering>
</event>
<event>
 9    1  0.1881049E-005  0.1457210E+03  0.7546771E-02  0.1212689E+00
          1   -1    0    0  502    0 -0.00000000000E+00  0.00000000000E+00  0.65860556119E+03  0.65860556119E+03  0.00000000000E+00 0. -1.
         21   -1    0    0  501  502  0.00000000000E+00 -0.00000000000E+00 -0.83043965959E+02  0.83043965959E+02  0.00000000000E+00 0. -1.
         23    2    1    2    0    0 -0.75348453879E+02 -0.31686448401E+01  0.36953183465E+03  0.39037369719E+03  0.10074927706E+03 0.  0.
         23    2    1    2    0    0 -0.24763387196E+02  0.10028271138E+03  0.64937210534E+02  0.15288069311E+03  0.92118496878E+02 0.  0.
        -11    1    3    3    0    0  0.21147296595E+02  0.16795689086E+02  0.91142917925E+02  0.95059638191E+02  0.00000000000E+00 0.  1.
         11    1    3    3    0    0 -0.96495750474E+02 -0.19964333926E+02  0.27838891673E+03  0.29531405900E+03  0.00000000000E+00 0. -1.
        -11    1    4    4    0    0 -0.46099352821E+02  0.10515088507E+03  0.45129382998E+02  0.12336336641E+03  0.00000000000E+00 0. -1.
         11    1    4    4    0    0  0.21335965626E+02 -0.48681736858E+01  0.19807827536E+02  0.29517326706E+02  0.00000000000E+00 0.  1.
          1    1    1    2  501    0  0.10011184107E+03 -0.97114066543E+02  0.14109255005E+03  0.19839513684E+03  0.00000000000E+00 0. -1.
<scales pt_clust_5="13000.00000" pt_clust_6="13000.00000" pt_clust_7="13000.00000" pt_clust_8="13000.00000" pt_clust_9="112.91055"></scales>
<clustering>
<clus scale="   92.118">  7  8 -1 -1</clus>
<clus scale="  100.749">  5  6 -1 -1</clus>
<clus scale="  125.849">  1  5  2 -1</clus>
<clus scale="  112.911">  2  9  1 -1</clus>
<clus scale="  112.911">  2  5  1 -1</clus>
</clustering>
</event>
<event>
 9    1  0.1881049E-005  0.9440037E+02  0.7546771E-02  0.1294019E+00
         21   -1    0    0  501  502  0.00000000000E+00  0.00000000000E+00  0.10861151234E+03  0.10861151234E+03  0.00000000000E+00 0. -1.
         -3   -1    0    0    0  501 -0.00000000000E+00 -0.00000000000E+00 -0.21556880457E+03  0.21556880457E+03  0.00000000000E+00 0.  1.
         23    2    1    2    0    0 -0.69227986528E+00 -0.10788763059E+02 -0.14288876047E+03  0.17068514527E+03  0.92732649514E+02 0.  0.
         23    2    1    2    0    0 -0.27499526170E+02  0.42068615083E+02  0.91270014171E+01  0.10357837575E+03  0.90106522812E+02 0.  0.
        -11    1    3    3    0    0 -0.26684703702E+02 -0.43829323260E+02 -0.79655732289E+02  0.94752934918E+02  0.00000000000E+00 0.  1.
         11    1    3    3    0    0  0.25992423836E+02  0.33040560201E+02 -0.63233028185E+02  0.75932210351E+02  0.00000000000E+00 0. -1.
        -13    1    4    4    0    0 -0.25083138745E+02  0.62762857109E+02 -0.17452323423E+02  0.69806329761E+02  0.00000000000E+00 0. -1.
         13    1    4    4    0    0 -0.24163874258E+01 -0.20694242027E+02  0.26579324840E+02  0.33772045988E+02  0.00000000000E+00 0.  1.
         -3    1    1    2    0  502  0.28191806036E+02 -0.31279852023E+02  0.26804466829E+02  0.49916795892E+02  0.00000000000E+00 0.  1.
<scales pt_clust_5="13000.00000" pt_clust_6="13000.00000" pt_clust_7="13000.00000" pt_clust_8="13000.00000" pt_clust_9="42.10947"></scales>
<clustering>
<clus scale="   42.109">  1  9  2 -1</clus>
<clus scale="   90.107">  7  8 -1 -1</clus>
<clus scale="   91.822">  1  7  2 -1</clus>
<clus scale="   92.733">  5  6 -1 -1</clus>
<clus scale="   42.109">  1  5  2 -1</clus>
</clustering>
</event>
<event>
 9    1  0.1881049E-005  0.1681461E+03  0.7546771E-02  0.1180208E+00
          1   -1    0    0  502    0 -0.00000000000E+00  0.00000000000E+00  0.23601348203E+03  0.23601348203E+03  0.00000000000E+00 0. -1.
         21   -1    0    0  501  502  0.00000000000E+00 -0.00000000000E+00 -0.32336872119E+03  0.32336872119E+03  0.00000000000E+00 0. -1.
         23    2    1    2    0    0  0.38006851606E+02  0.12417166340E+03  0.80759620802E+02  0.17954388223E+03  0.94078512605E+02 0.  0.
         23    2    1    2    0    0 -0.11608373032E+03 -0.15650057073E+03 -0.19579107152E+03  0.29091627690E+03  0.91270342356E+02 0.  0.
        -13    1    3    3    0    0  0.53182639995E+02  0.24934418781E+02  0.19267965995E+02  0.61817254471E+02  0.00000000000E+00 0.  1.
         13    1    3    3    0    0 -0.15175788389E+02  0.99237244618E+02  0.61491654807E+02  0.11772662776E+03  0.00000000000E+00 0. -1.
        -13    1    4    4    0    0 -0.77283410210E+02 -0.15829814705E+03 -0.16479379039E+03  0.24122193558E+03  0.00000000000E+00 0. -1.
         13    1    4    4    0    0 -0.38800320109E+02  0.17975763287E+01 -0.30997281129E+02  0.49694341313E+02  0.00000000000E+00 0.  1.
          1    1    1    2  501    0  0.78076878713E+02  0.32328907327E+02  0.27676211560E+02  0.88922044088E+02  0.00000000000E+00 0. -1.
<scales pt_clust_5="13000.00000" pt_clust_6="13000.00000" pt_clust_7="13000.00000" pt_clust_8="13000.00000" pt_clust_9="84.50541"></scales>
<clustering>
<clus scale="   84.505">  2  9  1 -1</clus>
<clus scale="   91.270">  7  8 -1 -1</clus>
<clus scale="   94.079">  5  6 -1 -1</clus>
<clus scale="  166.591">  2  7  1 -1</clus>
<clus scale="   84.505">  2  5  1 -1</clus>
</clustering>
</event>
<event>
 9    1  0.1881049E-005  0.1581389E+03  0.7546771E-02  0.1190857E+00
         21   -1    0    0  501  502  0.00000000000E+00  0.00000000000E+00  0.75388667941E+02  0.75388667941E+02  0.00000000000E+00 0. -1.
          2   -1    0    0  502    0 -0.00000000000E+00 -0.00000000000E+00 -0.70781061524E+03  0.70781061524E+03  0.00000000000E+00 0.  1.
         23    2    1    2    0    0  0.26215409565E+02 -0.12556750538E+03 -0.46344264724E+03  0.48933581704E+03  0.90642200182E+02 0.  0.
         23    2    1    2    0    0 -0.61723697371E+01  0.13348025865E+03 -0.19946291298E+03  0.25653270447E+03  0.90379738945E+02 0.  0.
        -13    1    4    4    0    0  0.32076333072E+02  0.55854562756E+02 -0.13175179127E+03  0.14665318895E+03  0.00000000000E+00 0. -1.
         13    1    4    4    0    0 -0.38248702810E+02  0.77625695891E+02 -0.67711121703E+02  0.10987951552E+03  0.00000000000E+00 0.  1.
        -13    1    3    3    0    0 -0.28323369513E+02 -0.82787822163E+02 -0.27233170808E+03  0.28604299674E+03  0.00000000000E+00 0.  1.
         13    1    3    3    0    0  0.54538779078E+02 -0.42779683222E+02 -0.19111093916E+03  0.20329282030E+03  0.00000000000E+00 0. -1.
          2    1    1    2  501    0 -0.20043039828E+02 -0.79127532629E+01  0.30483612922E+02  0.37330761665E+02  0.00000000000E+00 0.  1.
<scales pt_clust_5="13000.00000" pt_clust_6="13000.00000" pt_clust_7="13000.00000" pt_clust_8="13000.00000" pt_clust_9="21.54844"></scales>
<clustering>
<clus scale="   21.548">  1  9  2 -1</clus>
<clus scale="   90.380">  5  6 -1 -1</clus>
<clus scale="   90.642">  7  8 -1 -1</clus>
<clus scale="  157.989">  1  5  2 -1</clus>
<clus scale="   21.548">  1  5  2 -1</clus>
</clustering>
</event>
<event>
 9    1  0.1881049E-005  0.1365671E+03  0.7546771E-02  0.1219166E+00
         21   -1    0    0  501  502  0.00000000000E+00  0.00000000000E+00  0.32715543942E+03  0.32715543942E+03  0.00000000000E+00 0. -1.
          3   -1    0    0  502    0 -0.00000000000E+00 -0.00000000000E+00 -0.16887887554E+03  0.16887887554E+03  0.00000000000E+00 0. -1.
         23    2    1    2    0    0 -0.45255995597E+02 -0.84197423396E+02 -0.10132481908E+03  0.16775620899E+03  0.93477887483E+02 0.  0.
         23    2    1    2    0    0  0.85481400280E+02  0.98753748609E+02  0.21122023209E+03  0.26369710609E+03  0.88672457167E+02 0.  0.
        -11    1    4    4    0    0  0.13537343137E+02  0.83105122073E+02  0.11567467213E+03  0.14307463349E+03  0.00000000000E+00 0.  1.
         11    1    4    4    0    0  0.71944057142E+02  0.15648626536E+02  0.95545559957E+02  0.12062247261E+03  0.00000000000E+00 0. -1.
        -13    1    3    3    0    0 -0.66255696679E+02 -0.34573493793E+02 -0.35639322910E+02  0.82796770184E+02  0.00000000000E+00 0.  1.
         13    1    3    3    0    0  0.20999701081E+02 -0.49623929603E+02 -0.65685496168E+02  0.84959438802E+02  0.00000000000E+00 0. -1.
          3    1    1    2  501    0 -0.40225404682E+02 -0.14556325213E+02  0.48381150867E+02  0.64580999874E+02  0.00000000000E+00 0. -1.
<scales pt_clust_5="13000.00000" pt_clust_6="13000.00000" pt_clust_7="13000.00000" pt_clust_8="13000.00000" pt_clust_9="42.77815"></scales>
<clustering>
<clus scale="   42.778">  1  9  2 -1</clus>
<clus scale="   88.672">  5  6 -1 -1</clus>
<clus scale="   93.478">  7  8 -1 -1</clus>
<clus scale="  133.324">  1  5  2 -1</clus>
<clus scale="   42.778">  1  5  2 -1</clus>
</clustering>
</event>
<event>
 9    1  0.1881049E-005  0.1207384E+03  0.7546771E-02  0.1243328E+00
          3   -1    0    0  502    0 -0.00000000000E+00  0.00000000000E+00  0.52735957373E+03  0.52735957373E+03  0.00000000000E+00 0. -1.
         21   -1    0    0  501  502  0.00000000000E+00 -0.00000000000E+00 -0.76206809946E+02  0.76206809946E+02  0.00000000000E+00 0.  1.
         23    2    1    2    0    0  0.58079650722E+02 -0.98760742269E+01  0.23281466392E+03  0.25631066193E+03  0.89563971631E+02 0.  0.
         23    2    1    2    0    0 -0.87479946048E+02  0.72912870539E+02  0.23328144796E+03  0.27611277616E+03  0.94069142370E+02 0.  0.
        -11    1    4    4    0    0 -0.33542657954E+02 -0.20803606110E+02  0.57758449574E+02  0.69956689652E+02  0.00000000000E+00 0. -1.
         11    1    4    4    0    0 -0.53937288094E+02  0.93716476649E+02  0.17552299839E+03  0.20615608651E+03  0.00000000000E+00 0.  1.
        -13    1    3    3    0    0  0.46105536102E+02  0.35986756469E+02  0.10839091151E+03  0.12316394277E+03  0.00000000000E+00 0.  1.
         13    1    3    3    0    0  0.11974114620E+02 -0.45862830696E+02  0.12442375240E+03  0.13314671916E+03  0.00000000000E+00 0. -1.
          3    1    1    2  501    0  0.29400295326E+02 -0.63036796312E+02 -0.14943348091E+02  0.71142945587E+02  0.00000000000E+00 0. -1.
<scales pt_clust_5="13000.00000" pt_clust_6="13000.00000" pt_clust_7="13000.00000" pt_clust_8="13000.00000" pt_clust_9="69.55584"></scales>
<clustering>
<clus scale="   69.556">  2  9  1 -1</clus>
<clus scale="   89.564">  7  8 -1 -1</clus>
<clus scale="   94.069">  5  6 -1 -1</clus>
<clus scale="  117.262">  1  7  2 -1</clus>
<clus scale="   69.556">  2  5  1 -1</clus>
</clustering>
</event>
<event>
 9    1  0.1881049E-005  0.1018254E+03  0.7546771E-02  0.1276678E+00
         -2   -1    0    0    0  501 -0.00000000000E+00  0.00000000000E+00  0.72875292679E+03  0.72875292679E+03  0.00000000000E+00 0.  1.
         21   -1    0    0  501  502  0.00000000000E+00 -0.00000000000E+00 -0.14243728086E+03  0.14243728086E+03  0.00000000000E+00 0.  1.
         23    2    1    2    0    0 -0.26028687929E+02  0.28388343964E+02  0.42872178474E+03  0.44005562236E+03  0.91450486056E+02 0.  0.
         23    2    1    2    0    0  0.60633860949E+02 -0.98358393009E+01  0.28083779945E+03  0.30178706213E+03  0.91827841311E+02 0.  0.
        -11    1    4    4    0    0 -0.57534921842E+01  0.29204349364E+02  0.47382271510E+02  0.55956021548E+02  0.00000000000E+00 0.  1.
         11    1    4    4    0    0  0.66387353134E+02 -0.39040188665E+02  0.23345552794E+03  0.24583104058E+03  0.00000000000E+00 0. -1.
        -11    1    3    3    0    0 -0.14522692393E+02 -0.32825964084E+02  0.18870621464E+03  0.19208979139E+03  0.00000000000E+00 0.  1.
         11    1    3    3    0    0 -0.11505995536E+02  0.61214308047E+02  0.24001557010E+03  0.24796583098E+03  0.00000000000E+00 0. -1.
         -2    1    1    2    0  502 -0.34605173021E+02 -0.18552504663E+02 -0.12324393826E+03  0.12934752316E+03  0.00000000000E+00 0.  1.
<scales pt_clust_5="13000.00000" pt_clust_6="13000.00000" pt_clust_7="13000.00000" pt_clust_8="13000.00000" pt_clust_9="39.26466"></scales>
<clustering>
<clus scale="   39.265">  2  9  1 -1</clus>
<clus scale="   91.450">  7  8 -1 -1</clus>
<clus scale="   91.828">  5  6 -1 -1</clus>
<clus scale="  101.485">  1  7  2 -1</clus>
<clus scale="   39.265">  2  5  1 -1</clus>
</clustering>
</event>
<event>
 9    1  0.1881049E-005  0.1110236E+03  0.7546771E-02  0.1260710E+00
         21   -1    0    0  501  502  0.00000000000E+00  0.00000000000E+00  0.45322840269E+03  0.45322840269E+03  0.00000000000E+00 0. -1.
         -4   -1    0    0    0  501 -0.00000000000E+00 -0.00000000000E+00 -0.10018221777E+03  0.10018221777E+03  0.00000000000E+00 0.  1.
         23    2    1    2    0    0 -0.31274000748E+02  0.33318248721E+02 -0.13500931698E+02  0.10317719331E+03  0.91515513671E+02 0.  0.
         23    2    1    2    0    0  0.80006283454E+02 -0.21036532167E+02  0.61770853329E+02  0.14134146123E+03  0.96530975673E+02 0.  0.
        -13    1    4    4    0    0  0.52047660748E+02  0.25505464764E+02 -0.14847716527E+01  0.57980102354E+02  0.00000000000E+00 0.  1.
         13    1    4    4    0    0  0.27958622706E+02 -0.46541996932E+02  0.63255624982E+02  0.83361358877E+02  0.00000000000E+00 0. -1.
        -13    1    3    3    0    0 -0.44876096702E+02 -0.17369014230E+02  0.28610554808E+01  0.48205107084E+02  0.00000000000E+00 0.  1.
         13    1    3    3    0    0  0.13602095954E+02  0.50687262951E+02 -0.16361987178E+02  0.54972086228E+02  0.00000000000E+00 0. -1.
         -4    1    1    2    0  502 -0.48732282706E+02 -0.12281716553E+02  0.30477626329E+03  0.30889196591E+03  0.00000000000E+00 0.  1.
<scales pt_clust_5="13000.00000" pt_clust_6="13000.00000" pt_clust_7="13000.00000" pt_clust_8="13000.00000" pt_clust_9="50.25610"></scales>
<clustering>
<clus scale="   50.256">  1  9  2 -1</clus>
<clus scale="   91.516">  7  8 -1 -1</clus>
<clus scale="   96.531">  5  6 -1 -1</clus>
<clus scale="  106.692">  2  7  1 -1</clus>
<clus scale="   50.256">  1  5  2 -1</clus>
</clustering>
</event>
<event>
 9    1  0.1881049E-005  0.9095623E+02  0.7546771E-02  0.1301888E+00
          1   -1    0    0  502    0 -0.00000000000E+00  0.00000000000E+00  0.19413751233E+03  0.19413751233E+03  0.00000000000E+00 0. -1.
         21   -1    0    0  501  502  0.00000000000E+00 -0.00000000000E+00 -0.56843218603E+02  0.56843218603E+02  0.00000000000E+00 0.  1.
         23    2    1    2    0    0  0.29077168618E+01  0.15156975104E+01  0.90773966011E+02  0.12683139898E+03  0.88518578306E+02 0.  0.
         23    2    1    2    0    0  0.17179464233E+02 -0.10428470343E+02  0.34718091307E+02  0.99204890726E+02  0.90732450066E+02 0.  0.
        -11    1    3    3    0    0 -0.67864534217E+01 -0.35798240796E+02  0.78213968187E+02  0.86284383371E+02  0.00000000000E+00 0. -1.
         11    1    3    3    0    0  0.96941702835E+01  0.37313938306E+02  0.12559997824E+02  0.40547015608E+02  0.00000000000E+00 0.  1.
        -13    1    4    4    0    0 -0.30220219652E+02  0.19739829953E+02  0.79165207207E+01  0.36953942452E+02  0.00000000000E+00 0.  1.
         13    1    4    4    0    0  0.47399683885E+02 -0.30168300295E+02  0.26801570587E+02  0.62250948274E+02  0.00000000000E+00 0. -1.
          1    1    1    2  501    0 -0.20087181095E+02  0.89127728322E+01  0.11802236407E+02  0.24944441227E+02  0.00000000000E+00 0. -1.
<scales pt_clust_5="13000.00000" pt_clust_6="13000.00000" pt_clust_7="13000.00000" pt_clust_8="13000.00000" pt_clust_9="21.97572"></scales>
<clustering>
<clus scale="   21.976">  2  9  1 -1</clus>
<clus scale="   88.519">  5  6 -1 -1</clus>
<clus scale="   88.748">  1  5  2 -1</clus>
<clus scale="   90.732">  7  8 -1 -1</clus>
<clus scale="   21.976">  2  5  1 -1</clus>
</clustering>
</event>
<event>
 9    1  0.1881049E-005  0.1087639E+03  0.7546771E-02  0.1263433E+00
          2   -1    0    0  502    0 -0.00000000000E+00  0.00000000000E+00  0.47668073877E+03  0.47668073877E+03  0.00000000000E+00 0. -1.
         21   -1    0    0  501  502  0.00000000000E+00 -0.00000000000E+00 -0.66400757853E+02  0.66400757853E+02  0.00000000000E+00 0.  1.
         23    2    1    2    0    0  0.43349707795E+02 -0.44113446972E+02  0.37235456518E+03  0.38792118734E+03  0.89497106148E+02 0.  0.
         23    2    1    2    0    0 -0.65757558090E+02  0.20009654819E+02  0.10286452762E+02  0.11218337564E+03  0.88061659802E+02 0.  0.
        -11    1    3    3    0    0 -0.17462779742E+02  0.15335505672E+02  0.65543504135E+02  0.69541910707E+02  0.00000000000E+00 0.  1.
         11    1    3    3    0    0  0.60812487537E+02 -0.59448952644E+02  0.30681106105E+03  0.31837927664E+03  0.00000000000E+00 0. -1.
        -11    1    4    4    0    0 -0.32502218504E+02 -0.20156948023E+02  0.37327988872E+02  0.53442263374E+02  0.00000000000E+00 0. -1.
         11    1    4    4    0    0 -0.33255339586E+02  0.40166602842E+02 -0.27041536110E+02  0.58741112264E+02  0.00000000000E+00 0.  1.
          2    1    1    2  501    0  0.22407850295E+02  0.24103792153E+02  0.27638962978E+02  0.42976933644E+02  0.00000000000E+00 0. -1.
<scales pt_clust_5="13000.00000" pt_clust_6="13000.00000" pt_clust_7="13000.00000" pt_clust_8="13000.00000" pt_clust_9="32.91055"></scales>
<clustering>
<clus scale="   32.911">  2  9  1 -1</clus>
<clus scale="   88.062">  7  8 -1 -1</clus>
<clus scale="   89.497">  5  6 -1 -1</clus>
<clus scale="  107.586">  2  7  1 -1</clus>
<clus scale="   32.911">  2  5  1 -1</clus>
</clustering>
</event>
<event>
 9    1  0.1881049E-005  0.1004231E+03  0.7546771E-02  0.1283734E+00
          2   -1    0    0  502    0 -0.00000000000E+00  0.00000000000E+00  0.43413276220E+03  0.43413276220E+03  0.00000000000E+00 0. -1.
         21   -1    0    0  501  502  0.00000000000E+00 -0.00000000000E+00 -0.31155589678E+02  0.31155589678E+02  0.00000000000E+00 0.  1.
         23    2    1    2    0    0  0.22049901597E+02 -0.19261487858E+02  0.25196324635E+03  0.26888609159E+03  0.89202296296E+02 0.  0.
         23    2    1    2    0    0 -0.37996919838E+00  0.20676791748E+02  0.14070009593E+03  0.17236137533E+03  0.97387127585E+02 0.  0.
        -11    1    3    3    0    0 -0.22886293405E+02  0.21367059331E+02  0.61351902985E+02  0.68879529979E+02  0.00000000000E+00 0. -1.
         11    1    3    3    0    0  0.44936195003E+02 -0.40628547190E+02  0.19061134336E+03  0.20000656161E+03  0.00000000000E+00 0.  1.
        -13    1    4    4    0    0  0.40337382186E+01  0.51541382563E+02  0.12914810096E+03  0.13911152771E+03  0.00000000000E+00 0. -1.
         13    1    4    4    0    0 -0.44137074170E+01 -0.30864590815E+02  0.11551994972E+02  0.33249847626E+02  0.00000000000E+00 0.  1.
          2    1    1    2  501    0 -0.21669932399E+02 -0.14153038897E+01  0.10313830252E+02  0.24040884961E+02  0.00000000000E+00 0. -1.
<scales pt_clust_5="13000.00000" pt_clust_6="13000.00000" pt_clust_7="13000.00000" pt_clust_8="13000.00000" pt_clust_9="21.71610"></scales>
<clustering>
<clus scale="   21.716">  2  9  1 -1</clus>
<clus scale="   89.202">  5  6 -1 -1</clus>
<clus scale="   92.507">  1  5  2 -1</clus>
<clus scale="   97.387">  7  8 -1 -1</clus>
<clus scale="   21.716">  2  5  1 -1</clus>
</clustering>
</event>
<event>
 9    1  0.1881049E-005  0.1297431E+03  0.7546771E-02  0.1239163E+00
         21   -1    0    0  501  502  0.00000000000E+00  0.00000000000E+00  0.30431778531E+03  0.30431778531E+03  0.00000000000E+00 0. -1.
         -3   -1    0    0    0  501 -0.00000000000E+00 -0.00000000000E+00 -0.99039510374E+02  0.99039510374E+02  0.00000000000E+00 0.  1.
         23    2    1    2    0    0  0.28165884809E+02  0.34726870507E+02  0.73644690860E+01  0.10309115922E+03  0.92597403327E+02 0.  0.
         23    2    1    2    0    0 -0.26656436935E+02  0.70958042755E+02  0.91065580947E+02  0.14997268188E+03  0.91941589153E+02 0.  0.
        -11    1    3    3    0    0  0.38675422959E+02 -0.22140877873E+02  0.78919913970E+01  0.45258041741E+02  0.00000000000E+00 0.  1.
         11    1    3    3    0    0 -0.10509538150E+02  0.56867748380E+02 -0.52752231095E+00  0.57833117482E+02  0.00000000000E+00 0. -1.
        -13    1    4    4    0    0 -0.35362566298E+02  0.90478098929E+02  0.80330360444E+02  0.12605460836E+03  0.00000000000E+00 0. -1.
         13    1    4    4    0    0  0.87061293626E+01 -0.19520056174E+02  0.10735220503E+02  0.23918073517E+02  0.00000000000E+00 0.  1.
         -3    1    1    2    0  502 -0.15094478741E+01 -0.10568491326E+03  0.10684822490E+03  0.15029345458E+03  0.00000000000E+00 0.  1.
<scales pt_clust_5="13000.00000" pt_clust_6="13000.00000" pt_clust_7="13000.00000" pt_clust_8="13000.00000" pt_clust_9="91.54249"></scales>
<clustering>
<clus scale="   91.942">  7  8 -1 -1</clus>
<clus scale="   92.597">  5  6 -1 -1</clus>
<clus scale="  102.828">  2  5  1 -1</clus>
<clus scale="   91.542">  1  9  2 -1</clus>
<clus scale="   91.542">  1  5  2 -1</clus>
</clustering>
</event>
<event>
 9    1  0.1881049E-005  0.9408877E+02  0.7546771E-02  0.1295373E+00
         21   -1    0    0  501  502  0.00000000000E+00  0.00000000000E+00  0.76341625110E+02  0.76341625110E+02  0.00000000000E+00 0.  1.
          1   -1    0    0  502    0 -0.00000000000E+00 -0.00000000000E+00 -0.20840741376E+03  0.20840741376E+03  0.00000000000E+00 0. -1.
         23    2    1    2    0    0 -0.10822635455E+01 -0.23174960889E+02 -0.11222387235E+03  0.14434106673E+03  0.87760446172E+02 0.  0.
         23    2    1    2    0    0  0.34646906301E+02  0.83292846998E+01 -0.29324517750E+02  0.10250152051E+03  0.91525129154E+02 0.  0.
        -11    1    4    4    0    0  0.26105849650E+02  0.41792226228E+02  0.98782366439E+01  0.50256194825E+02  0.00000000000E+00 0.  1.
         11    1    4    4    0    0  0.85410566510E+01 -0.33462941528E+02 -0.39202754394E+02  0.52245325690E+02  0.00000000000E+00 0. -1.
        -13    1    3    3    0    0  0.38660722415E+02 -0.29439243309E+02 -0.75977155899E+02  0.90187852412E+02  0.00000000000E+00 0.  1.
         13    1    3    3    0    0 -0.39742985960E+02  0.62642824205E+01 -0.36246716454E+02  0.54153214318E+02  0.00000000000E+00 0. -1.
          1    1    1    2  501    0 -0.33564642756E+02  0.14845676189E+02  0.94826014482E+01  0.37906451629E+02  0.00000000000E+00 0. -1.
<scales pt_clust_5="13000.00000" pt_clust_6="13000.00000" pt_clust_7="13000.00000" pt_clust_8="13000.00000" pt_clust_9="36.70122"></scales>
<clustering>
<clus scale="   36.701">  1  9  2 -1</clus>
<clus scale="   87.760">  7  8 -1 -1</clus>
<clus scale="   90.431">  2  7  1 -1</clus>
<clus scale="   91.525">  5  6 -1 -1</clus>
<clus scale="   36.701">  1  5  2 -1</clus>
</clustering>
</event>
<event>
 9    1  0.1881049E-005  0.1038137E+03  0.7546771E-02  0.1281092E+00
          2   -1    0    0  502    0 -0.00000000000E+00  0.00000000000E+00  0.29256301356E+03  0.29256301356E+03  0.00000000000E+00 0. -1.
         21   -1    0    0  501  502  0.00000000000E+00 -0.00000000000E+00 -0.11479297037E+03  0.11479297037E+03  0.00000000000E+00 0. -1.
         23    2    1    2    0    0  0.11916002656E+02  0.19748047737E+02  0.17313504694E+03  0.19318345613E+03  0.82535608875E+02 0.  0.
         23    2    1    2    0    0 -0.65056428112E+02 -0.20056522918E+02  0.62529793844E+02  0.13558622133E+03  0.99191962108E+02 0.  0.
        -11    1    3    3    0    0  0.42398558348E+02 -0.28940678112E+01  0.12403704874E+03  0.13111522733E+03  0.00000000000E+00 0.  1.
         11    1    3    3    0    0 -0.30482555692E+02  0.22642115549E+02  0.49097998205E+02  0.62068228795E+02  0.00000000000E+00 0. -1.
        -13    1    4    4    0    0 -0.59286595192E+02  0.32375176765E+02  0.34340751144E+02  0.75778226616E+02  0.00000000000E+00 0.  1.
         13    1    4    4    0    0 -0.57698329207E+01 -0.52431699683E+02  0.28189042701E+02  0.59807994716E+02  0.00000000000E+00 0. -1.
          2    1    1    2  501    0  0.53140425457E+02  0.30847518095E+00 -0.57894797598E+02  0.78586306463E+02  0.00000000000E+00 0. -1.
<scales pt_clust_5="13000.00000" pt_clust_6="13000.00000" pt_clust_7="13000.00000" pt_clust_8="13000.00000" pt_clust_9="53.14132"></scales>
<clustering>
<clus scale="   53.141">  2  9  1 -1</clus>
<clus scale="   82.536">  5  6 -1 -1</clus>
<clus scale="   88.036">  1  5  2 -1</clus>
<clus scale="   99.192">  7  8 -1 -1</clus>
<clus scale="   53.141">  2  5  1 -1</clus>
</clustering>
</event>
<event>
 9    1  0.1881049E-005  0.9764708E+02  0.7546771E-02  0.1285536E+00
         21   -1    0    0  501  502  0.00000000000E+00  0.00000000000E+00  0.34397824497E+03  0.34397824497E+03  0.00000000000E+00 0.  1.
          1   -1    0    0  502    0 -0.00000000000E+00 -0.00000000000E+00 -0.70248559035E+02  0.70248559035E+02  0.00000000000E+00 0. -1.
         23    2    1    2    0    0  0.18707768675E+02 -0.12962301722E+02  0.31936126880E+01  0.98106491041E+02  0.95376530382E+02 0.  0.
         23    2    1    2    0    0  0.31174766779E+02  0.32038194053E+02  0.21197515098E+03  0.23686415466E+03  0.95775002843E+02 0.  0.
        -11    1    4    4    0    0  0.20968672781E+02  0.62733511739E+02  0.17828058568E+03  0.19015558357E+03  0.00000000000E+00 0.  1.
         11    1    4    4    0    0  0.10206093998E+02 -0.30695317686E+02  0.33694565296E+02  0.46708571088E+02  0.00000000000E+00 0. -1.
        -13    1    3    3    0    0 -0.33556510084E+02  0.29195055691E+01  0.22119303822E+02  0.40296730430E+02  0.00000000000E+00 0.  1.
         13    1    3    3    0    0  0.52264278759E+02 -0.15881807291E+02 -0.18925691134E+02  0.57809760611E+02  0.00000000000E+00 0. -1.
          1    1    1    2  501    0 -0.49882535455E+02 -0.19075892331E+02  0.58560922264E+02  0.79256158297E+02  0.00000000000E+00 0. -1.
<scales pt_clust_5="13000.00000" pt_clust_6="13000.00000" pt_clust_7="13000.00000" pt_clust_8="13000.00000" pt_clust_9="53.40559"></scales>
<clustering>
<clus scale="   53.406">  1  9  2 -1</clus>
<clus scale="   95.377">  7  8 -1 -1</clus>
<clus scale="   95.775">  5  6 -1 -1</clus>
<clus scale="   97.256">  2  7  1 -1</clus>
<clus scale="   53.406">  1  5  2 -1</clus>
</clustering>
</event>
<event>
 9    1  0.1881049E-005  0.9904119E+02  0.7546771E-02  0.1282356E+00
          2   -1    0    0  502    0 -0.00000000000E+00  0.00000000000E+00  0.58707469628E+03  0.58707469628E+03  0.00000000000E+00 0. -1.
         21   -1    0    0  501  502  0.00000000000E+00 -0.00000000000E+00 -0.33696230163E+02  0.33696230163E+02  0.00000000000E+00 0.  1.
         23    2    1    2    0    0 -0.22010072801E+02  0.42210870023E+01  0.36365050979E+03  0.37659609955E+03  0.95292539269E+02 0.  0.
         23    2    1    2    0    0  0.26091809621E+02 -0.31208919130E+02  0.19048772703E+03  0.21686949939E+03  0.95352118249E+02 0.  0.
        -13    1    3    3    0    0  0.23600121287E+02  0.29972239511E+02  0.86484161415E+02  0.94524129416E+02  0.00000000000E+00 0.  1.
         13    1    3    3    0    0 -0.45610194088E+02 -0.25751152509E+02  0.27716634838E+03  0.28207197013E+03  0.00000000000E+00 0. -1.
        -13    1    4    4    0    0 -0.13880358854E+02 -0.18352216536E+02  0.12659596648E+01  0.23044974888E+02  0.00000000000E+00 0.  1.
         13    1    4    4    0    0  0.39972168475E+02 -0.12856702593E+02  0.18922176737E+03  0.19382452451E+03  0.00000000000E+00 0. -1.
          2    1    1    2  501    0 -0.40817368207E+01  0.26987832127E+02 -0.75977071110E+00  0.27305327501E+02  0.00000000000E+00 0. -1.
<scales pt_clust_5="13000.00000" pt_clust_6="13000.00000" pt_clust_7="13000.00000" pt_clust_8="13000.00000" pt_clust_9="27.29476"></scales>
<clustering>
<clus scale="   27.295">  2  9  1 -1</clus>
<clus scale="   95.293">  5  6 -1 -1</clus>
<clus scale="   95.352">  7  8 -1 -1</clus>
<clus scale="   98.984">  1  5  2 -1</clus>
<clus scale="   27.295">  2  5  1 -1</clus>
</clustering>
</event>
<event>
 9    1  0.1881049E-005  0.9322987E+02  0.7546771E-02  0.1299333E+00
         21   -1    0    0  501  502  0.00000000000E+00  0.00000000000E+00  0.23039087681E+03  0.23039087681E+03  0.00000000000E+00 0.  1.
          2   -1    0    0  502    0 -0.00000000000E+00 -0.00000000000E+00 -0.48658848997E+02  0.48658848997E+02  0.00000000000E+00 0. -1.
         23    2    1    2    0    0 -0.17448527821E+02  0.11778105566E+02  0.66634772527E+02  0.11447310485E+03  0.90668207937E+02 0.  0.
         23    2    1    2    0    0  0.25918065763E+02  0.11334961599E+02  0.67959640511E+02  0.11139860225E+03  0.83611652048E+02 0.  0.
        -11    1    4    4    0    0  0.51851899099E+02 -0.12078599133E+02  0.38586529423E+02  0.65752811728E+02  0.00000000000E+00 0.  1.
         11    1    4    4    0    0 -0.25933833336E+02  0.23413560732E+02  0.29373111089E+02  0.45645790525E+02  0.00000000000E+00 0. -1.
        -13    1    3    3    0    0  0.15508219094E+02 -0.16624918074E+02  0.67221289747E+02  0.70961923281E+02  0.00000000000E+00 0.  1.
         13    1    3    3    0    0 -0.32956746915E+02  0.28403023639E+02 -0.58651722019E+00  0.43511181569E+02  0.00000000000E+00 0. -1.
          2    1    1    2  501    0 -0.84695379420E+01 -0.23113067165E+02  0.47137614777E+02  0.53178018707E+02  0.00000000000E+00 0. -1.
<scales pt_clust_5="13000.00000" pt_clust_6="13000.00000" pt_clust_7="13000.00000" pt_clust_8="13000.00000" pt_clust_9="24.61599"></scales>
<clustering>
<clus scale="   24.616">  1  9  2 -1</clus>
<clus scale="   83.612">  5  6 -1 -1</clus>
<clus scale="   86.383">  1  5  2 -1</clus>
<clus scale="   90.668">  7  8 -1 -1</clus>
<clus scale="   24.616">  1  5  2 -1</clus>
</clustering>
</event>
<event>
 9    1  0.1881049E-005  0.1156302E+03  0.7546771E-02  0.1251039E+00
         21   -1    0    0  501  502  0.00000000000E+00  0.00000000000E+00  0.21366312002E+03  0.21366312002E+03  0.00000000000E+00 0. -1.
          2   -1    0    0  502    0 -0.00000000000E+00 -0.00000000000E+00 -0.14599312874E+03  0.14599312874E+03  0.00000000000E+00 0. -1.
         23    2    1    2    0    0 -0.47619514978E+02 -0.72690432707E+02 -0.66688518746E+02  0.14368551163E+03  0.92987367451E+02 0.  0.
         23    2    1    2    0    0 -0.28829399064E+01  0.37966314445E+02  0.47900528862E+02  0.10999316948E+03  0.91401774009E+02 0.  0.
        -13    1    3    3    0    0  0.44365068810E+00  0.20974582071E+02 -0.46479323164E+01  0.21487977890E+02  0.00000000000E+00 0.  1.
         13    1    3    3    0    0 -0.48063165666E+02 -0.93665014778E+02 -0.62040586429E+02  0.12219753374E+03  0.00000000000E+00 0. -1.
        -13    1    4    4    0    0 -0.46802146939E+02  0.22789048567E+02  0.30762626710E+02  0.60465865534E+02  0.00000000000E+00 0. -1.
         13    1    4    4    0    0  0.43919207033E+02  0.15177265878E+02  0.17137902152E+02  0.49527303946E+02  0.00000000000E+00 0.  1.
          2    1    1    2  501    0  0.50502454885E+02  0.34724118263E+02  0.86457981158E+02  0.10597756765E+03  0.00000000000E+00 0. -1.
<scales pt_clust_5="13000.00000" pt_clust_6="13000.00000" pt_clust_7="13000.00000" pt_clust_8="13000.00000" pt_clust_9="61.28835"></scales>
<clustering>
<clus scale="   61.288">  1  9  2 -1</clus>
<clus scale="   91.402">  7  8 -1 -1</clus>
<clus scale="   92.987">  5  6 -1 -1</clus>
<clus scale="  114.359">  1  7  2 -1</clus>
<clus scale="   61.288">  1  5  2 -1</clus>
</clustering>
</event>
<event>
 9    1  0.1881049E-005  0.9382408E+02  0.7546771E-02  0.1295500E+00
          2   -1    0    0  502    0 -0.00000000000E+00  0.00000000000E+00  0.28079080702E+03  0.28079080702E+03  0.00000000000E+00 0. -1.
         21   -1    0    0  501  502  0.00000000000E+00 -0.00000000000E+00 -0.16203350159E+03  0.16203350159E+03  0.00000000000E+00 0. -1.
         23    2    1    2    0    0 -0.56167824411E+01  0.42301732252E+01  0.20383899923E+03  0.22429955670E+03  0.93330117972E+02 0.  0.
         23    2    1    2    0    0 -0.24933796021E+02 -0.29590952042E+02  0.24977378175E+02  0.10152258838E+03  0.90474570481E+02 0.  0.
        -11    1    3    3    0    0 -0.73036549102E+01  0.41849471598E+02  0.48560441975E+02  0.64520060236E+02  0.00000000000E+00 0.  1.
         11    1    3    3    0    0  0.16868724691E+01 -0.37619298373E+02  0.15527855725E+03  0.15977949647E+03  0.00000000000E+00 0. -1.
        -11    1    4    4    0    0 -0.39929533552E+02 -0.15881483567E+02  0.52162651551E+02  0.67583514165E+02  0.00000000000E+00 0.  1.
         11    1    4    4    0    0  0.14995737531E+02 -0.13709468475E+02 -0.27185273376E+02  0.33939074214E+02  0.00000000000E+00 0. -1.
          2    1    1    2  501    0  0.30550578462E+02  0.25360778816E+02 -0.11005907198E+03  0.11700216353E+03  0.00000000000E+00 0. -1.
<scales pt_clust_5="13000.00000" pt_clust_6="13000.00000" pt_clust_7="13000.00000" pt_clust_8="13000.00000" pt_clust_9="39.70525"></scales>
<clustering>
<clus scale="   39.705">  2  9  1 -1</clus>
<clus scale="   90.475">  7  8 -1 -1</clus>
<clus scale="   90.984">  2  7  1 -1</clus>
<clus scale="   93.330">  5  6 -1 -1</clus>
<clus scale="   39.705">  2  5  1 -1</clus>
</clustering>
</event>
<event>
 9    1  0.1881049E-005  0.1003286E+03  0.7546771E-02  0.1280287E+00
         -4   -1    0    0    0  501 -0.00000000000E+00  0.00000000000E+00  0.47688220879E+02  0.47688220879E+02  0.00000000000E+00 0.  1.
         21   -1    0    0  501  502  0.00000000000E+00 -0.00000000000E+00 -0.63193553669E+03  0.63193553669E+03  0.00000000000E+00 0.  1.
         23    2    1    2    0    0  0.21990940737E+02 -0.36131488988E+02 -0.48086959787E+02  0.11336444847E+03  0.93541736694E+02 0.  0.
         23    2    1    2    0    0  0.32968548421E+02  0.34391690497E+02 -0.19676087025E+03  0.22243437794E+03  0.92154754988E+02 0.  0.
        -11    1    3    3    0    0  0.50960539267E+02 -0.28141057042E+02 -0.18796273215E+01  0.58244558996E+02  0.00000000000E+00 0.  1.
         11    1    3    3    0    0 -0.28969598530E+02 -0.79904319455E+01 -0.46207332465E+02  0.55119889470E+02  0.00000000000E+00 0. -1.
        -13    1    4    4    0    0 -0.14455527960E+02  0.48802918203E+02 -0.71874917085E+02  0.88072077412E+02  0.00000000000E+00 0. -1.
         13    1    4    4    0    0  0.47424076381E+02 -0.14411227706E+02 -0.12488595317E+03  0.13436230053E+03  0.00000000000E+00 0.  1.
         -4    1    1    2    0  502 -0.54959489158E+02  0.17397984907E+01 -0.33939948577E+03  0.34382493116E+03  0.00000000000E+00 0.  1.
<scales pt_clust_5="13000.00000" pt_clust_6="13000.00000" pt_clust_7="13000.00000" pt_clust_8="13000.00000" pt_clust_9="54.98702"></scales>
<clustering>
<clus scale="   54.987">  2  9  1 -1</clus>
<clus scale="   92.155">  7  8 -1 -1</clus>
<clus scale="   93.542">  5  6 -1 -1</clus>
<clus scale="   99.037">  2  7  1 -1</clus>
<clus scale="   54.987">  2  5  1 -1</clus>
</clustering>
</event>
<event>
 9    1  0.1881049E-005  0.9248711E+02  0.7546771E-02  0.1297037E+00
         21   -1    0    0  501  502  0.00000000000E+00  0.00000000000E+00  0.27907015909E+02  0.27907015909E+02  0.00000000000E+00 0. -1.
         -1   -1    0    0    0  501 -0.00000000000E+00 -0.00000000000E+00 -0.43315592921E+03  0.43315592921E+03  0.00000000000E+00 0.  1.
         23    2    1    2    0    0  0.13413559302E+01  0.28540702928E+02 -0.20411210652E+03  0.22505741515E+03  0.90403081398E+02 0.  0.
         23    2    1    2    0    0 -0.16297221542E+02 -0.58075273708E+01 -0.17789909014E+03  0.20022192113E+03  0.90229732472E+02 0.  0.
        -13    1    3    3    0    0 -0.31486675734E+02  0.24196760880E+02 -0.35628840757E+02  0.53350803926E+02  0.00000000000E+00 0. -1.
         13    1    3    3    0    0  0.32828031664E+02  0.43439420480E+01 -0.16848326577E+03  0.17170661123E+03  0.00000000000E+00 0.  1.
        -13    1    4    4    0    0 -0.23139255209E+02 -0.41600010746E+02 -0.58691978066E+02  0.75569400652E+02  0.00000000000E+00 0.  1.
         13    1    4    4    0    0  0.68420336669E+01  0.35792483375E+02 -0.11920711208E+03  0.12465252047E+03  0.00000000000E+00 0. -1.
         -1    1    1    2    0  502  0.14955865611E+02 -0.22733175557E+02 -0.23237716630E+02  0.35783608835E+02  0.00000000000E+00 0.  1.
<scales pt_clust_5="13000.00000" pt_clust_6="13000.00000" pt_clust_7="13000.00000" pt_clust_8="13000.00000" pt_clust_9="27.21167"></scales>
<clustering>
<clus scale="   27.212">  1  9  2 -1</clus>
<clus scale="   90.230">  7  8 -1 -1</clus>
<clus scale="   90.403">  5  6 -1 -1</clus>
<clus scale="   92.318">  1  7  2 -1</clus>
<clus scale="   27.212">  1  5  2 -1</clus>
</clustering>
</event>
<event>
 9    1  0.1881049E-005  0.1223944E+03  0.7546771E-02  0.1239931E+00
         -3   -1    0    0    0  501 -0.00000000000E+00  0.00000000000E+00  0.40202887058E+03  0.40202887058E+03  0.00000000000E+00 0.  1.
         21   -1    0    0  501  502  0.00000000000E+00 -0.00000000000E+00 -0.94662966856E+02  0.94662966856E+02  0.00000000000E+00 0. -1.
         23    2    1    2    0    0  0.70664129340E+02 -0.24950431511E+02  0.28687308318E+03  0.31042166514E+03  0.91921168032E+02 0.  0.
         23    2    1    2    0    0 -0.10330778876E+03  0.26159762703E+02  0.44078565038E+02  0.14597925116E+03  0.89499661847E+02 0.  0.
        -11    1    4    4    0    0 -0.25177297133E+01  0.25149879686E+02 -0.14757858791E+02  0.29268580547E+02  0.00000000000E+00 0.  1.
         11    1    4    4    0    0 -0.10079005904E+03  0.10098830167E+01  0.58836423829E+02  0.11671067061E+03  0.00000000000E+00 0. -1.
        -13    1    3    3    0    0  0.31721161815E+02  0.34755840360E+02  0.10416862962E+03  0.11430356050E+03  0.00000000000E+00 0. -1.
         13    1    3    3    0    0  0.38942967525E+02 -0.59706271871E+02  0.18270445356E+03  0.19611810465E+03  0.00000000000E+00 0.  1.
         -3    1    1    2    0  502  0.32643659416E+02 -0.12093311915E+01 -0.23585744494E+02  0.40290921128E+02  0.00000000000E+00 0.  1.
<scales pt_clust_5="13000.00000" pt_clust_6="13000.00000" pt_clust_7="13000.00000" pt_clust_8="13000.00000" pt_clust_9="32.66605"></scales>
<clustering>
<clus scale="   32.666">  2  9  1 -1</clus>
<clus scale="   89.500">  5  6 -1 -1</clus>
<clus scale="   91.921">  7  8 -1 -1</clus>
<clus scale="  120.586">  2  5  1 -1</clus>
<clus scale="   32.666">  2  5  1 -1</clus>
</clustering>
</event>
<event>
 9    1  0.1881049E-005  0.1372618E+03  0.7546771E-02  0.1217190E+00
         21   -1    0    0  501  502  0.00000000000E+00  0.00000000000E+00  0.84314300353E+02  0.84314300353E+02  0.00000000000E+00 0. -1.
          1   -1    0    0  502    0 -0.00000000000E+00 -0.00000000000E+00 -0.61144162004E+03  0.61144162004E+03  0.00000000000E+00 0. -1.
         23    2    1    2    0    0  0.94126668617E+02  0.16325631362E+02 -0.28470382121E+03  0.31380431048E+03  0.91052311789E+02 0.  0.
         23    2    1    2    0    0 -0.11201784950E+03  0.21974304838E+02 -0.28597688981E+03  0.32125665657E+03  0.91608892604E+02 0.  0.
        -11    1    3    3    0    0  0.69084517208E+02 -0.23169545774E+02 -0.23281467406E+03  0.24395116484E+03  0.00000000000E+00 0.  1.
         11    1    3    3    0    0  0.25042151410E+02  0.39495177136E+02 -0.51889147146E+02  0.69853145640E+02  0.00000000000E+00 0. -1.
        -11    1    4    4    0    0 -0.10038436468E+03 -0.20058010503E+02 -0.18957448590E+03  0.21544797554E+03  0.00000000000E+00 0.  1.
         11    1    4    4    0    0 -0.11633484813E+02  0.42032315342E+02 -0.96402403909E+02  0.10580868103E+03  0.00000000000E+00 0. -1.
          1    1    1    2  501    0  0.17891180879E+02 -0.38299936200E+02  0.43553391325E+02  0.60694953350E+02  0.00000000000E+00 0. -1.
<scales pt_clust_5="13000.00000" pt_clust_6="13000.00000" pt_clust_7="13000.00000" pt_clust_8="13000.00000" pt_clust_9="42.27268"></scales>
<clustering>
<clus scale="   42.273">  1  9  2 -1</clus>
<clus scale="   91.052">  5  6 -1 -1</clus>
<clus scale="   91.609">  7  8 -1 -1</clus>
<clus scale="  136.891">  2  5  1 -1</clus>
<clus scale="   42.273">  1  5  2 -1</clus>
</clustering>
</event>
<event>
 9    1  0.1881049E-005  0.1481858E+03  0.7546771E-02  0.1217872E+00
          2   -1    0    0  502    0 -0.00000000000E+00  0.00000000000E+00  0.69810416977E+03  0.69810416977E+03  0.00000000000E+00 0. -1.
         21   -1    0    0  501  502  0.00000000000E+00 -0.00000000000E+00 -0.16781312387E+03  0.16781312387E+03  0.00000000000E+00 0. -1.
         23    2    1    2    0    0  0.32006645429E+02 -0.68823665226E+02  0.29713175925E+03  0.31589189576E+03  0.75758070222E+02 0.  0.
         23    2    1    2    0    0 -0.14337022179E+03  0.34289457449E+02  0.34658806928E+03  0.38735841790E+03  0.90512246511E+02 0.  0.
        -11    1    4    4    0    0 -0.79767928475E+02  0.50583635288E+02  0.12770431300E+03  0.15883959875E+03  0.00000000000E+00 0.  1.
         11    1    4    4    0    0 -0.63602293310E+02 -0.16294177839E+02  0.21888375627E+03  0.22851881915E+03  0.00000000000E+00 0. -1.
        -13    1    3    3    0    0  0.17139332214E+02  0.13863098379E+02  0.82759497830E+02  0.85645062242E+02  0.00000000000E+00 0.  1.
         13    1    3    3    0    0  0.14867313215E+02 -0.82686763605E+02  0.21437226142E+03  0.23024683352E+03  0.00000000000E+00 0. -1.
          2    1    1    2  501    0  0.11136357636E+03  0.34534207778E+02 -0.11342878263E+03  0.16266697998E+03  0.00000000000E+00 0. -1.
<scales pt_clust_5="13000.00000" pt_clust_6="13000.00000" pt_clust_7="13000.00000" pt_clust_8="13000.00000" pt_clust_9="117.33097"></scales>
<clustering>
<clus scale="   75.758">  7  8 -1 -1</clus>
<clus scale="   90.512">  5  6 -1 -1</clus>
<clus scale="  107.240">  1  7  2 -1</clus>
<clus scale="  117.331">  2  9  1 -1</clus>
<clus scale="  117.331">  2  5  1 -1</clus>
</clustering>
</event>
<event>
 9    1  0.1881049E-005  0.9936620E+02  0.7546771E-02  0.1282354E+00
         21   -1    0    0  501  502  0.00000000000E+00  0.00000000000E+00  0.55839753172E+02  0.55839753172E+02  0.00000000000E+00 0.  1.
          1   -1    0    0  502    0 -0.00000000000E+00 -0.00000000000E+00 -0.33937575288E+03  0.33937575288E+03  0.00000000000E+00 0. -1.
         23    2    1    2    0    0  0.13753337090E+02  0.37100713612E+02 -0.19227917776E+03  0.21632389230E+03  0.90879738931E+02 0.  0.
         23    2    1    2    0    0 -0.36395315755E+02 -0.16066028462E+02 -0.10473126041E+03  0.14517696309E+03  0.92330804318E+02 0.  0.
        -13    1    3    3    0    0  0.20679734520E+02 -0.12914060204E+01 -0.61441075179E+00  0.20729125643E+02  0.00000000000E+00 0.  1.
         13    1    3    3    0    0 -0.69263974304E+01  0.38392119632E+02 -0.19166476701E+03  0.19559476666E+03  0.00000000000E+00 0. -1.
        -13    1    4    4    0    0 -0.67156079402E+02 -0.14970346802E+02 -0.81210683777E+02  0.10643883428E+03  0.00000000000E+00 0.  1.
         13    1    4    4    0    0  0.30760763647E+02 -0.10956816601E+01 -0.23520576635E+02  0.38738128810E+02  0.00000000000E+00 0. -1.
          1    1    1    2  501    0  0.22641978665E+02 -0.21034685150E+02  0.13474438463E+02  0.33714650660E+02  0.00000000000E+00 0. -1.
<scales pt_clust_5="13000.00000" pt_clust_6="13000.00000" pt_clust_7="13000.00000" pt_clust_8="13000.00000" pt_clust_9="30.90497"></scales>
<clustering>
<clus scale="   30.905">  1  9  2 -1</clus>
<clus scale="   90.880">  5  6 -1 -1</clus>
<clus scale="   92.331">  7  8 -1 -1</clus>
<clus scale="   98.019">  2  5  1 -1</clus>
<clus scale="   30.905">  1  5  2 -1</clus>
</clustering>
</event>
<event>
 9    1  0.1881049E-005  0.1157566E+03  0.7546771E-02  0.1250368E+00
         21   -1    0    0  501  502  0.00000000000E+00  0.00000000000E+00  0.68171764996E+02  0.68171764996E+02  0.00000000000E+00 0.  1.
          2   -1    0    0  502    0 -0.00000000000E+00 -0.00000000000E+00 -0.55892851023E+03  0.55892851023E+03  0.00000000000E+00 0. -1.
         23    2    1    2    0    0  0.53610813892E+02 -0.54732142898E+02 -0.40933724306E+03  0.42587848192E+03  0.89139082207E+02 0.  0.
         23    2    1    2    0    0  0.30436812829E+01  0.82169350123E+02 -0.54854377487E+02  0.13289728809E+03  0.88834792486E+02 0.  0.
        -11    1    4    4    0    0  0.23299902234E+02  0.68500801354E+02  0.53502661426E+00  0.72356972599E+02  0.00000000000E+00 0.  1.
         11    1    4    4    0    0 -0.20256220951E+02  0.13668548769E+02 -0.55389404101E+02  0.60540315488E+02  0.00000000000E+00 0. -1.
        -13    1    3    3    0    0  0.56667009301E+01  0.23156697248E+02 -0.12298202180E+03  0.12527139263E+03  0.00000000000E+00 0.  1.
         13    1    3    3    0    0  0.47944112961E+02 -0.77888840146E+02 -0.28635522126E+03  0.30060708929E+03  0.00000000000E+00 0. -1.
          2    1    1    2  501    0 -0.56654495174E+02 -0.27437207225E+02 -0.26565124691E+02  0.68324505220E+02  0.00000000000E+00 0. -1.
<scales pt_clust_5="13000.00000" pt_clust_6="13000.00000" pt_clust_7="13000.00000" pt_clust_8="13000.00000" pt_clust_9="62.94865"></scales>
<clustering>
<clus scale="   62.949">  1  9  2 -1</clus>
<clus scale="   88.835">  5  6 -1 -1</clus>
<clus scale="   89.139">  7  8 -1 -1</clus>
<clus scale="  115.522">  1  5  2 -1</clus>
<clus scale="   62.949">  1  5  2 -1</clus>
</clustering>
</event>
<event>
 9    1  0.1881049E-005  0.9350655E+02  0.7546771E-02  0.1295886E+00
         21   -1    0    0  501  502  0.00000000000E+00  0.00000000000E+00  0.24326101832E+03  0.24326101832E+03  0.00000000000E+00 0. -1.
          1   -1    0    0  502    0 -0.00000000000E+00 -0.00000000000E+00 -0.67499357707E+02  0.67499357707E+02  0.00000000000E+00 0. -1.
         23    2    1    2    0    0 -0.20583642529E+02  0.24888556047E+02  0.48002287816E+02  0.10790201871E+03  0.91079632438E+02 0.  0.
         23    2    1    2    0    0 -0.31207605804E+02 -0.16040941216E+02  0.46711184597E+02  0.10626942160E+03  0.88769525995E+02 0.  0.
        -13    1    4    4    0    0 -0.59481123829E+02  0.49922611164E+01  0.23933024676E+02  0.64309536098E+02  0.00000000000E+00 0. -1.
         13    1    4    4    0    0  0.28273518025E+02 -0.21033202332E+02  0.22778159922E+02  0.41959885501E+02  0.00000000000E+00 0.  1.
        -13    1    3    3    0    0 -0.41906089279E+02  0.39585804900E+02  0.56429099676E+02  0.80668454544E+02  0.00000000000E+00 0. -1.
         13    1    3    3    0    0  0.21322446750E+02 -0.14697248853E+02 -0.84268118600E+01  0.27233564170E+02  0.00000000000E+00 0.  1.
          1    1    1    2  501    0  0.51791248333E+02 -0.88476148307E+01  0.81048188199E+02  0.96588935714E+02  0.00000000000E+00 0. -1.
<scales pt_clust_5="13000.00000" pt_clust_6="13000.00000" pt_clust_7="13000.00000" pt_clust_8="13000.00000" pt_clust_9="52.54154"></scales>
<clustering>
<clus scale="   52.542">  1  9  2 -1</clus>
<clus scale="   88.770">  5  6 -1 -1</clus>
<clus scale="   91.080">  7  8 -1 -1</clus>
<clus scale="   91.258">  1  5  2 -1</clus>
<clus scale="   52.542">  1  5  2 -1</clus>
</clustering>
</event>
<event>
 9    1  0.1881049E-005  0.9861551E+02  0.7546771E-02  0.1286042E+00
         21   -1    0    0  501  502  0.00000000000E+00  0.00000000000E+00  0.66600496390E+02  0.66600496390E+02  0.00000000000E+00 0.  1.
         -1   -1    0    0    0  501 -0.00000000000E+00 -0.00000000000E+00 -0.55912657936E+03  0.55912657936E+03  0.00000000000E+00 0.  1.
         23    2    1    2    0    0  0.42368021030E+02 -0.28966613505E+02 -0.33074280304E+03  0.34629391307E+03  0.88851328430E+02 0.  0.
         23    2    1    2    0    0  0.58991661399E+01  0.48167831413E+01 -0.19455302092E+03  0.21629211748E+03  0.94198729148E+02 0.  0.
        -11    1    4    4    0    0 -0.31426269947E+02  0.19350432884E+02 -0.15736698409E+03  0.16163668326E+03  0.00000000000E+00 0. -1.
         11    1    4    4    0    0  0.37325436087E+02 -0.14533649743E+02 -0.37186036833E+02  0.54655434215E+02  0.00000000000E+00 0.  1.
        -11    1    3    3    0    0 -0.21495073673E+02 -0.24060105680E+02 -0.60509207210E+02  0.68573253056E+02  0.00000000000E+00 0. -1.
         11    1    3    3    0    0  0.63863094703E+02 -0.49065078245E+01 -0.27023359583E+03  0.27772066001E+03  0.00000000000E+00 0.  1.
         -1    1    1    2    0  502 -0.48267187169E+02  0.24149830363E+02  0.32769740993E+02  0.63141045197E+02  0.00000000000E+00 0.  1.
<scales pt_clust_5="13000.00000" pt_clust_6="13000.00000" pt_clust_7="13000.00000" pt_clust_8="13000.00000" pt_clust_9="53.97162"></scales>
<clustering>
<clus scale="   53.972">  1  9  2 -1</clus>
<clus scale="   88.851">  7  8 -1 -1</clus>
<clus scale="   93.521">  2  7  1 -1</clus>
<clus scale="   94.199">  5  6 -1 -1</clus>
<clus scale="   53.972">  1  5  2 -1</clus>
</clustering>
</event>
<event>
 9    1  0.1881049E-005  0.1068972E+03  0.7546771E-02  0.1266616E+00
         21   -1    0    0  501  502  0.00000000000E+00  0.00000000000E+00  0.55664296387E+02  0.55664296387E+02  0.00000000000E+00 0.  1.
         -1   -1    0    0    0  501 -0.00000000000E+00 -0.00000000000E+00 -0.29230646978E+03  0.29230646978E+03  0.00000000000E+00 0.  1.
         23    2    1    2    0    0  0.47975453722E+02  0.27070342468E+01 -0.11687208012E+03  0.15582692541E+03  0.91181003377E+02 0.  0.
         23    2    1    2    0    0 -0.66563613676E+02 -0.12211256233E+02 -0.59837657586E+02  0.12867930914E+03  0.91640547198E+02 0.  0.
        -11    1    3    3    0    0  0.59383727859E+02 -0.21217509481E+02 -0.11249292512E+03  0.12896227373E+03  0.00000000000E+00 0. -1.
         11    1    3    3    0    0 -0.11408274137E+02  0.23924543728E+02 -0.43791549968E+01  0.26864651679E+02  0.00000000000E+00 0.  1.
        -13    1    4    4    0    0 -0.68248230713E+02 -0.37920655569E+02 -0.18935658607E+02  0.80339008465E+02  0.00000000000E+00 0.  1.
         13    1    4    4    0    0  0.16846170362E+01  0.25709399336E+02 -0.40901998979E+02  0.48340300674E+02  0.00000000000E+00 0. -1.
         -1    1    1    2    0  502  0.18588159955E+02  0.95042219862E+01 -0.59932435690E+02  0.63464531620E+02  0.00000000000E+00 0.  1.
<scales pt_clust_5="13000.00000" pt_clust_6="13000.00000" pt_clust_7="13000.00000" pt_clust_8="13000.00000" pt_clust_9="20.87703"></scales>
<clustering>
<clus scale="   20.877">  1  9  2 -1</clus>
<clus scale="   91.181">  5  6 -1 -1</clus>
<clus scale="   91.641">  7  8 -1 -1</clus>
<clus scale="  106.503">  2  5  1 -1</clus>
<clus scale="   20.877">  1  5  2 -1</clus>
</clustering>
</event>
<event>
 9    1  0.1881049E-005  0.1217923E+03  0.7546771E-02  0.1242384E+00
         -1   -1    0    0    0  501 -0.00000000000E+00  0.00000000000E+00  0.33851203372E+02  0.33851203372E+02  0.00000000000E+00 0.  1.
         21   -1    0    0  501  502  0.00000000000E+00 -0.00000000000E+00 -0.13069000472E+04  0.13069000472E+04  0.00000000000E+00 0.  1.
         23    2    1    2    0    0  0.73751354218E+02  0.17433816410E+02 -0.11962973934E+03  0.16812904106E+03  0.90625050115E+02 0.  0.
         23    2    1    2    0    0 -0.35039839433E+02 -0.84573582863E+02 -0.70664950220E+03  0.71918047440E+03  0.97398945240E+02 0.  0.
        -13    1    3    3    0    0  0.39221056129E+02  0.53519243411E+02 -0.82624296977E+02  0.10596874591E+03  0.00000000000E+00 0. -1.
         13    1    3    3    0    0  0.34530298089E+02 -0.36085427001E+02 -0.37005442363E+02  0.62160295145E+02  0.00000000000E+00 0.  1.
        -13    1    4    4    0    0 -0.59947131598E+02 -0.86853122878E+02 -0.62288100566E+03  0.63175776272E+03  0.00000000000E+00 0.  1.
         13    1    4    4    0    0  0.24907292165E+02  0.22795400154E+01 -0.83768496541E+02  0.87422711685E+02  0.00000000000E+00 0. -1.
         -1    1    1    2    0  502 -0.38711514785E+02  0.67139766453E+02 -0.44676960231E+03  0.45344173514E+03  0.00000000000E+00 0.  1.
<scales pt_clust_5="13000.00000" pt_clust_6="13000.00000" pt_clust_7="13000.00000" pt_clust_8="13000.00000" pt_clust_9="77.50051"></scales>
<clustering>
<clus scale="   77.501">  2  9  1 -1</clus>
<clus scale="   90.625">  5  6 -1 -1</clus>
<clus scale="   97.399">  7  8 -1 -1</clus>
<clus scale="  116.446">  1  5  2 -1</clus>
<clus scale="   77.501">  2  5  1 -1</clus>
</clustering>
</event>
<event>
 9    1  0.2847738E-005  0.1040271E+03  0.7546771E-02  0.1272828E+00
         21   -1    0    0  501  502  0.00000000000E+00  0.00000000000E+00  0.21055804490E+03  0.21055804490E+03  0.00000000000E+00 0. -1.
         -1   -1    0    0    0  501 -0.00000000000E+00 -0.00000000000E+00 -0.45800192960E+03  0.45800192960E+03  0.00000000000E+00 0.  1.
         23    2    1    2    0    0 -0.47395750813E+02  0.16958313967E+02 -0.42895782277E+03  0.44096349160E+03  0.88938437109E+02 0.  0.
         23    2    1    2    0    0  0.58639648502E+02 -0.36707458220E+02  0.15811400096E+03  0.19497730157E+03  0.90719705489E+02 0.  0.
        -11    1    4    4    0    0  0.49777536591E+02 -0.66433802102E+02  0.11236560547E+03  0.13970426802E+03  0.00000000000E+00 0. -1.
         11    1    4    4    0    0  0.88621119109E+01  0.29726343882E+02  0.45748395493E+02  0.55273033555E+02  0.00000000000E+00 0.  1.
        -13    1    3    3    0    0 -0.72923158098E+02  0.89141841133E+01 -0.34887918233E+03  0.35653041039E+03  0.00000000000E+00 0.  1.
         13    1    3    3    0    0  0.25527407286E+02  0.80441298539E+01 -0.80078640438E+02  0.84433081208E+02  0.00000000000E+00 0. -1.
         -1    1    1    2    0  502 -0.11243897689E+02  0.19749144252E+02  0.23399937115E+02  0.32619181335E+02  0.00000000000E+00 0.  1.
<scales pt_clust_5="13000.00000" pt_clust_6="13000.00000" pt_clust_7="13000.00000" pt_clust_8="13000.00000" pt_clust_9="22.72562"></scales>
<clustering>
<clus scale="   22.726">  1  9  2 -1</clus>
<clus scale="   88.938">  7  8 -1 -1</clus>
<clus scale="   90.720">  5  6 -1 -1</clus>
<clus scale="  102.477">  2  7  1 -1</clus>
<clus scale="   22.726">  1  5  2 -1</clus>
</clustering>
</event>
<event>
 9    1  0.1881049E-005  0.9664878E+02  0.7546771E-02  0.1287649E+00
         21   -1    0    0  501  502  0.00000000000E+00  0.00000000000E+00  0.54675795456E+03  0.54675795456E+03  0.00000000000E+00 0.  1.
         -4   -1    0    0    0  501 -0.00000000000E+00 -0.00000000000E+00 -0.65468492724E+02  0.65468492724E+02  0.00000000000E+00 0.  1.
         23    2    1    2    0    0 -0.36753933006E+02 -0.21528178526E+02  0.22815896848E+02  0.10259213927E+03  0.90500098502E+02 0.  0.
         23    2    1    2    0    0  0.28448814561E+02 -0.43952264923E+02  0.97861153395E+02  0.14303101444E+03  0.90221555659E+02 0.  0.
        -13    1    4    4    0    0  0.76841844635E+01  0.28179934236E+02  0.29254655301E+02  0.41339935186E+02  0.00000000000E+00 0.  1.
         13    1    4    4    0    0  0.20764630098E+02 -0.72132199160E+02  0.68606498094E+02  0.10169107925E+03  0.00000000000E+00 0. -1.
        -13    1    3    3    0    0 -0.26874518631E+02  0.88945753282E+00 -0.32448155913E+02  0.42141591196E+02  0.00000000000E+00 0.  1.
         13    1    3    3    0    0 -0.98794143745E+01 -0.22417636059E+02  0.55264052761E+02  0.60450548074E+02  0.00000000000E+00 0. -1.
         -4    1    1    2    0  502  0.83051184448E+01  0.65480443449E+02  0.36061241160E+03  0.36660329358E+03  0.00000000000E+00 0.  1.
<scales pt_clust_5="13000.00000" pt_clust_6="13000.00000" pt_clust_7="13000.00000" pt_clust_8="13000.00000" pt_clust_9="66.00503"></scales>
<clustering>
<clus scale="   66.005">  1  9  2 -1</clus>
<clus scale="   90.222">  5  6 -1 -1</clus>
<clus scale="   90.500">  7  8 -1 -1</clus>
<clus scale="   96.388">  1  5  2 -1</clus>
<clus scale="   66.005">  1  5  2 -1</clus>
</clustering>
</event>
<event>
 9    1  0.1881049E-005  0.1768811E+03  0.7546771E-02  0.1170887E+00
         21   -1    0    0  501  502  0.00000000000E+00  0.00000000000E+00  0.15778609451E+03  0.15778609451E+03  0.00000000000E+00 0.  1.
          1   -1    0    0  502    0 -0.00000000000E+00 -0.00000000000E+00 -0.55178365086E+03  0.55178365086E+03  0.00000000000E+00 0. -1.
         23    2    1    2    0    0  0.12284651270E+03  0.71534455398E+02 -0.34584215969E+03  0.38484502901E+03  0.91051924411E+02 0.  0.
         23    2    1    2    0    0 -0.15767263406E+03 -0.82314238739E+02 -0.12769484697E+03  0.23722850722E+03  0.91296753843E+02 0.  0.
        -13    1    3    3    0    0  0.75517255425E+02  0.41913377563E+01 -0.98638694235E+02  0.12429809001E+03  0.00000000000E+00 0.  1.
         13    1    3    3    0    0  0.47329257276E+02  0.67343117642E+02 -0.24720346546E+03  0.26054693900E+03  0.00000000000E+00 0. -1.
        -13    1    4    4    0    0 -0.48645558225E+01 -0.35972051139E+02 -0.43680861411E+02  0.56794982350E+02  0.00000000000E+00 0. -1.
         13    1    4    4    0    0 -0.15280807824E+03 -0.46342187600E+02 -0.84013985561E+02  0.18043352487E+03  0.00000000000E+00 0.  1.
          1    1    1    2  501    0  0.34826121357E+02  0.10779783341E+02  0.79539450319E+02  0.87496209145E+02  0.00000000000E+00 0. -1.
<scales pt_clust_5="13000.00000" pt_clust_6="13000.00000" pt_clust_7="13000.00000" pt_clust_8="13000.00000" pt_clust_9="36.45631"></scales>
<clustering>
<clus scale="   36.456">  1  9  2 -1</clus>
<clus scale="   91.052">  5  6 -1 -1</clus>
<clus scale="   91.297">  7  8 -1 -1</clus>
<clus scale="  176.755">  2  5  1 -1</clus>
<clus scale="   36.456">  1  5  2 -1</clus>
</clustering>
</event>
<event>
 9    1  0.1881049E-005  0.2359762E+03  0.7546771E-02  0.1156834E+00
         21   -1    0    0  501  502  0.00000000000E+00  0.00000000000E+00  0.25321435871E+03  0.25321435871E+03  0.00000000000E+00 0. -1.
          2   -1    0    0  502    0 -0.00000000000E+00 -0.00000000000E+00 -0.43371711583E+03  0.43371711583E+03  0.00000000000E+00 0. -1.
         23    2    1    2    0    0 -0.46183107230E+01 -0.39816637386E+02 -0.21857558205E+02  0.10531430097E+03  0.94903402103E+02 0.  0.
         23    2    1    2    0    0  0.13372927209E+03  0.20661766194E+03 -0.23991086540E+03  0.35557219866E+03  0.91104273689E+02 0.  0.
        -11    1    3    3    0    0 -0.32325269137E+02 -0.60262449808E+02 -0.11410150769E+02  0.69330205699E+02  0.00000000000E+00 0.  1.
         11    1    3    3    0    0  0.27706958414E+02  0.20445812422E+02 -0.10447407436E+02  0.35984095268E+02  0.00000000000E+00 0. -1.
        -13    1    4    4    0    0  0.46473188850E+02  0.87341997906E+02 -0.39420437412E+02  0.10650048247E+03  0.00000000000E+00 0.  1.
         13    1    4    4    0    0  0.87256083237E+02  0.11927566404E+03 -0.20049042798E+03  0.24907171619E+03  0.00000000000E+00 0. -1.
          2    1    1    2  501    0 -0.12911096136E+03 -0.16680102456E+03  0.81265666476E+02  0.22604497492E+03  0.00000000000E+00 0. -1.
<scales pt_clust_5="13000.00000" pt_clust_6="13000.00000" pt_clust_7="13000.00000" pt_clust_8="13000.00000" pt_clust_9="217.68042"></scales>
<clustering>
<clus scale="   91.104">  7  8 -1 -1</clus>
<clus scale="   94.903">  5  6 -1 -1</clus>
<clus scale="  103.021">  2  5  1 -1</clus>
<clus scale="  217.680">  1  9  2 -1</clus>
<clus scale="  217.680">  1  5  2 -1</clus>
</clustering>
</event>
<event>
 9    1  0.1881049E-005  0.1016676E+03  0.7546771E-02  0.1277189E+00
          1   -1    0    0  502    0 -0.00000000000E+00  0.00000000000E+00  0.67020708774E+03  0.67020708774E+03  0.00000000000E+00 0. -1.
         21   -1    0    0  501  502  0.00000000000E+00 -0.00000000000E+00 -0.24666420418E+02  0.24666420418E+02  0.00000000000E+00 0.  1.
         23    2    1    2    0    0  0.49342772045E+02 -0.30186711536E+02  0.35769219118E+03  0.37339420944E+03  0.90186392015E+02 0.  0.
         23    2    1    2    0    0 -0.33351014748E+02 -0.57982373676E+01  0.14794972661E+03  0.17614412414E+03  0.89396426798E+02 0.  0.
        -11    1    4    4    0    0 -0.13079344264E+02 -0.44496955580E+02  0.10543423497E+03  0.11518431406E+03  0.00000000000E+00 0. -1.
         11    1    4    4    0    0 -0.20271670484E+02  0.38698718212E+02  0.42515491639E+02  0.60959810078E+02  0.00000000000E+00 0.  1.
        -13    1    3    3    0    0 -0.20160116531E+02 -0.19795296587E+02  0.46876455562E+02  0.54732861715E+02  0.00000000000E+00 0. -1.
         13    1    3    3    0    0  0.69502888576E+02 -0.10391414950E+02  0.31081573562E+03  0.31866134772E+03  0.00000000000E+00 0.  1.
          1    1    1    2  501    0 -0.15991757297E+02  0.35984948904E+02  0.13989874953E+03  0.14533517458E+03  0.00000000000E+00 0. -1.
<scales pt_clust_5="13000.00000" pt_clust_6="13000.00000" pt_clust_7="13000.00000" pt_clust_8="13000.00000" pt_clust_9="39.37835"></scales>
<clustering>
<clus scale="   39.378">  2  9  1 -1</clus>
<clus scale="   89.396">  5  6 -1 -1</clus>
<clus scale="   90.186">  7  8 -1 -1</clus>
<clus scale="  100.967">  2  5  1 -1</clus>
<clus scale="   39.378">  2  5  1 -1</clus>
</clustering>
</event>
<event>
 9    1  0.1881049E-005  0.1114683E+03  0.7546771E-02  0.1257888E+00
          1   -1    0    0  502    0 -0.00000000000E+00  0.00000000000E+00  0.32397041891E+03  0.32397041891E+03  0.00000000000E+00 0. -1.
         21   -1    0    0  501  502  0.00000000000E+00 -0.00000000000E+00 -0.50579998551E+02  0.50579998551E+02  0.00000000000E+00 0.  1.
         23    2    1    2    0    0 -0.64587757246E+02 -0.74608032504E+01  0.13860387559E+03  0.17883155453E+03  0.92425367709E+02 0.  0.
         23    2    1    2    0    0  0.52606651860E+02  0.34159458412E+02  0.11534140672E+03  0.16058371717E+03  0.92461676915E+02 0.  0.
        -13    1    4    4    0    0  0.44593602208E+02 -0.20413616518E+02  0.83656323274E+02  0.96972601908E+02  0.00000000000E+00 0.  1.
         13    1    4    4    0    0  0.80130496522E+01  0.54573074930E+02  0.31685083443E+02  0.63611115262E+02  0.00000000000E+00 0. -1.
        -13    1    3    3    0    0 -0.51666477212E+02  0.13028534760E+02  0.14440606456E+03  0.15392296472E+03  0.00000000000E+00 0. -1.
         13    1    3    3    0    0 -0.12921280034E+02 -0.20489338010E+02 -0.58021889668E+01  0.24908589816E+02  0.00000000000E+00 0.  1.
          1    1    1    2  501    0  0.11981105385E+02 -0.26698655162E+02  0.19445138050E+02  0.35135145759E+02  0.00000000000E+00 0. -1.
<scales pt_clust_5="13000.00000" pt_clust_6="13000.00000" pt_clust_7="13000.00000" pt_clust_8="13000.00000" pt_clust_9="29.26372"></scales>
<clustering>
<clus scale="   29.264">  2  9  1 -1</clus>
<clus scale="   92.425">  7  8 -1 -1</clus>
<clus scale="   92.462">  5  6 -1 -1</clus>
<clus scale="  111.438">  1  7  2 -1</clus>
<clus scale="   29.264">  2  5  1 -1</clus>
</clustering>
</event>
<event>
 9    1  0.1881049E-005  0.1260884E+03  0.7546771E-02  0.1235207E+00
         21   -1    0    0  501  502  0.00000000000E+00  0.00000000000E+00  0.36070826635E+03  0.36070826635E+03  0.00000000000E+00 0.  1.
         -3   -1    0    0    0  501 -0.00000000000E+00 -0.00000000000E+00 -0.11937650203E+03  0.11937650203E+03  0.00000000000E+00 0.  1.
         23    2    1    2    0    0 -0.41684364136E+02 -0.71304695277E+02 -0.34624884760E+02  0.12937350572E+03  0.93363138097E+02 0.  0.
         23    2    1    2    0    0  0.54328243169E+02  0.44536700169E+02  0.65473998941E+02  0.13815694196E+03  0.99324822710E+02 0.  0.
        -11    1    3    3    0    0 -0.66733190626E+02 -0.33140851486E+02 -0.37922166219E+02  0.83604577979E+02  0.00000000000E+00 0. -1.
         11    1    3    3    0    0  0.25048826489E+02 -0.38163843791E+02  0.32972814596E+01  0.45768927739E+02  0.00000000000E+00 0.  1.
        -13    1    4    4    0    0  0.39246391363E+01  0.56147828659E+02  0.20583656835E+01  0.56322449563E+02  0.00000000000E+00 0. -1.
         13    1    4    4    0    0  0.50403604033E+02 -0.11611128490E+02  0.63415633257E+02  0.81834492396E+02  0.00000000000E+00 0.  1.
         -3    1    1    2    0  502 -0.12643879033E+02  0.26767995108E+02  0.21048265014E+03  0.21255432070E+03  0.00000000000E+00 0.  1.
<scales pt_clust_5="13000.00000" pt_clust_6="13000.00000" pt_clust_7="13000.00000" pt_clust_8="13000.00000" pt_clust_9="29.60394"></scales>
<clustering>
<clus scale="   29.604">  1  9  2 -1</clus>
<clus scale="   93.363">  5  6 -1 -1</clus>
<clus scale="   99.325">  7  8 -1 -1</clus>
<clus scale="  121.448">  2  5  1 -1</clus>
<clus scale="   29.604">  1  5  2 -1</clus>
</clustering>
</event>
<event>
 9    1  0.1881049E-005  0.1149484E+03  0.7546771E-02  0.1253775E+00
          2   -1    0    0  502    0 -0.00000000000E+00  0.00000000000E+00  0.29636424124E+03  0.29636424124E+03  0.00000000000E+00 0. -1.
         21   -1    0    0  501  502  0.00000000000E+00 -0.00000000000E+00 -0.67793283390E+02  0.67793283390E+02  0.00000000000E+00 0.  1.
         23    2    1    2    0    0  0.20097198251E+02  0.51607831900E+02  0.12853329494E+03  0.16844145018E+03  0.93725388986E+02 0.  0.
         23    2    1    2    0    0 -0.10454980475E+01 -0.86017886771E+02  0.96318310730E+02  0.15620844559E+03  0.87884535514E+02 0.  0.
        -11    1    3    3    0    0  0.10916013902E+02 -0.24084489763E+02  0.11668389845E+02  0.28902825610E+02  0.00000000000E+00 0.  1.
         11    1    3    3    0    0  0.91811843492E+01  0.75692321663E+02  0.11686490509E+03  0.13953862457E+03  0.00000000000E+00 0. -1.
        -11    1    4    4    0    0 -0.51631879695E+01 -0.37255281552E+02  0.10029068925E+03  0.10711132929E+03  0.00000000000E+00 0. -1.
         11    1    4    4    0    0  0.41176899220E+01 -0.48762605219E+02 -0.39723785161E+01  0.49097116302E+02  0.00000000000E+00 0.  1.
          2    1    1    2  501    0 -0.19051700204E+02  0.34410054872E+02  0.37193521820E+01  0.39507628853E+02  0.00000000000E+00 0. -1.
<scales pt_clust_5="13000.00000" pt_clust_6="13000.00000" pt_clust_7="13000.00000" pt_clust_8="13000.00000" pt_clust_9="39.33216"></scales>
<clustering>
<clus scale="   39.332">  2  9  1 -1</clus>
<clus scale="   87.885">  7  8 -1 -1</clus>
<clus scale="   93.725">  5  6 -1 -1</clus>
<clus scale="  110.238">  2  7  1 -1</clus>
<clus scale="   39.332">  2  5  1 -1</clus>
</clustering>
</event>
<event>
 9    1  0.1881049E-005  0.1425389E+03  0.7546771E-02  0.1210497E+00
          2   -1    0    0  502    0 -0.00000000000E+00  0.00000000000E+00  0.40374928510E+03  0.40374928510E+03  0.00000000000E+00 0. -1.
         21   -1    0    0  501  502  0.00000000000E+00 -0.00000000000E+00 -0.12050998278E+03  0.12050998278E+03  0.00000000000E+00 0. -1.
         23    2    1    2    0    0  0.11344770952E+03 -0.60684811162E+02  0.75501021691E+02  0.17380001316E+03  0.89179656856E+02 0.  0.
         23    2    1    2    0    0 -0.47718708422E+02  0.77495531939E+02 -0.27924141967E+01  0.12926686024E+03  0.91757784270E+02 0.  0.
        -11    1    4    4    0    0 -0.40141679732E+02 -0.14637120579E+01  0.22461413084E+02  0.46021864178E+02  0.00000000000E+00 0.  1.
         11    1    4    4    0    0 -0.75770286901E+01  0.78959243997E+02 -0.25253827281E+02  0.83244996058E+02  0.00000000000E+00 0. -1.
        -13    1    3    3    0    0  0.68965694635E+02 -0.21057692194E+02 -0.65470598985E+01  0.72405506906E+02  0.00000000000E+00 0. -1.
         13    1    3    3    0    0  0.44482014884E+02 -0.39627118968E+02  0.82048081589E+02  0.10139450625E+03  0.00000000000E+00 0.  1.
          2    1    1    2  501    0 -0.65729001098E+02 -0.16810720777E+02  0.21053069482E+03  0.22119239449E+03  0.00000000000E+00 0. -1.
<scales pt_clust_5="13000.00000" pt_clust_6="13000.00000" pt_clust_7="13000.00000" pt_clust_8="13000.00000" pt_clust_9="67.84472"></scales>
<clustering>
<clus scale="   67.845">  2  9  1 -1</clus>
<clus scale="   89.180">  7  8 -1 -1</clus>
<clus scale="   91.758">  5  6 -1 -1</clus>
<clus scale="  140.893">  1  7  2 -1</clus>
<clus scale="   67.845">  2  5  1 -1</clus>
</clustering>
</event>
<event>
 9    1  0.1881049E-005  0.1334939E+03  0.7546771E-02  0.1223040E+00
         21   -1    0    0  501  502  0.00000000000E+00  0.00000000000E+00  0.23667047844E+02  0.23667047844E+02  0.00000000000E+00 0.  1.
          1   -1    0    0  502    0 -0.00000000000E+00 -0.00000000000E+00 -0.11057272619E+04  0.11057272619E+04  0.00000000000E+00 0. -1.
         23    2    1    2    0    0 -0.82432591050E+02 -0.63040195903E+02 -0.75157319870E+03  0.76466272522E+03  0.95276502689E+02 0.  0.
         23    2    1    2    0    0  0.61432633268E+02  0.44020574572E+02 -0.30084695495E+03  0.32372820170E+03  0.92624396660E+02 0.  0.
        -11    1    4    4    0    0  0.14466987876E+02  0.65861653567E+02 -0.15835642713E+03  0.17211568540E+03  0.00000000000E+00 0.  1.
         11    1    4    4    0    0  0.46965645393E+02 -0.21841078995E+02 -0.14249052783E+03  0.15161251630E+03  0.00000000000E+00 0. -1.
        -11    1    3    3    0    0 -0.91724725972E+02 -0.18385852867E+02 -0.55808347622E+03  0.56586980073E+03  0.00000000000E+00 0. -1.
         11    1    3    3    0    0  0.92921349216E+01 -0.44654343036E+02 -0.19348972248E+03  0.19879292449E+03  0.00000000000E+00 0.  1.
          1    1    1    2  501    0  0.20999957782E+02  0.19019621331E+02 -0.29640060404E+02  0.41003382826E+02  0.00000000000E+00 0. -1.
<scales pt_clust_5="13000.00000" pt_clust_6="13000.00000" pt_clust_7="13000.00000" pt_clust_8="13000.00000" pt_clust_9="28.33274"></scales>
<clustering>
<clus scale="   28.333">  1  9  2 -1</clus>
<clus scale="   92.624">  5  6 -1 -1</clus>
<clus scale="   95.277">  7  8 -1 -1</clus>
<clus scale="  131.614">  1  5  2 -1</clus>
<clus scale="   28.333">  1  5  2 -1</clus>
</clustering>
</event>
<event>
 9    1  0.1881049E-005  0.1097089E+03  0.7546771E-02  0.1262957E+00
          1   -1    0    0  502    0 -0.00000000000E+00  0.00000000000E+00  0.21612779271E+03  0.21612779271E+03  0.00000000000E+00 0. -1.
         21   -1    0    0  501  502  0.00000000000E+00 -0.00000000000E+00 -0.12972927649E+03  0.12972927649E+03  0.00000000000E+00 0. -1.
         23    2    1    2    0    0  0.46678642839E+02 -0.74233862795E+01  0.99742206139E+02  0.14689452974E+03  0.96930350359E+02 0.  0.
         23    2    1    2    0    0 -0.45171744529E+02  0.46415156689E+02  0.50851759354E+02  0.12383807866E+03  0.92493864789E+02 0.  0.
        -11    1    3    3    0    0 -0.29157392077E+02 -0.28991675250E+01  0.43166419154E+02  0.52171816411E+02  0.00000000000E+00 0. -1.
         11    1    3    3    0    0  0.75836034917E+02 -0.45242187546E+01  0.56575786985E+02  0.94722713328E+02  0.00000000000E+00 0.  1.
        -13    1    4    4    0    0  0.54982666615E+01 -0.21263258202E+02  0.29249379401E+02  0.36577086830E+02  0.00000000000E+00 0.  1.
         13    1    4    4    0    0 -0.50670011190E+02  0.67678414892E+02  0.21602379954E+02  0.87260991834E+02  0.00000000000E+00 0. -1.
          1    1    1    2  501    0 -0.15068983107E+01 -0.38991770410E+02 -0.64195449271E+02  0.75124460792E+02  0.00000000000E+00 0. -1.
<scales pt_clust_5="13000.00000" pt_clust_6="13000.00000" pt_clust_7="13000.00000" pt_clust_8="13000.00000" pt_clust_9="39.02088"></scales>
<clustering>
<clus scale="   39.021">  2  9  1 -1</clus>
<clus scale="   92.494">  7  8 -1 -1</clus>
<clus scale="   96.930">  5  6 -1 -1</clus>
<clus scale="  105.810">  2  7  1 -1</clus>
<clus scale="   39.021">  2  5  1 -1</clus>
</clustering>
</event>
<event>
 9    1  0.1881049E-005  0.1037694E+03  0.7546771E-02  0.1273974E+00
         21   -1    0    0  501  502  0.00000000000E+00  0.00000000000E+00  0.14810428019E+03  0.14810428019E+03  0.00000000000E+00 0.  1.
          3   -1    0    0  502    0 -0.00000000000E+00 -0.00000000000E+00 -0.24700913116E+03  0.24700913116E+03  0.00000000000E+00 0. -1.
         23    2    1    2    0    0  0.44925144695E+02  0.29711144345E+02 -0.10812175670E+03  0.14956481066E+03  0.88194657394E+02 0.  0.
         23    2    1    2    0    0 -0.48732007665E+02  0.53437169183E+00 -0.92816640814E+02  0.13905856327E+03  0.91363346501E+02 0.  0.
        -11    1    4    4    0    0 -0.56428124946E+02 -0.35328530970E+02 -0.54753064407E+02  0.86198239236E+02  0.00000000000E+00 0. -1.
         11    1    4    4    0    0  0.76961172808E+01  0.35862902662E+02 -0.38063576407E+02  0.52860324038E+02  0.00000000000E+00 0.  1.
        -11    1    3    3    0    0  0.51732080152E+02 -0.18043523285E+01 -0.10513174249E+03  0.11718424418E+03  0.00000000000E+00 0. -1.
         11    1    3    3    0    0 -0.68069354572E+01  0.31515496674E+02 -0.29900142064E+01  0.32380566485E+02  0.00000000000E+00 0.  1.
          3    1    1    2  501    0  0.38068629700E+01 -0.30245516037E+02  0.10203354654E+03  0.10649003740E+03  0.00000000000E+00 0. -1.
<scales pt_clust_5="13000.00000" pt_clust_6="13000.00000" pt_clust_7="13000.00000" pt_clust_8="13000.00000" pt_clust_9="30.48415"></scales>
<clustering>
<clus scale="   30.484">  1  9  2 -1</clus>
<clus scale="   88.195">  7  8 -1 -1</clus>
<clus scale="   91.363">  5  6 -1 -1</clus>
<clus scale="  100.991">  2  7  1 -1</clus>
<clus scale="   30.484">  1  5  2 -1</clus>
</clustering>
</event>
<event>
 9    1  0.1881049E-005  0.1021026E+03  0.7546771E-02  0.1276514E+00
         21   -1    0    0  501  502  0.00000000000E+00  0.00000000000E+00  0.33357101077E+02  0.33357101077E+02  0.00000000000E+00 0.  1.
          1   -1    0    0  502    0 -0.00000000000E+00 -0.00000000000E+00 -0.39804634662E+03  0.39804634662E+03  0.00000000000E+00 0. -1.
         23    2    1    2    0    0  0.40907999770E+02  0.18383452469E+02 -0.18834060264E+03  0.21351304696E+03  0.90023457231E+02 0.  0.
         23    2    1    2    0    0 -0.32381081549E+02 -0.37851696158E+02 -0.12688444912E+03  0.16405335667E+03  0.91282830048E+02 0.  0.
        -11    1    4    4    0    0  0.13217422646E+02 -0.22969783829E+02 -0.11008658952E+03  0.11323148159E+03  0.00000000000E+00 0. -1.
         11    1    4    4    0    0 -0.45598504195E+02 -0.14881912330E+02 -0.16797859597E+02  0.50821875078E+02  0.00000000000E+00 0.  1.
        -13    1    3    3    0    0  0.26550576657E+02  0.47376148168E+02 -0.16475628471E+03  0.17347641306E+03  0.00000000000E+00 0. -1.
         13    1    3    3    0    0  0.14357423113E+02 -0.28992695699E+02 -0.23584317928E+02  0.40036633906E+02  0.00000000000E+00 0.  1.
          1    1    1    2  501    0 -0.85269182213E+01  0.19468243690E+02 -0.49464193782E+02  0.53837044061E+02  0.00000000000E+00 0. -1.
<scales pt_clust_5="13000.00000" pt_clust_6="13000.00000" pt_clust_7="13000.00000" pt_clust_8="13000.00000" pt_clust_9="21.25374"></scales>
<clustering>
<clus scale="   21.254">  1  9  2 -1</clus>
<clus scale="   90.023">  7  8 -1 -1</clus>
<clus scale="   91.283">  5  6 -1 -1</clus>
<clus scale="  100.978">  2  7  1 -1</clus>
<clus scale="   21.254">  1  5  2 -1</clus>
</clustering>
</event>
<event>
 9    1  0.1881049E-005  0.1049983E+03  0.7546771E-02  0.1270210E+00
         21   -1    0    0  501  502  0.00000000000E+00  0.00000000000E+00  0.14684351399E+03  0.14684351399E+03  0.00000000000E+00 0.  1.
         -3   -1    0    0    0  501 -0.00000000000E+00 -0.00000000000E+00 -0.26279310932E+03  0.26279310932E+03  0.00000000000E+00 0.  1.
         23    2    1    2    0    0 -0.21095112637E+02 -0.34399844555E+02 -0.94164834645E+02  0.13675586132E+03  0.90591370665E+02 0.  0.
         23    2    1    2    0    0  0.23229368212E+02  0.61483159272E+02 -0.12397944646E+03  0.16713666153E+03  0.90796354888E+02 0.  0.
        -11    1    3    3    0    0 -0.55537000669E+02 -0.30826648212E+02 -0.70045236182E+02  0.94556733209E+02  0.00000000000E+00 0.  1.
         11    1    3    3    0    0  0.34441888032E+02 -0.35731963434E+01 -0.24119598463E+02  0.42199128111E+02  0.00000000000E+00 0. -1.
        -13    1    4    4    0    0  0.33179767209E+02  0.10525049126E+01 -0.53418023767E+01  0.33623497309E+02  0.00000000000E+00 0. -1.
         13    1    4    4    0    0 -0.99503989970E+01  0.60430654360E+02 -0.11863764408E+03  0.13351316422E+03  0.00000000000E+00 0.  1.
         -3    1    1    2    0  502 -0.21342555752E+01 -0.27083314717E+02  0.10219468577E+03  0.10574410046E+03  0.00000000000E+00 0.  1.
<scales pt_clust_5="13000.00000" pt_clust_6="13000.00000" pt_clust_7="13000.00000" pt_clust_8="13000.00000" pt_clust_9="27.16728"></scales>
<clustering>
<clus scale="   27.167">  1  9  2 -1</clus>
<clus scale="   90.591">  5  6 -1 -1</clus>
<clus scale="   90.796">  7  8 -1 -1</clus>
<clus scale="  104.821">  2  5  1 -1</clus>
<clus scale="   27.167">  1  5  2 -1</clus>
</clustering>
</event>
<event>
 9    1  0.1881049E-005  0.1044345E+03  0.7546771E-02  0.1271498E+00
         -3   -1    0    0    0  501 -0.00000000000E+00  0.00000000000E+00  0.32576826558E+03  0.32576826558E+03  0.00000000000E+00 0.  1.
         21   -1    0    0  501  502  0.00000000000E+00 -0.00000000000E+00 -0.93160192909E+02  0.93160192909E+02  0.00000000000E+00 0.  1.
         23    2    1    2    0    0  0.85313748542E+01  0.33020495068E+02  0.11753483026E+03  0.15233456608E+03  0.90709681109E+02 0.  0.
         23    2    1    2    0    0 -0.73360780669E+02 -0.36199625023E+02  0.14932578190E+03  0.19320319009E+03  0.91307538167E+02 0.  0.
        -11    1    3    3    0    0 -0.17046948342E+02  0.36113930592E+02  0.92040293322E+01  0.40982052005E+02  0.00000000000E+00 0.  1.
         11    1    3    3    0    0  0.25578323196E+02 -0.30934355242E+01  0.10833080093E+03  0.11135251408E+03  0.00000000000E+00 0. -1.
        -11    1    4    4    0    0 -0.55535867591E+02 -0.66780796724E+02  0.11245504316E+03  0.14209167510E+03  0.00000000000E+00 0.  1.
         11    1    4    4    0    0 -0.17824913079E+02  0.30581171701E+02  0.36870738741E+02  0.51111514986E+02  0.00000000000E+00 0. -1.
         -3    1    1    2    0  502  0.64829405815E+02  0.31791299550E+01 -0.34252539494E+02  0.73390702323E+02  0.00000000000E+00 0.  1.
<scales pt_clust_5="13000.00000" pt_clust_6="13000.00000" pt_clust_7="13000.00000" pt_clust_8="13000.00000" pt_clust_9="64.90731"></scales>
<clustering>
<clus scale="   64.907">  2  9  1 -1</clus>
<clus scale="   90.710">  5  6 -1 -1</clus>
<clus scale="   91.308">  7  8 -1 -1</clus>
<clus scale="  103.912">  1  5  2 -1</clus>
<clus scale="   64.907">  2  5  1 -1</clus>
</clustering>
</event>
<event>
 9    1  0.1881049E-005  0.9423767E+02  0.7546771E-02  0.1293462E+00
          1   -1    0    0  502    0 -0.00000000000E+00  0.00000000000E+00  0.19984813214E+03  0.19984813214E+03  0.00000000000E+00 0. -1.
         21   -1    0    0  501  502  0.00000000000E+00 -0.00000000000E+00 -0.12636660901E+03  0.12636660901E+03  0.00000000000E+00 0.  1.
         23    2    1    2    0    0  0.91805516734E+01  0.10343190587E+01  0.51268912344E+02  0.10332814828E+03  0.89234816684E+02 0.  0.
         23    2    1    2    0    0  0.41959610673E+02 -0.44962632920E+02  0.78956268368E+02  0.13476817461E+03  0.90255865656E+02 0.  0.
        -11    1    4    4    0    0  0.54908698160E+02 -0.22487924663E+02  0.88174089651E+01  0.59986820137E+02  0.00000000000E+00 0.  1.
         11    1    4    4    0    0 -0.12949087487E+02 -0.22474708257E+02  0.70138859402E+02  0.74781354469E+02  0.00000000000E+00 0. -1.
        -11    1    3    3    0    0  0.15879969482E+02  0.30901170142E+02 -0.88618030722E+01  0.35855087513E+02  0.00000000000E+00 0. -1.
         11    1    3    3    0    0 -0.66994178083E+01 -0.29866851083E+02  0.60130715416E+02  0.67473060765E+02  0.00000000000E+00 0.  1.
          1    1    1    2  501    0 -0.51140162347E+02  0.43928313861E+02 -0.56743657581E+02  0.88118418275E+02  0.00000000000E+00 0. -1.
<scales pt_clust_5="13000.00000" pt_clust_6="13000.00000" pt_clust_7="13000.00000" pt_clust_8="13000.00000" pt_clust_9="67.41671"></scales>
<clustering>
<clus scale="   67.417">  2  9  1 -1</clus>
<clus scale="   89.235">  7  8 -1 -1</clus>
<clus scale="   90.256">  5  6 -1 -1</clus>
<clus scale="   93.260">  1  7  2 -1</clus>
<clus scale="   67.417">  2  5  1 -1</clus>
</clustering>
</event>
<event>
 9    1  0.1881049E-005  0.1311769E+03  0.7546771E-02  0.1225733E+00
         21   -1    0    0  501  502  0.00000000000E+00  0.00000000000E+00  0.95517214550E+02  0.95517214550E+02  0.00000000000E+00 0.  1.
          3   -1    0    0  502    0 -0.00000000000E+00 -0.00000000000E+00 -0.25261758393E+03  0.25261758393E+03  0.00000000000E+00 0. -1.
         23    2    1    2    0    0  0.84469524844E+02 -0.16453911720E+02 -0.11006515402E+03  0.16668720901E+03  0.90909051687E+02 0.  0.
         23    2    1    2    0    0 -0.10820270310E+03  0.11420304341E+02 -0.59945429884E+02  0.15396532988E+03  0.90959441148E+02 0.  0.
        -11    1    3    3    0    0  0.68030050756E+01  0.31240317446E+02 -0.16158815228E+02  0.35823813613E+02  0.00000000000E+00 0.  1.
         11    1    3    3    0    0  0.77666519769E+02 -0.47694229166E+02 -0.93906338793E+02  0.13086339539E+03  0.00000000000E+00 0. -1.
        -13    1    4    4    0    0 -0.36678383844E+02  0.38678748570E+02  0.50599966637E+01  0.53543935218E+02  0.00000000000E+00 0.  1.
         13    1    4    4    0    0 -0.71524319251E+02 -0.27258444229E+02 -0.65005426548E+02  0.10042139467E+03  0.00000000000E+00 0. -1.
          3    1    1    2  501    0  0.23733178251E+02  0.50336073786E+01  0.12910214523E+02  0.27482259590E+02  0.00000000000E+00 0. -1.
<scales pt_clust_5="13000.00000" pt_clust_6="13000.00000" pt_clust_7="13000.00000" pt_clust_8="13000.00000" pt_clust_9="24.26110"></scales>
<clustering>
<clus scale="   24.261">  1  9  2 -1</clus>
<clus scale="   90.909">  5  6 -1 -1</clus>
<clus scale="   90.959">  7  8 -1 -1</clus>
<clus scale="  131.142">  2  5  1 -1</clus>
<clus scale="   24.261">  1  5  2 -1</clus>
</clustering>
</event>
<event>
 9    1  0.1881049E-005  0.1017942E+03  0.7546771E-02  0.1277462E+00
         21   -1    0    0  501  502  0.00000000000E+00  0.00000000000E+00  0.13193839047E+03  0.13193839047E+03  0.00000000000E+00 0. -1.
          3   -1    0    0  502    0 -0.00000000000E+00 -0.00000000000E+00 -0.24970889394E+03  0.24970889394E+03  0.00000000000E+00 0. -1.
         23    2    1    2    0    0 -0.98717966318E+01 -0.57405491718E+02 -0.14122888525E+03  0.17782407897E+03  0.91010780586E+02 0.  0.
         23    2    1    2    0    0 -0.53758909815E+02  0.16597709918E+02 -0.31954608549E+02  0.11009625438E+03  0.89076281146E+02 0.  0.
        -11    1    4    4    0    0 -0.15761785873E+02  0.45183674982E+02  0.73374116433E+01  0.48413179904E+02  0.00000000000E+00 0.  1.
         11    1    4    4    0    0 -0.37997123942E+02 -0.28585965064E+02 -0.39292020193E+02  0.61683074480E+02  0.00000000000E+00 0. -1.
        -13    1    3    3    0    0  0.16679674400E+02 -0.58731852839E+02 -0.39591970604E+02  0.72767892729E+02  0.00000000000E+00 0. -1.
         13    1    3    3    0    0 -0.26551471032E+02  0.13263611208E+01 -0.10163691465E+03  0.10505618624E+03  0.00000000000E+00 0.  1.
          3    1    1    2  501    0  0.63630706446E+02  0.40807781800E+02  0.55412990331E+02  0.93726951064E+02  0.00000000000E+00 0. -1.
<scales pt_clust_5="13000.00000" pt_clust_6="13000.00000" pt_clust_7="13000.00000" pt_clust_8="13000.00000" pt_clust_9="75.59194"></scales>
<clustering>
<clus scale="   75.592">  1  9  2 -1</clus>
<clus scale="   89.076">  5  6 -1 -1</clus>
<clus scale="   91.011">  7  8 -1 -1</clus>
<clus scale="  100.068">  1  5  2 -1</clus>
<clus scale="   75.592">  1  5  2 -1</clus>
</clustering>
</event>
<event>
 9    1  0.1881049E-005  0.2997169E+03  0.7546771E-02  0.1085463E+00
         21   -1    0    0  501  502  0.00000000000E+00  0.00000000000E+00  0.62388901492E+03  0.62388901492E+03  0.00000000000E+00 0. -1.
          1   -1    0    0  502    0 -0.00000000000E+00 -0.00000000000E+00 -0.21621396878E+03  0.21621396878E+03  0.00000000000E+00 0. -1.
         23    2    1    2    0    0  0.32467748532E+03  0.72890630783E+02  0.93543080633E+02  0.35718685716E+03  0.90020161458E+02 0.  0.
         23    2    1    2    0    0 -0.21231145307E+03 -0.97054533739E+02  0.19964519303E+03  0.32069023316E+03  0.92131899578E+02 0.  0.
        -11    1    4    4    0    0 -0.17145655488E+02 -0.42365484933E+02  0.55914987348E+02  0.72216989870E+02  0.00000000000E+00 0.  1.
         11    1    4    4    0    0 -0.19516579759E+03 -0.54689048806E+02  0.14373020568E+03  0.24847324329E+03  0.00000000000E+00 0. -1.
        -13    1    3    3    0    0  0.92366760076E+02 -0.13523027914E+02  0.48735287041E+02  0.10530725926E+03  0.00000000000E+00 0.  1.
         13    1    3    3    0    0  0.23231072524E+03  0.86413658697E+02  0.44807793592E+02  0.25187959790E+03  0.00000000000E+00 0. -1.
          1    1    1    2  501    0 -0.11236603224E+03  0.24163902956E+02  0.11448677248E+03  0.16222589338E+03  0.00000000000E+00 0. -1.
<scales pt_clust_5="13000.00000" pt_clust_6="13000.00000" pt_clust_7="13000.00000" pt_clust_8="13000.00000" pt_clust_9="114.93485"></scales>
<clustering>
<clus scale="   90.020">  7  8 -1 -1</clus>
<clus scale="   92.132">  5  6 -1 -1</clus>
<clus scale="  114.935">  1  9  2 -1</clus>
<clus scale="  299.075">  2  7  1 -1</clus>
<clus scale="  114.935">  1  5  2 -1</clus>
</clustering>
</event>
<event>
 9    1  0.1881049E-005  0.1032608E+03  0.7546771E-02  0.1274642E+00
          1   -1    0    0  502    0 -0.00000000000E+00  0.00000000000E+00  0.39703446484E+03  0.39703446484E+03  0.00000000000E+00 0. -1.
         21   -1    0    0  501  502  0.00000000000E+00 -0.00000000000E+00 -0.88522293640E+02  0.88522293640E+02  0.00000000000E+00 0. -1.
         23    2    1    2    0    0 -0.45907694961E+01 -0.28543905712E+02  0.14691228228E+03  0.17431534599E+03  0.89256884585E+02 0.  0.
         23    2    1    2    0    0 -0.79517359201E+02  0.56454229077E+02  0.17639483574E+03  0.22139680266E+03  0.91604125229E+02 0.  0.
        -11    1    4    4    0    0 -0.27175985515E+01 -0.23027310434E+02  0.33654374824E+02  0.40868806105E+02  0.00000000000E+00 0.  1.
         11    1    4    4    0    0 -0.76799760650E+02  0.79481539510E+02  0.14274046091E+03  0.18052799656E+03  0.00000000000E+00 0. -1.
        -13    1    3    3    0    0  0.14497302294E+02  0.21443424462E+02  0.99540421642E+02  0.10285080343E+03  0.00000000000E+00 0.  1.
         13    1    3    3    0    0 -0.19088071790E+02 -0.49987330174E+02  0.47371860635E+02  0.71464542555E+02  0.00000000000E+00 0. -1.
          1    1    1    2  501    0  0.84108128698E+02 -0.27910323364E+02 -0.14794946817E+02  0.89844609825E+02  0.00000000000E+00 0. -1.
<scales pt_clust_5="13000.00000" pt_clust_6="13000.00000" pt_clust_7="13000.00000" pt_clust_8="13000.00000" pt_clust_9="88.61808"></scales>
<clustering>
<clus scale="   88.618">  2  9  1 -1</clus>
<clus scale="   89.257">  7  8 -1 -1</clus>
<clus scale="   91.604">  5  6 -1 -1</clus>
<clus scale="  101.184">  1  7  2 -1</clus>
<clus scale="   88.618">  2  5  1 -1</clus>
</clustering>
</event>
<event>
 9    1  0.1881049E-005  0.9908519E+02  0.7546771E-02  0.1283071E+00
         21   -1    0    0  501  502  0.00000000000E+00  0.00000000000E+00  0.16520686271E+03  0.16520686271E+03  0.00000000000E+00 0.  1.
         -1   -1    0    0    0  501 -0.00000000000E+00 -0.00000000000E+00 -0.15335335229E+03  0.15335335229E+03  0.00000000000E+00 0.  1.
         23    2    1    2    0    0 -0.47397908593E+02 -0.28439233732E+02 -0.20634455567E+02  0.10655461629E+03  0.88728539618E+02 0.  0.
         23    2    1    2    0    0 -0.31382191969E+02  0.44151283454E+02  0.66634913711E+02  0.12471764541E+03  0.90443913828E+02 0.  0.
        -11    1    4    4    0    0  0.31024754230E+02  0.16049614098E+02  0.11324754013E+02  0.36720233403E+02  0.00000000000E+00 0. -1.
         11    1    4    4    0    0 -0.62406946199E+02  0.28101669357E+02  0.55310159698E+02  0.87997412009E+02  0.00000000000E+00 0.  1.
        -13    1    3    3    0    0 -0.50673857005E+02  0.17345532857E+02 -0.27391479560E+02  0.60158128680E+02  0.00000000000E+00 0.  1.
         13    1    3    3    0    0  0.32759484122E+01 -0.45784766589E+02  0.67570239926E+01  0.46396487613E+02  0.00000000000E+00 0. -1.
         -1    1    1    2    0  502  0.78780100562E+02 -0.15712049722E+02 -0.34146947718E+02  0.87287953289E+02  0.00000000000E+00 0.  1.
<scales pt_clust_5="13000.00000" pt_clust_6="13000.00000" pt_clust_7="13000.00000" pt_clust_8="13000.00000" pt_clust_9="80.33168"></scales>
<clustering>
<clus scale="   80.332">  1  9  2 -1</clus>
<clus scale="   88.729">  7  8 -1 -1</clus>
<clus scale="   90.444">  5  6 -1 -1</clus>
<clus scale="   97.522">  2  7  1 -1</clus>
<clus scale="   80.332">  1  5  2 -1</clus>
</clustering>
</event>
<event>
 9    1  0.1881049E-005  0.1044053E+03  0.7546771E-02  0.1271395E+00
          1   -1    0    0  502    0 -0.00000000000E+00  0.00000000000E+00  0.39542645693E+03  0.39542645693E+03  0.00000000000E+00 0. -1.
         21   -1    0    0  501  502  0.00000000000E+00 -0.00000000000E+00 -0.85114276322E+02  0.85114276322E+02  0.00000000000E+00 0. -1.
         23    2    1    2    0    0  0.17953163308E+02 -0.50955728312E+02  0.31100868921E+03  0.32946161064E+03  0.94338464080E+02 0.  0.
         23    2    1    2    0    0  0.11040692145E+02  0.33983920058E+01  0.58046626906E+01  0.95002308159E+02  0.94118534281E+02 0.  0.
        -11    1    4    4    0    0 -0.41073575605E+02 -0.38284847281E+01  0.92523616915E+01  0.42276495895E+02  0.00000000000E+00 0.  1.
         11    1    4    4    0    0  0.52114267750E+02  0.72268767339E+01 -0.34476990010E+01  0.52725812263E+02  0.00000000000E+00 0. -1.
        -13    1    3    3    0    0  0.52286607578E+02 -0.17333780776E+02  0.21700635239E+03  0.22388860236E+03  0.00000000000E+00 0. -1.
         13    1    3    3    0    0 -0.34333444270E+02 -0.33621947536E+02  0.94002336819E+02  0.10557300829E+03  0.00000000000E+00 0.  1.
          1    1    1    2  501    0 -0.28993855453E+02  0.47557336306E+02 -0.65011712918E+01  0.56076814449E+02  0.00000000000E+00 0. -1.
<scales pt_clust_5="13000.00000" pt_clust_6="13000.00000" pt_clust_7="13000.00000" pt_clust_8="13000.00000" pt_clust_9="55.69869"></scales>
<clustering>
<clus scale="   55.699">  2  9  1 -1</clus>
<clus scale="   94.119">  5  6 -1 -1</clus>
<clus scale="   94.338">  7  8 -1 -1</clus>
<clus scale="  104.207">  2  5  1 -1</clus>
<clus scale="   55.699">  2  5  1 -1</clus>
</clustering>
</event>
<event>
 9    1  0.1881049E-005  0.2237650E+03  0.7546771E-02  0.1131830E+00
         21   -1    0    0  501  502  0.00000000000E+00  0.00000000000E+00  0.86640351598E+02  0.86640351598E+02  0.00000000000E+00 0. -1.
          2   -1    0    0  502    0 -0.00000000000E+00 -0.00000000000E+00 -0.18788592567E+04  0.18788592567E+04  0.00000000000E+00 0. -1.
         23    2    1    2    0    0 -0.39320323968E+02  0.17361883670E+03 -0.92692501851E+03  0.94792446268E+03  0.87642504999E+02 0.  0.
         23    2    1    2    0    0  0.37430985987E+02 -0.33709295052E+03 -0.45381219120E+03  0.57480597196E+03  0.97075560889E+02 0.  0.
        -11    1    3    3    0    0 -0.62335287375E+02  0.83571329216E+02 -0.54212529489E+03  0.55205949904E+03  0.00000000000E+00 0.  1.
         11    1    3    3    0    0  0.23014963407E+02  0.90047507481E+02 -0.38479972362E+03  0.39586496364E+03  0.00000000000E+00 0. -1.
        -13    1    4    4    0    0 -0.92107126038E+01 -0.26438577448E+03 -0.36630815706E+03  0.45184769658E+03  0.00000000000E+00 0. -1.
         13    1    4    4    0    0  0.46641698591E+02 -0.72707176040E+02 -0.87504034136E+02  0.12295827538E+03  0.00000000000E+00 0.  1.
          2    1    1    2  501    0  0.18893379807E+01  0.16347411382E+03 -0.41148169538E+03  0.44276917364E+03  0.00000000000E+00 0. -1.
<scales pt_clust_5="13000.00000" pt_clust_6="13000.00000" pt_clust_7="13000.00000" pt_clust_8="13000.00000" pt_clust_9="163.48511"></scales>
<clustering>
<clus scale="   87.643">  5  6 -1 -1</clus>
<clus scale="   97.076">  7  8 -1 -1</clus>
<clus scale="  163.485">  1  9  2 -1</clus>
<clus scale="  219.837">  2  5  1 -1</clus>
<clus scale="  163.485">  1  5  2 -1</clus>
</clustering>
</event>
<event>
 9    1  0.1881049E-005  0.2437704E+03  0.7546771E-02  0.1117535E+00
          1   -1    0    0  502    0 -0.00000000000E+00  0.00000000000E+00  0.23825491933E+03  0.23825491933E+03  0.00000000000E+00 0. -1.
         21   -1    0    0  501  502  0.00000000000E+00 -0.00000000000E+00 -0.37141053216E+03  0.37141053216E+03  0.00000000000E+00 0. -1.
         23    2    1    2    0    0  0.23237632040E+03 -0.99970527568E+02  0.21543894492E+02  0.27027515059E+03  0.92691191447E+02 0.  0.
         23    2    1    2    0    0 -0.18444225500E+03  0.26578384759E+02 -0.14250365937E+03  0.25088708084E+03  0.88947616256E+02 0.  0.
        -11    1    4    4    0    0 -0.59307307305E+02 -0.20994659208E+02 -0.83600211435E+02  0.10462852272E+03  0.00000000000E+00 0. -1.
         11    1    4    4    0    0 -0.12513494769E+03  0.47573043967E+02 -0.58903447931E+02  0.14625855812E+03  0.00000000000E+00 0.  1.
        -11    1    3    3    0    0  0.32837911113E+02 -0.41192933016E+02  0.32625950155E+02  0.61964818729E+02  0.00000000000E+00 0.  1.
         11    1    3    3    0    0  0.19953840929E+03 -0.58777594553E+02 -0.11082055662E+02  0.20831033186E+03  0.00000000000E+00 0. -1.
          1    1    1    2  501    0 -0.47934065405E+02  0.73392142809E+02 -0.12195847952E+02  0.88503220053E+02  0.00000000000E+00 0. -1.
<scales pt_clust_5="13000.00000" pt_clust_6="13000.00000" pt_clust_7="13000.00000" pt_clust_8="13000.00000" pt_clust_9="87.65894"></scales>
<clustering>
<clus scale="   87.659">  2  9  1 -1</clus>
<clus scale="   88.948">  5  6 -1 -1</clus>
<clus scale="   92.691">  7  8 -1 -1</clus>
<clus scale="  242.372">  2  5  1 -1</clus>
<clus scale="   87.659">  2  5  1 -1</clus>
</clustering>
</event>
<event>
 9    1  0.1881049E-005  0.1020093E+03  0.7546771E-02  0.1276196E+00
          2   -1    0    0  502    0 -0.00000000000E+00  0.00000000000E+00  0.23703299159E+03  0.23703299159E+03  0.00000000000E+00 0. -1.
         21   -1    0    0  501  502  0.00000000000E+00 -0.00000000000E+00 -0.12900121979E+03  0.12900121979E+03  0.00000000000E+00 0.  1.
         23    2    1    2    0    0  0.79724298444E+01 -0.51012373453E+02  0.13889519360E+03  0.17376910721E+03  0.90763461440E+02 0.  0.
         23    2    1    2    0    0  0.59615414070E+02  0.25007289176E+02 -0.42052145335E+02  0.11898776396E+03  0.90610942711E+02 0.  0.
        -11    1    4    4    0    0  0.67528592219E+02 -0.14216990437E+02 -0.37970959905E+02  0.78765648479E+02  0.00000000000E+00 0.  1.
         11    1    4    4    0    0 -0.79131781487E+01  0.39224279613E+02 -0.40811854298E+01  0.40222115485E+02  0.00000000000E+00 0. -1.
        -13    1    3    3    0    0  0.41800251697E+02 -0.42954562429E+02  0.12013685122E+03  0.13425802954E+03  0.00000000000E+00 0.  1.
         13    1    3    3    0    0 -0.33827821852E+02 -0.80578110235E+01  0.18758342383E+02  0.39511077671E+02  0.00000000000E+00 0. -1.
          2    1    1    2  501    0 -0.67587843914E+02  0.26005084277E+02  0.11188723526E+02  0.73277340204E+02  0.00000000000E+00 0. -1.
<scales pt_clust_5="13000.00000" pt_clust_6="13000.00000" pt_clust_7="13000.00000" pt_clust_8="13000.00000" pt_clust_9="72.41810"></scales>
<clustering>
<clus scale="   72.418">  2  9  1 -1</clus>
<clus scale="   90.611">  5  6 -1 -1</clus>
<clus scale="   90.763">  7  8 -1 -1</clus>
<clus scale="  101.874">  2  5  1 -1</clus>
<clus scale="   72.418">  2  5  1 -1</clus>
</clustering>
</event>
<event>
 9    1  0.1881049E-005  0.1146871E+03  0.7546771E-02  0.1252362E+00
         21   -1    0    0  501  502  0.00000000000E+00  0.00000000000E+00  0.26186018125E+03  0.26186018125E+03  0.00000000000E+00 0.  1.
         -2   -1    0    0    0  501 -0.00000000000E+00 -0.00000000000E+00 -0.19999011316E+03  0.19999011316E+03  0.00000000000E+00 0.  1.
         23    2    1    2    0    0  0.60207445138E+02 -0.26498325217E+02 -0.72828838699E+02  0.13249433083E+03  0.89014663212E+02 0.  0.
         23    2    1    2    0    0 -0.89637482686E+02 -0.37740884966E+02 -0.42194969612E+02  0.13887172082E+03  0.89697751820E+02 0.  0.
        -11    1    4    4    0    0 -0.60296474548E+02 -0.47300361822E+02 -0.65009494907E+02  0.10049489290E+03  0.00000000000E+00 0.  1.
         11    1    4    4    0    0 -0.29341008137E+02  0.95594768562E+01  0.22814525295E+02  0.38376827913E+02  0.00000000000E+00 0. -1.
        -13    1    3    3    0    0 -0.11133162455E+02 -0.36747015755E+02 -0.29273321313E+02  0.48282686481E+02  0.00000000000E+00 0.  1.
         13    1    3    3    0    0  0.71340607592E+02  0.10248690538E+02 -0.43555517386E+02  0.84211644350E+02  0.00000000000E+00 0. -1.
         -2    1    1    2    0  502  0.29430037548E+02  0.64239210183E+02  0.17689387639E+03  0.19048424276E+03  0.00000000000E+00 0.  1.
<scales pt_clust_5="13000.00000" pt_clust_6="13000.00000" pt_clust_7="13000.00000" pt_clust_8="13000.00000" pt_clust_9="70.65977"></scales>
<clustering>
<clus scale="   70.660">  1  9  2 -1</clus>
<clus scale="   89.015">  7  8 -1 -1</clus>
<clus scale="   89.698">  5  6 -1 -1</clus>
<clus scale="  114.154">  2  7  1 -1</clus>
<clus scale="   70.660">  1  5  2 -1</clus>
</clustering>
</event>
<event>
 9    1  0.1881049E-005  0.1079238E+03  0.7546771E-02  0.1264575E+00
         -4   -1    0    0    0  501 -0.00000000000E+00  0.00000000000E+00  0.62404195559E+02  0.62404195559E+02  0.00000000000E+00 0.  1.
         21   -1    0    0  501  502  0.00000000000E+00 -0.00000000000E+00 -0.27238254788E+03  0.27238254788E+03  0.00000000000E+00 0. -1.
         23    2    1    2    0    0 -0.40112605924E+02 -0.23872042669E+02 -0.63757864488E+02  0.12034481995E+03  0.90768468257E+02 0.  0.
         23    2    1    2    0    0  0.61465608252E+02  0.34605175743E+02 -0.70497586494E+02  0.13503720926E+03  0.91047234982E+02 0.  0.
        -11    1    3    3    0    0 -0.24441618580E+02  0.72425493414E+00  0.20041111437E+02  0.31615872780E+02  0.00000000000E+00 0.  1.
         11    1    3    3    0    0 -0.15670987344E+02 -0.24596297603E+02 -0.83798975925E+02  0.88728947171E+02  0.00000000000E+00 0. -1.
        -13    1    4    4    0    0  0.20227690496E+02  0.54775354986E+02 -0.10235001195E+02  0.59281145621E+02  0.00000000000E+00 0. -1.
         13    1    4    4    0    0  0.41237917756E+02 -0.20170179243E+02 -0.60262585299E+02  0.75756063641E+02  0.00000000000E+00 0.  1.
         -4    1    1    2    0  502 -0.21353002328E+02 -0.10733133074E+02 -0.75722901336E+02  0.79404714222E+02  0.00000000000E+00 0.  1.
<scales pt_clust_5="13000.00000" pt_clust_6="13000.00000" pt_clust_7="13000.00000" pt_clust_8="13000.00000" pt_clust_9="23.89876"></scales>
<clustering>
<clus scale="   23.899">  2  9  1 -1</clus>
<clus scale="   90.768">  5  6 -1 -1</clus>
<clus scale="   91.047">  7  8 -1 -1</clus>
<clus scale="  107.689">  1  5  2 -1</clus>
<clus scale="   23.899">  2  5  1 -1</clus>
</clustering>
</event>
<event>
 9    1  0.1881049E-005  0.1066319E+03  0.7546771E-02  0.1266972E+00
          1   -1    0    0  502    0 -0.00000000000E+00  0.00000000000E+00  0.75633028458E+03  0.75633028458E+03  0.00000000000E+00 0. -1.
         21   -1    0    0  501  502  0.00000000000E+00 -0.00000000000E+00 -0.21484585959E+02  0.21484585959E+02  0.00000000000E+00 0.  1.
         23    2    1    2    0    0  0.35447440744E+02 -0.20184822781E+02  0.30652743912E+03  0.32249865363E+03  0.91555243051E+02 0.  0.
         23    2    1    2    0    0 -0.50631885246E+02  0.53791996628E+02  0.32603896004E+03  0.34659149761E+03  0.91471831996E+02 0.  0.
        -11    1    4    4    0    0 -0.22127355267E+02  0.62921228068E+01  0.89247945444E+01  0.24675141706E+02  0.00000000000E+00 0.  1.
         11    1    4    4    0    0 -0.28504529979E+02  0.47499873822E+02  0.31711416549E+03  0.32191635591E+03  0.00000000000E+00 0. -1.
        -11    1    3    3    0    0 -0.29348150708E+02  0.65350779194E+01  0.86369179740E+02  0.91453028394E+02  0.00000000000E+00 0. -1.
         11    1    3    3    0    0  0.64795591452E+02 -0.26719900700E+02  0.22015825938E+03  0.23104562523E+03  0.00000000000E+00 0.  1.
          1    1    1    2  501    0  0.15184444502E+02 -0.33607173848E+02  0.10227929946E+03  0.10872471930E+03  0.00000000000E+00 0. -1.
<scales pt_clust_5="13000.00000" pt_clust_6="13000.00000" pt_clust_7="13000.00000" pt_clust_8="13000.00000" pt_clust_9="36.87831"></scales>
<clustering>
<clus scale="   36.878">  2  9  1 -1</clus>
<clus scale="   91.472">  5  6 -1 -1</clus>
<clus scale="   91.555">  7  8 -1 -1</clus>
<clus scale="  106.560">  2  5  1 -1</clus>
<clus scale="   36.878">  2  5  1 -1</clus>
</clustering>
</event>
<event>
 9    1  0.1881049E-005  0.1369351E+03  0.7546771E-02  0.1227667E+00
          1   -1    0    0  502    0 -0.00000000000E+00  0.00000000000E+00  0.79669337141E+03  0.79669337141E+03  0.00000000000E+00 0. -1.
         21   -1    0    0  501  502  0.00000000000E+00 -0.00000000000E+00 -0.53364373542E+02  0.53364373542E+02  0.00000000000E+00 0. -1.
         23    2    1    2    0    0 -0.56193828953E+02  0.18466484296E+02  0.13098594125E+03  0.17152871147E+03  0.93627050570E+02 0.  0.
         23    2    1    2    0    0 -0.36454800787E+02 -0.93190406089E+02  0.15396090255E+03  0.20494521593E+03  0.91022951669E+02 0.  0.
        -11    1    4    4    0    0 -0.32000157523E+02 -0.16032147660E+02  0.11076980419E+03  0.11640871686E+03  0.00000000000E+00 0.  1.
         11    1    4    4    0    0 -0.44546432647E+01 -0.77158258428E+02  0.43191098362E+02  0.88536499073E+02  0.00000000000E+00 0. -1.
        -11    1    3    3    0    0 -0.72743346804E+02 -0.59547648070E+01  0.59402692943E+02  0.94104907720E+02  0.00000000000E+00 0. -1.
         11    1    3    3    0    0  0.16549517851E+02  0.24421249103E+02  0.71583248303E+02  0.77423803746E+02  0.00000000000E+00 0.  1.
          1    1    1    2  501    0  0.92648629741E+02  0.74723921793E+02  0.45838215407E+03  0.47358381756E+03  0.00000000000E+00 0. -1.
<scales pt_clust_5="13000.00000" pt_clust_6="13000.00000" pt_clust_7="13000.00000" pt_clust_8="13000.00000" pt_clust_9="102.30379"></scales>
<clustering>
<clus scale="   91.023">  5  6 -1 -1</clus>
<clus scale="   93.627">  7  8 -1 -1</clus>
<clus scale="  110.747">  1  7  2 -1</clus>
<clus scale="  102.304">  2  9  1 -1</clus>
<clus scale="  102.304">  2  5  1 -1</clus>
</clustering>
</event>
<event>
 9    1  0.1881049E-005  0.2117177E+03  0.7546771E-02  0.1140314E+00
         21   -1    0    0  501  502  0.00000000000E+00  0.00000000000E+00  0.36970962527E+02  0.36970962527E+02  0.00000000000E+00 0.  1.
         -1   -1    0    0    0  501 -0.00000000000E+00 -0.00000000000E+00 -0.15465038150E+04  0.15465038150E+04  0.00000000000E+00 0.  1.
         23    2    1    2    0    0  0.65878509928E+01  0.18543572839E+03 -0.89459975254E+03  0.91827135404E+03  0.92107292138E+02 0.  0.
         23    2    1    2    0    0 -0.31029630501E+02 -0.19923095245E+03 -0.49730472441E+03  0.54427309842E+03  0.90914280273E+02 0.  0.
        -11    1    3    3    0    0 -0.18971399531E+02  0.17824265966E+03 -0.73943423195E+03  0.76085040783E+03  0.00000000000E+00 0.  1.
         11    1    3    3    0    0  0.25559250524E+02  0.71930687363E+01 -0.15516552059E+03  0.15742094621E+03  0.00000000000E+00 0. -1.
        -13    1    4    4    0    0  0.22566931922E+02 -0.13220059646E+02 -0.81987441603E+02  0.86057986114E+02  0.00000000000E+00 0. -1.
         13    1    4    4    0    0 -0.53596562423E+02 -0.18601089280E+03 -0.41531728281E+03  0.45821511230E+03  0.00000000000E+00 0.  1.
         -1    1    1    2    0  502  0.24441779508E+02  0.13795224056E+02 -0.11762837550E+03  0.12093032504E+03  0.00000000000E+00 0.  1.
<scales pt_clust_5="13000.00000" pt_clust_6="13000.00000" pt_clust_7="13000.00000" pt_clust_8="13000.00000" pt_clust_9="28.06616"></scales>
<clustering>
<clus scale="   28.066">  1  9  2 -1</clus>
<clus scale="   90.914">  7  8 -1 -1</clus>
<clus scale="   92.107">  5  6 -1 -1</clus>
<clus scale="  211.201">  1  7  2 -1</clus>
<clus scale="   28.066">  1  5  2 -1</clus>
</clustering>
</event>
<event>
 9    1  0.1881049E-005  0.1120262E+03  0.7546771E-02  0.1258017E+00
         21   -1    0    0  501  502  0.00000000000E+00  0.00000000000E+00  0.99985367978E+02  0.99985367978E+02  0.00000000000E+00 0. -1.
          3   -1    0    0  502    0 -0.00000000000E+00 -0.00000000000E+00 -0.17114753695E+03  0.17114753695E+03  0.00000000000E+00 0. -1.
         23    2    1    2    0    0  0.13860696490E+02 -0.53943436024E+02 -0.61787691096E+02  0.12344758811E+03  0.91211704529E+02 0.  0.
         23    2    1    2    0    0 -0.19418139172E+02  0.80078313231E+02 -0.62826683568E+01  0.12078780276E+03  0.88094386859E+02 0.  0.
        -11    1    3    3    0    0  0.46959288345E+02 -0.20321238675E+02 -0.78156286070E+01  0.51761100778E+02  0.00000000000E+00 0.  1.
         11    1    3    3    0    0 -0.33098591855E+02 -0.33622197349E+02 -0.53972062489E+02  0.71686487337E+02  0.00000000000E+00 0. -1.
        -13    1    4    4    0    0  0.23471755696E+02 -0.75362964558E+00 -0.16517876443E+02  0.28711174049E+02  0.00000000000E+00 0.  1.
         13    1    4    4    0    0 -0.42889894867E+02  0.80831942877E+02  0.10235208086E+02  0.92076628715E+02  0.00000000000E+00 0. -1.
          3    1    1    2  501    0  0.55574426816E+01 -0.26134877207E+02 -0.30918095171E+01  0.26897514047E+02  0.00000000000E+00 0. -1.
<scales pt_clust_5="13000.00000" pt_clust_6="13000.00000" pt_clust_7="13000.00000" pt_clust_8="13000.00000" pt_clust_9="26.71922"></scales>
<clustering>
<clus scale="   26.719">  1  9  2 -1</clus>
<clus scale="   88.094">  7  8 -1 -1</clus>
<clus scale="   91.212">  5  6 -1 -1</clus>
<clus scale="  109.503">  1  7  2 -1</clus>
<clus scale="   26.719">  1  5  2 -1</clus>
</clustering>
</event>
<event>
 9    1  0.1881049E-005  0.1001438E+03  0.7546771E-02  0.1280168E+00
         21   -1    0    0  501  502  0.00000000000E+00  0.00000000000E+00  0.13805539670E+03  0.13805539670E+03  0.00000000000E+00 0. -1.
          1   -1    0    0  502    0 -0.00000000000E+00 -0.00000000000E+00 -0.19791792054E+03  0.19791792054E+03  0.00000000000E+00 0. -1.
         23    2    1    2    0    0  0.23168639974E+02  0.23851529425E+02 -0.92763241075E+02  0.13402355708E+03  0.90838392897E+02 0.  0.
         23    2    1    2    0    0 -0.33821116347E+02 -0.43292015252E+02 -0.48925548848E+02  0.11717390533E+03  0.91202786490E+02 0.  0.
        -11    1    4    4    0    0 -0.17508424490E+02 -0.64934669310E+02 -0.75000611893E+01  0.67670577982E+02  0.00000000000E+00 0.  1.
         11    1    4    4    0    0 -0.16312691858E+02  0.21642654059E+02 -0.41425487658E+02  0.49503327343E+02  0.00000000000E+00 0. -1.
        -13    1    3    3    0    0  0.43855219020E+02  0.16399477411E+01 -0.93900238932E+02  0.10364952742E+03  0.00000000000E+00 0. -1.
         13    1    3    3    0    0 -0.20686579046E+02  0.22211581684E+02  0.11369978567E+01  0.30374029658E+02  0.00000000000E+00 0.  1.
          1    1    1    2  501    0  0.10652476374E+02  0.19440485827E+02  0.81826266081E+02  0.84775854834E+02  0.00000000000E+00 0. -1.
<scales pt_clust_5="13000.00000" pt_clust_6="13000.00000" pt_clust_7="13000.00000" pt_clust_8="13000.00000" pt_clust_9="22.16772"></scales>
<clustering>
<clus scale="   22.168">  1  9  2 -1</clus>
<clus scale="   90.838">  7  8 -1 -1</clus>
<clus scale="   91.203">  5  6 -1 -1</clus>
<clus scale="   99.812">  2  7  1 -1</clus>
<clus scale="   22.168">  1  5  2 -1</clus>
</clustering>
</event>
<event>
 9    1  0.1881049E-005  0.1085925E+03  0.7546771E-02  0.1264218E+00
         21   -1    0    0  501  502  0.00000000000E+00  0.00000000000E+00  0.13620184869E+03  0.13620184869E+03  0.00000000000E+00 0.  1.
          1   -1    0    0  502    0 -0.00000000000E+00 -0.00000000000E+00 -0.14672193844E+03  0.14672193844E+03  0.00000000000E+00 0. -1.
         23    2    1    2    0    0  0.41338656205E+02  0.27634165882E+02 -0.44659981781E+02  0.11222960775E+03  0.90157857465E+02 0.  0.
         23    2    1    2    0    0 -0.45627639372E+02 -0.50236392534E+02 -0.15571924075E+02  0.11591717063E+03  0.92675395965E+02 0.  0.
        -11    1    3    3    0    0  0.29477826236E+02  0.59328175807E+02 -0.16668803511E+02  0.68312690583E+02  0.00000000000E+00 0. -1.
         11    1    3    3    0    0  0.11860829969E+02 -0.31694009925E+02 -0.27991178270E+02  0.43916917169E+02  0.00000000000E+00 0.  1.
        -13    1    4    4    0    0 -0.35957499612E+02  0.11454205634E+02 -0.34016529696E+02  0.50806150194E+02  0.00000000000E+00 0. -1.
         13    1    4    4    0    0 -0.96701397606E+01 -0.61690598168E+02  0.18444605621E+02  0.65111020433E+02  0.00000000000E+00 0.  1.
          1    1    1    2  501    0  0.42889831679E+01  0.22602226652E+02  0.49711816107E+02  0.54777008744E+02  0.00000000000E+00 0. -1.
<scales pt_clust_5="13000.00000" pt_clust_6="13000.00000" pt_clust_7="13000.00000" pt_clust_8="13000.00000" pt_clust_9="23.00557"></scales>
<clustering>
<clus scale="   23.006">  1  9  2 -1</clus>
<clus scale="   90.158">  5  6 -1 -1</clus>
<clus scale="   92.675">  7  8 -1 -1</clus>
<clus scale="  106.452">  2  5  1 -1</clus>
<clus scale="   23.006">  1  5  2 -1</clus>
</clustering>
</event>
<event>
 9    1  0.1881049E-005  0.9433647E+02  0.7546771E-02  0.1295651E+00
         -3   -1    0    0    0  501 -0.00000000000E+00  0.00000000000E+00  0.27515661846E+03  0.27515661846E+03  0.00000000000E+00 0.  1.
         21   -1    0    0  501  502  0.00000000000E+00 -0.00000000000E+00 -0.14106381482E+03  0.14106381482E+03  0.00000000000E+00 0.  1.
         23    2    1    2    0    0 -0.15905672610E+02  0.29314168322E+02  0.17528039304E+03  0.20092157467E+03  0.92379392156E+02 0.  0.
         23    2    1    2    0    0  0.14815326617E+01  0.85153282590E+01  0.60081410040E+02  0.10623678055E+03  0.87188141132E+02 0.  0.
        -11    1    4    4    0    0  0.30693821048E+02 -0.19965278356E+02  0.39264389125E+01  0.36825804986E+02  0.00000000000E+00 0. -1.
         11    1    4    4    0    0 -0.29212288386E+02  0.28480606615E+02  0.56154971128E+02  0.69410975560E+02  0.00000000000E+00 0.  1.
        -13    1    3    3    0    0 -0.11606828285E+02  0.62962692336E+02  0.10734383075E+03  0.12498686767E+03  0.00000000000E+00 0.  1.
         13    1    3    3    0    0 -0.42988443248E+01 -0.33648524014E+02  0.67936562293E+02  0.75934706999E+02  0.00000000000E+00 0. -1.
         -3    1    1    2    0  502  0.14424139949E+02 -0.37829496582E+02 -0.10126899944E+03  0.10906207807E+03  0.00000000000E+00 0.  1.
<scales pt_clust_5="13000.00000" pt_clust_6="13000.00000" pt_clust_7="13000.00000" pt_clust_8="13000.00000" pt_clust_9="40.48613"></scales>
<clustering>
<clus scale="   40.486">  2  9  1 -1</clus>
<clus scale="   87.188">  5  6 -1 -1</clus>
<clus scale="   89.259">  2  5  1 -1</clus>
<clus scale="   92.379">  7  8 -1 -1</clus>
<clus scale="   40.486">  2  5  1 -1</clus>
</clustering>
</event>
<event>
 9    1  0.1881049E-005  0.9660593E+02  0.7546771E-02  0.1287817E+00
          1   -1    0    0  502    0 -0.00000000000E+00  0.00000000000E+00  0.24583356923E+03  0.24583356923E+03  0.00000000000E+00 0. -1.
         21   -1    0    0  501  502  0.00000000000E+00 -0.00000000000E+00 -0.23104403987E+03  0.23104403987E+03  0.00000000000E+00 0. -1.
         23    2    1    2    0    0 -0.24597997411E+02  0.19171798173E+02  0.12276584516E+03  0.15637031845E+03  0.91692990097E+02 0.  0.
         23    2    1    2    0    0  0.59067925316E+01 -0.33933759743E+02  0.82976536200E+02  0.12807478731E+03  0.91277901693E+02 0.  0.
        -13    1    3    3    0    0  0.21377411584E+01 -0.34893118735E+02  0.59143644278E+02  0.68702767999E+02  0.00000000000E+00 0. -1.
         13    1    3    3    0    0 -0.26735738570E+02  0.54064916909E+02  0.63622200885E+02  0.87667550454E+02  0.00000000000E+00 0.  1.
        -13    1    4    4    0    0 -0.36727623012E+02  0.27563267905E+01  0.14808565618E+02  0.39696463887E+02  0.00000000000E+00 0.  1.
         13    1    4    4    0    0  0.42634415543E+02 -0.36690086533E+02  0.68167970582E+02  0.88378323427E+02  0.00000000000E+00 0. -1.
          1    1    1    2  501    0  0.18691204880E+02  0.14761961570E+02 -0.19095285201E+03  0.19243250333E+03  0.00000000000E+00 0. -1.
<scales pt_clust_5="13000.00000" pt_clust_6="13000.00000" pt_clust_7="13000.00000" pt_clust_8="13000.00000" pt_clust_9="23.81757"></scales>
<clustering>
<clus scale="   23.818">  2  9  1 -1</clus>
<clus scale="   91.278">  7  8 -1 -1</clus>
<clus scale="   91.693">  5  6 -1 -1</clus>
<clus scale="   96.212">  2  7  1 -1</clus>
<clus scale="   23.818">  2  5  1 -1</clus>
</clustering>
</event>
<event>
 9    1  0.1881049E-005  0.1265210E+03  0.7546771E-02  0.1232912E+00
         21   -1    0    0  501  502  0.00000000000E+00  0.00000000000E+00  0.96199952884E+02  0.96199952884E+02  0.00000000000E+00 0.  1.
          3   -1    0    0  502    0 -0.00000000000E+00 -0.00000000000E+00 -0.32097116410E+03  0.32097116410E+03  0.00000000000E+00 0. -1.
         23    2    1    2    0    0 -0.90355108745E+02  0.17128844669E+02 -0.24285894374E+03  0.27522772481E+03  0.91172314605E+02 0.  0.
         23    2    1    2    0    0  0.70994890830E+02 -0.56589756064E+00  0.18496590637E+02  0.11646170425E+03  0.90446724255E+02 0.  0.
        -11    1    4    4    0    0  0.19067549743E+02 -0.41698314339E+02  0.20412554168E+02  0.50189573017E+02  0.00000000000E+00 0.  1.
         11    1    4    4    0    0  0.51927341087E+02  0.41132416778E+02 -0.19159635312E+01  0.66272131237E+02  0.00000000000E+00 0. -1.
        -11    1    3    3    0    0 -0.65423667225E+02 -0.79117067734E+01 -0.60445071600E+02  0.89422916626E+02  0.00000000000E+00 0.  1.
         11    1    3    3    0    0 -0.24931441520E+02  0.25040551442E+02 -0.18241387214E+03  0.18580480818E+03  0.00000000000E+00 0. -1.
          3    1    1    2  501    0  0.19360217915E+02 -0.16562947108E+02 -0.40885811206E+00  0.25481687926E+02  0.00000000000E+00 0. -1.
<scales pt_clust_5="13000.00000" pt_clust_6="13000.00000" pt_clust_7="13000.00000" pt_clust_8="13000.00000" pt_clust_9="25.47841"></scales>
<clustering>
<clus scale="   25.478">  1  9  2 -1</clus>
<clus scale="   90.447">  5  6 -1 -1</clus>
<clus scale="   91.172">  7  8 -1 -1</clus>
<clus scale="  125.999">  1  5  2 -1</clus>
<clus scale="   25.478">  1  5  2 -1</clus>
</clustering>
</event>
<event>
 9    1  0.1881049E-005  0.1626601E+03  0.7546771E-02  0.1185763E+00
         -1   -1    0    0    0  501 -0.00000000000E+00  0.00000000000E+00  0.61846677317E+03  0.61846677317E+03  0.00000000000E+00 0.  1.
         21   -1    0    0  501  502  0.00000000000E+00 -0.00000000000E+00 -0.55468660505E+02  0.55468660505E+02  0.00000000000E+00 0. -1.
         23    2    1    2    0    0 -0.99380340270E+02  0.10079481921E+03  0.35299606138E+03  0.39123169685E+03  0.91760414425E+02 0.  0.
         23    2    1    2    0    0  0.95357250436E+02 -0.80263831829E+02  0.21099572540E+03  0.26175871157E+03  0.91995320736E+02 0.  0.
        -11    1    3    3    0    0 -0.11322018839E+02  0.40374277386E+02  0.31451218644E+02  0.52416119078E+02  0.00000000000E+00 0.  1.
         11    1    3    3    0    0 -0.88058321431E+02  0.60420541823E+02  0.32154484274E+03  0.33881557777E+03  0.00000000000E+00 0. -1.
        -11    1    4    4    0    0  0.30331728336E+02 -0.72879608101E+02  0.66812344187E+02  0.10341827864E+03  0.00000000000E+00 0.  1.
         11    1    4    4    0    0  0.65025522100E+02 -0.73842237286E+01  0.14418338121E+03  0.15834043293E+03  0.00000000000E+00 0. -1.
         -1    1    1    2    0  502  0.40230898335E+01 -0.20530987380E+02 -0.99367411743E+00  0.20945025253E+02  0.00000000000E+00 0.  1.
<scales pt_clust_5="13000.00000" pt_clust_6="13000.00000" pt_clust_7="13000.00000" pt_clust_8="13000.00000" pt_clust_9="20.92144"></scales>
<clustering>
<clus scale="   20.921">  2  9  1 -1</clus>
<clus scale="   91.760">  5  6 -1 -1</clus>
<clus scale="   91.995">  7  8 -1 -1</clus>
<clus scale="  162.527">  1  5  2 -1</clus>
<clus scale="   20.921">  2  5  1 -1</clus>
</clustering>
</event>
<event>
 9    1  0.1881049E-005  0.1002353E+03  0.7546771E-02  0.1280517E+00
         21   -1    0    0  501  502  0.00000000000E+00  0.00000000000E+00  0.52481709990E+02  0.52481709990E+02  0.00000000000E+00 0. -1.
          2   -1    0    0  502    0 -0.00000000000E+00 -0.00000000000E+00 -0.69728181016E+03  0.69728181016E+03  0.00000000000E+00 0. -1.
         23    2    1    2    0    0  0.61941238204E+02 -0.13169630636E+02 -0.40340116857E+03  0.41847888861E+03  0.91552833083E+02 0.  0.
         23    2    1    2    0    0 -0.17881734644E+02  0.60677161492E+00 -0.26449110709E+03  0.27997855150E+03  0.90068412679E+02 0.  0.
        -11    1    4    4    0    0  0.12132279559E+02  0.36609790538E+02 -0.70028102187E+02  0.79946257364E+02  0.00000000000E+00 0.  1.
         11    1    4    4    0    0 -0.30014014203E+02 -0.36003018923E+02 -0.19446300490E+03  0.20003229413E+03  0.00000000000E+00 0. -1.
        -13    1    3    3    0    0 -0.27456198003E+01 -0.40757753974E+02 -0.13805776557E+03  0.14397457960E+03  0.00000000000E+00 0. -1.
         13    1    3    3    0    0  0.64686858005E+02  0.27588123337E+02 -0.26534340301E+03  0.27450430901E+03  0.00000000000E+00 0.  1.
          2    1    1    2  501    0 -0.44059503560E+02  0.12562859022E+02  0.23092175490E+02  0.51306080045E+02  0.00000000000E+00 0. -1.
<scales pt_clust_5="13000.00000" pt_clust_6="13000.00000" pt_clust_7="13000.00000" pt_clust_8="13000.00000" pt_clust_9="45.81556"></scales>
<clustering>
<clus scale="   45.816">  1  9  2 -1</clus>
<clus scale="   90.068">  5  6 -1 -1</clus>
<clus scale="   91.553">  7  8 -1 -1</clus>
<clus scale="   98.881">  1  5  2 -1</clus>
<clus scale="   45.816">  1  5  2 -1</clus>
</clustering>
</event>
<event>
 9    1  0.1881049E-005  0.1321226E+03  0.7546771E-02  0.1238923E+00
         21   -1    0    0  501  502  0.00000000000E+00  0.00000000000E+00  0.41493976944E+03  0.41493976944E+03  0.00000000000E+00 0. -1.
          1   -1    0    0  502    0 -0.00000000000E+00 -0.00000000000E+00 -0.98439930843E+02  0.98439930843E+02  0.00000000000E+00 0. -1.
         23    2    1    2    0    0 -0.16578544192E+02 -0.58940248865E+02  0.52369512342E+01  0.97986551576E+02  0.76322588843E+02 0.  0.
         23    2    1    2    0    0  0.98151620786E+02  0.11874767862E+01  0.62108463745E+02  0.14693928616E+03  0.89991898438E+02 0.  0.
        -11    1    3    3    0    0 -0.23512415216E+02  0.12116679987E+02  0.11988449966E+01  0.26478006581E+02  0.00000000000E+00 0.  1.
         11    1    3    3    0    0  0.69338710236E+01 -0.71056928852E+02  0.40381062376E+01  0.71508544995E+02  0.00000000000E+00 0. -1.
        -13    1    4    4    0    0  0.49532511497E+02 -0.30218236813E+02  0.67261806303E+02  0.88829961829E+02  0.00000000000E+00 0. -1.
         13    1    4    4    0    0  0.48619109289E+02  0.31405713600E+02 -0.51533425577E+01  0.58109324332E+02  0.00000000000E+00 0.  1.
          1    1    1    2  501    0 -0.81573076594E+02  0.57752772079E+02  0.24915442362E+03  0.26845386255E+03  0.00000000000E+00 0. -1.
<scales pt_clust_5="13000.00000" pt_clust_6="13000.00000" pt_clust_7="13000.00000" pt_clust_8="13000.00000" pt_clust_9="96.73592"></scales>
<clustering>
<clus scale="   76.323">  5  6 -1 -1</clus>
<clus scale="   89.992">  7  8 -1 -1</clus>
<clus scale="   97.847">  2  5  1 -1</clus>
<clus scale="   96.736">  1  9  2 -1</clus>
<clus scale="   96.736">  1  5  2 -1</clus>
</clustering>
</event>
<event>
 9    1  0.1881049E-005  0.1543769E+03  0.7546771E-02  0.1195706E+00
          1   -1    0    0  502    0 -0.00000000000E+00  0.00000000000E+00  0.69610509549E+03  0.69610509549E+03  0.00000000000E+00 0. -1.
         21   -1    0    0  501  502  0.00000000000E+00 -0.00000000000E+00 -0.20965633140E+03  0.20965633140E+03  0.00000000000E+00 0. -1.
         23    2    1    2    0    0 -0.11949739415E+03  0.17145534537E+02  0.46528152125E+03  0.48841933983E+03  0.86561890841E+02 0.  0.
         23    2    1    2    0    0  0.13168381509E+03 -0.58237368474E+02  0.18326413614E+03  0.24967440833E+03  0.89550814277E+02 0.  0.
        -11    1    3    3    0    0 -0.95693490277E+02 -0.83049925731E+01  0.42230041667E+03  0.43308643353E+03  0.00000000000E+00 0. -1.
         11    1    3    3    0    0 -0.23803903877E+02  0.25450527110E+02  0.42981104573E+02  0.55332906307E+02  0.00000000000E+00 0.  1.
        -13    1    4    4    0    0  0.81275407352E+01  0.20376574558E+02  0.14837152861E+02  0.26484010538E+02  0.00000000000E+00 0.  1.
         13    1    4    4    0    0  0.12355627435E+03 -0.78613943032E+02  0.16842698328E+03  0.22319039779E+03  0.00000000000E+00 0. -1.
          1    1    1    2  501    0 -0.12186420932E+02  0.41091833936E+02 -0.16209689330E+03  0.16766767872E+03  0.00000000000E+00 0. -1.
<scales pt_clust_5="13000.00000" pt_clust_6="13000.00000" pt_clust_7="13000.00000" pt_clust_8="13000.00000" pt_clust_9="42.86079"></scales>
<clustering>
<clus scale="   42.861">  2  9  1 -1</clus>
<clus scale="   86.562">  5  6 -1 -1</clus>
<clus scale="   89.551">  7  8 -1 -1</clus>
<clus scale="  152.662">  1  5  2 -1</clus>
<clus scale="   42.861">  2  5  1 -1</clus>
</clustering>
</event>
<event>
 9    1  0.1881049E-005  0.1008635E+03  0.7546771E-02  0.1285865E+00
         21   -1    0    0  501  502  0.00000000000E+00  0.00000000000E+00  0.34719416231E+02  0.34719416231E+02  0.00000000000E+00 0. -1.
          2   -1    0    0  502    0 -0.00000000000E+00 -0.00000000000E+00 -0.58539081090E+03  0.58539081090E+03  0.00000000000E+00 0. -1.
         23    2    1    2    0    0 -0.54416859650E+02  0.41798811742E+02 -0.34906010192E+03  0.36735554649E+03  0.91645008090E+02 0.  0.
         23    2    1    2    0    0  0.14233627414E+02 -0.11677696993E+02 -0.18271368435E+03  0.19909749743E+03  0.76919167171E+02 0.  0.
        -13    1    3    3    0    0 -0.37303358490E+02  0.69992274138E+02 -0.27652598535E+03  0.28767530233E+03  0.00000000000E+00 0. -1.
         13    1    3    3    0    0 -0.17113501160E+02 -0.28193462396E+02 -0.72534116567E+02  0.79680244163E+02  0.00000000000E+00 0.  1.
        -13    1    4    4    0    0  0.41759123349E+02  0.32769761353E+01 -0.13997442383E+03  0.14610750248E+03  0.00000000000E+00 0.  1.
         13    1    4    4    0    0 -0.27525495934E+02 -0.14954673128E+02 -0.42739260520E+02  0.52989994948E+02  0.00000000000E+00 0. -1.
          2    1    1    2  501    0  0.40183232236E+02 -0.30121114749E+02 -0.18897608397E+02  0.53657183208E+02  0.00000000000E+00 0. -1.
<scales pt_clust_5="13000.00000" pt_clust_6="13000.00000" pt_clust_7="13000.00000" pt_clust_8="13000.00000" pt_clust_9="50.21926"></scales>
<clustering>
<clus scale="   50.219">  1  9  2 -1</clus>
<clus scale="   76.919">  7  8 -1 -1</clus>
<clus scale="   87.700">  1  7  2 -1</clus>
<clus scale="   91.645">  5  6 -1 -1</clus>
<clus scale="   50.219">  1  5  2 -1</clus>
</clustering>
</event>
<event>
 9    1  0.2294324E-005  0.9910122E+02  0.7546771E-02  0.1283330E+00
         21   -1    0    0  501  502  0.00000000000E+00  0.00000000000E+00  0.15013732659E+03  0.15013732659E+03  0.00000000000E+00 0. -1.
          2   -1    0    0  502    0 -0.00000000000E+00 -0.00000000000E+00 -0.25607872264E+03  0.25607872264E+03  0.00000000000E+00 0. -1.
         23    2    1    2    0    0 -0.82771602443E+01 -0.34761876971E+02 -0.21297620125E+03  0.23476648111E+03  0.92084411739E+02 0.  0.
         23    2    1    2    0    0 -0.10338873692E+02  0.46729615190E+02  0.56783806186E+02  0.11654104074E+03  0.89815724051E+02 0.  0.
        -11    1    3    3    0    0 -0.21398922738E+02  0.27586090497E+02 -0.69339533593E+02  0.77632964662E+02  0.00000000000E+00 0.  1.
         11    1    3    3    0    0  0.13121762494E+02 -0.62347967468E+02 -0.14363666765E+03  0.15713351645E+03  0.00000000000E+00 0. -1.
        -13    1    4    4    0    0 -0.31332649452E+02  0.66124838350E+02  0.39869923893E+02  0.83329706586E+02  0.00000000000E+00 0. -1.
         13    1    4    4    0    0  0.20993775760E+02 -0.19395223160E+02  0.16913882293E+02  0.33211334154E+02  0.00000000000E+00 0.  1.
          2    1    1    2  501    0  0.18616033936E+02 -0.11967738219E+02  0.50250999008E+02  0.54908527379E+02  0.00000000000E+00 0. -1.
<scales pt_clust_5="13000.00000" pt_clust_6="13000.00000" pt_clust_7="13000.00000" pt_clust_8="13000.00000" pt_clust_9="22.13105"></scales>
<clustering>
<clus scale="   22.131">  1  9  2 -1</clus>
<clus scale="   89.816">  7  8 -1 -1</clus>
<clus scale="   92.084">  5  6 -1 -1</clus>
<clus scale="   96.997">  1  7  2 -1</clus>
<clus scale="   22.131">  1  5  2 -1</clus>
</clustering>
</event>
<event>
 9    1  0.1881049E-005  0.9472044E+02  0.7546771E-02  0.1292912E+00
         21   -1    0    0  501  502  0.00000000000E+00  0.00000000000E+00  0.25462742731E+03  0.25462742731E+03  0.00000000000E+00 0. -1.
         -4   -1    0    0    0  501 -0.00000000000E+00 -0.00000000000E+00 -0.69118955537E+02  0.69118955537E+02  0.00000000000E+00 0.  1.
         23    2    1    2    0    0 -0.13842388538E+02 -0.16295979564E+02  0.33553432762E+02  0.99843104862E+02  0.91573151458E+02 0.  0.
         23    2    1    2    0    0  0.33779903918E+02 -0.69132729718E+01  0.33652297501E+02  0.10170789112E+03  0.89571997504E+02 0.  0.
        -13    1    4    4    0    0  0.41351204348E+02 -0.37092253874E+02 -0.44068629370E+00  0.55551342044E+02  0.00000000000E+00 0.  1.
         13    1    4    4    0    0 -0.75713004297E+01  0.30178980903E+02  0.34092983794E+02  0.46156549075E+02  0.00000000000E+00 0. -1.
        -13    1    3    3    0    0  0.27032827395E+02  0.53911292127E+01  0.44451745172E+02  0.52304834194E+02  0.00000000000E+00 0.  1.
         13    1    3    3    0    0 -0.40875215934E+02 -0.21687108777E+02 -0.10898312410E+02  0.47538270668E+02  0.00000000000E+00 0. -1.
         -4    1    1    2    0  502 -0.19937515380E+02  0.23209252536E+02  0.11830274151E+03  0.12219538687E+03  0.00000000000E+00 0.  1.
<scales pt_clust_5="13000.00000" pt_clust_6="13000.00000" pt_clust_7="13000.00000" pt_clust_8="13000.00000" pt_clust_9="30.59696"></scales>
<clustering>
<clus scale="   30.597">  1  9  2 -1</clus>
<clus scale="   89.572">  5  6 -1 -1</clus>
<clus scale="   91.573">  7  8 -1 -1</clus>
<clus scale="   92.787">  1  5  2 -1</clus>
<clus scale="   30.597">  1  5  2 -1</clus>
</clustering>
</event>
<event>
 9    1  0.1881049E-005  0.1293045E+03  0.7546771E-02  0.1243747E+00
          4   -1    0    0  502    0 -0.00000000000E+00  0.00000000000E+00  0.38163061825E+02  0.38163061825E+02  0.00000000000E+00 0. -1.
         21   -1    0    0  501  502  0.00000000000E+00 -0.00000000000E+00 -0.42938069743E+03  0.42938069743E+03  0.00000000000E+00 0.  1.
         23    2    1    2    0    0 -0.35753190102E+02  0.25903319951E+01 -0.12647578616E+03  0.15997653020E+03  0.91166689686E+02 0.  0.
         23    2    1    2    0    0  0.77614633559E+01  0.14423129997E+01 -0.23030091899E+03  0.26300293076E+03  0.12676635090E+03 0.  0.
        -13    1    4    4    0    0 -0.32032076385E+02  0.52502014436E+02 -0.12673537352E+03  0.14087004770E+03  0.00000000000E+00 0.  1.
         13    1    4    4    0    0  0.39793539741E+02 -0.51059701436E+02 -0.10356554547E+03  0.12213288306E+03  0.00000000000E+00 0. -1.
        -13    1    3    3    0    0 -0.17212979364E+02 -0.44127999387E+02 -0.67951499443E+02  0.82830992178E+02  0.00000000000E+00 0. -1.
         13    1    3    3    0    0 -0.18540210738E+02  0.46718331382E+02 -0.58524286716E+02  0.77145538024E+02  0.00000000000E+00 0.  1.
          4    1    1    2  501    0  0.27991726746E+02 -0.40326449948E+01 -0.34440930458E+02  0.44564298297E+02  0.00000000000E+00 0. -1.
<scales pt_clust_5="13000.00000" pt_clust_6="13000.00000" pt_clust_7="13000.00000" pt_clust_8="13000.00000" pt_clust_9="28.28073"></scales>
<clustering>
<clus scale="   28.281">  2  9  1 -1</clus>
<clus scale="   91.167">  7  8 -1 -1</clus>
<clus scale="   94.664">  1  7  2 -1</clus>
<clus scale="  126.766">  5  6 -1 -1</clus>
<clus scale="   28.281">  2  5  1 -1</clus>
</clustering>
</event>
<event>
 9    1  0.1881049E-005  0.3861870E+03  0.7546771E-02  0.1048736E+00
         21   -1    0    0  501  502  0.00000000000E+00  0.00000000000E+00  0.30934504395E+03  0.30934504395E+03  0.00000000000E+00 0. -1.
          1   -1    0    0  502    0 -0.00000000000E+00 -0.00000000000E+00 -0.16341515237E+04  0.16341515237E+04  0.00000000000E+00 0. -1.
         23    2    1    2    0    0  0.38586152108E+03  0.13514050617E+03 -0.13879350697E+04  0.14497835198E+04  0.91413493469E+02 0.  0.
         23    2    1    2    0    0 -0.16557836290E+03 -0.18449090965E+03  0.20303706001E+02  0.26394337458E+03  0.88321993319E+02 0.  0.
        -11    1    3    3    0    0  0.22996144202E+03  0.61030092171E+02 -0.94261284500E+03  0.97217586502E+03  0.00000000000E+00 0. -1.
         11    1    3    3    0    0  0.15590007906E+03  0.74110413999E+02 -0.44532222466E+03  0.47760765476E+03  0.00000000000E+00 0.  1.
        -13    1    4    4    0    0 -0.16189007409E+03 -0.13893854911E+03  0.34456198618E+02  0.21610077774E+03  0.00000000000E+00 0. -1.
         13    1    4    4    0    0 -0.36882888114E+01 -0.45552360539E+02 -0.14152492617E+02  0.47842596839E+02  0.00000000000E+00 0.  1.
          1    1    1    2  501    0 -0.22028315818E+03  0.49350403478E+02  0.42824883865E+02  0.22976967332E+03  0.00000000000E+00 0. -1.
<scales pt_clust_5="13000.00000" pt_clust_6="13000.00000" pt_clust_7="13000.00000" pt_clust_8="13000.00000" pt_clust_9="225.74351"></scales>
<clustering>
<clus scale="   88.322">  7  8 -1 -1</clus>
<clus scale="   91.413">  5  6 -1 -1</clus>
<clus scale="  225.744">  1  9  2 -1</clus>
<clus scale="  385.467">  1  7  2 -1</clus>
<clus scale="  225.744">  1  5  2 -1</clus>
</clustering>
</event>
<event>
 9    1  0.1881049E-005  0.1231176E+03  0.7546771E-02  0.1239849E+00
         21   -1    0    0  501  502  0.00000000000E+00  0.00000000000E+00  0.86330518989E+02  0.86330518989E+02  0.00000000000E+00 0.  1.
          1   -1    0    0  502    0 -0.00000000000E+00 -0.00000000000E+00 -0.22102089520E+03  0.22102089520E+03  0.00000000000E+00 0. -1.
         23    2    1    2    0    0 -0.64055600021E+02 -0.48205478346E+02 -0.99367091375E+02  0.15835238860E+03  0.93673753475E+02 0.  0.
         23    2    1    2    0    0  0.76146965855E+02  0.28829338268E+02 -0.38932879409E+02  0.12587619910E+03  0.87747121018E+02 0.  0.
        -13    1    3    3    0    0 -0.87464813844E+02 -0.46423517849E+02 -0.72826761403E+02  0.12291856592E+03  0.00000000000E+00 0.  1.
         13    1    3    3    0    0  0.23409213823E+02 -0.17819604970E+01 -0.26540329972E+02  0.35433822684E+02  0.00000000000E+00 0. -1.
        -13    1    4    4    0    0 -0.98886005388E+01 -0.18135122922E+02 -0.13276845239E+02  0.24554871686E+02  0.00000000000E+00 0.  1.
         13    1    4    4    0    0  0.86035566393E+02  0.46964461191E+02 -0.25656034169E+02  0.10132132741E+03  0.00000000000E+00 0. -1.
          1    1    1    2  501    0 -0.12091365833E+02  0.19376140078E+02  0.36095945694E+01  0.23122826492E+02  0.00000000000E+00 0. -1.
<scales pt_clust_5="13000.00000" pt_clust_6="13000.00000" pt_clust_7="13000.00000" pt_clust_8="13000.00000" pt_clust_9="22.83935"></scales>
<clustering>
<clus scale="   22.839">  1  9  2 -1</clus>
<clus scale="   87.747">  7  8 -1 -1</clus>
<clus scale="   93.674">  5  6 -1 -1</clus>
<clus scale="  118.671">  1  7  2 -1</clus>
<clus scale="   22.839">  1  5  2 -1</clus>
</clustering>
</event>
<event>
 9    1  0.1881049E-005  0.1129191E+03  0.7546771E-02  0.1255472E+00
         21   -1    0    0  501  502  0.00000000000E+00  0.00000000000E+00  0.15617246516E+03  0.15617246516E+03  0.00000000000E+00 0. -1.
          1   -1    0    0  502    0 -0.00000000000E+00 -0.00000000000E+00 -0.16289380984E+03  0.16289380984E+03  0.00000000000E+00 0. -1.
         23    2    1    2    0    0 -0.64131426740E+02 -0.25762790632E+02 -0.98062497089E+02  0.15139687439E+03  0.92348248290E+02 0.  0.
         23    2    1    2    0    0  0.55511614216E+02 -0.32064163970E+01  0.55546453430E+02  0.12082095775E+03  0.91763145778E+02 0.  0.
        -11    1    4    4    0    0  0.68411339847E+01  0.39696392720E+02  0.98649515454E+01  0.41471942059E+02  0.00000000000E+00 0.  1.
         11    1    4    4    0    0  0.48670480231E+02 -0.42902809117E+02  0.45681501885E+02  0.79349015687E+02  0.00000000000E+00 0. -1.
        -13    1    3    3    0    0 -0.73787435036E+01 -0.42574176975E+02 -0.84911818528E+01  0.44035287782E+02  0.00000000000E+00 0.  1.
         13    1    3    3    0    0 -0.56752683236E+02  0.16811386343E+02 -0.89571315236E+02  0.10736158661E+03  0.00000000000E+00 0. -1.
          1    1    1    2  501    0  0.86198125235E+01  0.28969207029E+02  0.35794698985E+02  0.46848442869E+02  0.00000000000E+00 0. -1.
<scales pt_clust_5="13000.00000" pt_clust_6="13000.00000" pt_clust_7="13000.00000" pt_clust_8="13000.00000" pt_clust_9="30.22443"></scales>
<clustering>
<clus scale="   30.224">  1  9  2 -1</clus>
<clus scale="   91.763">  5  6 -1 -1</clus>
<clus scale="   92.348">  7  8 -1 -1</clus>
<clus scale="  112.441">  1  5  2 -1</clus>
<clus scale="   30.224">  1  5  2 -1</clus>
</clustering>
</event>
<event>
 9    1  0.1881049E-005  0.9866395E+02  0.7546771E-02  0.1285120E+00
          2   -1    0    0  502    0 -0.00000000000E+00  0.00000000000E+00  0.92046835753E+02  0.92046835753E+02  0.00000000000E+00 0. -1.
         21   -1    0    0  501  502  0.00000000000E+00 -0.00000000000E+00 -0.13700535282E+03  0.13700535282E+03  0.00000000000E+00 0.  1.
         23    2    1    2    0    0  0.35744831814E+02  0.92982667072E+01  0.87067057756E+01  0.10130645708E+03  0.93931042551E+02 0.  0.
         23    2    1    2    0    0 -0.16140439895E+02 -0.16060379731E+02 -0.33402603852E+02  0.98752075580E+02  0.90098772967E+02 0.  0.
        -11    1    3    3    0    0  0.63140696443E+02 -0.12546883695E+02 -0.27722807261E+01  0.64434908072E+02  0.00000000000E+00 0.  1.
         11    1    3    3    0    0 -0.27395864629E+02  0.21845150402E+02  0.11478986502E+02  0.36871549004E+02  0.00000000000E+00 0. -1.
        -11    1    4    4    0    0 -0.40828605613E+02 -0.38600200249E+02 -0.33317260239E+02  0.65322203923E+02  0.00000000000E+00 0. -1.
         11    1    4    4    0    0  0.24688165717E+02  0.22539820518E+02 -0.85343613218E-01  0.33429871657E+02  0.00000000000E+00 0.  1.
          2    1    1    2  501    0 -0.19604391919E+02  0.67621130236E+01 -0.20262618993E+02  0.28993655918E+02  0.00000000000E+00 0. -1.
<scales pt_clust_5="13000.00000" pt_clust_6="13000.00000" pt_clust_7="13000.00000" pt_clust_8="13000.00000" pt_clust_9="20.73785"></scales>
<clustering>
<clus scale="   20.738">  2  9  1 -1</clus>
<clus scale="   90.099">  7  8 -1 -1</clus>
<clus scale="   93.931">  5  6 -1 -1</clus>
<clus scale="   95.023">  2  7  1 -1</clus>
<clus scale="   20.738">  2  5  1 -1</clus>
</clustering>
</event>
<event>
 9    1  0.1881049E-005  0.9413690E+02  0.7546771E-02  0.1293520E+00
         21   -1    0    0  501  502  0.00000000000E+00  0.00000000000E+00  0.49341995905E+03  0.49341995905E+03  0.00000000000E+00 0.  1.
         -2   -1    0    0    0  501 -0.00000000000E+00 -0.00000000000E+00 -0.38445636262E+02  0.38445636262E+02  0.00000000000E+00 0.  1.
         23    2    1    2    0    0  0.78983183335E+01 -0.77048683431E+01  0.58691367408E+02  0.11034721004E+03  0.92790526062E+02 0.  0.
         23    2    1    2    0    0 -0.35834621709E+02 -0.10151330664E+02  0.21008036103E+03  0.23238698377E+03  0.92102022294E+02 0.  0.
        -13    1    4    4    0    0 -0.63921743428E+02 -0.22851066773E+02  0.15618135548E+03  0.17029614305E+03  0.00000000000E+00 0.  1.
         13    1    4    4    0    0  0.28087121718E+02  0.12699736110E+02  0.53899005543E+02  0.62090840727E+02  0.00000000000E+00 0. -1.
        -13    1    3    3    0    0  0.48713288973E+02  0.84592864451E+01  0.33666161808E+02  0.59816005388E+02  0.00000000000E+00 0.  1.
         13    1    3    3    0    0 -0.40814970639E+02 -0.16164154788E+02  0.25025205601E+02  0.50531204653E+02  0.00000000000E+00 0. -1.
         -2    1    1    2    0  502  0.27936303376E+02  0.17856199007E+02  0.18620259435E+03  0.18913140150E+03  0.00000000000E+00 0.  1.
<scales pt_clust_5="13000.00000" pt_clust_6="13000.00000" pt_clust_7="13000.00000" pt_clust_8="13000.00000" pt_clust_9="33.15541"></scales>
<clustering>
<clus scale="   33.155">  1  9  2 -1</clus>
<clus scale="   92.102">  5  6 -1 -1</clus>
<clus scale="   92.791">  7  8 -1 -1</clus>
<clus scale="   93.458">  1  5  2 -1</clus>
<clus scale="   33.155">  1  5  2 -1</clus>
</clustering>
</event>
<event>
 9    1  0.1881049E-005  0.1674978E+03  0.7546771E-02  0.1181994E+00
          1   -1    0    0  502    0 -0.00000000000E+00  0.00000000000E+00  0.11536752827E+03  0.11536752827E+03  0.00000000000E+00 0. -1.
         21   -1    0    0  501  502  0.00000000000E+00 -0.00000000000E+00 -0.44867135390E+03  0.44867135390E+03  0.00000000000E+00 0. -1.
         23    2    1    2    0    0 -0.66357916948E+02  0.13441015244E+03 -0.45393160713E+01  0.17945838204E+03  0.98565933624E+02 0.  0.
         23    2    1    2    0    0  0.41665380981E+02 -0.96901933185E+02 -0.16619754227E+03  0.21592521058E+03  0.88747309142E+02 0.  0.
        -11    1    3    3    0    0 -0.82088064923E+02  0.88456088249E+02 -0.30377707272E+02  0.12444169338E+03  0.00000000000E+00 0.  1.
         11    1    3    3    0    0  0.15730147976E+02  0.45954064193E+02  0.25838391201E+02  0.55016688659E+02  0.00000000000E+00 0. -1.
        -13    1    4    4    0    0  0.58113976613E+02 -0.82818566771E+02 -0.16584333692E+03  0.19426827245E+03  0.00000000000E+00 0.  1.
         13    1    4    4    0    0 -0.16448595631E+02 -0.14083366414E+02 -0.35420535188E+00  0.21656938131E+02  0.00000000000E+00 0. -1.
          1    1    1    2  501    0  0.24692535966E+02 -0.37508219258E+02 -0.16256696729E+03  0.16865528956E+03  0.00000000000E+00 0. -1.
<scales pt_clust_5="13000.00000" pt_clust_6="13000.00000" pt_clust_7="13000.00000" pt_clust_8="13000.00000" pt_clust_9="44.90643"></scales>
<clustering>
<clus scale="   44.906">  2  9  1 -1</clus>
<clus scale="   88.747">  7  8 -1 -1</clus>
<clus scale="   98.566">  5  6 -1 -1</clus>
<clus scale="  161.915">  2  7  1 -1</clus>
<clus scale="   44.906">  2  5  1 -1</clus>
</clustering>
</event>
<event>
 9    1  0.1881049E-005  0.1105916E+03  0.7546771E-02  0.1260434E+00
          2   -1    0    0  502    0 -0.00000000000E+00  0.00000000000E+00  0.30065427949E+03  0.30065427949E+03  0.00000000000E+00 0. -1.
         21   -1    0    0  501  502  0.00000000000E+00 -0.00000000000E+00 -0.63937621703E+02  0.63937621703E+02  0.00000000000E+00 0.  1.
         23    2    1    2    0    0 -0.54451194676E+02  0.21981712103E+01  0.14957591553E+03  0.18392679289E+03  0.92121366027E+02 0.  0.
         23    2    1    2    0    0  0.71074074710E+02  0.10437802750E+02  0.10312295259E+03  0.15437026040E+03  0.89640181411E+02 0.  0.
        -11    1    4    4    0    0  0.75452871957E+02 -0.23875137384E+02  0.61352775934E+02  0.10013651275E+03  0.00000000000E+00 0.  1.
         11    1    4    4    0    0 -0.43787972474E+01  0.34312940134E+02  0.41770176660E+02  0.54233747651E+02  0.00000000000E+00 0. -1.
        -13    1    3    3    0    0  0.23087506429E+02 -0.10590135093E+02  0.57588255706E+02  0.62941171817E+02  0.00000000000E+00 0.  1.
         13    1    3    3    0    0 -0.77538701105E+02  0.12788306303E+02  0.91987659822E+02  0.12098562107E+03  0.00000000000E+00 0. -1.
          2    1    1    2  501    0 -0.16622880034E+02 -0.12635973961E+02 -0.15982210338E+02  0.26294847895E+02  0.00000000000E+00 0. -1.
<scales pt_clust_5="13000.00000" pt_clust_6="13000.00000" pt_clust_7="13000.00000" pt_clust_8="13000.00000" pt_clust_9="20.88033"></scales>
<clustering>
<clus scale="   20.880">  2  9  1 -1</clus>
<clus scale="   89.640">  5  6 -1 -1</clus>
<clus scale="   92.121">  7  8 -1 -1</clus>
<clus scale="  108.533">  2  5  1 -1</clus>
<clus scale="   20.880">  2  5  1 -1</clus>
</clustering>
</event>
<event>
 9    1  0.1881049E-005  0.1079434E+03  0.7546771E-02  0.1267604E+00
          4   -1    0    0  502    0 -0.00000000000E+00  0.00000000000E+00  0.11880368443E+03  0.11880368443E+03  0.00000000000E+00 0. -1.
         21   -1    0    0  501  502  0.00000000000E+00 -0.00000000000E+00 -0.27029336942E+03  0.27029336942E+03  0.00000000000E+00 0. -1.
         23    2    1    2    0    0 -0.60808965066E+02 -0.16912072308E+02  0.41878156750E+02  0.11875703484E+03  0.91464227380E+02 0.  0.
         23    2    1    2    0    0  0.49855852779E+02 -0.50134711878E+01 -0.25716005392E+02  0.10090614294E+03  0.83725717677E+02 0.  0.
        -11    1    3    3    0    0  0.11782629536E+02 -0.33351915565E+02  0.22230039387E+02  0.41777449441E+02  0.00000000000E+00 0. -1.
         11    1    3    3    0    0 -0.72591594602E+02  0.16439843257E+02  0.19648117363E+02  0.76979585404E+02  0.00000000000E+00 0.  1.
        -13    1    4    4    0    0 -0.14103491475E+02  0.17034946553E+02  0.10150481013E+02  0.24333724348E+02  0.00000000000E+00 0.  1.
         13    1    4    4    0    0  0.63959344255E+02 -0.22048417741E+02 -0.35866486405E+02  0.76572418594E+02  0.00000000000E+00 0. -1.
          4    1    1    2  501    0  0.10953112287E+02  0.21925543496E+02 -0.16765183634E+03  0.16943387606E+03  0.00000000000E+00 0. -1.
<scales pt_clust_5="13000.00000" pt_clust_6="13000.00000" pt_clust_7="13000.00000" pt_clust_8="13000.00000" pt_clust_9="24.50918"></scales>
<clustering>
<clus scale="   24.509">  2  9  1 -1</clus>
<clus scale="   83.726">  7  8 -1 -1</clus>
<clus scale="   91.464">  5  6 -1 -1</clus>
<clus scale="  101.470">  2  7  1 -1</clus>
<clus scale="   24.509">  2  5  1 -1</clus>
</clustering>
</event>
<event>
 9    1  0.1881049E-005  0.2619974E+03  0.7546771E-02  0.1106149E+00
          3   -1    0    0  502    0 -0.00000000000E+00  0.00000000000E+00  0.12338384262E+03  0.12338384262E+03  0.00000000000E+00 0. -1.
         21   -1    0    0  501  502  0.00000000000E+00 -0.00000000000E+00 -0.16397759693E+04  0.16397759693E+04  0.00000000000E+00 0.  1.
         23    2    1    2    0    0  0.22627946391E+03  0.66438897535E+02 -0.82224547689E+02  0.26542135694E+03  0.89839287514E+02 0.  0.
         23    2    1    2    0    0 -0.26917985835E+03 -0.15953120307E+03 -0.11572594846E+04  0.12024678774E+04  0.93656183991E+02 0.  0.
        -11    1    3    3    0    0  0.12734888962E+03  0.18587118871E+02 -0.87126627958E+02  0.15541644049E+03  0.00000000000E+00 0.  1.
         11    1    3    3    0    0  0.98930574297E+02  0.47851778664E+02  0.49020802691E+01  0.11000491645E+03  0.00000000000E+00 0. -1.
        -11    1    4    4    0    0 -0.75701892589E+02 -0.46300817129E+00 -0.24300020497E+03  0.25451933233E+03  0.00000000000E+00 0. -1.
         11    1    4    4    0    0 -0.19347796576E+03 -0.15906819490E+03 -0.91425927959E+03  0.94794854511E+03  0.00000000000E+00 0.  1.
          3    1    1    2  501    0  0.42900394435E+02  0.93092305535E+02 -0.27690809440E+03  0.29527057750E+03  0.00000000000E+00 0. -1.
<scales pt_clust_5="13000.00000" pt_clust_6="13000.00000" pt_clust_7="13000.00000" pt_clust_8="13000.00000" pt_clust_9="102.50181"></scales>
<clustering>
<clus scale="   89.839">  5  6 -1 -1</clus>
<clus scale="   93.656">  7  8 -1 -1</clus>
<clus scale="  102.502">  2  9  1 -1</clus>
<clus scale="  260.657">  1  5  2 -1</clus>
<clus scale="  102.502">  2  5  1 -1</clus>
</clustering>
</event>
<event>
 9    1  0.1881049E-005  0.1272531E+03  0.7546771E-02  0.1231702E+00
          2   -1    0    0  502    0 -0.00000000000E+00  0.00000000000E+00  0.15933997081E+03  0.15933997081E+03  0.00000000000E+00 0. -1.
         21   -1    0    0  501  502  0.00000000000E+00 -0.00000000000E+00 -0.16421561548E+03  0.16421561548E+03  0.00000000000E+00 0.  1.
         23    2    1    2    0    0  0.84597070074E+02 -0.36683451541E+02  0.80992980010E+02  0.15185599209E+03  0.89431759687E+02 0.  0.
         23    2    1    2    0    0 -0.84813676715E+02  0.12696172439E+02 -0.76918173997E+02  0.14609594124E+03  0.89850242089E+02 0.  0.
        -13    1    4    4    0    0 -0.85342117929E+01  0.41726896247E+02 -0.26236895535E+02  0.50023407808E+02  0.00000000000E+00 0. -1.
         13    1    4    4    0    0 -0.76279464922E+02 -0.29030723809E+02 -0.50681278462E+02  0.96072533433E+02  0.00000000000E+00 0.  1.
        -13    1    3    3    0    0  0.62167955639E+02  0.18862436140E+02  0.24251588539E+02  0.69345409019E+02  0.00000000000E+00 0. -1.
         13    1    3    3    0    0  0.22429114436E+02 -0.55545887681E+02  0.56741391470E+02  0.82510583070E+02  0.00000000000E+00 0.  1.
          2    1    1    2  501    0  0.21660664133E+00  0.23987279102E+02 -0.89504506878E+01  0.25603652956E+02  0.00000000000E+00 0. -1.
<scales pt_clust_5="13000.00000" pt_clust_6="13000.00000" pt_clust_7="13000.00000" pt_clust_8="13000.00000" pt_clust_9="23.98826"></scales>
<clustering>
<clus scale="   23.988">  2  9  1 -1</clus>
<clus scale="   89.432">  7  8 -1 -1</clus>
<clus scale="   89.850">  5  6 -1 -1</clus>
<clus scale="  126.958">  1  7  2 -1</clus>
<clus scale="   23.988">  2  5  1 -1</clus>
</clustering>
</event>
<event>
 9    1  0.1881049E-005  0.9337386E+02  0.7546771E-02  0.1299063E+00
          2   -1    0    0  502    0 -0.00000000000E+00  0.00000000000E+00  0.28934998897E+03  0.28934998897E+03  0.00000000000E+00 0. -1.
         21   -1    0    0  501  502  0.00000000000E+00 -0.00000000000E+00 -0.65749551408E+02  0.65749551408E+02  0.00000000000E+00 0. -1.
         23    2    1    2    0    0  0.34151045139E+01 -0.15677858965E+02  0.18228991303E+03  0.20501683528E+03  0.92438261304E+02 0.  0.
         23    2    1    2    0    0 -0.19688197197E+02 -0.18793360914E+01  0.70384153358E+02  0.11242178985E+03  0.85402416687E+02 0.  0.
        -13    1    4    4    0    0 -0.12601048222E+02  0.40972778180E+02  0.25099076958E+02  0.49674124373E+02  0.00000000000E+00 0. -1.
         13    1    4    4    0    0 -0.70871489749E+01 -0.42852114272E+02  0.45285076400E+02  0.62747665476E+02  0.00000000000E+00 0.  1.
        -13    1    3    3    0    0  0.31976830060E+02 -0.36733441928E+02  0.57870330587E+02  0.75636225308E+02  0.00000000000E+00 0.  1.
         13    1    3    3    0    0 -0.28561725546E+02  0.21055582962E+02  0.12441958245E+03  0.12938060997E+03  0.00000000000E+00 0. -1.
          2    1    1    2  501    0  0.16273092683E+02  0.17557195057E+02 -0.29073628833E+02  0.37660915247E+02  0.00000000000E+00 0. -1.
<scales pt_clust_5="13000.00000" pt_clust_6="13000.00000" pt_clust_7="13000.00000" pt_clust_8="13000.00000" pt_clust_9="23.93885"></scales>
<clustering>
<clus scale="   23.939">  2  9  1 -1</clus>
<clus scale="   85.402">  5  6 -1 -1</clus>
<clus scale="   86.414">  2  5  1 -1</clus>
<clus scale="   92.438">  7  8 -1 -1</clus>
<clus scale="   23.939">  2  5  1 -1</clus>
</clustering>
</event>
<event>
 9    1  0.1881049E-005  0.9721146E+02  0.7546771E-02  0.1286607E+00
          3   -1    0    0  502    0 -0.00000000000E+00  0.00000000000E+00  0.13971021564E+03  0.13971021564E+03  0.00000000000E+00 0. -1.
         21   -1    0    0  501  502  0.00000000000E+00 -0.00000000000E+00 -0.27918844554E+03  0.27918844554E+03  0.00000000000E+00 0.  1.
         23    2    1    2    0    0  0.34292373427E+02 -0.58607800935E+01  0.95699946376E+02  0.13713658236E+03  0.91856664787E+02 0.  0.
         23    2    1    2    0    0 -0.32764109414E+01 -0.30665836970E+02 -0.10621451986E+03  0.14418370713E+03  0.92500209435E+02 0.  0.
        -11    1    4    4    0    0  0.16676630542E+02  0.20954972877E+02 -0.77164659873E+02  0.81679897330E+02  0.00000000000E+00 0. -1.
         11    1    4    4    0    0 -0.19953041483E+02 -0.51620809847E+02 -0.29049859989E+02  0.62503809797E+02  0.00000000000E+00 0.  1.
        -13    1    3    3    0    0  0.15529571646E+02 -0.15340408807E+02 -0.13675853808E+02  0.25758973490E+02  0.00000000000E+00 0.  1.
         13    1    3    3    0    0  0.18762801781E+02  0.94796287133E+01  0.10937580018E+03  0.11137760887E+03  0.00000000000E+00 0. -1.
          3    1    1    2  501    0 -0.31015962485E+02  0.36526617064E+02 -0.12896365642E+03  0.13757837170E+03  0.00000000000E+00 0. -1.
<scales pt_clust_5="13000.00000" pt_clust_6="13000.00000" pt_clust_7="13000.00000" pt_clust_8="13000.00000" pt_clust_9="47.91851"></scales>
<clustering>
<clus scale="   47.919">  2  9  1 -1</clus>
<clus scale="   91.857">  7  8 -1 -1</clus>
<clus scale="   92.500">  5  6 -1 -1</clus>
<clus scale="   96.599">  1  7  2 -1</clus>
<clus scale="   47.919">  2  5  1 -1</clus>
</clustering>
</event>
<event>
 9    1  0.1881049E-005  0.9305631E+02  0.7546771E-02  0.1297145E+00
         21   -1    0    0  501  502  0.00000000000E+00  0.00000000000E+00  0.52723541097E+03  0.52723541097E+03  0.00000000000E+00 0.  1.
          1   -1    0    0  502    0 -0.00000000000E+00 -0.00000000000E+00 -0.41630546194E+02  0.41630546194E+02  0.00000000000E+00 0. -1.
         23    2    1    2    0    0 -0.81973082716E+01  0.14984205724E+02  0.28668188153E+02  0.97401716212E+02  0.91506868731E+02 0.  0.
         23    2    1    2    0    0 -0.12173880691E+02 -0.22436851725E+02  0.33081818030E+03  0.34349392257E+03  0.88858262075E+02 0.  0.
        -11    1    3    3    0    0  0.26628168893E+02  0.39641137525E+02  0.35478663339E+01  0.47885974131E+02  0.00000000000E+00 0. -1.
         11    1    3    3    0    0 -0.34825477165E+02 -0.24656931801E+02  0.25120321819E+02  0.49515742081E+02  0.00000000000E+00 0.  1.
        -13    1    4    4    0    0  0.34488917431E+02 -0.29076223968E+02  0.15024787496E+03  0.15687363117E+03  0.00000000000E+00 0. -1.
         13    1    4    4    0    0 -0.46662798122E+02  0.66393722436E+01  0.18057030534E+03  0.18662029140E+03  0.00000000000E+00 0.  1.
          1    1    1    2  501    0  0.20371188963E+02  0.74526460006E+01  0.12611849632E+03  0.12797031838E+03  0.00000000000E+00 0. -1.
<scales pt_clust_5="13000.00000" pt_clust_6="13000.00000" pt_clust_7="13000.00000" pt_clust_8="13000.00000" pt_clust_9="21.69164"></scales>
<clustering>
<clus scale="   21.692">  1  9  2 -1</clus>
<clus scale="   88.858">  7  8 -1 -1</clus>
<clus scale="   90.453">  1  7  2 -1</clus>
<clus scale="   91.507">  5  6 -1 -1</clus>
<clus scale="   21.692">  1  5  2 -1</clus>
</clustering>
</event>
<event>
 9    1  0.1881049E-005  0.1001422E+03  0.7546771E-02  0.1283189E+00
         21   -1    0    0  501  502  0.00000000000E+00  0.00000000000E+00  0.50718158432E+02  0.50718158432E+02  0.00000000000E+00 0.  1.
         -2   -1    0    0    0  501 -0.00000000000E+00 -0.00000000000E+00 -0.41765355201E+03  0.41765355201E+03  0.00000000000E+00 0.  1.
         23    2    1    2    0    0 -0.99581260102E+01 -0.48893922536E+02 -0.22893135015E+03  0.25256851153E+03  0.94294803676E+02 0.  0.
         23    2    1    2    0    0  0.34007218171E+01  0.16892266508E+02 -0.15492610119E+03  0.17901377684E+03  0.88016600097E+02 0.  0.
        -11    1    3    3    0    0  0.36283338977E+02 -0.38803563697E+02 -0.77862409879E+02  0.94258963049E+02  0.00000000000E+00 0. -1.
         11    1    3    3    0    0 -0.46241464987E+02 -0.10090358839E+02 -0.15106894027E+03  0.15830954848E+03  0.00000000000E+00 0.  1.
        -13    1    4    4    0    0  0.39396403936E+02 -0.99933252294E+01 -0.47161344888E+02  0.62258619033E+02  0.00000000000E+00 0.  1.
         13    1    4    4    0    0 -0.35995682119E+02  0.26885591738E+02 -0.10776475630E+03  0.11675515781E+03  0.00000000000E+00 0. -1.
         -2    1    1    2    0  502  0.65574041931E+01  0.32001656028E+02  0.16922057753E+02  0.36789422079E+02  0.00000000000E+00 0.  1.
<scales pt_clust_5="13000.00000" pt_clust_6="13000.00000" pt_clust_7="13000.00000" pt_clust_8="13000.00000" pt_clust_9="32.66658"></scales>
<clustering>
<clus scale="   32.667">  1  9  2 -1</clus>
<clus scale="   88.017">  7  8 -1 -1</clus>
<clus scale="   94.254">  1  7  2 -1</clus>
<clus scale="   94.295">  5  6 -1 -1</clus>
<clus scale="   32.667">  1  5  2 -1</clus>
</clustering>
</event>
<event>
 9    1  0.1881049E-005  0.1865454E+03  0.7546771E-02  0.1187184E+00
         21   -1    0    0  501  502  0.00000000000E+00  0.00000000000E+00  0.54338646792E+02  0.54338646792E+02  0.00000000000E+00 0. -1.
          2   -1    0    0  502    0 -0.00000000000E+00 -0.00000000000E+00 -0.11121852918E+04  0.11121852918E+04  0.00000000000E+00 0. -1.
         23    2    1    2    0    0  0.44672240784E+02 -0.14676075974E+02 -0.38593717995E+03  0.39980803028E+03  0.93209215783E+02 0.  0.
         23    2    1    2    0    0 -0.24908829833E+02 -0.15039283356E+03 -0.48187853650E+03  0.51422810440E+03  0.94790111470E+02 0.  0.
        -11    1    4    4    0    0  0.13831955641E+02 -0.12816793911E+03 -0.40817428096E+03  0.42804741239E+03  0.00000000000E+00 0. -1.
         11    1    4    4    0    0 -0.38740785475E+02 -0.22224894450E+02 -0.73704255535E+02  0.86180692017E+02  0.00000000000E+00 0.  1.
        -11    1    3    3    0    0  0.48183309049E+02 -0.40143793306E+02 -0.35027608026E+03  0.35584615751E+03  0.00000000000E+00 0.  1.
         11    1    3    3    0    0 -0.35110682645E+01  0.25467717332E+02 -0.35661099684E+02  0.43961872767E+02  0.00000000000E+00 0. -1.
          2    1    1    2  501    0 -0.19763410951E+02  0.16506890954E+03 -0.19003092854E+03  0.25248780389E+03  0.00000000000E+00 0. -1.
<scales pt_clust_5="13000.00000" pt_clust_6="13000.00000" pt_clust_7="13000.00000" pt_clust_8="13000.00000" pt_clust_9="160.66748"></scales>
<clustering>
<clus scale="   93.209">  7  8 -1 -1</clus>
<clus scale="   94.790">  5  6 -1 -1</clus>
<clus scale="  104.398">  2  7  1 -1</clus>
<clus scale="  160.667">  1  9  2 -1</clus>
<clus scale="  160.667">  1  5  2 -1</clus>
</clustering>
</event>
<event>
 9    1  0.1881049E-005  0.1076881E+03  0.7546771E-02  0.1265138E+00
         21   -1    0    0  501  502  0.00000000000E+00  0.00000000000E+00  0.28538771839E+03  0.28538771839E+03  0.00000000000E+00 0. -1.
         -3   -1    0    0    0  501 -0.00000000000E+00 -0.00000000000E+00 -0.72322821334E+02  0.72322821334E+02  0.00000000000E+00 0.  1.
         23    2    1    2    0    0  0.38851946726E+02  0.19368457974E+02  0.33889372516E+02  0.10704554432E+03  0.91791328894E+02 0.  0.
         23    2    1    2    0    0 -0.73943911281E+02 -0.20607918796E+02  0.75309595290E+02  0.14102415676E+03  0.91235351237E+02 0.  0.
        -11    1    3    3    0    0  0.20416782332E+01  0.49866102715E+02  0.27267340718E+01  0.49982314159E+02  0.00000000000E+00 0. -1.
         11    1    3    3    0    0  0.36810268493E+02 -0.30497644742E+02  0.31162638444E+02  0.57063230159E+02  0.00000000000E+00 0.  1.
        -13    1    4    4    0    0 -0.33651746725E+02 -0.19252463016E+02  0.90095635675E+02  0.98083234844E+02  0.00000000000E+00 0. -1.
         13    1    4    4    0    0 -0.40292164556E+02 -0.13554557803E+01 -0.14786040385E+02  0.42940921919E+02  0.00000000000E+00 0.  1.
         -3    1    1    2    0  502  0.35091964555E+02  0.12394608224E+01  0.10386592925E+03  0.10964083864E+03  0.00000000000E+00 0.  1.
<scales pt_clust_5="13000.00000" pt_clust_6="13000.00000" pt_clust_7="13000.00000" pt_clust_8="13000.00000" pt_clust_9="35.11385"></scales>
<clustering>
<clus scale="   35.114">  1  9  2 -1</clus>
<clus scale="   91.235">  7  8 -1 -1</clus>
<clus scale="   91.791">  5  6 -1 -1</clus>
<clus scale="  107.215">  1  7  2 -1</clus>
<clus scale="   35.114">  1  5  2 -1</clus>
</clustering>
</event>
<event>
 9    1  0.1881049E-005  0.1055622E+03  0.7546771E-02  0.1269791E+00
         21   -1    0    0  501  502  0.00000000000E+00  0.00000000000E+00  0.73194114787E+03  0.73194114787E+03  0.00000000000E+00 0.  1.
          3   -1    0    0  502    0 -0.00000000000E+00 -0.00000000000E+00 -0.49253800350E+02  0.49253800350E+02  0.00000000000E+00 0. -1.
         23    2    1    2    0    0 -0.48407281554E+02  0.74951085845E+01  0.26315011754E+02  0.10641860483E+03  0.90735869698E+02 0.  0.
         23    2    1    2    0    0  0.65471296453E+02  0.24050343688E+02  0.41971910501E+03  0.43542085925E+03  0.92532631357E+02 0.  0.
        -11    1    3    3    0    0 -0.58736605993E+02 -0.16558312873E+02  0.43642773781E+02  0.75025717671E+02  0.00000000000E+00 0. -1.
         11    1    3    3    0    0  0.10329324439E+02  0.24053421458E+02 -0.17327762027E+02  0.31392887157E+02  0.00000000000E+00 0.  1.
        -11    1    4    4    0    0  0.88529369241E+02  0.27173815863E+02  0.33621054161E+03  0.34873111960E+03  0.00000000000E+00 0. -1.
         11    1    4    4    0    0 -0.23058072788E+02 -0.31234721747E+01  0.83508563400E+02  0.86689739648E+02  0.00000000000E+00 0.  1.
          3    1    1    2  501    0 -0.17064014899E+02 -0.31545452273E+02  0.23665323075E+03  0.23935548414E+03  0.00000000000E+00 0. -1.
<scales pt_clust_5="13000.00000" pt_clust_6="13000.00000" pt_clust_7="13000.00000" pt_clust_8="13000.00000" pt_clust_9="35.86497"></scales>
<clustering>
<clus scale="   35.865">  1  9  2 -1</clus>
<clus scale="   90.736">  5  6 -1 -1</clus>
<clus scale="   92.533">  7  8 -1 -1</clus>
<clus scale="  103.991">  2  5  1 -1</clus>
<clus scale="   35.865">  1  5  2 -1</clus>
</clustering>
</event>
<event>
 9    1  0.1881049E-005  0.9437745E+02  0.7546771E-02  0.1293552E+00
         21   -1    0    0  501  502  0.00000000000E+00  0.00000000000E+00  0.13253720332E+03  0.13253720332E+03  0.00000000000E+00 0.  1.
          1   -1    0    0  502    0 -0.00000000000E+00 -0.00000000000E+00 -0.11209685743E+03  0.11209685743E+03  0.00000000000E+00 0. -1.
         23    2    1    2    0    0 -0.60380220788E+01  0.12357896183E+02 -0.20842997213E+02  0.95289155259E+02  0.91958780268E+02 0.  0.
         23    2    1    2    0    0 -0.16309237692E+02 -0.31817827268E+02 -0.17817795035E+01  0.97069732404E+02  0.90227450616E+02 0.  0.
        -11    1    4    4    0    0  0.32456855977E+02 -0.60083198759E+00  0.16413844791E+02  0.36376129533E+02  0.00000000000E+00 0.  1.
         11    1    4    4    0    0 -0.48766093668E+02 -0.31216995280E+02 -0.18195624295E+02  0.60693602871E+02  0.00000000000E+00 0. -1.
        -11    1    3    3    0    0  0.23422365384E+02  0.39234458588E+02 -0.29622709371E+02  0.54455990041E+02  0.00000000000E+00 0.  1.
         11    1    3    3    0    0 -0.29460387463E+02 -0.26876562405E+02  0.87797121575E+01  0.40833165218E+02  0.00000000000E+00 0. -1.
          1    1    1    2  501    0  0.22347259770E+02  0.19459931085E+02  0.43065122603E+02  0.52275173093E+02  0.00000000000E+00 0. -1.
<scales pt_clust_5="13000.00000" pt_clust_6="13000.00000" pt_clust_7="13000.00000" pt_clust_8="13000.00000" pt_clust_9="29.63257"></scales>
<clustering>
<clus scale="   29.633">  1  9  2 -1</clus>
<clus scale="   90.227">  5  6 -1 -1</clus>
<clus scale="   91.959">  7  8 -1 -1</clus>
<clus scale="   92.691">  1  5  2 -1</clus>
<clus scale="   29.633">  1  5  2 -1</clus>
</clustering>
</event>
<event>
 9    1  0.1881049E-005  0.1903244E+03  0.7546771E-02  0.1160717E+00
         21   -1    0    0  501  502  0.00000000000E+00  0.00000000000E+00  0.88229276019E+02  0.88229276019E+02  0.00000000000E+00 0. -1.
          1   -1    0    0  502    0 -0.00000000000E+00 -0.00000000000E+00 -0.67391767487E+03  0.67391767487E+03  0.00000000000E+00 0. -1.
         23    2    1    2    0    0  0.81595716242E+02 -0.14636887891E+03 -0.47215725501E+03  0.51255775472E+03  0.10817240334E+03 0.  0.
         23    2    1    2    0    0 -0.50218464309E+02  0.12684731543E+03 -0.13132148012E+03  0.20857554668E+03  0.87443078312E+02 0.  0.
        -11    1    3    3    0    0  0.80052095874E+02 -0.34115788377E+02 -0.21685513381E+03  0.23366294985E+03  0.00000000000E+00 0. -1.
         11    1    3    3    0    0  0.15436203686E+01 -0.11225309053E+03 -0.25530212120E+03  0.27889480487E+03  0.00000000000E+00 0.  1.
        -11    1    4    4    0    0  0.20254694901E+02  0.18094366507E+02 -0.50242280546E+01  0.27620674003E+02  0.00000000000E+00 0. -1.
         11    1    4    4    0    0 -0.70473159209E+02  0.10875294892E+03 -0.12629725206E+03  0.18095487268E+03  0.00000000000E+00 0.  1.
          1    1    1    2  501    0 -0.31377251934E+02  0.19521563479E+02  0.17790336274E+02  0.41013649488E+02  0.00000000000E+00 0. -1.
<scales pt_clust_5="13000.00000" pt_clust_6="13000.00000" pt_clust_7="13000.00000" pt_clust_8="13000.00000" pt_clust_9="36.95434"></scales>
<clustering>
<clus scale="   36.954">  1  9  2 -1</clus>
<clus scale="   87.443">  7  8 -1 -1</clus>
<clus scale="  108.172">  5  6 -1 -1</clus>
<clus scale="  179.356">  1  7  2 -1</clus>
<clus scale="   36.954">  1  5  2 -1</clus>
</clustering>
</event>
<event>
 9    1  0.1881049E-005  0.1684208E+03  0.7546771E-02  0.1179920E+00
          1   -1    0    0  502    0 -0.00000000000E+00  0.00000000000E+00  0.31076777109E+03  0.31076777109E+03  0.00000000000E+00 0. -1.
         21   -1    0    0  501  502  0.00000000000E+00 -0.00000000000E+00 -0.22627971344E+03  0.22627971344E+03  0.00000000000E+00 0.  1.
         23    2    1    2    0    0 -0.97836697919E+02 -0.89222954221E+02  0.17094735038E+03  0.23553890290E+03  0.93396055345E+02 0.  0.
         23    2    1    2    0    0  0.97136537179E+02  0.12959569863E+03  0.20979571944E+02  0.18673245887E+03  0.90544556977E+02 0.  0.
        -11    1    4    4    0    0  0.99082465060E+02  0.64969178248E+02  0.27850193786E+02  0.12171262177E+03  0.00000000000E+00 0. -1.
         11    1    4    4    0    0 -0.19459278807E+01  0.64626520378E+02 -0.68706218424E+01  0.65019837096E+02  0.00000000000E+00 0.  1.
        -13    1    3    3    0    0 -0.24540962265E+02 -0.45282993644E+02  0.13186832942E+03  0.14156999910E+03  0.00000000000E+00 0.  1.
         13    1    3    3    0    0 -0.73295735654E+02 -0.43939960578E+02  0.39079020969E+02  0.93968903795E+02  0.00000000000E+00 0. -1.
          1    1    1    2  501    0  0.70016074001E+00 -0.40372744405E+02 -0.10743886467E+03  0.11477612277E+03  0.00000000000E+00 0. -1.
<scales pt_clust_5="13000.00000" pt_clust_6="13000.00000" pt_clust_7="13000.00000" pt_clust_8="13000.00000" pt_clust_9="40.37882"></scales>
<clustering>
<clus scale="   40.379">  2  9  1 -1</clus>
<clus scale="   90.545">  5  6 -1 -1</clus>
<clus scale="   93.396">  7  8 -1 -1</clus>
<clus scale="  166.856">  2  5  1 -1</clus>
<clus scale="   40.379">  2  5  1 -1</clus>
</clustering>
</event>
<event>
 9    1  0.1881049E-005  0.1140554E+03  0.7546771E-02  0.1253683E+00
         21   -1    0    0  501  502  0.00000000000E+00  0.00000000000E+00  0.11292965823E+03  0.11292965823E+03  0.00000000000E+00 0. -1.
         -1   -1    0    0    0  501 -0.00000000000E+00 -0.00000000000E+00 -0.21355163072E+03  0.21355163072E+03  0.00000000000E+00 0.  1.
         23    2    1    2    0    0  0.61007185935E+02  0.18205213825E+02 -0.77173096586E+02  0.13470885964E+03  0.90208001213E+02 0.  0.
         23    2    1    2    0    0 -0.77205215597E+02  0.18000518942E+02 -0.62406113915E+02  0.13617658735E+03  0.91459695438E+02 0.  0.
        -11    1    3    3    0    0  0.51409281063E+02 -0.30691244735E+02 -0.49661331723E+02  0.77788910208E+02  0.00000000000E+00 0.  1.
         11    1    3    3    0    0  0.95979048726E+01  0.48896458559E+02 -0.27511764862E+02  0.56919949433E+02  0.00000000000E+00 0. -1.
        -13    1    4    4    0    0 -0.70600610445E+02 -0.11296602940E+02 -0.74991666385E+02  0.10361375131E+03  0.00000000000E+00 0.  1.
         13    1    4    4    0    0 -0.66046051516E+01  0.29297121882E+02  0.12585552470E+02  0.32562836037E+02  0.00000000000E+00 0. -1.
         -1    1    1    2    0  502  0.16198029662E+02 -0.36205732767E+02  0.38957238016E+02  0.55595841966E+02  0.00000000000E+00 0.  1.
<scales pt_clust_5="13000.00000" pt_clust_6="13000.00000" pt_clust_7="13000.00000" pt_clust_8="13000.00000" pt_clust_9="39.66398"></scales>
<clustering>
<clus scale="   39.664">  1  9  2 -1</clus>
<clus scale="   90.208">  5  6 -1 -1</clus>
<clus scale="   91.460">  7  8 -1 -1</clus>
<clus scale="  113.054">  2  5  1 -1</clus>
<clus scale="   39.664">  1  5  2 -1</clus>
</clustering>
</event>
<event>
 9    1  0.1881049E-005  0.1113772E+03  0.7546771E-02  0.1264523E+00
          2   -1    0    0  502    0 -0.00000000000E+00  0.00000000000E+00  0.35555953919E+03  0.35555953919E+03  0.00000000000E+00 0. -1.
         21   -1    0    0  501  502  0.00000000000E+00 -0.00000000000E+00 -0.12675189679E+03  0.12675189679E+03  0.00000000000E+00 0.  1.
         23    2    1    2    0    0  0.28334480441E+02 -0.27702230665E+02  0.28525864609E+03  0.30199696421E+03  0.90881322907E+02 0.  0.
         23    2    1    2    0    0 -0.36587857701E+02 -0.27696996779E+02 -0.44728748929E+02  0.12309031696E+03  0.10509410158E+03 0.  0.
        -11    1    4    4    0    0  0.10685460359E+02  0.25962086185E+02 -0.43248863864E+02  0.51562323529E+02  0.00000000000E+00 0.  1.
         11    1    4    4    0    0 -0.47273318059E+02 -0.53659082964E+02 -0.14798850654E+01  0.71527993434E+02  0.00000000000E+00 0. -1.
        -11    1    3    3    0    0 -0.22804003140E+02 -0.37120066214E+01  0.19295967315E+02  0.30102091406E+02  0.00000000000E+00 0.  1.
         11    1    3    3    0    0  0.51138483581E+02 -0.23990224044E+02  0.26596267878E+03  0.27189487280E+03  0.00000000000E+00 0. -1.
          2    1    1    2  501    0  0.82533772597E+01  0.55399227444E+02 -0.11722254757E+02  0.57224154814E+02  0.00000000000E+00 0. -1.
<scales pt_clust_5="13000.00000" pt_clust_6="13000.00000" pt_clust_7="13000.00000" pt_clust_8="13000.00000" pt_clust_9="56.01065"></scales>
<clustering>
<clus scale="   56.011">  2  9  1 -1</clus>
<clus scale="   90.881">  7  8 -1 -1</clus>
<clus scale="   98.079">  1  7  2 -1</clus>
<clus scale="  105.094">  5  6 -1 -1</clus>
<clus scale="   56.011">  2  5  1 -1</clus>
</clustering>
</event>
<event>
 9    1  0.2224881E-005  0.1387295E+03  0.7546771E-02  0.1220906E+00
          1   -1    0    0  502    0 -0.00000000000E+00  0.00000000000E+00  0.96526073431E+02  0.96526073431E+02  0.00000000000E+00 0. -1.
         21   -1    0    0  501  502  0.00000000000E+00 -0.00000000000E+00 -0.63199253053E+03  0.63199253053E+03  0.00000000000E+00 0.  1.
         23    2    1    2    0    0 -0.46032010253E+02 -0.71478207917E+02  0.31095048356E+02  0.14263031860E+03  0.11021989647E+03 0.  0.
         23    2    1    2    0    0  0.64233944823E+02  0.50325297193E+02 -0.47807096424E+03  0.49310179960E+03  0.89100520299E+02 0.  0.
        -11    1    3    3    0    0  0.32761283538E+02 -0.43545354843E+02  0.35394420406E+01  0.54607941523E+02  0.00000000000E+00 0.  1.
         11    1    3    3    0    0 -0.78793293791E+02 -0.27932853074E+02  0.27555606316E+02  0.88022377079E+02  0.00000000000E+00 0. -1.
        -13    1    4    4    0    0  0.84790032668E+02  0.52331564064E+02 -0.41203496661E+03  0.42391125952E+03  0.00000000000E+00 0.  1.
         13    1    4    4    0    0 -0.20556087845E+02 -0.20062668708E+01 -0.66035997626E+02  0.69190540081E+02  0.00000000000E+00 0. -1.
          1    1    1    2  501    0 -0.18201934570E+02  0.21152910724E+02 -0.88490541219E+02  0.92786485759E+02  0.00000000000E+00 0. -1.
<scales pt_clust_5="13000.00000" pt_clust_6="13000.00000" pt_clust_7="13000.00000" pt_clust_8="13000.00000" pt_clust_9="27.90620"></scales>
<clustering>
<clus scale="   27.906">  2  9  1 -1</clus>
<clus scale="   89.101">  7  8 -1 -1</clus>
<clus scale="  110.220">  5  6 -1 -1</clus>
<clus scale="  122.623">  2  7  1 -1</clus>
<clus scale="   27.906">  2  5  1 -1</clus>
</clustering>
</event>
<event>
 9    1  0.1881049E-005  0.1775306E+03  0.7546771E-02  0.1170492E+00
         21   -1    0    0  501  502  0.00000000000E+00  0.00000000000E+00  0.34973582475E+03  0.34973582475E+03  0.00000000000E+00 0.  1.
         -4   -1    0    0    0  501 -0.00000000000E+00 -0.00000000000E+00 -0.14734471191E+03  0.14734471191E+03  0.00000000000E+00 0.  1.
         23    2    1    2    0    0 -0.50614824814E+02 -0.13802162655E+03  0.30678877768E+00  0.17027847180E+03  0.85923419108E+02 0.  0.
         23    2    1    2    0    0  0.47693311479E+02  0.15917998752E+03  0.82671746267E+02  0.20549429424E+03  0.88206388362E+02 0.  0.
        -11    1    4    4    0    0 -0.15326795329E+02  0.10011091250E+03  0.37302183888E+02  0.10792848734E+03  0.00000000000E+00 0.  1.
         11    1    4    4    0    0  0.63020106808E+02  0.59069075018E+02  0.45369562378E+02  0.97565806900E+02  0.00000000000E+00 0. -1.
        -11    1    3    3    0    0 -0.64035145565E+02 -0.71979845623E+02  0.23217083080E+02  0.99099096818E+02  0.00000000000E+00 0.  1.
         11    1    3    3    0    0  0.13420320751E+02 -0.66041780930E+02 -0.22910294303E+02  0.71179374979E+02  0.00000000000E+00 0. -1.
         -4    1    1    2    0  502  0.29215133352E+01 -0.21158360963E+02  0.11941257779E+03  0.12130777062E+03  0.00000000000E+00 0.  1.
<scales pt_clust_5="13000.00000" pt_clust_6="13000.00000" pt_clust_7="13000.00000" pt_clust_8="13000.00000" pt_clust_9="21.35911"></scales>
<clustering>
<clus scale="   21.359">  1  9  2 -1</clus>
<clus scale="   85.923">  7  8 -1 -1</clus>
<clus scale="   88.206">  5  6 -1 -1</clus>
<clus scale="  176.407">  2  7  1 -1</clus>
<clus scale="   21.359">  1  5  2 -1</clus>
</clustering>
</event>
<event>
 9    1  0.1881049E-005  0.1227184E+03  0.7546771E-02  0.1239403E+00
         21   -1    0    0  501  502  0.00000000000E+00  0.00000000000E+00  0.58388132253E+02  0.58388132253E+02  0.00000000000E+00 0.  1.
          1   -1    0    0  502    0 -0.00000000000E+00 -0.00000000000E+00 -0.34882300306E+03  0.34882300306E+03  0.00000000000E+00 0. -1.
         23    2    1    2    0    0  0.63247409332E+02 -0.49746158823E+02 -0.15068144920E+03  0.19347244848E+03  0.90839276091E+02 0.  0.
         23    2    1    2    0    0 -0.42296754778E+02  0.70113235577E+02 -0.13630307176E+03  0.18431671111E+03  0.93216100298E+02 0.  0.
        -11    1    3    3    0    0  0.71797905260E+02 -0.69080005667E+02 -0.13103885449E+03  0.16461521123E+03  0.00000000000E+00 0.  1.
         11    1    3    3    0    0 -0.85504959281E+01  0.19333846844E+02 -0.19642594716E+02  0.28857237248E+02  0.00000000000E+00 0. -1.
        -11    1    4    4    0    0 -0.29127776811E+02  0.27083034735E+02  0.10425447686E+01  0.39786996016E+02  0.00000000000E+00 0.  1.
         11    1    4    4    0    0 -0.13168977967E+02  0.43030200842E+02 -0.13734561652E+03  0.14452971509E+03  0.00000000000E+00 0. -1.
          1    1    1    2  501    0 -0.20950654554E+02 -0.20367076754E+02 -0.34503498466E+01  0.29421975729E+02  0.00000000000E+00 0. -1.
<scales pt_clust_5="13000.00000" pt_clust_6="13000.00000" pt_clust_7="13000.00000" pt_clust_8="13000.00000" pt_clust_9="29.21896"></scales>
<clustering>
<clus scale="   29.219">  1  9  2 -1</clus>
<clus scale="   90.839">  5  6 -1 -1</clus>
<clus scale="   93.216">  7  8 -1 -1</clus>
<clus scale="  120.923">  2  5  1 -1</clus>
<clus scale="   29.219">  1  5  2 -1</clus>
</clustering>
</event>
<event>
 9    1  0.1881049E-005  0.3846762E+03  0.7546771E-02  0.1049301E+00
         21   -1    0    0  501  502  0.00000000000E+00  0.00000000000E+00  0.12084429996E+03  0.12084429996E+03  0.00000000000E+00 0. -1.
          2   -1    0    0  502    0 -0.00000000000E+00 -0.00000000000E+00 -0.14460325221E+04  0.14460325221E+04  0.00000000000E+00 0. -1.
         23    2    1    2    0    0  0.18249742652E+03 -0.35670404039E+03 -0.74235449866E+03  0.84860249062E+03  0.92156943811E+02 0.  0.
         23    2    1    2    0    0 -0.17368456771E+03  0.29653453308E+03 -0.52189569141E+03  0.63218437940E+03  0.95827545512E+02 0.  0.
        -11    1    4    4    0    0 -0.11889505859E+03  0.14269071152E+03 -0.21170481762E+03  0.28163026101E+03  0.00000000000E+00 0.  1.
         11    1    4    4    0    0 -0.54789509119E+02  0.15384382156E+03 -0.31019087379E+03  0.35055411839E+03  0.00000000000E+00 0. -1.
        -13    1    3    3    0    0  0.14773531008E+03 -0.31471769196E+03 -0.56829387394E+03  0.66620633038E+03  0.00000000000E+00 0. -1.
         13    1    3    3    0    0  0.34762116435E+02 -0.41986348426E+02 -0.17406062472E+03  0.18239616024E+03  0.00000000000E+00 0.  1.
          2    1    1    2  501    0 -0.88128588121E+01  0.60169507307E+02 -0.60938032060E+02  0.86089952035E+02  0.00000000000E+00 0. -1.
<scales pt_clust_5="13000.00000" pt_clust_6="13000.00000" pt_clust_7="13000.00000" pt_clust_8="13000.00000" pt_clust_9="60.81148"></scales>
<clustering>
<clus scale="   60.811">  1  9  2 -1</clus>
<clus scale="   92.157">  7  8 -1 -1</clus>
<clus scale="   95.828">  5  6 -1 -1</clus>
<clus scale="  383.778">  2  7  1 -1</clus>
<clus scale="   60.811">  1  5  2 -1</clus>
</clustering>
</event>
<event>
 9    1  0.1881049E-005  0.1370743E+03  0.7546771E-02  0.1217779E+00
          1   -1    0    0  502    0 -0.00000000000E+00  0.00000000000E+00  0.58394651867E+03  0.58394651867E+03  0.00000000000E+00 0. -1.
         21   -1    0    0  501  502  0.00000000000E+00 -0.00000000000E+00 -0.81253301341E+02  0.81253301341E+02  0.00000000000E+00 0. -1.
         23    2    1    2    0    0  0.13543714624E+02  0.97161735370E+02  0.36230543827E+03  0.38618597971E+03  0.90832512371E+02 0.  0.
         23    2    1    2    0    0 -0.89709670209E+02 -0.10480377050E+03  0.87309482324E+02  0.18586364397E+03  0.88829573936E+02 0.  0.
        -11    1    4    4    0    0  0.58244046864E+01 -0.54561672130E+02  0.18730331161E+02  0.57980385140E+02  0.00000000000E+00 0.  1.
         11    1    4    4    0    0 -0.95534074895E+02 -0.50242098375E+02  0.68579151164E+02  0.12788325883E+03  0.00000000000E+00 0. -1.
        -11    1    3    3    0    0  0.34334102639E+02  0.73363051511E+02  0.33426195708E+03  0.34393607528E+03  0.00000000000E+00 0.  1.
         11    1    3    3    0    0 -0.20790388015E+02  0.23798683858E+02  0.28043481188E+02  0.42249904430E+02  0.00000000000E+00 0. -1.
          1    1    1    2  501    0  0.76165955585E+02  0.76420351343E+01  0.53078296739E+02  0.93150196327E+02  0.00000000000E+00 0. -1.
<scales pt_clust_5="13000.00000" pt_clust_6="13000.00000" pt_clust_7="13000.00000" pt_clust_8="13000.00000" pt_clust_9="76.54837"></scales>
<clustering>
<clus scale="   76.548">  2  9  1 -1</clus>
<clus scale="   88.830">  5  6 -1 -1</clus>
<clus scale="   90.833">  7  8 -1 -1</clus>
<clus scale="  135.755">  2  5  1 -1</clus>
<clus scale="   76.548">  2  5  1 -1</clus>
</clustering>
</event>
<event>
 9    1  0.1881049E-005  0.9683167E+02  0.7546771E-02  0.1287167E+00
          2   -1    0    0  502    0 -0.00000000000E+00  0.00000000000E+00  0.76688704548E+03  0.76688704548E+03  0.00000000000E+00 0. -1.
         21   -1    0    0  501  502  0.00000000000E+00 -0.00000000000E+00 -0.29801182298E+02  0.29801182298E+02  0.00000000000E+00 0. -1.
         23    2    1    2    0    0  0.37122898639E+02  0.41736129188E+01  0.43120588869E+03  0.44230975082E+03  0.91125564910E+02 0.  0.
         23    2    1    2    0    0 -0.57528873296E+01 -0.48394939966E+02  0.27078114889E+03  0.28979108706E+03  0.91001525371E+02 0.  0.
        -11    1    4    4    0    0  0.13405679279E+02  0.18879935305E+02  0.24254582375E+02  0.33532804241E+02  0.00000000000E+00 0.  1.
         11    1    4    4    0    0 -0.19158566609E+02 -0.67274875271E+02  0.24652656651E+03  0.25625828282E+03  0.00000000000E+00 0. -1.
        -13    1    3    3    0    0  0.63184632518E+02  0.21758194880E+02  0.30669025625E+03  0.31388633310E+03  0.00000000000E+00 0.  1.
         13    1    3    3    0    0 -0.26061733879E+02 -0.17584581962E+02  0.12451563244E+03  0.12842341772E+03  0.00000000000E+00 0. -1.
          2    1    1    2  501    0 -0.31370011310E+02  0.44221327047E+02  0.35098825607E+02  0.64587389902E+02  0.00000000000E+00 0. -1.
<scales pt_clust_5="13000.00000" pt_clust_6="13000.00000" pt_clust_7="13000.00000" pt_clust_8="13000.00000" pt_clust_9="54.21811"></scales>
<clustering>
<clus scale="   54.218">  2  9  1 -1</clus>
<clus scale="   91.002">  5  6 -1 -1</clus>
<clus scale="   91.126">  7  8 -1 -1</clus>
<clus scale="   96.715">  2  5  1 -1</clus>
<clus scale="   54.218">  2  5  1 -1</clus>
</clustering>
</event>
<event>
 9    1  0.1881049E-005  0.1258769E+03  0.7546771E-02  0.1237564E+00
         21   -1    0    0  501  502  0.00000000000E+00  0.00000000000E+00  0.45115983888E+03  0.45115983888E+03  0.00000000000E+00 0. -1.
          3   -1    0    0  502    0 -0.00000000000E+00 -0.00000000000E+00 -0.61555020923E+02  0.61555020923E+02  0.00000000000E+00 0. -1.
         23    2    1    2    0    0 -0.75135157623E+02  0.73360457986E+02  0.70144806625E+02  0.14829960790E+03  0.77752370382E+02 0.  0.
         23    2    1    2    0    0  0.26626837530E+02 -0.55759383096E+02  0.14338274093E+03  0.18093211887E+03  0.91431526083E+02 0.  0.
        -11    1    4    4    0    0  0.53576683282E+02 -0.63181374008E+01  0.73930198105E+02  0.91520784763E+02  0.00000000000E+00 0.  1.
         11    1    4    4    0    0 -0.26949845752E+02 -0.49441245695E+02  0.69452542827E+02  0.89411334109E+02  0.00000000000E+00 0. -1.
        -11    1    3    3    0    0 -0.67706657947E+01  0.60651982884E+02  0.35645788020E+02  0.70676213443E+02  0.00000000000E+00 0.  1.
         11    1    3    3    0    0 -0.68364491828E+02  0.12708475102E+02  0.34499018606E+02  0.77623394457E+02  0.00000000000E+00 0. -1.
          3    1    1    2  501    0  0.48508320093E+02 -0.17601074890E+02  0.17607727040E+03  0.18348313303E+03  0.00000000000E+00 0. -1.
<scales pt_clust_5="13000.00000" pt_clust_6="13000.00000" pt_clust_7="13000.00000" pt_clust_8="13000.00000" pt_clust_9="51.60286"></scales>
<clustering>
<clus scale="   51.603">  1  9  2 -1</clus>
<clus scale="   77.752">  7  8 -1 -1</clus>
<clus scale="   91.432">  5  6 -1 -1</clus>
<clus scale="  116.322">  2  7  1 -1</clus>
<clus scale="   51.603">  1  5  2 -1</clus>
</clustering>
</event>
<event>
 9    1  0.1881049E-005  0.9473186E+02  0.7546771E-02  0.1291996E+00
         -1   -1    0    0    0  501 -0.00000000000E+00  0.00000000000E+00  0.18430702601E+03  0.18430702601E+03  0.00000000000E+00 0.  1.
         21   -1    0    0  501  502  0.00000000000E+00 -0.00000000000E+00 -0.33231889397E+03  0.33231889397E+03  0.00000000000E+00 0. -1.
         23    2    1    2    0    0  0.17701436975E+02  0.76022600127E+01  0.13362452454E+03  0.16315561539E+03  0.91613896580E+02 0.  0.
         23    2    1    2    0    0 -0.65653017098E+02  0.21696027788E+02 -0.69267910260E+02  0.13379300500E+03  0.91222193129E+02 0.  0.
        -11    1    3    3    0    0 -0.24256596672E+02 -0.21445431170E+02  0.91251544856E+02  0.96825272728E+02  0.00000000000E+00 0. -1.
         11    1    3    3    0    0  0.41958033646E+02  0.29047691183E+02  0.42372979685E+02  0.66330342664E+02  0.00000000000E+00 0.  1.
        -11    1    4    4    0    0 -0.49820284421E+02 -0.31513921289E+02 -0.35693561386E+02  0.68914572473E+02  0.00000000000E+00 0. -1.
         11    1    4    4    0    0 -0.15832732677E+02  0.53209949077E+02 -0.33574348874E+02  0.64878432526E+02  0.00000000000E+00 0.  1.
         -1    1    1    2    0  502  0.47951580123E+02 -0.29298287801E+02 -0.21236848224E+03  0.21967729959E+03  0.00000000000E+00 0.  1.
<scales pt_clust_5="13000.00000" pt_clust_6="13000.00000" pt_clust_7="13000.00000" pt_clust_8="13000.00000" pt_clust_9="56.19380"></scales>
<clustering>
<clus scale="   56.194">  2  9  1 -1</clus>
<clus scale="   91.222">  7  8 -1 -1</clus>
<clus scale="   91.614">  5  6 -1 -1</clus>
<clus scale="   94.353">  2  7  1 -1</clus>
<clus scale="   56.194">  2  5  1 -1</clus>
</clustering>
</event>
<event>
 9    1  0.1881049E-005  0.1471567E+03  0.7546771E-02  0.1204592E+00
         21   -1    0    0  501  502  0.00000000000E+00  0.00000000000E+00  0.29373415885E+02  0.29373415885E+02  0.00000000000E+00 0.  1.
          1   -1    0    0  502    0 -0.00000000000E+00 -0.00000000000E+00 -0.93194984304E+03  0.93194984304E+03  0.00000000000E+00 0. -1.
         23    2    1    2    0    0  0.94020957463E+02  0.55350241141E+02 -0.42919963027E+03  0.45174683738E+03  0.89214868816E+02 0.  0.
         23    2    1    2    0    0 -0.93224878215E+02 -0.78329895485E+02 -0.45559901103E+03  0.48051187397E+03  0.92166977452E+02 0.  0.
        -11    1    3    3    0    0 -0.19335005619E+01  0.25333781810E+02 -0.26604686632E+02  0.36787882190E+02  0.00000000000E+00 0.  1.
         11    1    3    3    0    0  0.95954458024E+02  0.30016459331E+02 -0.40259494364E+03  0.41495895519E+03  0.00000000000E+00 0. -1.
        -13    1    4    4    0    0 -0.57186747961E+02  0.74339361794E+01 -0.13788812789E+03  0.14946144440E+03  0.00000000000E+00 0. -1.
         13    1    4    4    0    0 -0.36038130254E+02 -0.85763831665E+02 -0.31771088314E+03  0.33105042957E+03  0.00000000000E+00 0.  1.
          1    1    1    2  501    0 -0.79607924775E+00  0.22979654344E+02 -0.17777785853E+02  0.29064547576E+02  0.00000000000E+00 0. -1.
<scales pt_clust_5="13000.00000" pt_clust_6="13000.00000" pt_clust_7="13000.00000" pt_clust_8="13000.00000" pt_clust_9="22.99344"></scales>
<clustering>
<clus scale="   22.993">  1  9  2 -1</clus>
<clus scale="   89.215">  5  6 -1 -1</clus>
<clus scale="   92.167">  7  8 -1 -1</clus>
<clus scale="  145.326">  2  5  1 -1</clus>
<clus scale="   22.993">  1  5  2 -1</clus>
</clustering>
</event>
<event>
 9    1  0.1881049E-005  0.1167052E+03  0.7546771E-02  0.1257485E+00
         21   -1    0    0  501  502  0.00000000000E+00  0.00000000000E+00  0.39284625239E+03  0.39284625239E+03  0.00000000000E+00 0.  1.
          1   -1    0    0  502    0 -0.00000000000E+00 -0.00000000000E+00 -0.44622691305E+02  0.44622691305E+02  0.00000000000E+00 0. -1.
         23    2    1    2    0    0 -0.21093182065E+02  0.11383719985E+02  0.88536760815E+02  0.14446095748E+03  0.11160510208E+03 0.  0.
         23    2    1    2    0    0  0.49875862688E+02 -0.18536373457E+02  0.20328009600E+03  0.22927950402E+03  0.91733825373E+02 0.  0.
        -11    1    4    4    0    0  0.16856230390E+02 -0.51920700608E+02  0.14161688537E+03  0.15177362708E+03  0.00000000000E+00 0.  1.
         11    1    4    4    0    0  0.33019632298E+02  0.33384327151E+02  0.61663210626E+02  0.77505876946E+02  0.00000000000E+00 0. -1.
        -13    1    3    3    0    0 -0.48782506102E+02  0.17180912479E+02  0.21592329463E+00  0.51720047159E+02  0.00000000000E+00 0. -1.
         13    1    3    3    0    0  0.27689324037E+02 -0.57971924947E+01  0.88320837521E+02  0.92740910319E+02  0.00000000000E+00 0.  1.
          1    1    1    2  501    0 -0.28782680623E+02  0.71526534723E+01  0.56406704271E+02  0.63728482190E+02  0.00000000000E+00 0. -1.
<scales pt_clust_5="13000.00000" pt_clust_6="13000.00000" pt_clust_7="13000.00000" pt_clust_8="13000.00000" pt_clust_9="29.65810"></scales>
<clustering>
<clus scale="   29.658">  1  9  2 -1</clus>
<clus scale="   91.734">  5  6 -1 -1</clus>
<clus scale="   97.875">  1  5  2 -1</clus>
<clus scale="  111.605">  7  8 -1 -1</clus>
<clus scale="   29.658">  1  5  2 -1</clus>
</clustering>
</event>
<event>
 9    1  0.1881049E-005  0.3759366E+03  0.7546771E-02  0.1052970E+00
          2   -1    0    0  502    0 -0.00000000000E+00  0.00000000000E+00  0.20894144405E+04  0.20894144405E+04  0.00000000000E+00 0. -1.
         21   -1    0    0  501  502  0.00000000000E+00 -0.00000000000E+00 -0.18022593946E+03  0.18022593946E+03  0.00000000000E+00 0. -1.
         23    2    1    2    0    0 -0.37680250270E+03  0.75942556115E+00  0.14442963175E+04  0.14967481180E+04  0.11082586913E+03 0.  0.
         23    2    1    2    0    0  0.32703632433E+03 -0.28297306635E+02  0.56391147686E+03  0.65870019635E+03  0.90201440922E+02 0.  0.
        -11    1    4    4    0    0  0.93213593985E+02 -0.41881807981E+02  0.12738939567E+03  0.16331233289E+03  0.00000000000E+00 0. -1.
         11    1    4    4    0    0  0.23382273034E+03  0.13584501346E+02  0.43652208119E+03  0.49538786346E+03  0.00000000000E+00 0.  1.
        -11    1    3    3    0    0 -0.28501545174E+03 -0.12014545969E+02  0.12403905437E+04  0.12727713297E+04  0.00000000000E+00 0. -1.
         11    1    3    3    0    0 -0.91787050967E+02  0.12773971531E+02  0.20390577381E+03  0.22397678823E+03  0.00000000000E+00 0.  1.
          2    1    1    2  501    0  0.49766178378E+02  0.27537881074E+02 -0.99019293302E+02  0.11419206562E+03  0.00000000000E+00 0. -1.
<scales pt_clust_5="13000.00000" pt_clust_6="13000.00000" pt_clust_7="13000.00000" pt_clust_8="13000.00000" pt_clust_9="56.87713"></scales>
<clustering>
<clus scale="   56.877">  2  9  1 -1</clus>
<clus scale="   90.201">  5  6 -1 -1</clus>
<clus scale="  110.826">  7  8 -1 -1</clus>
<clus scale="  370.381">  2  5  1 -1</clus>
<clus scale="   56.877">  2  5  1 -1</clus>
</clustering>
</event>
<event>
 9    1  0.1881049E-005  0.1113015E+03  0.7546771E-02  0.1259619E+00
          4   -1    0    0  502    0 -0.00000000000E+00  0.00000000000E+00  0.15742992457E+03  0.15742992457E+03  0.00000000000E+00 0. -1.
         21   -1    0    0  501  502  0.00000000000E+00 -0.00000000000E+00 -0.11297957743E+03  0.11297957743E+03  0.00000000000E+00 0. -1.
         23    2    1    2    0    0  0.22235232561E+01  0.62123899686E+02  0.81112648071E+02  0.13781644426E+03  0.92465061859E+02 0.  0.
         23    2    1    2    0    0  0.50273591543E+01 -0.42410119394E+02 -0.23313845820E+02  0.10770551702E+03  0.96088763246E+02 0.  0.
        -11    1    4    4    0    0  0.44488363558E+02 -0.14038735384E+02  0.11346551282E+02  0.48010882196E+02  0.00000000000E+00 0. -1.
         11    1    4    4    0    0 -0.39461004404E+02 -0.28371384010E+02 -0.34660397102E+02  0.59694634821E+02  0.00000000000E+00 0.  1.
        -13    1    3    3    0    0  0.33833472248E+02  0.67306835286E+02  0.72716141677E+02  0.10470220237E+03  0.00000000000E+00 0. -1.
         13    1    3    3    0    0 -0.31609948991E+02 -0.51829355995E+01  0.83965063943E+01  0.33114241895E+02  0.00000000000E+00 0.  1.
          4    1    1    2  501    0 -0.72508824104E+01 -0.19713780292E+02 -0.13348455107E+02  0.24887540716E+02  0.00000000000E+00 0. -1.
<scales pt_clust_5="13000.00000" pt_clust_6="13000.00000" pt_clust_7="13000.00000" pt_clust_8="13000.00000" pt_clust_9="21.00496"></scales>
<clustering>
<clus scale="   21.005">  2  9  1 -1</clus>
<clus scale="   92.465">  7  8 -1 -1</clus>
<clus scale="   96.089">  5  6 -1 -1</clus>
<clus scale="  108.189">  1  7  2 -1</clus>
<clus scale="   21.005">  2  5  1 -1</clus>
</clustering>
</event>
<event>
 9    1  0.1881049E-005  0.1002940E+03  0.7546771E-02  0.1282560E+00
         21   -1    0    0  501  502  0.00000000000E+00  0.00000000000E+00  0.60406454453E+02  0.60406454453E+02  0.00000000000E+00 0.  1.
         -3   -1    0    0    0  501 -0.00000000000E+00 -0.00000000000E+00 -0.40140734376E+03  0.40140734376E+03  0.00000000000E+00 0.  1.
         23    2    1    2    0    0  0.21934883790E+02  0.25184577357E+02 -0.22511635737E+03  0.24502768119E+03  0.90806322084E+02 0.  0.
         23    2    1    2    0    0 -0.93728182381E+00 -0.22735493594E+02 -0.14815763780E+03  0.17820567299E+03  0.96378395304E+02 0.  0.
        -11    1    3    3    0    0  0.47492407817E+02  0.37548343812E+02 -0.19244751254E+03  0.20174600865E+03  0.00000000000E+00 0.  1.
         11    1    3    3    0    0 -0.25557524026E+02 -0.12363766455E+02 -0.32668844825E+02  0.43281672536E+02  0.00000000000E+00 0. -1.
        -11    1    4    4    0    0 -0.67184165068E+01 -0.52620697263E+02 -0.13499226200E+03  0.14504132411E+03  0.00000000000E+00 0. -1.
         11    1    4    4    0    0  0.57811346830E+01  0.29885203669E+02 -0.13165375803E+02  0.33164348879E+02  0.00000000000E+00 0.  1.
         -3    1    1    2    0  502 -0.20997601966E+02 -0.24490837636E+01  0.32273105863E+02  0.38580444032E+02  0.00000000000E+00 0.  1.
<scales pt_clust_5="13000.00000" pt_clust_6="13000.00000" pt_clust_7="13000.00000" pt_clust_8="13000.00000" pt_clust_9="21.13995"></scales>
<clustering>
<clus scale="   21.140">  1  9  2 -1</clus>
<clus scale="   90.806">  5  6 -1 -1</clus>
<clus scale="   94.952">  2  5  1 -1</clus>
<clus scale="   96.378">  7  8 -1 -1</clus>
<clus scale="   21.140">  1  5  2 -1</clus>
</clustering>
</event>
<event>
 9    1  0.1881049E-005  0.1500573E+03  0.7546771E-02  0.1200960E+00
          1   -1    0    0  502    0 -0.00000000000E+00  0.00000000000E+00  0.29493446238E+03  0.29493446238E+03  0.00000000000E+00 0. -1.
         21   -1    0    0  501  502  0.00000000000E+00 -0.00000000000E+00 -0.11376862463E+03  0.11376862463E+03  0.00000000000E+00 0.  1.
         23    2    1    2    0    0  0.10879369704E+03 -0.15835184674E+02  0.12677890301E+03  0.19026600108E+03  0.89674072778E+02 0.  0.
         23    2    1    2    0    0 -0.13425912788E+03 -0.17002072948E+02  0.63561325243E+02  0.17588190885E+03  0.92627317185E+02 0.  0.
        -11    1    4    4    0    0 -0.22506443332E+01  0.22237939354E+02 -0.36356970768E+01  0.22645300614E+02  0.00000000000E+00 0. -1.
         11    1    4    4    0    0 -0.13200848355E+03 -0.39240012302E+02  0.67197022320E+02  0.15323660823E+03  0.00000000000E+00 0.  1.
        -13    1    3    3    0    0  0.87445247030E+02  0.23835381706E+02  0.56551572086E+02  0.10683106737E+03  0.00000000000E+00 0.  1.
         13    1    3    3    0    0  0.21348450008E+02 -0.39670566380E+02  0.70227330922E+02  0.83434933709E+02  0.00000000000E+00 0. -1.
          1    1    1    2  501    0  0.25465430841E+02  0.32837257622E+02 -0.91743905005E+01  0.42555177089E+02  0.00000000000E+00 0. -1.
<scales pt_clust_5="13000.00000" pt_clust_6="13000.00000" pt_clust_7="13000.00000" pt_clust_8="13000.00000" pt_clust_9="41.55447"></scales>
<clustering>
<clus scale="   41.554">  2  9  1 -1</clus>
<clus scale="   89.674">  7  8 -1 -1</clus>
<clus scale="   92.627">  5  6 -1 -1</clus>
<clus scale="  148.253">  1  7  2 -1</clus>
<clus scale="   41.554">  2  5  1 -1</clus>
</clustering>
</event>
<event>
 9    1  0.1881049E-005  0.1085842E+03  0.7546771E-02  0.1264972E+00
         21   -1    0    0  501  502  0.00000000000E+00  0.00000000000E+00  0.56248647486E+02  0.56248647486E+02  0.00000000000E+00 0. -1.
         -4   -1    0    0    0  501 -0.00000000000E+00 -0.00000000000E+00 -0.56714935824E+03  0.56714935824E+03  0.00000000000E+00 0. -1.
         23    2    1    2    0    0  0.23015795072E+02  0.31055698014E+02 -0.33419718343E+03  0.35021881546E+03  0.97320491587E+02 0.  0.
         23    2    1    2    0    0  0.45789190456E+01 -0.81885156882E+02 -0.17594005811E+03  0.21533729350E+03  0.93215344816E+02 0.  0.
        -11    1    3    3    0    0  0.58666512456E+02  0.29654619627E+02 -0.17175586860E+03  0.18390550440E+03  0.00000000000E+00 0. -1.
         11    1    3    3    0    0 -0.35650717384E+02  0.14010783870E+01 -0.16244131483E+03  0.16631331106E+03  0.00000000000E+00 0.  1.
        -13    1    4    4    0    0  0.28856942485E+02 -0.33329324054E+02 -0.14771034033E+03  0.15414899160E+03  0.00000000000E+00 0.  1.
         13    1    4    4    0    0 -0.24278023439E+02 -0.48555832828E+02 -0.28229717777E+02  0.61188301901E+02  0.00000000000E+00 0. -1.
         -4    1    1    2    0  502 -0.27594714117E+02  0.50829458867E+02 -0.76346920893E+00  0.57841896763E+02  0.00000000000E+00 0. -1.
<scales pt_clust_5="13000.00000" pt_clust_6="13000.00000" pt_clust_7="13000.00000" pt_clust_8="13000.00000" pt_clust_9="57.83686"></scales>
<clustering>
<clus scale="   57.837">  1  9  2 -1</clus>
<clus scale="   93.215">  7  8 -1 -1</clus>
<clus scale="   97.320">  5  6 -1 -1</clus>
<clus scale="  104.921">  1  7  2 -1</clus>
<clus scale="   57.837">  1  5  2 -1</clus>
</clustering>
</event>
<event>
 9    1  0.1881049E-005  0.9772416E+02  0.7546771E-02  0.1287822E+00
         21   -1    0    0  501  502  0.00000000000E+00  0.00000000000E+00  0.32432603330E+03  0.32432603330E+03  0.00000000000E+00 0.  1.
          3   -1    0    0  502    0 -0.00000000000E+00 -0.00000000000E+00 -0.75502406581E+02  0.75502406581E+02  0.00000000000E+00 0. -1.
         23    2    1    2    0    0 -0.98696461692E+01  0.15514297321E+02  0.32457516847E+02  0.93786934240E+02  0.86048796025E+02 0.  0.
         23    2    1    2    0    0 -0.54438272148E+02 -0.71343615769E+02  0.10301329801E+03  0.16426251878E+03  0.91197579601E+02 0.  0.
        -13    1    4    4    0    0 -0.64064430786E+02 -0.41590688564E+02  0.10832256126E+03  0.13254363035E+03  0.00000000000E+00 0.  1.
         13    1    4    4    0    0  0.96261586380E+01 -0.29752927205E+02 -0.53092632536E+01  0.31718888437E+02  0.00000000000E+00 0. -1.
        -13    1    3    3    0    0 -0.21233321850E+02  0.47675582398E+02  0.10544197865E+02  0.53244673183E+02  0.00000000000E+00 0. -1.
         13    1    3    3    0    0  0.11363675680E+02 -0.32161285077E+02  0.21913318981E+02  0.40542261056E+02  0.00000000000E+00 0.  1.
          3    1    1    2  501    0  0.64307918317E+02  0.55829318448E+02  0.11335281186E+03  0.14177898686E+03  0.00000000000E+00 0. -1.
<scales pt_clust_5="13000.00000" pt_clust_6="13000.00000" pt_clust_7="13000.00000" pt_clust_8="13000.00000" pt_clust_9="85.16115"></scales>
<clustering>
<clus scale="   85.161">  1  9  2 -1</clus>
<clus scale="   86.049">  7  8 -1 -1</clus>
<clus scale="   91.198">  5  6 -1 -1</clus>
<clus scale="   92.938">  2  7  1 -1</clus>
<clus scale="   85.161">  1  5  2 -1</clus>
</clustering>
</event>
<event>
 9    1  0.1881049E-005  0.1729658E+03  0.7546771E-02  0.1192156E+00
          1   -1    0    0  502    0 -0.00000000000E+00  0.00000000000E+00  0.10699629192E+04  0.10699629192E+04  0.00000000000E+00 0. -1.
         21   -1    0    0  501  502  0.00000000000E+00 -0.00000000000E+00 -0.48011708599E+02  0.48011708599E+02  0.00000000000E+00 0. -1.
         23    2    1    2    0    0  0.69802530119E+02 -0.24438327444E+02  0.31800165825E+03  0.33895804435E+03  0.91092678727E+02 0.  0.
         23    2    1    2    0    0 -0.23348487526E+01 -0.12460710620E+03  0.45878479941E+03  0.48427570503E+03  0.92233854332E+02 0.  0.
        -11    1    4    4    0    0  0.29118596096E+02 -0.63745752541E+01  0.57678975004E+02  0.64926050286E+02  0.00000000000E+00 0.  1.
         11    1    4    4    0    0 -0.31453444849E+02 -0.11823253095E+03  0.40110582440E+03  0.41934965475E+03  0.00000000000E+00 0. -1.
        -13    1    3    3    0    0  0.29370920348E+02 -0.54219489931E+02  0.12295898740E+03  0.13755477685E+03  0.00000000000E+00 0. -1.
         13    1    3    3    0    0  0.40431609771E+02  0.29781162487E+02  0.19504267085E+03  0.20140326750E+03  0.00000000000E+00 0.  1.
          1    1    1    2  501    0 -0.67467681367E+02  0.14904543365E+03  0.24516475290E+03  0.29474087837E+03  0.00000000000E+00 0. -1.
<scales pt_clust_5="13000.00000" pt_clust_6="13000.00000" pt_clust_7="13000.00000" pt_clust_8="13000.00000" pt_clust_9="146.32186"></scales>
<clustering>
<clus scale="   91.093">  7  8 -1 -1</clus>
<clus scale="   92.234">  5  6 -1 -1</clus>
<clus scale="  117.335">  1  7  2 -1</clus>
<clus scale="  146.322">  2  9  1 -1</clus>
<clus scale="  146.322">  2  5  1 -1</clus>
</clustering>
</event>
<event>
 9    1  0.1881049E-005  0.1553581E+03  0.7546771E-02  0.1226526E+00
         21   -1    0    0  501  502  0.00000000000E+00  0.00000000000E+00  0.18824747379E+03  0.18824747379E+03  0.00000000000E+00 0.  1.
         -3   -1    0    0    0  501 -0.00000000000E+00 -0.00000000000E+00 -0.29400404357E+03  0.29400404357E+03  0.00000000000E+00 0.  1.
         23    2    1    2    0    0  0.46075069225E+01  0.14690290811E+02 -0.85924622801E+02  0.11581392396E+03  0.76110383096E+02 0.  0.
         23    2    1    2    0    0  0.10420056694E+03  0.63622593202E+02  0.10288380830E+03  0.18469254854E+03  0.92847546864E+02 0.  0.
        -11    1    4    4    0    0  0.19243145919E+02 -0.22466547900E+02  0.35601613357E+02  0.46287355866E+02  0.00000000000E+00 0. -1.
         11    1    4    4    0    0  0.84957421018E+02  0.86089141103E+02  0.67282194943E+02  0.13840519267E+03  0.00000000000E+00 0.  1.
        -13    1    3    3    0    0 -0.25271890688E+02  0.32974889015E+02 -0.56092246299E+02  0.69802233913E+02  0.00000000000E+00 0.  1.
         13    1    3    3    0    0  0.29879397610E+02 -0.18284598204E+02 -0.29832376502E+02  0.46011690045E+02  0.00000000000E+00 0. -1.
         -3    1    1    2    0  502 -0.10880807386E+03 -0.78312884013E+02 -0.12271575528E+03  0.18174504487E+03  0.00000000000E+00 0.  1.
<scales pt_clust_5="13000.00000" pt_clust_6="13000.00000" pt_clust_7="13000.00000" pt_clust_8="13000.00000" pt_clust_9="124.56123"></scales>
<clustering>
<clus scale="   76.110">  7  8 -1 -1</clus>
<clus scale="   77.652">  2  7  1 -1</clus>
<clus scale="   92.848">  5  6 -1 -1</clus>
<clus scale="  124.561">  1  9  2 -1</clus>
<clus scale="  124.561">  1  5  2 -1</clus>
</clustering>
</event>
<event>
 9    1  0.1881049E-005  0.1574656E+03  0.7546771E-02  0.1212100E+00
          1   -1    0    0  502    0 -0.00000000000E+00  0.00000000000E+00  0.18743880377E+03  0.18743880377E+03  0.00000000000E+00 0. -1.
         21   -1    0    0  501  502  0.00000000000E+00 -0.00000000000E+00 -0.22240794054E+03  0.22240794054E+03  0.00000000000E+00 0. -1.
         23    2    1    2    0    0  0.44447140249E+02  0.35129956237E+01  0.16176956814E+02  0.10228232334E+03  0.90620584427E+02 0.  0.
         23    2    1    2    0    0  0.94228746585E+02 -0.32331789853E+02  0.38205598419E+02  0.14009726194E+03  0.90791925490E+02 0.  0.
        -11    1    4    4    0    0  0.70126895968E+02 -0.39307829916E+02  0.65004898969E+02  0.10338531772E+03  0.00000000000E+00 0. -1.
         11    1    4    4    0    0  0.24101850617E+02  0.69760400630E+01 -0.26799300550E+02  0.36711944216E+02  0.00000000000E+00 0.  1.
        -11    1    3    3    0    0  0.38036491443E+02  0.34204739340E+02  0.38304903519E+02  0.63906216506E+02  0.00000000000E+00 0. -1.
         11    1    3    3    0    0  0.64106488061E+01 -0.30691743716E+02 -0.22127946705E+02  0.38376106835E+02  0.00000000000E+00 0.  1.
          1    1    1    2  501    0 -0.13867588683E+03  0.28818794229E+02 -0.89351692005E+02  0.16746715903E+03  0.00000000000E+00 0. -1.
<scales pt_clust_5="13000.00000" pt_clust_6="13000.00000" pt_clust_7="13000.00000" pt_clust_8="13000.00000" pt_clust_9="128.65551"></scales>
<clustering>
<clus scale="   90.621">  7  8 -1 -1</clus>
<clus scale="   90.792">  5  6 -1 -1</clus>
<clus scale="  100.995">  1  7  2 -1</clus>
<clus scale="  128.656">  2  9  1 -1</clus>
<clus scale="  128.656">  2  5  1 -1</clus>
</clustering>
</event>
<event>
 9    1  0.1881049E-005  0.1009267E+03  0.7546771E-02  0.1279191E+00
          2   -1    0    0  502    0 -0.00000000000E+00  0.00000000000E+00  0.60319448344E+03  0.60319448344E+03  0.00000000000E+00 0. -1.
         21   -1    0    0  501  502  0.00000000000E+00 -0.00000000000E+00 -0.51682108851E+02  0.51682108851E+02  0.00000000000E+00 0. -1.
         23    2    1    2    0    0  0.36774372481E+02 -0.20275285552E+02  0.47926321411E+03  0.48941582709E+03  0.89839755810E+02 0.  0.
         23    2    1    2    0    0 -0.69806843333E+02  0.23193925204E+02  0.63627783144E+02  0.13119721701E+03  0.88052605983E+02 0.  0.
        -11    1    4    4    0    0 -0.28491181355E+02 -0.10806566114E+02  0.70925885828E+02  0.77194627836E+02  0.00000000000E+00 0.  1.
         11    1    4    4    0    0 -0.41315661979E+02  0.34000491318E+02 -0.72981026838E+01  0.54002589173E+02  0.00000000000E+00 0. -1.
        -13    1    3    3    0    0 -0.18492003901E+02 -0.36585383198E+02  0.22512746758E+03  0.22882924011E+03  0.00000000000E+00 0. -1.
         13    1    3    3    0    0  0.55266376382E+02  0.16310097646E+02  0.25413574654E+03  0.26058658697E+03  0.00000000000E+00 0.  1.
          2    1    1    2  501    0  0.33032470852E+02 -0.29186396523E+01  0.86213773326E+01  0.34263548198E+02  0.00000000000E+00 0. -1.
<scales pt_clust_5="13000.00000" pt_clust_6="13000.00000" pt_clust_7="13000.00000" pt_clust_8="13000.00000" pt_clust_9="33.16116"></scales>
<clustering>
<clus scale="   33.161">  2  9  1 -1</clus>
<clus scale="   88.053">  5  6 -1 -1</clus>
<clus scale="   89.840">  7  8 -1 -1</clus>
<clus scale="   99.339">  2  5  1 -1</clus>
<clus scale="   33.161">  2  5  1 -1</clus>
</clustering>
</event>
<event>
 9    1  0.1881049E-005  0.1113608E+03  0.7546771E-02  0.1258307E+00
         21   -1    0    0  501  502  0.00000000000E+00  0.00000000000E+00  0.24793792136E+02  0.24793792136E+02  0.00000000000E+00 0.  1.
          1   -1    0    0  502    0 -0.00000000000E+00 -0.00000000000E+00 -0.83823774103E+03  0.83823774103E+03  0.00000000000E+00 0. -1.
         23    2    1    2    0    0  0.64532276222E+02 -0.25250292524E+02 -0.56310095082E+03  0.57464609245E+03  0.91287780150E+02 0.  0.
         23    2    1    2    0    0 -0.37134412642E+02  0.23875314452E+02 -0.13142049115E+03  0.16633997318E+03  0.91916516149E+02 0.  0.
        -13    1    4    4    0    0  0.68808883985E+01  0.27952292519E+02 -0.11600813040E+03  0.11952641382E+03  0.00000000000E+00 0. -1.
         13    1    4    4    0    0 -0.44015301040E+02 -0.40769780669E+01 -0.15412360748E+02  0.46813559356E+02  0.00000000000E+00 0.  1.
        -13    1    3    3    0    0  0.81217877682E+02 -0.41476690889E+02 -0.43677821552E+03  0.44619711910E+03  0.00000000000E+00 0. -1.
         13    1    3    3    0    0 -0.16685601460E+02  0.16226398365E+02 -0.12632273531E+03  0.12844897335E+03  0.00000000000E+00 0.  1.
          1    1    1    2  501    0 -0.27397863580E+02  0.13749780725E+01 -0.11892250693E+03  0.12204546754E+03  0.00000000000E+00 0. -1.
<scales pt_clust_5="13000.00000" pt_clust_6="13000.00000" pt_clust_7="13000.00000" pt_clust_8="13000.00000" pt_clust_9="27.43236"></scales>
<clustering>
<clus scale="   27.432">  1  9  2 -1</clus>
<clus scale="   91.288">  7  8 -1 -1</clus>
<clus scale="   91.917">  5  6 -1 -1</clus>
<clus scale="  110.842">  2  7  1 -1</clus>
<clus scale="   27.432">  1  5  2 -1</clus>
</clustering>
</event>
<event>
 9    1  0.1881049E-005  0.2088914E+03  0.7546771E-02  0.1142489E+00
          1   -1    0    0  502    0 -0.00000000000E+00  0.00000000000E+00  0.43290184136E+03  0.43290184136E+03  0.00000000000E+00 0. -1.
         21   -1    0    0  501  502  0.00000000000E+00 -0.00000000000E+00 -0.22368785818E+03  0.22368785818E+03  0.00000000000E+00 0. -1.
         23    2    1    2    0    0  0.12800871516E+02 -0.19758643322E+03  0.32110494379E+03  0.38808383392E+03  0.91084665681E+02 0.  0.
         23    2    1    2    0    0 -0.27622389613E+01  0.15477811987E+03 -0.39274039805E+02  0.18361450551E+03  0.90597682528E+02 0.  0.
        -11    1    4    4    0    0  0.41987921402E+02  0.52316021537E+02 -0.21221313128E+02  0.70358338411E+02  0.00000000000E+00 0.  1.
         11    1    4    4    0    0 -0.44750160363E+02  0.10246209833E+03 -0.18052726677E+02  0.11325616710E+03  0.00000000000E+00 0. -1.
        -13    1    3    3    0    0  0.51615537067E+02 -0.95839888574E+02  0.15236495352E+03  0.18725524550E+03  0.00000000000E+00 0. -1.
         13    1    3    3    0    0 -0.38814665551E+02 -0.10174654464E+03  0.16873999027E+03  0.20082858842E+03  0.00000000000E+00 0.  1.
          1    1    1    2  501    0 -0.10038632555E+02  0.42808313351E+02 -0.72616920793E+02  0.84891360108E+02  0.00000000000E+00 0. -1.
<scales pt_clust_5="13000.00000" pt_clust_6="13000.00000" pt_clust_7="13000.00000" pt_clust_8="13000.00000" pt_clust_9="43.96960"></scales>
<clustering>
<clus scale="   43.970">  2  9  1 -1</clus>
<clus scale="   90.598">  5  6 -1 -1</clus>
<clus scale="   91.085">  7  8 -1 -1</clus>
<clus scale="  208.680">  2  5  1 -1</clus>
<clus scale="   43.970">  2  5  1 -1</clus>
</clustering>
</event>
<event>
 9    1  0.1881049E-005  0.1014942E+03  0.7546771E-02  0.1277618E+00
         -2   -1    0    0    0  501 -0.00000000000E+00  0.00000000000E+00  0.40005545018E+03  0.40005545018E+03  0.00000000000E+00 0.  1.
         21   -1    0    0  501  502  0.00000000000E+00 -0.00000000000E+00 -0.42119998592E+02  0.42119998592E+02  0.00000000000E+00 0.  1.
         23    2    1    2    0    0  0.28891992497E+02  0.22295063685E+02  0.22788722612E+03  0.24780426686E+03  0.90236077859E+02 0.  0.
         23    2    1    2    0    0 -0.57666385955E+02 -0.25810119225E+02  0.12066794311E+03  0.16390298486E+03  0.91169411699E+02 0.  0.
        -11    1    4    4    0    0 -0.26129918240E+02  0.34249157075E+02  0.46000936194E+02  0.63022722238E+02  0.00000000000E+00 0. -1.
         11    1    4    4    0    0 -0.31536467715E+02 -0.60059276300E+02  0.74667006915E+02  0.10088026263E+03  0.00000000000E+00 0.  1.
        -11    1    3    3    0    0  0.59691524070E+02  0.17701084989E+01  0.12692721719E+03  0.14027376730E+03  0.00000000000E+00 0. -1.
         11    1    3    3    0    0 -0.30799531573E+02  0.20524955187E+02  0.10096000893E+03  0.10753049956E+03  0.00000000000E+00 0.  1.
         -2    1    1    2    0  502  0.28774393458E+02  0.35150555395E+01  0.93802823526E+01  0.30468197048E+02  0.00000000000E+00 0.  1.
<scales pt_clust_5="13000.00000" pt_clust_6="13000.00000" pt_clust_7="13000.00000" pt_clust_8="13000.00000" pt_clust_9="28.98830"></scales>
<clustering>
<clus scale="   28.988">  2  9  1 -1</clus>
<clus scale="   90.236">  7  8 -1 -1</clus>
<clus scale="   91.169">  5  6 -1 -1</clus>
<clus scale="  100.657">  1  7  2 -1</clus>
<clus scale="   28.988">  2  5  1 -1</clus>
</clustering>
</event>
<event>
 9    1  0.1881049E-005  0.9285080E+02  0.7546771E-02  0.1297051E+00
         21   -1    0    0  501  502  0.00000000000E+00  0.00000000000E+00  0.23794764900E+02  0.23794764900E+02  0.00000000000E+00 0.  1.
          2   -1    0    0  502    0 -0.00000000000E+00 -0.00000000000E+00 -0.70692328348E+03  0.70692328348E+03  0.00000000000E+00 0. -1.
         23    2    1    2    0    0 -0.10225279059E+02 -0.62404889894E+01 -0.31869020668E+03  0.33151630034E+03  0.90532367277E+02 0.  0.
         23    2    1    2    0    0 -0.89663302071E+01 -0.44882122333E+02 -0.18575875786E+03  0.21236432596E+03  0.92181835726E+02 0.  0.
        -11    1    4    4    0    0  0.21995992656E+02 -0.57663067932E+02 -0.15520839903E+03  0.16702844137E+03  0.00000000000E+00 0.  1.
         11    1    4    4    0    0 -0.30962322863E+02  0.12780945599E+02 -0.30550358832E+02  0.45335884597E+02  0.00000000000E+00 0. -1.
        -13    1    3    3    0    0 -0.44522288213E+02  0.22528643477E+01 -0.25327844649E+03  0.25717169557E+03  0.00000000000E+00 0. -1.
         13    1    3    3    0    0  0.34297009154E+02 -0.84933533371E+01 -0.65411760188E+02  0.74344604772E+02  0.00000000000E+00 0.  1.
          2    1    1    2  501    0  0.19191609266E+02  0.51122611322E+02 -0.17867955404E+03  0.18683742207E+03  0.00000000000E+00 0. -1.
<scales pt_clust_5="13000.00000" pt_clust_6="13000.00000" pt_clust_7="13000.00000" pt_clust_8="13000.00000" pt_clust_9="54.60625"></scales>
<clustering>
<clus scale="   54.606">  1  9  2 -1</clus>
<clus scale="   90.532">  7  8 -1 -1</clus>
<clus scale="   91.213">  2  7  1 -1</clus>
<clus scale="   92.182">  5  6 -1 -1</clus>
<clus scale="   54.606">  1  5  2 -1</clus>
</clustering>
</event>
<event>
 9    1  0.1881049E-005  0.2173336E+03  0.7546771E-02  0.1136204E+00
          2   -1    0    0  502    0 -0.00000000000E+00  0.00000000000E+00  0.16504339154E+04  0.16504339154E+04  0.00000000000E+00 0. -1.
         21   -1    0    0  501  502  0.00000000000E+00 -0.00000000000E+00 -0.21129187492E+03  0.21129187492E+03  0.00000000000E+00 0. -1.
         23    2    1    2    0    0 -0.48091002724E+02  0.16156196056E+03  0.69130655833E+03  0.71747801746E+03  0.91950727533E+02 0.  0.
         23    2    1    2    0    0  0.68562133346E+02 -0.21745982304E+03  0.92492523989E+03  0.95742052501E+03  0.95800947567E+02 0.  0.
        -13    1    3    3    0    0 -0.41985782628E+01  0.11637904750E+03  0.55820078472E+03  0.57021910422E+03  0.00000000000E+00 0. -1.
         13    1    3    3    0    0 -0.43892424461E+02  0.45182913068E+02  0.13310577362E+03  0.14725891324E+03  0.00000000000E+00 0.  1.
        -13    1    4    4    0    0  0.45292096412E+02 -0.25647770542E+02  0.25121295032E+03  0.25654849159E+03  0.00000000000E+00 0.  1.
         13    1    4    4    0    0  0.23270036935E+02 -0.19181205250E+03  0.67371228957E+03  0.70087203342E+03  0.00000000000E+00 0. -1.
          2    1    1    2  501    0 -0.20471130623E+02  0.55897862479E+02 -0.17708975778E+03  0.18682724782E+03  0.00000000000E+00 0. -1.
<scales pt_clust_5="13000.00000" pt_clust_6="13000.00000" pt_clust_7="13000.00000" pt_clust_8="13000.00000" pt_clust_9="59.52847"></scales>
<clustering>
<clus scale="   59.528">  2  9  1 -1</clus>
<clus scale="   91.951">  5  6 -1 -1</clus>
<clus scale="   95.801">  7  8 -1 -1</clus>
<clus scale="  215.664">  1  5  2 -1</clus>
<clus scale="   59.528">  2  5  1 -1</clus>
</clustering>
</event>
<event>
 9    1  0.1881049E-005  0.9992909E+02  0.7546771E-02  0.1282297E+00
          3   -1    0    0  502    0 -0.00000000000E+00  0.00000000000E+00  0.20624206881E+02  0.20624206881E+02  0.00000000000E+00 0. -1.
         21   -1    0    0  501  502  0.00000000000E+00 -0.00000000000E+00 -0.88570232561E+03  0.88570232561E+03  0.00000000000E+00 0.  1.
         23    2    1    2    0    0 -0.48256018420E+02  0.25550618322E+02 -0.19531112964E+03  0.22274912522E+03  0.92137169570E+02 0.  0.
         23    2    1    2    0    0  0.63347409348E+01 -0.76441267614E+01 -0.38156088081E+03  0.39178844792E+03  0.88379412443E+02 0.  0.
        -11    1    3    3    0    0 -0.56792459950E+02  0.51844421120E+02 -0.16298205748E+03  0.18021203780E+03  0.00000000000E+00 0.  1.
         11    1    3    3    0    0  0.85364415302E+01 -0.26293802798E+02 -0.32329072158E+02  0.42537087420E+02  0.00000000000E+00 0. -1.
        -11    1    4    4    0    0  0.40867791473E+02 -0.27216126112E+02 -0.19997710847E+03  0.20591682256E+03  0.00000000000E+00 0. -1.
         11    1    4    4    0    0 -0.34533050538E+02  0.19571999351E+02 -0.18158377234E+03  0.18587162536E+03  0.00000000000E+00 0.  1.
          3    1    1    2  501    0  0.41921277485E+02 -0.17906491561E+02 -0.28820610828E+03  0.29178895935E+03  0.00000000000E+00 0. -1.
<scales pt_clust_5="13000.00000" pt_clust_6="13000.00000" pt_clust_7="13000.00000" pt_clust_8="13000.00000" pt_clust_9="45.58548"></scales>
<clustering>
<clus scale="   45.585">  2  9  1 -1</clus>
<clus scale="   88.379">  7  8 -1 -1</clus>
<clus scale="   92.137">  5  6 -1 -1</clus>
<clus scale="   96.475">  2  7  1 -1</clus>
<clus scale="   45.585">  2  5  1 -1</clus>
</clustering>
</event>
<event>
 9    1  0.1881049E-005  0.1016069E+03  0.7546771E-02  0.1277924E+00
          2   -1    0    0  502    0 -0.00000000000E+00  0.00000000000E+00  0.48530335868E+03  0.48530335868E+03  0.00000000000E+00 0. -1.
         21   -1    0    0  501  502  0.00000000000E+00 -0.00000000000E+00 -0.10114495681E+03  0.10114495681E+03  0.00000000000E+00 0. -1.
         23    2    1    2    0    0 -0.41918937223E+02 -0.12897107464E+02  0.23639203786E+03  0.25630778966E+03  0.88819788339E+02 0.  0.
         23    2    1    2    0    0  0.75549486018E+01  0.69137277569E+02  0.21020673835E+03  0.23935153533E+03  0.90913388565E+02 0.  0.
        -11    1    4    4    0    0  0.28572184735E+02 -0.59698183454E+01  0.25143992779E+02  0.38525690708E+02  0.00000000000E+00 0.  1.
         11    1    4    4    0    0 -0.21017236133E+02  0.75107095914E+02  0.18506274557E+03  0.20082584462E+03  0.00000000000E+00 0. -1.
        -11    1    3    3    0    0  0.85610456983E+01  0.30983537119E+02  0.73928979645E+02  0.80614918639E+02  0.00000000000E+00 0. -1.
         11    1    3    3    0    0 -0.50479982921E+02 -0.43880644583E+02  0.16246305821E+03  0.17569287102E+03  0.00000000000E+00 0.  1.
          2    1    1    2  501    0  0.34363988621E+02 -0.56240170104E+02 -0.62440374341E+02  0.90788990496E+02  0.00000000000E+00 0. -1.
<scales pt_clust_5="13000.00000" pt_clust_6="13000.00000" pt_clust_7="13000.00000" pt_clust_8="13000.00000" pt_clust_9="65.90782"></scales>
<clustering>
<clus scale="   65.908">  2  9  1 -1</clus>
<clus scale="   88.820">  7  8 -1 -1</clus>
<clus scale="   90.913">  5  6 -1 -1</clus>
<clus scale="   99.738">  1  7  2 -1</clus>
<clus scale="   65.908">  2  5  1 -1</clus>
</clustering>
</event>
<event>
 9    1  0.1881049E-005  0.1000494E+03  0.7546771E-02  0.1282209E+00
          2   -1    0    0  502    0 -0.00000000000E+00  0.00000000000E+00  0.35616279157E+03  0.35616279157E+03  0.00000000000E+00 0. -1.
         21   -1    0    0  501  502  0.00000000000E+00 -0.00000000000E+00 -0.76425632848E+02  0.76425632848E+02  0.00000000000E+00 0.  1.
         23    2    1    2    0    0  0.33761397708E+02  0.21211069561E+02  0.29080556178E+03  0.30778960425E+03  0.92611145513E+02 0.  0.
         23    2    1    2    0    0 -0.13144275999E+02 -0.29753658075E+02  0.90460190862E+01  0.94754993772E+02  0.88536016530E+02 0.  0.
        -11    1    4    4    0    0 -0.35741420466E+02 -0.48592727452E+02  0.19712633615E+02  0.63460934615E+02  0.00000000000E+00 0.  1.
         11    1    4    4    0    0  0.22597144467E+02  0.18839069377E+02 -0.10666614528E+02  0.31294059157E+02  0.00000000000E+00 0. -1.
        -13    1    3    3    0    0  0.65423312999E+02  0.10400857495E+02  0.21386433820E+03  0.22388913076E+03  0.00000000000E+00 0. -1.
         13    1    3    3    0    0 -0.31661915290E+02  0.10810212067E+02  0.76941223582E+02  0.83900473485E+02  0.00000000000E+00 0.  1.
          2    1    1    2  501    0 -0.20617121709E+02  0.85425885140E+01 -0.20114422149E+02  0.30043826395E+02  0.00000000000E+00 0. -1.
<scales pt_clust_5="13000.00000" pt_clust_6="13000.00000" pt_clust_7="13000.00000" pt_clust_8="13000.00000" pt_clust_9="22.31684"></scales>
<clustering>
<clus scale="   22.317">  2  9  1 -1</clus>
<clus scale="   88.536">  5  6 -1 -1</clus>
<clus scale="   92.611">  7  8 -1 -1</clus>
<clus scale="   96.290">  2  5  1 -1</clus>
<clus scale="   22.317">  2  5  1 -1</clus>
</clustering>
</event>
<event>
 9    1  0.1881049E-005  0.9944617E+02  0.7546771E-02  0.1282947E+00
         21   -1    0    0  501  502  0.00000000000E+00  0.00000000000E+00  0.72473669398E+02  0.72473669398E+02  0.00000000000E+00 0. -1.
          2   -1    0    0  502    0 -0.00000000000E+00 -0.00000000000E+00 -0.25489341488E+03  0.25489341488E+03  0.00000000000E+00 0. -1.
         23    2    1    2    0    0 -0.25014444553E+02  0.16749048764E+02 -0.16442107423E+03  0.19216907064E+03  0.94807220131E+02 0.  0.
         23    2    1    2    0    0  0.63916248453E+01 -0.38599452453E+02  0.24965015373E+01  0.99923353285E+02  0.91911225723E+02 0.  0.
        -11    1    3    3    0    0  0.35054644337E+02 -0.52581928282E+01 -0.55682969783E+02  0.66008104088E+02  0.00000000000E+00 0.  1.
         11    1    3    3    0    0 -0.60069088891E+02  0.22007241592E+02 -0.10873810445E+03  0.12616096655E+03  0.00000000000E+00 0. -1.
        -13    1    4    4    0    0 -0.24613265734E+02 -0.22094439105E+02 -0.35266954088E+02  0.48350130715E+02  0.00000000000E+00 0.  1.
         13    1    4    4    0    0  0.31004890579E+02 -0.16505013348E+02  0.37763455626E+02  0.51573222570E+02  0.00000000000E+00 0. -1.
          2    1    1    2  501    0  0.18622819708E+02  0.21850403689E+02 -0.20495172788E+02  0.35274660351E+02  0.00000000000E+00 0. -1.
<scales pt_clust_5="13000.00000" pt_clust_6="13000.00000" pt_clust_7="13000.00000" pt_clust_8="13000.00000" pt_clust_9="28.70976"></scales>
<clustering>
<clus scale="   28.710">  1  9  2 -1</clus>
<clus scale="   91.911">  7  8 -1 -1</clus>
<clus scale="   94.807">  5  6 -1 -1</clus>
<clus scale="   96.689">  1  7  2 -1</clus>
<clus scale="   28.710">  1  5  2 -1</clus>
</clustering>
</event>
<event>
 9    1  0.1881049E-005  0.1136820E+03  0.7546771E-02  0.1254264E+00
         21   -1    0    0  501  502  0.00000000000E+00  0.00000000000E+00  0.54672469490E+02  0.54672469490E+02  0.00000000000E+00 0. -1.
          1   -1    0    0  502    0 -0.00000000000E+00 -0.00000000000E+00 -0.61164930968E+03  0.61164930968E+03  0.00000000000E+00 0. -1.
         23    2    1    2    0    0 -0.15839070791E+02 -0.72089061265E+02 -0.47428421615E+03  0.48849376368E+03  0.90735497697E+02 0.  0.
         23    2    1    2    0    0 -0.47776977398E+00  0.47487827202E+02 -0.99853058995E+02  0.14368214413E+03  0.91752946301E+02 0.  0.
        -11    1    4    4    0    0  0.28724585420E+02 -0.58462378039E+01 -0.31924460353E+01  0.29486810877E+02  0.00000000000E+00 0.  1.
         11    1    4    4    0    0 -0.29202355194E+02  0.53334065006E+02 -0.96660612960E+02  0.11419533325E+03  0.00000000000E+00 0. -1.
        -13    1    3    3    0    0 -0.44322816579E+02 -0.57314854479E+01 -0.18896733181E+03  0.19418036586E+03  0.00000000000E+00 0.  1.
         13    1    3    3    0    0  0.28483745788E+02 -0.66357575817E+02 -0.28531688434E+03  0.29431339781E+03  0.00000000000E+00 0. -1.
          1    1    1    2  501    0  0.16316840565E+02  0.24601234064E+02  0.17160434955E+02  0.34145871366E+02  0.00000000000E+00 0. -1.
<scales pt_clust_5="13000.00000" pt_clust_6="13000.00000" pt_clust_7="13000.00000" pt_clust_8="13000.00000" pt_clust_9="29.52050"></scales>
<clustering>
<clus scale="   29.521">  1  9  2 -1</clus>
<clus scale="   90.735">  7  8 -1 -1</clus>
<clus scale="   91.753">  5  6 -1 -1</clus>
<clus scale="  112.862">  2  7  1 -1</clus>
<clus scale="   29.521">  1  5  2 -1</clus>
</clustering>
</event>
<event>
 9    1  0.1881049E-005  0.9835000E+02  0.7546771E-02  0.1285645E+00
          2   -1    0    0  502    0 -0.00000000000E+00  0.00000000000E+00  0.44099604128E+03  0.44099604128E+03  0.00000000000E+00 0. -1.
         21   -1    0    0  501  502  0.00000000000E+00 -0.00000000000E+00 -0.30322931799E+02  0.30322931799E+02  0.00000000000E+00 0. -1.
         23    2    1    2    0    0 -0.14858671002E+02 -0.43639949640E+02  0.22685269031E+03  0.24782603710E+03  0.88489413241E+02 0.  0.
         23    2    1    2    0    0  0.50988262042E+01  0.20516158013E+02  0.17086283804E+03  0.19524646331E+03  0.92087790945E+02 0.  0.
        -11    1    4    4    0    0  0.26076435573E+02  0.25123255857E+01  0.44735582062E+01  0.26576399212E+02  0.00000000000E+00 0.  1.
         11    1    4    4    0    0 -0.20977609369E+02  0.18003832427E+02  0.16638927984E+03  0.16867006409E+03  0.00000000000E+00 0. -1.
        -13    1    3    3    0    0  0.17847164235E+02 -0.34377207087E+02  0.32615179414E+02  0.50636583283E+02  0.00000000000E+00 0.  1.
         13    1    3    3    0    0 -0.32705835237E+02 -0.92627425531E+01  0.19423751089E+03  0.19718945382E+03  0.00000000000E+00 0. -1.
          2    1    1    2  501    0  0.97598447980E+01  0.23123791627E+02  0.12957581126E+02  0.28246472671E+02  0.00000000000E+00 0. -1.
<scales pt_clust_5="13000.00000" pt_clust_6="13000.00000" pt_clust_7="13000.00000" pt_clust_8="13000.00000" pt_clust_9="25.09909"></scales>
<clustering>
<clus scale="   25.099">  2  9  1 -1</clus>
<clus scale="   88.489">  7  8 -1 -1</clus>
<clus scale="   92.088">  5  6 -1 -1</clus>
<clus scale="   94.989">  1  7  2 -1</clus>
<clus scale="   25.099">  2  5  1 -1</clus>
</clustering>
</event>
<event>
 9    1  0.1881049E-005  0.1227920E+03  0.7546771E-02  0.1249166E+00
         21   -1    0    0  501  502  0.00000000000E+00  0.00000000000E+00  0.76914894995E+02  0.76914894995E+02  0.00000000000E+00 0.  1.
         -1   -1    0    0    0  501 -0.00000000000E+00 -0.00000000000E+00 -0.40168782307E+03  0.40168782307E+03  0.00000000000E+00 0.  1.
         23    2    1    2    0    0 -0.22338180165E+02 -0.36517243852E+02 -0.21719195942E+03  0.23874662241E+03  0.89415317959E+02 0.  0.
         23    2    1    2    0    0 -0.57732510160E+02 -0.24763660173E+02 -0.43496526468E+02  0.12038442379E+03  0.93027845731E+02 0.  0.
        -11    1    4    4    0    0  0.23900007352E+02 -0.45961107417E+01 -0.23759074295E+02  0.34012177183E+02  0.00000000000E+00 0. -1.
         11    1    4    4    0    0 -0.81632517512E+02 -0.20167549432E+02 -0.19737452173E+02  0.86372246605E+02  0.00000000000E+00 0.  1.
        -13    1    3    3    0    0 -0.33188785936E+02 -0.61834831439E+02 -0.17275134332E+03  0.18646197604E+03  0.00000000000E+00 0.  1.
         13    1    3    3    0    0  0.10850605771E+02  0.25317587587E+02 -0.44440616099E+02  0.52284646370E+02  0.00000000000E+00 0. -1.
         -1    1    1    2    0  502  0.80070690325E+02  0.61280904026E+02 -0.64084442190E+02  0.11947167186E+03  0.00000000000E+00 0.  1.
<scales pt_clust_5="13000.00000" pt_clust_6="13000.00000" pt_clust_7="13000.00000" pt_clust_8="13000.00000" pt_clust_9="80.14795"></scales>
<clustering>
<clus scale="   89.415">  7  8 -1 -1</clus>
<clus scale="   93.028">  5  6 -1 -1</clus>
<clus scale="   99.134">  2  7  1 -1</clus>
<clus scale="   80.148">  1  9  2 -1</clus>
<clus scale="   80.148">  1  5  2 -1</clus>
</clustering>
</event>
<event>
 9    1  0.1881049E-005  0.1609885E+03  0.7546771E-02  0.1188118E+00
         21   -1    0    0  501  502  0.00000000000E+00  0.00000000000E+00  0.29000110830E+02  0.29000110830E+02  0.00000000000E+00 0. -1.
          2   -1    0    0  502    0 -0.00000000000E+00 -0.00000000000E+00 -0.16765381882E+04  0.16765381882E+04  0.00000000000E+00 0. -1.
         23    2    1    2    0    0 -0.13873133799E+03 -0.30721189997E+02 -0.80915608576E+03  0.82665121982E+03  0.91806821416E+02 0.  0.
         23    2    1    2    0    0  0.82776646784E+02  0.11190693022E+03 -0.54181494868E+03  0.56635857996E+03  0.88450371428E+02 0.  0.
        -11    1    4    4    0    0  0.22122736443E+02  0.10082607880E+03 -0.34502549740E+03  0.36013595696E+03  0.00000000000E+00 0. -1.
         11    1    4    4    0    0  0.60653910341E+02  0.11080851416E+02 -0.19678945127E+03  0.20622262301E+03  0.00000000000E+00 0.  1.
        -13    1    3    3    0    0 -0.33337219307E+02  0.32257137531E+02 -0.21905213018E+03  0.22391009100E+03  0.00000000000E+00 0. -1.
         13    1    3    3    0    0 -0.10539411868E+03 -0.62978327528E+02 -0.59010395558E+03  0.60274112883E+03  0.00000000000E+00 0.  1.
          2    1    1    2  501    0  0.55954691204E+02 -0.81185740222E+02 -0.29656704290E+03  0.31252849920E+03  0.00000000000E+00 0. -1.
<scales pt_clust_5="13000.00000" pt_clust_6="13000.00000" pt_clust_7="13000.00000" pt_clust_8="13000.00000" pt_clust_9="98.60047"></scales>
<clustering>
<clus scale="   88.450">  5  6 -1 -1</clus>
<clus scale="   91.807">  7  8 -1 -1</clus>
<clus scale="   98.600">  1  9  2 -1</clus>
<clus scale="  159.098">  1  5  2 -1</clus>
<clus scale="   98.600">  1  5  2 -1</clus>
</clustering>
</event>
<event>
 9    1  0.1881049E-005  0.1007079E+03  0.7546771E-02  0.1281011E+00
          2   -1    0    0  502    0 -0.00000000000E+00  0.00000000000E+00  0.14776395575E+03  0.14776395575E+03  0.00000000000E+00 0. -1.
         21   -1    0    0  501  502  0.00000000000E+00 -0.00000000000E+00 -0.24784669772E+03  0.24784669772E+03  0.00000000000E+00 0. -1.
         23    2    1    2    0    0 -0.15518436472E+02  0.33101092242E+02  0.31585653166E+02  0.10127905344E+03  0.89012858632E+02 0.  0.
         23    2    1    2    0    0 -0.47178171072E+02 -0.37287815692E+02  0.34745688686E+02  0.11644950271E+03  0.93472256706E+02 0.  0.
        -11    1    3    3    0    0 -0.47025089247E+01 -0.26616125136E+02 -0.87491288779E+01  0.28409135213E+02  0.00000000000E+00 0.  1.
         11    1    3    3    0    0 -0.10815927547E+02  0.59717217378E+02  0.40334782044E+02  0.72869918228E+02  0.00000000000E+00 0. -1.
        -13    1    4    4    0    0  0.88473298594E+01 -0.21697481024E+02 -0.24172176246E+02  0.33665264486E+02  0.00000000000E+00 0.  1.
         13    1    4    4    0    0 -0.56025500931E+02 -0.15590334668E+02  0.58917864932E+02  0.82784238221E+02  0.00000000000E+00 0. -1.
          2    1    1    2  501    0  0.62696607544E+02  0.41867234504E+01 -0.16641408382E+03  0.17788209732E+03  0.00000000000E+00 0. -1.
<scales pt_clust_5="13000.00000" pt_clust_6="13000.00000" pt_clust_7="13000.00000" pt_clust_8="13000.00000" pt_clust_9="62.83624"></scales>
<clustering>
<clus scale="   62.836">  2  9  1 -1</clus>
<clus scale="   89.013">  5  6 -1 -1</clus>
<clus scale="   93.472">  7  8 -1 -1</clus>
<clus scale="   96.583">  1  5  2 -1</clus>
<clus scale="   62.836">  2  5  1 -1</clus>
</clustering>
</event>
<event>
 9    1  0.1881049E-005  0.1595813E+03  0.7546771E-02  0.1190455E+00
         21   -1    0    0  501  502  0.00000000000E+00  0.00000000000E+00  0.68564804893E+03  0.68564804893E+03  0.00000000000E+00 0. -1.
         -3   -1    0    0    0  501 -0.00000000000E+00 -0.00000000000E+00 -0.10515016479E+03  0.10515016479E+03  0.00000000000E+00 0.  1.
         23    2    1    2    0    0  0.54175510221E+02  0.11203605467E+03  0.69239525393E+02  0.16913211279E+03  0.91238677366E+02 0.  0.
         23    2    1    2    0    0 -0.34550229289E+01 -0.17151249927E+03  0.50892707483E+03  0.54346475708E+03  0.83178723899E+02 0.  0.
        -13    1    4    4    0    0 -0.42284297394E+02 -0.67868735952E+02  0.21108843750E+03  0.22572650613E+03  0.00000000000E+00 0.  1.
         13    1    4    4    0    0  0.38829274465E+02 -0.10364376332E+03  0.29783863733E+03  0.31773825095E+03  0.00000000000E+00 0. -1.
        -13    1    3    3    0    0 -0.25289866694E+02  0.18007961956E+02  0.17016624715E+02  0.35403807252E+02  0.00000000000E+00 0. -1.
         13    1    3    3    0    0  0.79465376916E+02  0.94028092712E+02  0.52222900678E+02  0.13372830554E+03  0.00000000000E+00 0.  1.
         -3    1    1    2    0  502 -0.50720487292E+02  0.59476444607E+02  0.23312839227E+01  0.78201343844E+02  0.00000000000E+00 0.  1.
<scales pt_clust_5="13000.00000" pt_clust_6="13000.00000" pt_clust_7="13000.00000" pt_clust_8="13000.00000" pt_clust_9="78.16663"></scales>
<clustering>
<clus scale="   78.167">  1  9  2 -1</clus>
<clus scale="   83.179">  5  6 -1 -1</clus>
<clus scale="   91.239">  7  8 -1 -1</clus>
<clus scale="  155.114">  1  5  2 -1</clus>
<clus scale="   78.167">  1  5  2 -1</clus>
</clustering>
</event>
<event>
 9    1  0.1881049E-005  0.9739160E+02  0.7546771E-02  0.1286271E+00
         21   -1    0    0  501  502  0.00000000000E+00  0.00000000000E+00  0.49126355377E+02  0.49126355377E+02  0.00000000000E+00 0.  1.
          2   -1    0    0  502    0 -0.00000000000E+00 -0.00000000000E+00 -0.42412563155E+03  0.42412563155E+03  0.00000000000E+00 0. -1.
         23    2    1    2    0    0  0.66925116767E+01  0.22802055017E+02 -0.20322593396E+03  0.22372988731E+03  0.90496181224E+02 0.  0.
         23    2    1    2    0    0  0.14371002953E+02 -0.54209652673E+02 -0.18184414272E+03  0.21038733423E+03  0.89723608897E+02 0.  0.
        -11    1    3    3    0    0  0.14451421152E+02 -0.33553667315E+02 -0.73496101233E+02  0.82075386445E+02  0.00000000000E+00 0.  1.
         11    1    3    3    0    0 -0.77589094751E+01  0.56355722332E+02 -0.12972983273E+03  0.14165450087E+03  0.00000000000E+00 0. -1.
        -11    1    4    4    0    0 -0.35413867243E+02 -0.69477030651E+01 -0.49002926751E+02  0.60858026595E+02  0.00000000000E+00 0. -1.
         11    1    4    4    0    0  0.49784870196E+02 -0.47261949608E+02 -0.13284121597E+03  0.14952930763E+03  0.00000000000E+00 0.  1.
          2    1    1    2  501    0 -0.21063514630E+02  0.31407597657E+02  0.10070800507E+02  0.39134765388E+02  0.00000000000E+00 0. -1.
<scales pt_clust_5="13000.00000" pt_clust_6="13000.00000" pt_clust_7="13000.00000" pt_clust_8="13000.00000" pt_clust_9="37.81678"></scales>
<clustering>
<clus scale="   37.817">  1  9  2 -1</clus>
<clus scale="   89.724">  7  8 -1 -1</clus>
<clus scale="   90.496">  5  6 -1 -1</clus>
<clus scale="   96.674">  1  7  2 -1</clus>
<clus scale="   37.817">  1  5  2 -1</clus>
</clustering>
</event>
<event>
 9    1  0.1881049E-005  0.1063229E+03  0.7546771E-02  0.1268275E+00
          2   -1    0    0  502    0 -0.00000000000E+00  0.00000000000E+00  0.10035067411E+04  0.10035067411E+04  0.00000000000E+00 0.  1.
         21   -1    0    0  501  502  0.00000000000E+00 -0.00000000000E+00 -0.18672702602E+02  0.18672702602E+02  0.00000000000E+00 0.  1.
         23    2    1    2    0    0  0.20805269448E+02  0.66466688180E+02  0.55321163898E+03  0.56535426556E+03  0.93443288763E+02 0.  0.
         23    2    1    2    0    0 -0.20377205778E+02 -0.25598395711E+02  0.37204266719E+03  0.38457460671E+03  0.91713540614E+02 0.  0.
        -11    1    4    4    0    0  0.32734832760E+02  0.22664318466E+01  0.19255827274E+03  0.19533405845E+03  0.00000000000E+00 0.  1.
         11    1    4    4    0    0 -0.53112038538E+02 -0.27864827558E+02  0.17948439445E+03  0.18924054826E+03  0.00000000000E+00 0. -1.
        -13    1    3    3    0    0  0.40049470765E+02  0.75109906600E+02  0.51230421568E+03  0.51932751476E+03  0.00000000000E+00 0.  1.
         13    1    3    3    0    0 -0.19244201317E+02 -0.86432184208E+01  0.40907423295E+02  0.46026750805E+02  0.00000000000E+00 0. -1.
          2    1    1    2  501    0 -0.42806366999E+00 -0.40868292468E+02  0.59579732304E+02  0.72250571411E+02  0.00000000000E+00 0.  1.
<scales pt_clust_5="13000.00000" pt_clust_6="13000.00000" pt_clust_7="13000.00000" pt_clust_8="13000.00000" pt_clust_9="40.87053"></scales>
<clustering>
<clus scale="   40.871">  2  9  1 -1</clus>
<clus scale="   91.714">  5  6 -1 -1</clus>
<clus scale="   93.443">  7  8 -1 -1</clus>
<clus scale="  104.806">  2  5  1 -1</clus>
<clus scale="   40.871">  2  5  1 -1</clus>
</clustering>
</event>
<event>
 9    1  0.1881049E-005  0.1135982E+03  0.7546771E-02  0.1269339E+00
         -1   -1    0    0    0  501 -0.00000000000E+00  0.00000000000E+00  0.11827629778E+03  0.11827629778E+03  0.00000000000E+00 0.  1.
         21   -1    0    0  501  502  0.00000000000E+00 -0.00000000000E+00 -0.15043812854E+03  0.15043812854E+03  0.00000000000E+00 0. -1.
         23    2    1    2    0    0  0.42637205345E+02 -0.13516179497E+02  0.52603299790E+02  0.10149098561E+03  0.74382085370E+02 0.  0.
         23    2    1    2    0    0 -0.19685029415E+02  0.12452447527E+02 -0.38655298708E+02  0.11570596312E+03  0.10654141894E+03 0.  0.
        -11    1    3    3    0    0  0.11653384509E+02 -0.17612504130E+02  0.64637991630E+02  0.68000526720E+02  0.00000000000E+00 0.  1.
         11    1    3    3    0    0  0.30983820837E+02  0.40963246329E+01 -0.12034691841E+02  0.33490458893E+02  0.00000000000E+00 0. -1.
        -13    1    4    4    0    0 -0.40968555864E+01 -0.41593287227E+02 -0.42137507462E+02  0.59349433891E+02  0.00000000000E+00 0.  1.
         13    1    4    4    0    0 -0.15588173828E+02  0.54045734755E+02  0.34822087542E+01  0.56356529225E+02  0.00000000000E+00 0. -1.
         -1    1    1    2    0  502 -0.22952175931E+02  0.10637319696E+01 -0.46109831838E+02  0.51517477596E+02  0.00000000000E+00 0.  1.
<scales pt_clust_5="13000.00000" pt_clust_6="13000.00000" pt_clust_7="13000.00000" pt_clust_8="13000.00000" pt_clust_9="22.97681"></scales>
<clustering>
<clus scale="   22.977">  2  9  1 -1</clus>
<clus scale="   74.382">  5  6 -1 -1</clus>
<clus scale="   84.179">  1  5  2 -1</clus>
<clus scale="  106.541">  7  8 -1 -1</clus>
<clus scale="   22.977">  2  5  1 -1</clus>
</clustering>
</event>
<event>
 9    1  0.1881049E-005  0.1074659E+03  0.7546771E-02  0.1265512E+00
         21   -1    0    0  501  502  0.00000000000E+00  0.00000000000E+00  0.83396242764E+02  0.83396242764E+02  0.00000000000E+00 0. -1.
          4   -1    0    0  502    0 -0.00000000000E+00 -0.00000000000E+00 -0.56976465456E+03  0.56976465456E+03  0.00000000000E+00 0. -1.
         23    2    1    2    0    0  0.53591653619E+01 -0.66776815574E+02 -0.48002278580E+03  0.49292822037E+03  0.89824783875E+02 0.  0.
         23    2    1    2    0    0 -0.16088013590E+02  0.13602816961E+02 -0.34762872132E+02  0.98994435707E+02  0.90263947462E+02 0.  0.
        -11    1    3    3    0    0  0.35070030497E+02  0.39774763524E+01 -0.14681696576E+03  0.15099983043E+03  0.00000000000E+00 0.  1.
         11    1    3    3    0    0 -0.29710865135E+02 -0.70754291926E+02 -0.33320582004E+03  0.34192838993E+03  0.00000000000E+00 0. -1.
        -13    1    4    4    0    0  0.33408844838E+02  0.21384776271E+02 -0.32415904806E+01  0.39799088914E+02  0.00000000000E+00 0. -1.
         13    1    4    4    0    0 -0.49496858428E+02 -0.77819593104E+01 -0.31521281651E+02  0.59195346793E+02  0.00000000000E+00 0.  1.
          4    1    1    2  501    0  0.10728848229E+02  0.53173998613E+02  0.28417246137E+02  0.61238241245E+02  0.00000000000E+00 0. -1.
<scales pt_clust_5="13000.00000" pt_clust_6="13000.00000" pt_clust_7="13000.00000" pt_clust_8="13000.00000" pt_clust_9="54.24557"></scales>
<clustering>
<clus scale="   54.246">  1  9  2 -1</clus>
<clus scale="   89.825">  5  6 -1 -1</clus>
<clus scale="   90.264">  7  8 -1 -1</clus>
<clus scale="  107.097">  2  5  1 -1</clus>
<clus scale="   54.246">  1  5  2 -1</clus>
</clustering>
</event>
<event>
 9    1  0.1881049E-005  0.9220726E+02  0.7546771E-02  0.1297834E+00
         -1   -1    0    0    0  501 -0.00000000000E+00  0.00000000000E+00  0.88589078423E+02  0.88589078423E+02  0.00000000000E+00 0.  1.
         21   -1    0    0  501  502  0.00000000000E+00 -0.00000000000E+00 -0.14935291309E+03  0.14935291309E+03  0.00000000000E+00 0. -1.
         23    2    1    2    0    0 -0.92714594207E+01 -0.45689680653E+01  0.15208842327E+02  0.92624133264E+02  0.90780426024E+02 0.  0.
         23    2    1    2    0    0  0.24986921987E+02 -0.87955787595E+01 -0.80152023271E+02  0.12426901479E+03  0.91196122324E+02 0.  0.
        -11    1    4    4    0    0  0.51416170294E+02  0.17534325146E+02 -0.30947094304E+02  0.62520378852E+02  0.00000000000E+00 0. -1.
         11    1    4    4    0    0 -0.26429248307E+02 -0.26329903906E+02 -0.49204928967E+02  0.61748635940E+02  0.00000000000E+00 0.  1.
        -13    1    3    3    0    0  0.13427218882E+02 -0.19541894323E+02  0.45874000777E+02  0.51639130395E+02  0.00000000000E+00 0.  1.
         13    1    3    3    0    0 -0.22698678303E+02  0.14972926258E+02 -0.30665158450E+02  0.40985002869E+02  0.00000000000E+00 0. -1.
         -1    1    1    2    0  502 -0.15715462566E+02  0.13364546825E+02  0.41793462785E+01  0.21048843455E+02  0.00000000000E+00 0.  1.
<scales pt_clust_5="13000.00000" pt_clust_6="13000.00000" pt_clust_7="13000.00000" pt_clust_8="13000.00000" pt_clust_9="20.62977"></scales>
<clustering>
<clus scale="   20.630">  2  9  1 -1</clus>
<clus scale="   90.780">  7  8 -1 -1</clus>
<clus scale="   91.196">  5  6 -1 -1</clus>
<clus scale="   91.796">  1  7  2 -1</clus>
<clus scale="   20.630">  2  5  1 -1</clus>
</clustering>
</event>
<event>
 9    1  0.1881049E-005  0.1269038E+03  0.7546771E-02  0.1232564E+00
         21   -1    0    0  501  502  0.00000000000E+00  0.00000000000E+00  0.61887482331E+02  0.61887482331E+02  0.00000000000E+00 0. -1.
         -3   -1    0    0    0  501 -0.00000000000E+00 -0.00000000000E+00 -0.50875898678E+03  0.50875898678E+03  0.00000000000E+00 0.  1.
         23    2    1    2    0    0  0.66317554640E+02 -0.56737683623E+02 -0.17633132159E+03  0.21631633261E+03  0.89904604918E+02 0.  0.
         23    2    1    2    0    0 -0.81068303976E+01  0.10744553894E+03 -0.12114722251E+03  0.18616940502E+03  0.91499362338E+02 0.  0.
        -11    1    3    3    0    0  0.62558887489E+02 -0.65160600607E+00 -0.57996432358E+02  0.85308998121E+02  0.00000000000E+00 0. -1.
         11    1    3    3    0    0  0.37586671511E+01 -0.56086077617E+02 -0.11833488923E+03  0.13100733449E+03  0.00000000000E+00 0.  1.
        -11    1    4    4    0    0 -0.34279745955E+02  0.96346731506E+02 -0.12007445875E+03  0.15772022476E+03  0.00000000000E+00 0.  1.
         11    1    4    4    0    0  0.26172915558E+02  0.11098807432E+02 -0.10727637519E+01  0.28449180256E+02  0.00000000000E+00 0. -1.
         -3    1    1    2    0  502 -0.58210724243E+02 -0.50707855314E+02 -0.14939296035E+03  0.16816073147E+03  0.00000000000E+00 0.  1.
<scales pt_clust_5="13000.00000" pt_clust_6="13000.00000" pt_clust_7="13000.00000" pt_clust_8="13000.00000" pt_clust_9="77.19962"></scales>
<clustering>
<clus scale="   77.200">  1  9  2 -1</clus>
<clus scale="   89.905">  5  6 -1 -1</clus>
<clus scale="   91.499">  7  8 -1 -1</clus>
<clus scale="  125.759">  2  5  1 -1</clus>
<clus scale="   77.200">  1  5  2 -1</clus>
</clustering>
</event>
<event>
 9    1  0.1881049E-005  0.3830140E+03  0.7546771E-02  0.1057914E+00
         21   -1    0    0  501  502  0.00000000000E+00  0.00000000000E+00  0.10011154484E+04  0.10011154484E+04  0.00000000000E+00 0. -1.
          1   -1    0    0  502    0 -0.00000000000E+00 -0.00000000000E+00 -0.34949335906E+03  0.34949335906E+03  0.00000000000E+00 0. -1.
         23    2    1    2    0    0 -0.19888700183E+03  0.21150550208E+03  0.35812216241E+03  0.47014605168E+03  0.92169462392E+02 0.  0.
         23    2    1    2    0    0  0.26889449196E+03  0.20874520454E+03 -0.15947449852E+02  0.35389900457E+03  0.95453528231E+02 0.  0.
        -13    1    4    4    0    0  0.99711533726E+00  0.28299344505E+02  0.95729622087E+01  0.29891282071E+02  0.00000000000E+00 0.  1.
         13    1    4    4    0    0  0.26789737662E+03  0.18044586003E+03 -0.25520412060E+02  0.32400772250E+03  0.00000000000E+00 0. -1.
        -13    1    3    3    0    0 -0.20317024601E+03  0.17775499683E+03  0.30788494783E+03  0.40947298918E+03  0.00000000000E+00 0. -1.
         13    1    3    3    0    0  0.42832441867E+01  0.33750505252E+02  0.50237214573E+02  0.60673062504E+02  0.00000000000E+00 0.  1.
          1    1    1    2  501    0 -0.70007490137E+02 -0.42025070662E+03  0.30944737678E+03  0.52656375121E+03  0.00000000000E+00 0. -1.
<scales pt_clust_5="13000.00000" pt_clust_6="13000.00000" pt_clust_7="13000.00000" pt_clust_8="13000.00000" pt_clust_9="370.92900"></scales>
<clustering>
<clus scale="   92.169">  7  8 -1 -1</clus>
<clus scale="   95.454">  5  6 -1 -1</clus>
<clus scale="  304.608">  2  7  1 -1</clus>
<clus scale="  370.929">  1  9  2 -1</clus>
<clus scale="  370.929">  1  5  2 -1</clus>
</clustering>
</event>
<event>
 9    1  0.1881049E-005  0.1892978E+03  0.7546771E-02  0.1159223E+00
         21   -1    0    0  501  502  0.00000000000E+00  0.00000000000E+00  0.82816114299E+02  0.82816114299E+02  0.00000000000E+00 0.  1.
          1   -1    0    0  502    0 -0.00000000000E+00 -0.00000000000E+00 -0.72470013166E+03  0.72470013166E+03  0.00000000000E+00 0. -1.
         23    2    1    2    0    0 -0.11192488917E+03  0.89174386935E+02 -0.31826067504E+03  0.36077749689E+03  0.91604000398E+02 0.  0.
         23    2    1    2    0    0  0.18366037218E+03 -0.11020987967E+03 -0.25749735163E+03  0.34693334780E+03  0.90446181955E+02 0.  0.
        -13    1    4    4    0    0  0.35159551194E+02 -0.12876018007E+01 -0.67558467396E+01  0.35825876454E+02  0.00000000000E+00 0.  1.
         13    1    4    4    0    0  0.14850082099E+03 -0.10892227787E+03 -0.25074150489E+03  0.31110747134E+03  0.00000000000E+00 0. -1.
        -13    1    3    3    0    0 -0.34426366124E+01  0.35921324392E+02 -0.25881649075E+02  0.44407803951E+02  0.00000000000E+00 0.  1.
         13    1    3    3    0    0 -0.10848225256E+03  0.53253062543E+02 -0.29237902596E+03  0.31636969294E+03  0.00000000000E+00 0. -1.
          1    1    1    2  501    0 -0.71735483012E+02  0.21035492736E+02 -0.66125990693E+02  0.99805401270E+02  0.00000000000E+00 0. -1.
<scales pt_clust_5="13000.00000" pt_clust_6="13000.00000" pt_clust_7="13000.00000" pt_clust_8="13000.00000" pt_clust_9="74.75608"></scales>
<clustering>
<clus scale="   74.756">  1  9  2 -1</clus>
<clus scale="   90.446">  5  6 -1 -1</clus>
<clus scale="   91.604">  7  8 -1 -1</clus>
<clus scale="  188.740">  1  5  2 -1</clus>
<clus scale="   74.756">  1  5  2 -1</clus>
</clustering>
</event>
<event>
 9    1  0.1881049E-005  0.9325396E+02  0.7546771E-02  0.1296584E+00
          1   -1    0    0  502    0 -0.00000000000E+00  0.00000000000E+00  0.35780770184E+03  0.35780770184E+03  0.00000000000E+00 0. -1.
         21   -1    0    0  501  502  0.00000000000E+00 -0.00000000000E+00 -0.68227708855E+02  0.68227708855E+02  0.00000000000E+00 0. -1.
         23    2    1    2    0    0 -0.13265369333E+02  0.11981716261E+02  0.21891796767E+03  0.23657422229E+03  0.87879204223E+02 0.  0.
         23    2    1    2    0    0  0.58579201388E+02  0.30063324989E+02  0.59401479088E+02  0.12662864293E+03  0.90393313621E+02 0.  0.
        -11    1    3    3    0    0  0.32285049577E+02  0.95761857935E+01  0.41802441750E+02  0.53679343296E+02  0.00000000000E+00 0. -1.
         11    1    3    3    0    0 -0.45550418909E+02  0.24055304672E+01  0.17711552592E+03  0.18289487899E+03  0.00000000000E+00 0.  1.
        -11    1    4    4    0    0  0.41435515814E+02  0.43476660042E+02 -0.34062489135E+01  0.60155834886E+02  0.00000000000E+00 0. -1.
         11    1    4    4    0    0  0.17143685574E+02 -0.13413335054E+02  0.62807728002E+02  0.66472808043E+02  0.00000000000E+00 0.  1.
          1    1    1    2  501    0 -0.45313832055E+02 -0.42045041249E+02  0.11260546220E+02  0.62832545471E+02  0.00000000000E+00 0. -1.
<scales pt_clust_5="13000.00000" pt_clust_6="13000.00000" pt_clust_7="13000.00000" pt_clust_8="13000.00000" pt_clust_9="61.81528"></scales>
<clustering>
<clus scale="   61.815">  2  9  1 -1</clus>
<clus scale="   87.879">  5  6 -1 -1</clus>
<clus scale="   90.393">  7  8 -1 -1</clus>
<clus scale="   90.819">  1  5  2 -1</clus>
<clus scale="   61.815">  2  5  1 -1</clus>
</clustering>
</event>
<event>
 9    1  0.1881049E-005  0.1791974E+03  0.7546771E-02  0.1169099E+00
          2   -1    0    0  502    0 -0.00000000000E+00  0.00000000000E+00  0.18818914950E+04  0.18818914950E+04  0.00000000000E+00 0. -1.
         21   -1    0    0  501  502  0.00000000000E+00 -0.00000000000E+00 -0.39006926190E+02  0.39006926190E+02  0.00000000000E+00 0.  1.
         23    2    1    2    0    0  0.17107847709E+02  0.11226934400E+03  0.35480771310E+03  0.38256165643E+03  0.86993239066E+02 0.  0.
         23    2    1    2    0    0 -0.83127885853E+02 -0.20342524143E+03  0.63949900138E+03  0.68232717489E+03  0.91210342482E+02 0.  0.
        -11    1    4    4    0    0 -0.36376784701E+01 -0.65267184293E+02  0.97567664434E+02  0.11744142026E+03  0.00000000000E+00 0. -1.
         11    1    4    4    0    0 -0.79490207383E+02 -0.13815805714E+03  0.54193133694E+03  0.56488575463E+03  0.00000000000E+00 0.  1.
        -13    1    3    3    0    0 -0.17015442376E+02  0.50000967535E+02  0.25290032648E+03  0.25835672464E+03  0.00000000000E+00 0. -1.
         13    1    3    3    0    0  0.34123290085E+02  0.62268376466E+02  0.10190738661E+03  0.12420493179E+03  0.00000000000E+00 0.  1.
          2    1    1    2  501    0  0.66020038144E+02  0.91155897431E+02  0.84857785429E+03  0.85600958982E+03  0.00000000000E+00 0. -1.
<scales pt_clust_5="13000.00000" pt_clust_6="13000.00000" pt_clust_7="13000.00000" pt_clust_8="13000.00000" pt_clust_9="112.55246"></scales>
<clustering>
<clus scale="   86.993">  7  8 -1 -1</clus>
<clus scale="   91.210">  5  6 -1 -1</clus>
<clus scale="  112.552">  2  9  1 -1</clus>
<clus scale="  177.088">  1  7  2 -1</clus>
<clus scale="  112.552">  2  5  1 -1</clus>
</clustering>
</event>
<event>
 9    1  0.1881049E-005  0.1355517E+03  0.7546771E-02  0.1220093E+00
         21   -1    0    0  501  502  0.00000000000E+00  0.00000000000E+00  0.12040516018E+03  0.12040516018E+03  0.00000000000E+00 0.  1.
         -1   -1    0    0    0  501 -0.00000000000E+00 -0.00000000000E+00 -0.24331820128E+03  0.24331820128E+03  0.00000000000E+00 0.  1.
         23    2    1    2    0    0 -0.63913735807E+02  0.82697186670E+02 -0.14206026218E+03  0.19789513260E+03  0.89763996724E+02 0.  0.
         23    2    1    2    0    0  0.62929782646E+02 -0.62059259716E+02 -0.11966265342E+02  0.12847931682E+03  0.92478289802E+02 0.  0.
        -13    1    3    3    0    0 -0.18123776508E+02  0.73645487665E+02 -0.12863142330E+03  0.14932572514E+03  0.00000000000E+00 0.  1.
         13    1    3    3    0    0 -0.45789959299E+02  0.90516990041E+01 -0.13428838883E+02  0.48569407462E+02  0.00000000000E+00 0. -1.
        -13    1    4    4    0    0  0.55503474555E+02  0.91830822561E+01 -0.67449023234E+01  0.56660907112E+02  0.00000000000E+00 0.  1.
         13    1    4    4    0    0  0.74263080902E+01 -0.71242341973E+02 -0.52213630181E+01  0.71818409711E+02  0.00000000000E+00 0. -1.
         -1    1    1    2    0  502  0.98395316144E+00 -0.20637926953E+02  0.31113486428E+02  0.37348912038E+02  0.00000000000E+00 0.  1.
<scales pt_clust_5="13000.00000" pt_clust_6="13000.00000" pt_clust_7="13000.00000" pt_clust_8="13000.00000" pt_clust_9="20.66137"></scales>
<clustering>
<clus scale="   20.661">  1  9  2 -1</clus>
<clus scale="   89.764">  5  6 -1 -1</clus>
<clus scale="   92.478">  7  8 -1 -1</clus>
<clus scale="  133.715">  2  5  1 -1</clus>
<clus scale="   20.661">  1  5  2 -1</clus>
</clustering>
</event>
<event>
 9    1  0.1881049E-005  0.1181251E+03  0.7546771E-02  0.1246628E+00
         21   -1    0    0  501  502  0.00000000000E+00  0.00000000000E+00  0.13128705421E+03  0.13128705421E+03  0.00000000000E+00 0. -1.
          2   -1    0    0  502    0 -0.00000000000E+00 -0.00000000000E+00 -0.17693713379E+03  0.17693713379E+03  0.00000000000E+00 0. -1.
         23    2    1    2    0    0  0.54768836482E+02 -0.34688995686E+02 -0.14406207039E+02  0.11296758169E+03  0.91384811871E+02 0.  0.
         23    2    1    2    0    0 -0.72451492473E+02  0.55217057978E+02  0.27045771383E+02  0.13097783646E+03  0.90141986008E+02 0.  0.
        -13    1    4    4    0    0  0.97195960759E+01  0.44118707296E+02  0.76084267794E+01  0.45812869801E+02  0.00000000000E+00 0.  1.
         13    1    4    4    0    0 -0.82171088549E+02  0.11098350682E+02  0.19437344603E+02  0.85164966662E+02  0.00000000000E+00 0. -1.
        -13    1    3    3    0    0  0.48165503177E+01 -0.56676569257E+02 -0.13123647934E+02  0.58375189891E+02  0.00000000000E+00 0.  1.
         13    1    3    3    0    0  0.49952286165E+02  0.21987573572E+02 -0.12825591050E+01  0.54592391800E+02  0.00000000000E+00 0. -1.
          2    1    1    2  501    0  0.17682655991E+02 -0.20528062292E+02 -0.58289643927E+02  0.64278769851E+02  0.00000000000E+00 0. -1.
<scales pt_clust_5="13000.00000" pt_clust_6="13000.00000" pt_clust_7="13000.00000" pt_clust_8="13000.00000" pt_clust_9="27.09388"></scales>
<clustering>
<clus scale="   27.094">  1  9  2 -1</clus>
<clus scale="   90.142">  5  6 -1 -1</clus>
<clus scale="   91.385">  7  8 -1 -1</clus>
<clus scale="  117.166">  1  5  2 -1</clus>
<clus scale="   27.094">  1  5  2 -1</clus>
</clustering>
</event>
<event>
 9    1  0.1881049E-005  0.1785963E+03  0.7546771E-02  0.1169750E+00
          1   -1    0    0  502    0 -0.00000000000E+00  0.00000000000E+00  0.32365898623E+03  0.32365898623E+03  0.00000000000E+00 0. -1.
         21   -1    0    0  501  502  0.00000000000E+00 -0.00000000000E+00 -0.26617775176E+03  0.26617775176E+03  0.00000000000E+00 0. -1.
         23    2    1    2    0    0  0.13730579154E+03 -0.10383879180E+03  0.19550109532E+03  0.27671695480E+03  0.93360696911E+02 0.  0.
         23    2    1    2    0    0 -0.61008114655E+02  0.10706502805E+03  0.39454828852E+01  0.15191834733E+03  0.88762081631E+02 0.  0.
        -11    1    3    3    0    0  0.58578466501E+02 -0.69819993216E+02  0.15950430409E+03  0.18370599123E+03  0.00000000000E+00 0.  1.
         11    1    3    3    0    0  0.78727325038E+02 -0.34018798588E+02  0.35996791230E+02  0.93010963568E+02  0.00000000000E+00 0. -1.
        -11    1    4    4    0    0 -0.40047800465E+02  0.94569743126E+02  0.38445991431E+02  0.10966018828E+03  0.00000000000E+00 0. -1.
         11    1    4    4    0    0 -0.20960314190E+02  0.12495284924E+02 -0.34500508545E+02  0.42258159049E+02  0.00000000000E+00 0.  1.
          1    1    1    2  501    0 -0.76297676885E+02 -0.32262362460E+01 -0.14196534374E+03  0.16120143586E+03  0.00000000000E+00 0. -1.
<scales pt_clust_5="13000.00000" pt_clust_6="13000.00000" pt_clust_7="13000.00000" pt_clust_8="13000.00000" pt_clust_9="76.36586"></scales>
<clustering>
<clus scale="   76.366">  2  9  1 -1</clus>
<clus scale="   88.762">  7  8 -1 -1</clus>
<clus scale="   93.361">  5  6 -1 -1</clus>
<clus scale="  176.236">  2  7  1 -1</clus>
<clus scale="   76.366">  2  5  1 -1</clus>
</clustering>
</event>
<event>
 9    1  0.1881049E-005  0.1057544E+03  0.7546771E-02  0.1281274E+00
          3   -1    0    0  502    0 -0.00000000000E+00  0.00000000000E+00  0.68204952984E+02  0.68204952984E+02  0.00000000000E+00 0. -1.
         21   -1    0    0  501  502  0.00000000000E+00 -0.00000000000E+00 -0.32973000621E+03  0.32973000621E+03  0.00000000000E+00 0.  1.
         23    2    1    2    0    0 -0.46305264841E+02  0.42612039406E+02  0.57411568250E+00  0.88729004960E+02  0.62550325802E+02 0.  0.
         23    2    1    2    0    0  0.43938588695E+02  0.17697387613E+02 -0.14434897729E+03  0.17688839769E+03  0.90603978324E+02 0.  0.
        -13    1    3    3    0    0 -0.36697188812E+02 -0.76544742978E+01 -0.14168447554E+01  0.37513758710E+02  0.00000000000E+00 0. -1.
         13    1    3    3    0    0 -0.96080760285E+01  0.50266513704E+02  0.19909604378E+01  0.51215246250E+02  0.00000000000E+00 0.  1.
        -13    1    4    4    0    0 -0.10732052600E+02  0.34077246530E+02 -0.94799848985E+02  0.10130867214E+03  0.00000000000E+00 0.  1.
         13    1    4    4    0    0  0.54670641295E+02 -0.16379858917E+02 -0.49549128301E+02  0.75579725543E+02  0.00000000000E+00 0. -1.
          3    1    1    2  501    0  0.23666761456E+01 -0.60309427020E+02 -0.11775019162E+03  0.13231755654E+03  0.00000000000E+00 0. -1.
<scales pt_clust_5="13000.00000" pt_clust_6="13000.00000" pt_clust_7="13000.00000" pt_clust_8="13000.00000" pt_clust_9="60.35585"></scales>
<clustering>
<clus scale="   60.356">  2  9  1 -1</clus>
<clus scale="   62.550">  5  6 -1 -1</clus>
<clus scale="   82.991">  1  5  2 -1</clus>
<clus scale="   90.604">  7  8 -1 -1</clus>
<clus scale="   60.356">  2  5  1 -1</clus>
</clustering>
</event>
<event>
 9    1  0.1881049E-005  0.9329281E+02  0.7546771E-02  0.1297339E+00
          4   -1    0    0  502    0 -0.00000000000E+00  0.00000000000E+00  0.13506548973E+03  0.13506548973E+03  0.00000000000E+00 0. -1.
         21   -1    0    0  501  502  0.00000000000E+00 -0.00000000000E+00 -0.19177441843E+03  0.19177441843E+03  0.00000000000E+00 0.  1.
         23    2    1    2    0    0  0.35054365648E+01 -0.77666243102E+01  0.75381791394E+02  0.11901908621E+03  0.91708886542E+02 0.  0.
         23    2    1    2    0    0 -0.12665809018E+02  0.60159042319E+02 -0.85216628063E+02  0.13692612263E+03  0.87791550097E+02 0.  0.
        -13    1    3    3    0    0  0.18433274098E+02 -0.46580952680E+02  0.35489345582E+02  0.61392706378E+02  0.00000000000E+00 0. -1.
         13    1    3    3    0    0 -0.14927837533E+02  0.38814328370E+02  0.39892445812E+02  0.57626379837E+02  0.00000000000E+00 0.  1.
        -13    1    4    4    0    0 -0.14489494295E+01  0.80435468488E+02 -0.49840396891E+02  0.94636299630E+02  0.00000000000E+00 0.  1.
         13    1    4    4    0    0 -0.11216859589E+02 -0.20276426169E+02 -0.35376231172E+02  0.42289822997E+02  0.00000000000E+00 0. -1.
          4    1    1    2  501    0  0.91603724535E+01 -0.52392418009E+02 -0.46874092034E+02  0.70894699324E+02  0.00000000000E+00 0. -1.
<scales pt_clust_5="13000.00000" pt_clust_6="13000.00000" pt_clust_7="13000.00000" pt_clust_8="13000.00000" pt_clust_9="53.18720"></scales>
<clustering>
<clus scale="   53.187">  2  9  1 -1</clus>
<clus scale="   87.792">  7  8 -1 -1</clus>
<clus scale="   89.445">  2  7  1 -1</clus>
<clus scale="   91.709">  5  6 -1 -1</clus>
<clus scale="   53.187">  2  5  1 -1</clus>
</clustering>
</event>
<event>
 9    1  0.1881049E-005  0.9376307E+02  0.7546771E-02  0.1294399E+00
          3   -1    0    0  502    0 -0.00000000000E+00  0.00000000000E+00  0.85838711878E+02  0.85838711878E+02  0.00000000000E+00 0. -1.
         21   -1    0    0  501  502  0.00000000000E+00 -0.00000000000E+00 -0.18333851304E+03  0.18333851304E+03  0.00000000000E+00 0.  1.
         23    2    1    2    0    0 -0.67186473778E+01  0.25597946138E+01  0.97462949043E+01  0.93295230674E+02  0.92505767555E+02 0.  0.
         23    2    1    2    0    0  0.11983941244E+02 -0.31324461113E+02 -0.45974292790E+02  0.10798970282E+03  0.91778557439E+02 0.  0.
        -11    1    4    4    0    0 -0.17581669158E+02  0.23121414737E+02 -0.34295247216E+02  0.44943062773E+02  0.00000000000E+00 0.  1.
         11    1    4    4    0    0  0.29565610403E+02 -0.54445875849E+02 -0.11679045574E+02  0.63046640045E+02  0.00000000000E+00 0. -1.
        -13    1    3    3    0    0 -0.26670881728E+01  0.42346495433E+02 -0.16427160176E+02  0.45499347536E+02  0.00000000000E+00 0.  1.
         13    1    3    3    0    0 -0.40515592050E+01 -0.39786700819E+02  0.26173455080E+02  0.47795883138E+02  0.00000000000E+00 0. -1.
          3    1    1    2  501    0 -0.52652938665E+01  0.28764666499E+02 -0.61271803280E+02  0.67892291429E+02  0.00000000000E+00 0. -1.
<scales pt_clust_5="13000.00000" pt_clust_6="13000.00000" pt_clust_7="13000.00000" pt_clust_8="13000.00000" pt_clust_9="29.24259"></scales>
<clustering>
<clus scale="   29.243">  2  9  1 -1</clus>
<clus scale="   91.779">  5  6 -1 -1</clus>
<clus scale="   92.506">  7  8 -1 -1</clus>
<clus scale="   93.046">  2  5  1 -1</clus>
<clus scale="   29.243">  2  5  1 -1</clus>
</clustering>
</event>
<event>
 9    1  0.1881049E-005  0.1002445E+03  0.7546771E-02  0.1280896E+00
         -1   -1    0    0    0  501 -0.00000000000E+00  0.00000000000E+00  0.74959021281E+02  0.74959021281E+02  0.00000000000E+00 0.  1.
         21   -1    0    0  501  502  0.00000000000E+00 -0.00000000000E+00 -0.23442138204E+03  0.23442138204E+03  0.00000000000E+00 0. -1.
         23    2    1    2    0    0 -0.61377660396E+01 -0.36860419571E+02 -0.28612989285E+02  0.10189688152E+03  0.90376482591E+02 0.  0.
         23    2    1    2    0    0 -0.40018601923E+02  0.34581966652E+02 -0.58604667486E+02  0.12172281456E+03  0.92652769068E+02 0.  0.
        -13    1    3    3    0    0  0.21727180305E+02  0.12783108619E+02 -0.36567487992E+02  0.44414630562E+02  0.00000000000E+00 0.  1.
         13    1    3    3    0    0 -0.27864946345E+02 -0.49643528190E+02  0.79544987069E+01  0.57482250962E+02  0.00000000000E+00 0. -1.
        -13    1    4    4    0    0 -0.25018657935E+02  0.19660384496E+02 -0.83319513161E+02  0.89188593647E+02  0.00000000000E+00 0. -1.
         13    1    4    4    0    0 -0.14999943989E+02  0.14921582157E+02  0.24714845675E+02  0.32534220914E+02  0.00000000000E+00 0.  1.
         -1    1    1    2    0  502  0.46156367963E+02  0.22784529189E+01 -0.72244703987E+02  0.85760707235E+02  0.00000000000E+00 0.  1.
<scales pt_clust_5="13000.00000" pt_clust_6="13000.00000" pt_clust_7="13000.00000" pt_clust_8="13000.00000" pt_clust_9="46.21257"></scales>
<clustering>
<clus scale="   46.213">  2  9  1 -1</clus>
<clus scale="   90.376">  5  6 -1 -1</clus>
<clus scale="   92.653">  7  8 -1 -1</clus>
<clus scale="   98.144">  1  5  2 -1</clus>
<clus scale="   46.213">  2  5  1 -1</clus>
</clustering>
</event>
<event>
 9    1  0.1881049E-005  0.1428457E+03  0.7546771E-02  0.1212293E+00
         21   -1    0    0  501  502  0.00000000000E+00  0.00000000000E+00  0.19981389667E+03  0.19981389667E+03  0.00000000000E+00 0. -1.
          1   -1    0    0  502    0 -0.00000000000E+00 -0.00000000000E+00 -0.40470609882E+03  0.40470609882E+03  0.00000000000E+00 0. -1.
         23    2    1    2    0    0  0.11481199142E+03  0.20783349613E+01 -0.24667478612E+03  0.28707318154E+03  0.91522940302E+02 0.  0.
         23    2    1    2    0    0 -0.73445568436E+02  0.24591465208E+02 -0.10267699526E+03  0.16483282633E+03  0.10309366418E+03 0.  0.
        -11    1    3    3    0    0  0.58613735299E+02  0.46699087389E+02 -0.13230029789E+03  0.15205177917E+03  0.00000000000E+00 0.  1.
         11    1    3    3    0    0  0.56198256121E+02 -0.44620752428E+02 -0.11437448823E+03  0.13502140236E+03  0.00000000000E+00 0. -1.
        -11    1    4    4    0    0 -0.78658496579E+02 -0.10940756497E+02 -0.32126300855E+02  0.85667721130E+02  0.00000000000E+00 0.  1.
         11    1    4    4    0    0  0.52129281436E+01  0.35532221705E+02 -0.70550694409E+02  0.79165105196E+02  0.00000000000E+00 0. -1.
          1    1    1    2  501    0 -0.41366422985E+02 -0.26669800169E+02  0.14445957923E+03  0.15261398764E+03  0.00000000000E+00 0. -1.
<scales pt_clust_5="13000.00000" pt_clust_6="13000.00000" pt_clust_7="13000.00000" pt_clust_8="13000.00000" pt_clust_9="49.21848"></scales>
<clustering>
<clus scale="   49.218">  1  9  2 -1</clus>
<clus scale="   91.523">  5  6 -1 -1</clus>
<clus scale="  103.094">  7  8 -1 -1</clus>
<clus scale="  134.733">  2  5  1 -1</clus>
<clus scale="   49.218">  1  5  2 -1</clus>
</clustering>
</event>
<event>
 9    1  0.1881049E-005  0.2603373E+03  0.7546771E-02  0.1106994E+00
         21   -1    0    0  501  502  0.00000000000E+00  0.00000000000E+00  0.25232397041E+03  0.25232397041E+03  0.00000000000E+00 0.  1.
         -3   -1    0    0    0  501 -0.00000000000E+00 -0.00000000000E+00 -0.38419626997E+03  0.38419626997E+03  0.00000000000E+00 0.  1.
         23    2    1    2    0    0 -0.16917252869E+03 -0.21032712929E+03 -0.61929474488E+02  0.29170571902E+03  0.91652173548E+02 0.  0.
         23    2    1    2    0    0  0.11824533724E+03  0.17840278386E+03  0.22759252006E+02  0.23433186320E+03  0.92649476470E+02 0.  0.
        -13    1    3    3    0    0 -0.84551807665E+02 -0.15970023244E+03 -0.11801839137E+02  0.18108687371E+03  0.00000000000E+00 0. -1.
         13    1    3    3    0    0 -0.84620721030E+02 -0.50626896851E+02 -0.50127635351E+02  0.11061884531E+03  0.00000000000E+00 0.  1.
        -13    1    4    4    0    0  0.44826610708E+02  0.10974208527E+03  0.52286562344E+02  0.12956324675E+03  0.00000000000E+00 0.  1.
         13    1    4    4    0    0  0.73418726529E+02  0.68660698588E+02 -0.29527310338E+02  0.10476861644E+03  0.00000000000E+00 0. -1.
         -3    1    1    2    0  502  0.50927191458E+02  0.31924345435E+02 -0.92702077081E+02  0.11048265817E+03  0.00000000000E+00 0.  1.
<scales pt_clust_5="13000.00000" pt_clust_6="13000.00000" pt_clust_7="13000.00000" pt_clust_8="13000.00000" pt_clust_9="60.10613"></scales>
<clustering>
<clus scale="   60.106">  1  9  2 -1</clus>
<clus scale="   91.652">  5  6 -1 -1</clus>
<clus scale="   92.649">  7  8 -1 -1</clus>
<clus scale="  259.984">  2  5  1 -1</clus>
<clus scale="   60.106">  1  5  2 -1</clus>
</clustering>
</event>
<event>
 9    1  0.1881049E-005  0.1180060E+03  0.7546771E-02  0.1246662E+00
         21   -1    0    0  501  502  0.00000000000E+00  0.00000000000E+00  0.29735108925E+03  0.29735108925E+03  0.00000000000E+00 0. -1.
          2   -1    0    0  502    0 -0.00000000000E+00 -0.00000000000E+00 -0.76812911563E+02  0.76812911563E+02  0.00000000000E+00 0. -1.
         23    2    1    2    0    0  0.33773891053E+02 -0.69005893683E+02  0.18324719268E+02  0.12171260785E+03  0.92604937741E+02 0.  0.
         23    2    1    2    0    0  0.95402954137E+00  0.70010839179E+02  0.14340092394E+03  0.18414361451E+03  0.91883720022E+02 0.  0.
        -11    1    4    4    0    0 -0.60875451779E+01 -0.21445701353E+02  0.17342537495E+02  0.28244290035E+02  0.00000000000E+00 0.  1.
         11    1    4    4    0    0  0.70415747193E+01  0.91456540531E+02  0.12605838644E+03  0.15589932448E+03  0.00000000000E+00 0. -1.
        -13    1    3    3    0    0  0.20825044194E+02 -0.91784395629E+02  0.13823054241E+02  0.95126939272E+02  0.00000000000E+00 0.  1.
         13    1    3    3    0    0  0.12948846859E+02  0.22778501945E+02  0.45016650272E+01  0.26585668580E+02  0.00000000000E+00 0. -1.
          2    1    1    2  501    0 -0.34727920594E+02 -0.10049454954E+01  0.58812534481E+02  0.68307778447E+02  0.00000000000E+00 0. -1.
<scales pt_clust_5="13000.00000" pt_clust_6="13000.00000" pt_clust_7="13000.00000" pt_clust_8="13000.00000" pt_clust_9="34.74246"></scales>
<clustering>
<clus scale="   34.742">  1  9  2 -1</clus>
<clus scale="   91.884">  5  6 -1 -1</clus>
<clus scale="   92.605">  7  8 -1 -1</clus>
<clus scale="  117.441">  1  5  2 -1</clus>
<clus scale="   34.742">  1  5  2 -1</clus>
</clustering>
</event>
<event>
 9    1  0.1881049E-005  0.1562587E+03  0.7546771E-02  0.1193212E+00
         21   -1    0    0  501  502  0.00000000000E+00  0.00000000000E+00  0.27403801994E+02  0.27403801994E+02  0.00000000000E+00 0. -1.
          1   -1    0    0  502    0 -0.00000000000E+00 -0.00000000000E+00 -0.12926407731E+04  0.12926407731E+04  0.00000000000E+00 0. -1.
         23    2    1    2    0    0 -0.66714710513E+02  0.11946891069E+03 -0.67023053603E+03  0.69024758315E+03  0.92244682181E+02 0.  0.
         23    2    1    2    0    0  0.95670677621E+02 -0.70862251186E+02 -0.43735188289E+03  0.46229769880E+03  0.90929399259E+02 0.  0.
        -11    1    4    4    0    0  0.79308606679E+02 -0.14914178421E+02 -0.33429503822E+03  0.34389745621E+03  0.00000000000E+00 0.  1.
         11    1    4    4    0    0  0.16362070942E+02 -0.55948072765E+02 -0.10305684467E+03  0.11840024259E+03  0.00000000000E+00 0. -1.
        -13    1    3    3    0    0 -0.87700870836E+02  0.73267375571E+02 -0.46324758938E+03  0.47713507535E+03  0.00000000000E+00 0. -1.
         13    1    3    3    0    0  0.20986160323E+02  0.46201535116E+02 -0.20698294666E+03  0.21311250780E+03  0.00000000000E+00 0.  1.
          1    1    1    2  501    0 -0.28955967109E+02 -0.48606659501E+02 -0.15765455213E+03  0.16749929309E+03  0.00000000000E+00 0. -1.
<scales pt_clust_5="13000.00000" pt_clust_6="13000.00000" pt_clust_7="13000.00000" pt_clust_8="13000.00000" pt_clust_9="56.57787"></scales>
<clustering>
<clus scale="   56.578">  1  9  2 -1</clus>
<clus scale="   90.929">  5  6 -1 -1</clus>
<clus scale="   92.245">  7  8 -1 -1</clus>
<clus scale="  155.486">  1  5  2 -1</clus>
<clus scale="   56.578">  1  5  2 -1</clus>
</clustering>
</event>
<event>
 9    1  0.1881049E-005  0.2059697E+03  0.7546771E-02  0.1177541E+00
         21   -1    0    0  501  502  0.00000000000E+00  0.00000000000E+00  0.27574352720E+03  0.27574352720E+03  0.00000000000E+00 0. -1.
          2   -1    0    0  502    0 -0.00000000000E+00 -0.00000000000E+00 -0.49970762978E+03  0.49970762978E+03  0.00000000000E+00 0. -1.
         23    2    1    2    0    0  0.27630526517E+02  0.19914873953E+02  0.13784618822E+02  0.97231275439E+02  0.90021425268E+02 0.  0.
         23    2    1    2    0    0 -0.76906427584E+02 -0.19524641107E+03 -0.38241357358E+03  0.44563187284E+03  0.91169431221E+02 0.  0.
        -11    1    4    4    0    0 -0.97890505493E+02 -0.16249764738E+03 -0.31019788559E+03  0.36360798217E+03  0.00000000000E+00 0. -1.
         11    1    4    4    0    0  0.20984077908E+02 -0.32748763691E+02 -0.72215687987E+02  0.82023890669E+02  0.00000000000E+00 0.  1.
        -11    1    3    3    0    0 -0.18090466318E+01 -0.34252987764E+02  0.12781050249E+01  0.34324530193E+02  0.00000000000E+00 0.  1.
         11    1    3    3    0    0  0.29439573149E+02  0.54167861717E+02  0.12506513797E+02  0.62906745247E+02  0.00000000000E+00 0. -1.
          2    1    1    2  501    0  0.49275901068E+02  0.17533153712E+03  0.14466485218E+03  0.23258800870E+03  0.00000000000E+00 0. -1.
<scales pt_clust_5="13000.00000" pt_clust_6="13000.00000" pt_clust_7="13000.00000" pt_clust_8="13000.00000" pt_clust_9="184.69344"></scales>
<clustering>
<clus scale="   90.021">  7  8 -1 -1</clus>
<clus scale="   91.169">  5  6 -1 -1</clus>
<clus scale="   96.249">  2  7  1 -1</clus>
<clus scale="  184.693">  1  9  2 -1</clus>
<clus scale="  184.693">  1  5  2 -1</clus>
</clustering>
</event>
<event>
 9    1  0.1881049E-005  0.1357127E+03  0.7546771E-02  0.1222951E+00
         -1   -1    0    0    0  501 -0.00000000000E+00  0.00000000000E+00  0.17615209059E+03  0.17615209059E+03  0.00000000000E+00 0.  1.
         21   -1    0    0  501  502  0.00000000000E+00 -0.00000000000E+00 -0.18557436057E+03  0.18557436057E+03  0.00000000000E+00 0. -1.
         23    2    1    2    0    0 -0.42092563974E+02 -0.51455808777E+02  0.34241025952E+02  0.13330211843E+03  0.11035181340E+03 0.  0.
         23    2    1    2    0    0  0.56360615447E+02  0.72050323927E+02  0.41226256759E+02  0.13991474284E+03  0.97512885641E+02 0.  0.
        -11    1    3    3    0    0 -0.52769155938E+02  0.97989478821E+01 -0.12988310824E+02  0.55220461933E+02  0.00000000000E+00 0. -1.
         11    1    3    3    0    0  0.10676591964E+02 -0.61254756659E+02  0.47229336776E+02  0.78081656499E+02  0.00000000000E+00 0.  1.
        -11    1    4    4    0    0  0.17459334120E+02  0.83196581503E+02  0.42760051272E+01  0.85116295394E+02  0.00000000000E+00 0. -1.
         11    1    4    4    0    0  0.38901281327E+02 -0.11146257576E+02  0.36950251632E+02  0.54798447446E+02  0.00000000000E+00 0.  1.
         -1    1    1    2    0  502 -0.14268051473E+02 -0.20594515150E+02 -0.84889552688E+02  0.88509589891E+02  0.00000000000E+00 0.  1.
<scales pt_clust_5="13000.00000" pt_clust_6="13000.00000" pt_clust_7="13000.00000" pt_clust_8="13000.00000" pt_clust_9="25.05417"></scales>
<clustering>
<clus scale="   25.054">  2  9  1 -1</clus>
<clus scale="   97.513">  7  8 -1 -1</clus>
<clus scale="  110.352">  5  6 -1 -1</clus>
<clus scale="  125.496">  2  7  1 -1</clus>
<clus scale="   25.054">  2  5  1 -1</clus>
</clustering>
</event>
<event>
 9    1  0.1881049E-005  0.1033324E+03  0.7546771E-02  0.1277124E+00
         -4   -1    0    0    0  501 -0.00000000000E+00  0.00000000000E+00  0.70624370755E+03  0.70624370755E+03  0.00000000000E+00 0.  1.
         21   -1    0    0  501  502  0.00000000000E+00 -0.00000000000E+00 -0.29123561303E+02  0.29123561303E+02  0.00000000000E+00 0.  1.
         23    2    1    2    0    0 -0.42089077595E+02  0.32880601073E+02  0.42329117767E+03  0.43536442111E+03  0.86684102896E+02 0.  0.
         23    2    1    2    0    0  0.14499099266E+02 -0.20729862012E+02  0.25141468317E+03  0.26975923457E+03  0.94449725599E+02 0.  0.
        -11    1    4    4    0    0  0.36674434147E+02 -0.49279311005E+02  0.14980219658E+03  0.16190788342E+03  0.00000000000E+00 0.  1.
         11    1    4    4    0    0 -0.22175334880E+02  0.28549448993E+02  0.10161248659E+03  0.10785135115E+03  0.00000000000E+00 0. -1.
        -11    1    3    3    0    0 -0.66565921964E+02  0.14330984561E+02  0.23813904998E+03  0.24768247054E+03  0.00000000000E+00 0.  1.
         11    1    3    3    0    0  0.24476844368E+02  0.18549616512E+02  0.18515212769E+03  0.18768195057E+03  0.00000000000E+00 0. -1.
         -4    1    1    2    0  502  0.27589978329E+02 -0.12150739061E+02  0.24142854130E+01  0.30243613177E+02  0.00000000000E+00 0.  1.
<scales pt_clust_5="13000.00000" pt_clust_6="13000.00000" pt_clust_7="13000.00000" pt_clust_8="13000.00000" pt_clust_9="30.14710"></scales>
<clustering>
<clus scale="   30.147">  2  9  1 -1</clus>
<clus scale="   86.684">  7  8 -1 -1</clus>
<clus scale="   94.450">  5  6 -1 -1</clus>
<clus scale="   96.286">  1  7  2 -1</clus>
<clus scale="   30.147">  2  5  1 -1</clus>
</clustering>
</event>
<event>
 9    1  0.1881049E-005  0.1294019E+03  0.7546771E-02  0.1228623E+00
         -2   -1    0    0    0  501 -0.00000000000E+00  0.00000000000E+00  0.61159291488E+02  0.61159291488E+02  0.00000000000E+00 0.  1.
         21   -1    0    0  501  502  0.00000000000E+00 -0.00000000000E+00 -0.59210522733E+03  0.59210522733E+03  0.00000000000E+00 0. -1.
         23    2    1    2    0    0 -0.61229070404E+02 -0.40272698897E+02 -0.83089474194E+02  0.14424696030E+03  0.92371183245E+02 0.  0.
         23    2    1    2    0    0  0.83827172330E+02  0.10493487711E+03 -0.23698508247E+03  0.28730014816E+03  0.91329746329E+02 0.  0.
        -11    1    3    3    0    0 -0.46911300773E+02 -0.67951068780E+02 -0.41889436774E+02  0.92589107360E+02  0.00000000000E+00 0. -1.
         11    1    3    3    0    0 -0.14317769631E+02  0.27678369883E+02 -0.41200037421E+02  0.51657852937E+02  0.00000000000E+00 0.  1.
        -13    1    4    4    0    0 -0.53941742045E+01  0.30353472823E+02 -0.11377953228E+03  0.11788219711E+03  0.00000000000E+00 0. -1.
         13    1    4    4    0    0  0.89221346534E+02  0.74581404285E+02 -0.12320555019E+03  0.16941795106E+03  0.00000000000E+00 0.  1.
         -2    1    1    2    0  502 -0.22598101925E+02 -0.64662178211E+02 -0.21087137917E+03  0.22171741036E+03  0.00000000000E+00 0.  1.
<scales pt_clust_5="13000.00000" pt_clust_6="13000.00000" pt_clust_7="13000.00000" pt_clust_8="13000.00000" pt_clust_9="68.49724"></scales>
<clustering>
<clus scale="   68.497">  2  9  1 -1</clus>
<clus scale="   91.330">  7  8 -1 -1</clus>
<clus scale="   92.371">  5  6 -1 -1</clus>
<clus scale="  128.661">  2  7  1 -1</clus>
<clus scale="   68.497">  2  5  1 -1</clus>
</clustering>
</event>
<event>
 9    1  0.1881049E-005  0.1661948E+03  0.7546771E-02  0.1197061E+00
         21   -1    0    0  501  502  0.00000000000E+00  0.00000000000E+00  0.21613430043E+03  0.21613430043E+03  0.00000000000E+00 0. -1.
          1   -1    0    0  502    0 -0.00000000000E+00 -0.00000000000E+00 -0.57306154891E+03  0.57306154891E+03  0.00000000000E+00 0. -1.
         23    2    1    2    0    0  0.54991615756E+02  0.50276914052E+02 -0.29519969382E+03  0.31820245708E+03  0.92509991718E+02 0.  0.
         23    2    1    2    0    0  0.79099737985E+02  0.13472553957E+02 -0.22227480491E+03  0.25231576337E+03  0.88424415672E+02 0.  0.
        -13    1    4    4    0    0 -0.60554122206E+01  0.30703648902E+02 -0.75898370102E+02  0.82097165951E+02  0.00000000000E+00 0.  1.
         13    1    4    4    0    0  0.85155150206E+02 -0.17231094945E+02 -0.14637643481E+03  0.17021859742E+03  0.00000000000E+00 0. -1.
        -13    1    3    3    0    0  0.12789186918E+02 -0.27479217453E+02 -0.76609610592E+02  0.82387518040E+02  0.00000000000E+00 0.  1.
         13    1    3    3    0    0  0.42202428839E+02  0.77756131505E+02 -0.21859008323E+03  0.23581493904E+03  0.00000000000E+00 0. -1.
          1    1    1    2  501    0 -0.13409135374E+03 -0.63749468009E+02  0.16054725025E+03  0.21867762890E+03  0.00000000000E+00 0. -1.
<scales pt_clust_5="13000.00000" pt_clust_6="13000.00000" pt_clust_7="13000.00000" pt_clust_8="13000.00000" pt_clust_9="140.71898"></scales>
<clustering>
<clus scale="   88.424">  5  6 -1 -1</clus>
<clus scale="   92.510">  7  8 -1 -1</clus>
<clus scale="  118.785">  2  7  1 -1</clus>
<clus scale="  140.719">  1  9  2 -1</clus>
<clus scale="  140.719">  1  5  2 -1</clus>
</clustering>
</event>
<event>
 9    1  0.1881049E-005  0.1846235E+03  0.7546771E-02  0.1191730E+00
         21   -1    0    0  501  502  0.00000000000E+00  0.00000000000E+00  0.32423254245E+03  0.32423254245E+03  0.00000000000E+00 0. -1.
          3   -1    0    0  502    0 -0.00000000000E+00 -0.00000000000E+00 -0.68575452262E+03  0.68575452262E+03  0.00000000000E+00 0. -1.
         23    2    1    2    0    0 -0.11463735847E+02  0.33393184818E+02 -0.75894038501E+02  0.12347149104E+03  0.90767736496E+02 0.  0.
         23    2    1    2    0    0 -0.12791600066E+03 -0.11295040623E+03 -0.54680716543E+03  0.57996924907E+03  0.90807247555E+02 0.  0.
        -11    1    3    3    0    0 -0.51436553697E+02  0.20744377650E+02 -0.42663486140E+02  0.69973004151E+02  0.00000000000E+00 0. -1.
         11    1    3    3    0    0  0.39972817849E+02  0.12648807169E+02 -0.33230552361E+02  0.53498486893E+02  0.00000000000E+00 0.  1.
        -13    1    4    4    0    0 -0.13496459068E+03 -0.81162258038E+02 -0.40669039903E+03  0.43611905890E+03  0.00000000000E+00 0. -1.
         13    1    4    4    0    0  0.70485900258E+01 -0.31788148197E+02 -0.14011676639E+03  0.14385019017E+03  0.00000000000E+00 0.  1.
          3    1    1    2  501    0  0.13937973650E+03  0.79557221416E+02  0.26117922375E+03  0.30654632496E+03  0.00000000000E+00 0. -1.
<scales pt_clust_5="13000.00000" pt_clust_6="13000.00000" pt_clust_7="13000.00000" pt_clust_8="13000.00000" pt_clust_9="160.74792"></scales>
<clustering>
<clus scale="   90.768">  5  6 -1 -1</clus>
<clus scale="   90.807">  7  8 -1 -1</clus>
<clus scale="   97.393">  2  5  1 -1</clus>
<clus scale="  160.748">  1  9  2 -1</clus>
<clus scale="  160.748">  1  5  2 -1</clus>
</clustering>
</event>
<event>
 9    1  0.1881049E-005  0.1221254E+03  0.7546771E-02  0.1240547E+00
         -1   -1    0    0    0  501 -0.00000000000E+00  0.00000000000E+00  0.61487183149E+03  0.61487183149E+03  0.00000000000E+00 0.  1.
         21   -1    0    0  501  502  0.00000000000E+00 -0.00000000000E+00 -0.36593538271E+02  0.36593538271E+02  0.00000000000E+00 0. -1.
         23    2    1    2    0    0  0.21812949722E+02  0.73621540022E+02  0.35088664472E+03  0.36984632287E+03  0.88141529193E+02 0.  0.
         23    2    1    2    0    0 -0.13919320604E+02 -0.93023256551E+02  0.13991025562E+03  0.19166500259E+03  0.91178505396E+02 0.  0.
        -13    1    4    4    0    0  0.29405313589E+02 -0.17761190875E+02  0.10694818934E+02  0.35979320736E+02  0.00000000000E+00 0. -1.
         13    1    4    4    0    0 -0.43324634193E+02 -0.75262065676E+02  0.12921543668E+03  0.15568568185E+03  0.00000000000E+00 0.  1.
        -13    1    3    3    0    0 -0.16297176039E+02 -0.12566543387E+02  0.93824696907E+02  0.96055138901E+02  0.00000000000E+00 0.  1.
         13    1    3    3    0    0  0.38110125761E+02  0.86188083409E+02  0.25706194781E+03  0.27379118397E+03  0.00000000000E+00 0. -1.
         -1    1    1    2    0  502 -0.78936291180E+01  0.19401716529E+02  0.87481392888E+02  0.89954044304E+02  0.00000000000E+00 0.  1.
<scales pt_clust_5="13000.00000" pt_clust_6="13000.00000" pt_clust_7="13000.00000" pt_clust_8="13000.00000" pt_clust_9="20.94604"></scales>
<clustering>
<clus scale="   20.946">  2  9  1 -1</clus>
<clus scale="   88.142">  7  8 -1 -1</clus>
<clus scale="   91.179">  5  6 -1 -1</clus>
<clus scale="  119.875">  1  7  2 -1</clus>
<clus scale="   20.946">  2  5  1 -1</clus>
</clustering>
</event>
<event>
 9    1  0.1881049E-005  0.1397319E+03  0.7546771E-02  0.1220441E+00
         21   -1    0    0  501  502  0.00000000000E+00  0.00000000000E+00  0.17987634278E+03  0.17987634278E+03  0.00000000000E+00 0.  1.
         -3   -1    0    0    0  501 -0.00000000000E+00 -0.00000000000E+00 -0.28304394868E+03  0.28304394868E+03  0.00000000000E+00 0.  1.
         23    2    1    2    0    0 -0.59210935013E+02  0.24223382434E+02 -0.11801544598E+03  0.17649200250E+03  0.11458217303E+03 0.  0.
         23    2    1    2    0    0  0.98016475826E+02 -0.18218322970E+02 -0.98075421950E+02  0.16687247001E+03  0.91041177669E+02 0.  0.
        -13    1    4    4    0    0  0.14029361185E+02  0.24024195971E+02 -0.58677809377E+02  0.64938973510E+02  0.00000000000E+00 0.  1.
         13    1    4    4    0    0  0.83987114641E+02 -0.42242518941E+02 -0.39397612573E+02  0.10193349650E+03  0.00000000000E+00 0. -1.
        -13    1    3    3    0    0 -0.22056854822E+02 -0.43674974531E+02 -0.23354927436E+02  0.54216795188E+02  0.00000000000E+00 0. -1.
         13    1    3    3    0    0 -0.37154080191E+02  0.67898356964E+02 -0.94660518542E+02  0.12227520731E+03  0.00000000000E+00 0.  1.
         -3    1    1    2    0  502 -0.38805540812E+02 -0.60050594631E+01  0.11292326203E+03  0.11955581895E+03  0.00000000000E+00 0.  1.
<scales pt_clust_5="13000.00000" pt_clust_6="13000.00000" pt_clust_7="13000.00000" pt_clust_8="13000.00000" pt_clust_9="39.26743"></scales>
<clustering>
<clus scale="   39.267">  1  9  2 -1</clus>
<clus scale="   91.041">  5  6 -1 -1</clus>
<clus scale="  114.582">  7  8 -1 -1</clus>
<clus scale="  121.179">  1  5  2 -1</clus>
<clus scale="   39.267">  1  5  2 -1</clus>
</clustering>
</event>
<event>
 9    1  0.1881049E-005  0.9761996E+02  0.7546771E-02  0.1288025E+00
         21   -1    0    0  501  502  0.00000000000E+00  0.00000000000E+00  0.13147365949E+03  0.13147365949E+03  0.00000000000E+00 0. -1.
         -3   -1    0    0    0  501 -0.00000000000E+00 -0.00000000000E+00 -0.16074680693E+03  0.16074680693E+03  0.00000000000E+00 0.  1.
         23    2    1    2    0    0  0.22315360906E+02 -0.22502728595E+02 -0.10781874599E+03  0.14529643761E+03  0.92096822246E+02 0.  0.
         23    2    1    2    0    0 -0.70615751384E+01  0.40101811705E+02  0.45090867595E+02  0.10616099740E+03  0.87057164456E+02 0.  0.
        -11    1    3    3    0    0 -0.21305274331E+02  0.23018797896E+02 -0.53786048702E+02  0.62263302241E+02  0.00000000000E+00 0. -1.
         11    1    3    3    0    0  0.43620635237E+02 -0.45521526491E+02 -0.54032697290E+02  0.83033135368E+02  0.00000000000E+00 0.  1.
        -11    1    4    4    0    0  0.26693064798E+02  0.17057829997E+02 -0.13737820560E+02  0.34528495279E+02  0.00000000000E+00 0.  1.
         11    1    4    4    0    0 -0.33754639936E+02  0.23043981708E+02  0.58828688155E+02  0.71632502121E+02  0.00000000000E+00 0. -1.
         -3    1    1    2    0  502 -0.15253785768E+02 -0.17599083110E+02  0.33454730952E+02  0.40763031409E+02  0.00000000000E+00 0.  1.
<scales pt_clust_5="13000.00000" pt_clust_6="13000.00000" pt_clust_7="13000.00000" pt_clust_8="13000.00000" pt_clust_9="23.28961"></scales>
<clustering>
<clus scale="   23.290">  1  9  2 -1</clus>
<clus scale="   87.057">  7  8 -1 -1</clus>
<clus scale="   92.097">  5  6 -1 -1</clus>
<clus scale="   92.880">  1  7  2 -1</clus>
<clus scale="   23.290">  1  5  2 -1</clus>
</clustering>
</event>
<event>
 9    1  0.1881049E-005  0.1062245E+03  0.7546771E-02  0.1267774E+00
         21   -1    0    0  501  502  0.00000000000E+00  0.00000000000E+00  0.36669090551E+03  0.36669090551E+03  0.00000000000E+00 0.  1.
         -2   -1    0    0    0  501 -0.00000000000E+00 -0.00000000000E+00 -0.10160704060E+03  0.10160704060E+03  0.00000000000E+00 0.  1.
         23    2    1    2    0    0 -0.17157321494E+02  0.30819680830E+02  0.52150086016E+01  0.98563393997E+02  0.91887539494E+02 0.  0.
         23    2    1    2    0    0 -0.13381982085E+02 -0.87504564265E+02  0.29961140298E+02  0.13098073968E+03  0.91772316240E+02 0.  0.
        -11    1    3    3    0    0 -0.41946811681E+02 -0.12754443349E+02  0.17069717038E+02  0.47048762737E+02  0.00000000000E+00 0.  1.
         11    1    3    3    0    0  0.24789490187E+02  0.43574124179E+02 -0.11854708436E+02  0.51514631260E+02  0.00000000000E+00 0. -1.
        -13    1    4    4    0    0  0.24577413784E+02 -0.13391787158E+02  0.38144036812E+02  0.47311275357E+02  0.00000000000E+00 0. -1.
         13    1    4    4    0    0 -0.37959395869E+02 -0.74112777107E+02 -0.81828965136E+01  0.83669464326E+02  0.00000000000E+00 0.  1.
         -2    1    1    2    0  502  0.30539303579E+02  0.56684883435E+02  0.22990771601E+03  0.23875381244E+03  0.00000000000E+00 0.  1.
<scales pt_clust_5="13000.00000" pt_clust_6="13000.00000" pt_clust_7="13000.00000" pt_clust_8="13000.00000" pt_clust_9="64.38808"></scales>
<clustering>
<clus scale="   64.388">  1  9  2 -1</clus>
<clus scale="   91.772">  7  8 -1 -1</clus>
<clus scale="   91.888">  5  6 -1 -1</clus>
<clus scale="  106.125">  1  7  2 -1</clus>
<clus scale="   64.388">  1  5  2 -1</clus>
</clustering>
</event>
<event>
 9    1  0.1881049E-005  0.1060230E+03  0.7546771E-02  0.1269111E+00
         -1   -1    0    0    0  501 -0.00000000000E+00  0.00000000000E+00  0.28023998011E+03  0.28023998011E+03  0.00000000000E+00 0.  1.
         21   -1    0    0  501  502  0.00000000000E+00 -0.00000000000E+00 -0.19946063053E+03  0.19946063053E+03  0.00000000000E+00 0.  1.
         23    2    1    2    0    0  0.22840182632E+02  0.19904195709E+02  0.82508596647E+02  0.12698485115E+03  0.91649511461E+02 0.  0.
         23    2    1    2    0    0  0.17860573210E+01 -0.85294830295E+02  0.14483748683E+03  0.19034521330E+03  0.89302881023E+02 0.  0.
        -11    1    4    4    0    0  0.36356232874E+02 -0.68521357284E+02  0.12497439816E+03  0.14709028611E+03  0.00000000000E+00 0.  1.
         11    1    4    4    0    0 -0.34570175553E+02 -0.16773473011E+02  0.19863088671E+02  0.43254927189E+02  0.00000000000E+00 0. -1.
        -13    1    3    3    0    0 -0.22434192401E+02  0.23463641918E+02  0.73963319868E+02  0.80773808668E+02  0.00000000000E+00 0.  1.
         13    1    3    3    0    0  0.45274375033E+02 -0.35594462089E+01  0.85452767794E+01  0.46211042481E+02  0.00000000000E+00 0. -1.
         -1    1    1    2    0  502 -0.24626239953E+02  0.65390634586E+02 -0.14656673390E+03  0.16237054619E+03  0.00000000000E+00 0.  1.
<scales pt_clust_5="13000.00000" pt_clust_6="13000.00000" pt_clust_7="13000.00000" pt_clust_8="13000.00000" pt_clust_9="69.87408"></scales>
<clustering>
<clus scale="   69.874">  2  9  1 -1</clus>
<clus scale="   89.303">  5  6 -1 -1</clus>
<clus scale="   91.650">  7  8 -1 -1</clus>
<clus scale="  104.001">  2  5  1 -1</clus>
<clus scale="   69.874">  2  5  1 -1</clus>
</clustering>
</event>
<event>
 9    1  0.1881049E-005  0.6118668E+03  0.7546771E-02  0.9881299E-01
         21   -1    0    0  501  502  0.00000000000E+00  0.00000000000E+00  0.12360785734E+04  0.12360785734E+04  0.00000000000E+00 0. -1.
          3   -1    0    0  502    0 -0.00000000000E+00 -0.00000000000E+00 -0.56073708023E+03  0.56073708023E+03  0.00000000000E+00 0. -1.
         23    2    1    2    0    0 -0.42536240482E+03  0.40910947837E+03 -0.18339584724E+03  0.62519434586E+03  0.94499696185E+02 0.  0.
         23    2    1    2    0    0  0.47206630122E+03 -0.47271890787E+03  0.85980571454E+03  0.10927001136E+04  0.91749184827E+02 0.  0.
        -11    1    3    3    0    0 -0.56637492027E+02  0.10148542344E+03 -0.52142472602E+02  0.12738105873E+03  0.00000000000E+00 0.  1.
         11    1    3    3    0    0 -0.36872491279E+03  0.30762405493E+03 -0.13125337463E+03  0.49781328712E+03  0.00000000000E+00 0. -1.
        -11    1    4    4    0    0  0.42517107106E+03 -0.41160057518E+03  0.71023476837E+03  0.92445600185E+03  0.00000000000E+00 0.  1.
         11    1    4    4    0    0  0.46895230158E+02 -0.61118332690E+02  0.14957094617E+03  0.16824411176E+03  0.00000000000E+00 0. -1.
          3    1    1    2  501    0 -0.46703896395E+02  0.63609429498E+02 -0.10683741676E+01  0.78921194130E+02  0.00000000000E+00 0. -1.
<scales pt_clust_5="13000.00000" pt_clust_6="13000.00000" pt_clust_7="13000.00000" pt_clust_8="13000.00000" pt_clust_9="78.91400"></scales>
<clustering>
<clus scale="   78.914">  1  9  2 -1</clus>
<clus scale="   91.749">  7  8 -1 -1</clus>
<clus scale="   94.500">  5  6 -1 -1</clus>
<clus scale="  611.448">  1  7  2 -1</clus>
<clus scale="   78.914">  1  5  2 -1</clus>
</clustering>
</event>
<event>
 9    1  0.1881049E-005  0.1534351E+03  0.7546771E-02  0.1196473E+00
         21   -1    0    0  501  502  0.00000000000E+00  0.00000000000E+00  0.12320356432E+03  0.12320356432E+03  0.00000000000E+00 0. -1.
          1   -1    0    0  502    0 -0.00000000000E+00 -0.00000000000E+00 -0.26924487655E+03  0.26924487655E+03  0.00000000000E+00 0. -1.
         23    2    1    2    0    0 -0.13247643045E+03 -0.29253132581E+01 -0.13365937329E+03  0.20928292440E+03  0.91520228886E+02 0.  0.
         23    2    1    2    0    0  0.10642608332E+03 -0.21064574393E+02 -0.26657907112E+02  0.14498255480E+03  0.92407086745E+02 0.  0.
        -11    1    3    3    0    0 -0.75678557805E+02  0.38703167678E+02 -0.99962725722E+02  0.13121633219E+03  0.00000000000E+00 0.  1.
         11    1    3    3    0    0 -0.56797872645E+02 -0.41628480936E+02 -0.33696647565E+02  0.78066592209E+02  0.00000000000E+00 0. -1.
        -13    1    4    4    0    0  0.98766297095E+01 -0.36344602633E+02 -0.28473507951E+02  0.47214601661E+02  0.00000000000E+00 0. -1.
         13    1    4    4    0    0  0.96549453610E+02  0.15280028239E+02  0.18156008394E+01  0.97767953143E+02  0.00000000000E+00 0.  1.
          1    1    1    2  501    0  0.26050347130E+02  0.23989887651E+02  0.14275968169E+02  0.38182961675E+02  0.00000000000E+00 0. -1.
<scales pt_clust_5="13000.00000" pt_clust_6="13000.00000" pt_clust_7="13000.00000" pt_clust_8="13000.00000" pt_clust_9="35.41377"></scales>
<clustering>
<clus scale="   35.414">  1  9  2 -1</clus>
<clus scale="   91.520">  5  6 -1 -1</clus>
<clus scale="   92.407">  7  8 -1 -1</clus>
<clus scale="  152.903">  2  5  1 -1</clus>
<clus scale="   35.414">  1  5  2 -1</clus>
</clustering>
</event>
<event>
 9    1  0.1881049E-005  0.9791459E+02  0.7546771E-02  0.1285046E+00
          1   -1    0    0  502    0 -0.00000000000E+00  0.00000000000E+00  0.66920916330E+03  0.66920916330E+03  0.00000000000E+00 0. -1.
         21   -1    0    0  501  502  0.00000000000E+00 -0.00000000000E+00 -0.48787733442E+02  0.48787733442E+02  0.00000000000E+00 0.  1.
         23    2    1    2    0    0  0.27018819706E+02  0.13035878991E+02  0.51062894722E+03  0.51967900316E+03  0.91784496659E+02 0.  0.
         23    2    1    2    0    0 -0.71181490267E+02 -0.21840536548E+01  0.58108532904E+02  0.12947507083E+03  0.91190008901E+02 0.  0.
        -13    1    3    3    0    0  0.61287421909E+02  0.78598122931E+01  0.31474755001E+03  0.32075527271E+03  0.00000000000E+00 0. -1.
         13    1    3    3    0    0 -0.34268602203E+02  0.51760666979E+01  0.19588139721E+03  0.19892373045E+03  0.00000000000E+00 0.  1.
        -13    1    4    4    0    0 -0.32558209336E+02 -0.46316525324E+02  0.22897766808E+02  0.61070166514E+02  0.00000000000E+00 0.  1.
         13    1    4    4    0    0 -0.38623280931E+02  0.44132471669E+02  0.35210766096E+02  0.68404904317E+02  0.00000000000E+00 0. -1.
          1    1    1    2  501    0  0.44162670561E+02 -0.10851825336E+02  0.51683949733E+02  0.68842822750E+02  0.00000000000E+00 0. -1.
<scales pt_clust_5="13000.00000" pt_clust_6="13000.00000" pt_clust_7="13000.00000" pt_clust_8="13000.00000" pt_clust_9="45.47641"></scales>
<clustering>
<clus scale="   45.476">  2  9  1 -1</clus>
<clus scale="   91.190">  7  8 -1 -1</clus>
<clus scale="   91.784">  5  6 -1 -1</clus>
<clus scale="   97.358">  2  7  1 -1</clus>
<clus scale="   45.476">  2  5  1 -1</clus>
</clustering>
</event>
<event>
 9    1  0.1881049E-005  0.1092444E+03  0.7546771E-02  0.1263733E+00
         21   -1    0    0  501  502  0.00000000000E+00  0.00000000000E+00  0.10581518156E+03  0.10581518156E+03  0.00000000000E+00 0. -1.
          2   -1    0    0  502    0 -0.00000000000E+00 -0.00000000000E+00 -0.15526274622E+03  0.15526274622E+03  0.00000000000E+00 0. -1.
         23    2    1    2    0    0 -0.41135832113E+02  0.51764978410E+02 -0.69301527560E+02  0.13254237088E+03  0.91613365201E+02 0.  0.
         23    2    1    2    0    0  0.17252456094E+02 -0.47001244506E+02  0.64539876802E+01  0.10073864796E+03  0.87177158755E+02 0.  0.
        -13    1    3    3    0    0 -0.37922425115E+02  0.15134286669E+02  0.12628284909E+02  0.42739098485E+02  0.00000000000E+00 0.  1.
         13    1    3    3    0    0 -0.32134069977E+01  0.36630691742E+02 -0.81929812469E+02  0.89803272397E+02  0.00000000000E+00 0. -1.
        -13    1    4    4    0    0 -0.34701187364E+02 -0.17224528981E+02 -0.69894407177E+01  0.39366344568E+02  0.00000000000E+00 0. -1.
         13    1    4    4    0    0  0.51953643458E+02 -0.29776715525E+02  0.13443428398E+02  0.61372303388E+02  0.00000000000E+00 0.  1.
          2    1    1    2  501    0  0.23883376019E+02 -0.47637339040E+01  0.13399975225E+02  0.27796908944E+02  0.00000000000E+00 0. -1.
<scales pt_clust_5="13000.00000" pt_clust_6="13000.00000" pt_clust_7="13000.00000" pt_clust_8="13000.00000" pt_clust_9="24.35383"></scales>
<clustering>
<clus scale="   24.354">  1  9  2 -1</clus>
<clus scale="   87.177">  7  8 -1 -1</clus>
<clus scale="   91.613">  5  6 -1 -1</clus>
<clus scale="  105.552">  1  7  2 -1</clus>
<clus scale="   24.354">  1  5  2 -1</clus>
</clustering>
</event>
<event>
 9    1  0.1881049E-005  0.1002961E+03  0.7546771E-02  0.1282011E+00
          2   -1    0    0  502    0 -0.00000000000E+00  0.00000000000E+00  0.46908149864E+02  0.46908149864E+02  0.00000000000E+00 0. -1.
         21   -1    0    0  501  502  0.00000000000E+00 -0.00000000000E+00 -0.43114186990E+03  0.43114186990E+03  0.00000000000E+00 0.  1.
         23    2    1    2    0    0  0.15494615505E+02 -0.13815025396E+02 -0.71446495371E+02  0.11844731535E+03  0.92164129550E+02 0.  0.
         23    2    1    2    0    0 -0.49562065427E+02 -0.37061136707E+02 -0.18180633874E+03  0.21501720206E+03  0.96689845343E+02 0.  0.
        -11    1    4    4    0    0  0.16837795215E+02 -0.26264604808E+02 -0.11886681590E+03  0.12289288318E+03  0.00000000000E+00 0.  1.
         11    1    4    4    0    0 -0.66399860642E+02 -0.10796531898E+02 -0.62939522840E+02  0.92124318883E+02  0.00000000000E+00 0. -1.
        -11    1    3    3    0    0  0.35088303699E+02 -0.24449946701E+02 -0.82975851177E+02  0.93348705554E+02  0.00000000000E+00 0.  1.
         11    1    3    3    0    0 -0.19593688194E+02  0.10634921305E+02  0.11529355806E+02  0.25098609792E+02  0.00000000000E+00 0. -1.
          2    1    1    2  501    0  0.34067449922E+02  0.50876162102E+02 -0.13098088592E+03  0.14458550236E+03  0.00000000000E+00 0. -1.
<scales pt_clust_5="13000.00000" pt_clust_6="13000.00000" pt_clust_7="13000.00000" pt_clust_8="13000.00000" pt_clust_9="61.22887"></scales>
<clustering>
<clus scale="   61.229">  2  9  1 -1</clus>
<clus scale="   92.164">  7  8 -1 -1</clus>
<clus scale="   95.941">  1  7  2 -1</clus>
<clus scale="   96.690">  5  6 -1 -1</clus>
<clus scale="   61.229">  2  5  1 -1</clus>
</clustering>
</event>
<event>
 9    1  0.1881049E-005  0.1615826E+03  0.7546771E-02  0.1187669E+00
         21   -1    0    0  501  502  0.00000000000E+00  0.00000000000E+00  0.45043307484E+03  0.45043307484E+03  0.00000000000E+00 0. -1.
          2   -1    0    0  502    0 -0.00000000000E+00 -0.00000000000E+00 -0.17707532342E+03  0.17707532342E+03  0.00000000000E+00 0. -1.
         23    2    1    2    0    0  0.12980290159E+02 -0.11888336288E+03 -0.61518120463E+02  0.16252721601E+03  0.91262669774E+02 0.  0.
         23    2    1    2    0    0  0.97587881335E+01  0.17929333052E+03  0.10309742956E+03  0.22438260329E+03  0.86470459500E+02 0.  0.
        -11    1    3    3    0    0  0.29952096574E+02 -0.23268941352E+01 -0.89417045253E+00  0.30055649491E+02  0.00000000000E+00 0.  1.
         11    1    3    3    0    0 -0.16971806416E+02 -0.11655646875E+03 -0.60623950011E+02  0.13247156651E+03  0.00000000000E+00 0. -1.
        -13    1    4    4    0    0  0.34501898318E+02  0.10085283700E+03  0.93103647025E+02  0.14152725818E+03  0.00000000000E+00 0. -1.
         13    1    4    4    0    0 -0.24743110185E+02  0.78440493519E+02  0.99937825348E+01  0.82855345117E+02  0.00000000000E+00 0.  1.
          2    1    1    2  501    0 -0.22739078292E+02 -0.60409967632E+02  0.23177844233E+03  0.24059857896E+03  0.00000000000E+00 0. -1.
<scales pt_clust_5="13000.00000" pt_clust_6="13000.00000" pt_clust_7="13000.00000" pt_clust_8="13000.00000" pt_clust_9="64.54789"></scales>
<clustering>
<clus scale="   64.548">  1  9  2 -1</clus>
<clus scale="   86.470">  7  8 -1 -1</clus>
<clus scale="   91.263">  5  6 -1 -1</clus>
<clus scale="  158.925">  1  7  2 -1</clus>
<clus scale="   64.548">  1  5  2 -1</clus>
</clustering>
</event>
<event>
 9    1  0.1881049E-005  0.1111947E+03  0.7546771E-02  0.1264619E+00
         -2   -1    0    0    0  501 -0.00000000000E+00  0.00000000000E+00  0.51645459929E+03  0.51645459929E+03  0.00000000000E+00 0.  1.
         21   -1    0    0  501  502  0.00000000000E+00 -0.00000000000E+00 -0.26631131680E+02  0.26631131680E+02  0.00000000000E+00 0. -1.
         23    2    1    2    0    0  0.17134306324E+02 -0.36173666742E+02  0.26703203496E+03  0.28533028854E+03  0.92223355217E+02 0.  0.
         23    2    1    2    0    0  0.43793140256E+00  0.26585261987E+02  0.17919587842E+03  0.20978364453E+03  0.10578774377E+03 0.  0.
        -11    1    4    4    0    0  0.31970157581E+02 -0.16075848927E+02  0.13814897230E+03  0.14270831245E+03  0.00000000000E+00 0.  1.
         11    1    4    4    0    0 -0.31532226179E+02  0.42661110914E+02  0.41046906124E+02  0.67075332087E+02  0.00000000000E+00 0. -1.
        -13    1    3    3    0    0 -0.30524265681E+02 -0.39834440139E+02  0.10467795793E+03  0.11608612446E+03  0.00000000000E+00 0.  1.
         13    1    3    3    0    0  0.47658572004E+02  0.36607733970E+01  0.16235407703E+03  0.16924416408E+03  0.00000000000E+00 0. -1.
         -2    1    1    2    0  502 -0.17572237726E+02  0.95884047550E+01  0.43595554228E+02  0.47971797891E+02  0.00000000000E+00 0.  1.
<scales pt_clust_5="13000.00000" pt_clust_6="13000.00000" pt_clust_7="13000.00000" pt_clust_8="13000.00000" pt_clust_9="20.01803"></scales>
<clustering>
<clus scale="   20.018">  2  9  1 -1</clus>
<clus scale="   92.223">  7  8 -1 -1</clus>
<clus scale="   98.379">  1  7  2 -1</clus>
<clus scale="  105.788">  5  6 -1 -1</clus>
<clus scale="   20.018">  2  5  1 -1</clus>
</clustering>
</event>
<event>
 9    1  0.1881049E-005  0.1090874E+03  0.7546771E-02  0.1262308E+00
          1   -1    0    0  502    0 -0.00000000000E+00  0.00000000000E+00  0.32114408444E+03  0.32114408444E+03  0.00000000000E+00 0. -1.
         21   -1    0    0  501  502  0.00000000000E+00 -0.00000000000E+00 -0.71816348873E+02  0.71816348873E+02  0.00000000000E+00 0.  1.
         23    2    1    2    0    0  0.64157795036E+02  0.16230271751E+02  0.19925461130E+03  0.22846519738E+03  0.90079419992E+02 0.  0.
         23    2    1    2    0    0 -0.33458266958E+02 -0.52128686605E+02  0.38887644234E+02  0.11595378790E+03  0.89978755603E+02 0.  0.
        -13    1    3    3    0    0  0.51491631634E+02 -0.28471423430E+02  0.71938195248E+02  0.92936074890E+02  0.00000000000E+00 0.  1.
         13    1    3    3    0    0  0.12666163402E+02  0.44701695182E+02  0.12731641605E+03  0.13552912249E+03  0.00000000000E+00 0. -1.
        -13    1    4    4    0    0  0.12572346511E+02 -0.29699844083E+02 -0.19975417083E+02  0.37936287681E+02  0.00000000000E+00 0.  1.
         13    1    4    4    0    0 -0.46030613469E+02 -0.22428842522E+02  0.58863061317E+02  0.78017500222E+02  0.00000000000E+00 0. -1.
          1    1    1    2  501    0 -0.30699528077E+02  0.35898414854E+02  0.11185480035E+02  0.48541448030E+02  0.00000000000E+00 0. -1.
<scales pt_clust_5="13000.00000" pt_clust_6="13000.00000" pt_clust_7="13000.00000" pt_clust_8="13000.00000" pt_clust_9="47.23513"></scales>
<clustering>
<clus scale="   47.235">  2  9  1 -1</clus>
<clus scale="   89.979">  7  8 -1 -1</clus>
<clus scale="   90.079">  5  6 -1 -1</clus>
<clus scale="  109.004">  2  7  1 -1</clus>
<clus scale="   47.235">  2  5  1 -1</clus>
</clustering>
</event>
<event>
 9    1  0.1881049E-005  0.1077061E+03  0.7546771E-02  0.1266416E+00
          1   -1    0    0  502    0 -0.00000000000E+00  0.00000000000E+00  0.34204370855E+03  0.34204370855E+03  0.00000000000E+00 0. -1.
         21   -1    0    0  501  502  0.00000000000E+00 -0.00000000000E+00 -0.17972220409E+03  0.17972220409E+03  0.00000000000E+00 0. -1.
         23    2    1    2    0    0  0.15085016832E+02  0.60512682373E+02  0.17991135395E+03  0.21084584827E+03  0.90545756332E+02 0.  0.
         23    2    1    2    0    0 -0.76160403172E+02  0.54411735387E+01  0.10397499146E+03  0.15973102877E+03  0.94197607840E+02 0.  0.
        -11    1    3    3    0    0  0.16149335725E+02  0.24958172359E+02  0.24203528138E+01  0.29825652040E+02  0.00000000000E+00 0.  1.
         11    1    3    3    0    0 -0.10643188921E+01  0.35554510014E+02  0.17749100114E+03  0.18102019623E+03  0.00000000000E+00 0. -1.
        -13    1    4    4    0    0 -0.95345945307E+02 -0.10131364012E+02  0.75577539867E+02  0.12208791241E+03  0.00000000000E+00 0.  1.
         13    1    4    4    0    0  0.19185542135E+02  0.15572537551E+02  0.28397451596E+02  0.37643116368E+02  0.00000000000E+00 0. -1.
          1    1    1    2  501    0  0.61075386340E+02 -0.65953855912E+02 -0.12156484096E+03  0.15118903559E+03  0.00000000000E+00 0. -1.
<scales pt_clust_5="13000.00000" pt_clust_6="13000.00000" pt_clust_7="13000.00000" pt_clust_8="13000.00000" pt_clust_9="89.88945"></scales>
<clustering>
<clus scale="   89.889">  2  9  1 -1</clus>
<clus scale="   90.546">  5  6 -1 -1</clus>
<clus scale="   94.198">  7  8 -1 -1</clus>
<clus scale="  104.527">  1  5  2 -1</clus>
<clus scale="   89.889">  2  5  1 -1</clus>
</clustering>
</event>
<event>
 9    1  0.1881049E-005  0.9501814E+02  0.7546771E-02  0.1291688E+00
          2   -1    0    0  502    0 -0.00000000000E+00  0.00000000000E+00  0.30362475229E+03  0.30362475229E+03  0.00000000000E+00 0. -1.
         21   -1    0    0  501  502  0.00000000000E+00 -0.00000000000E+00 -0.11780983203E+03  0.11780983203E+03  0.00000000000E+00 0. -1.
         23    2    1    2    0    0  0.47087903621E+01  0.22111356411E+02  0.25709759003E+03  0.27401973864E+03  0.92068244124E+02 0.  0.
         23    2    1    2    0    0 -0.27694743131E+02 -0.24411312779E+02 -0.34813002175E+02  0.10424447993E+03  0.91060724177E+02 0.  0.
        -11    1    3    3    0    0  0.38359550336E+02  0.41053395166E+02  0.15318790694E+03  0.16316669755E+03  0.00000000000E+00 0. -1.
         11    1    3    3    0    0 -0.33650759974E+02 -0.18942038755E+02  0.10390968309E+03  0.11085304109E+03  0.00000000000E+00 0.  1.
        -13    1    4    4    0    0 -0.35922522676E+02 -0.47299076059E+02  0.27922163262E+01  0.59459454282E+02  0.00000000000E+00 0. -1.
         13    1    4    4    0    0  0.82277795444E+01  0.22887763280E+02 -0.37605218502E+02  0.44785025653E+02  0.00000000000E+00 0.  1.
          2    1    1    2  501    0  0.22985952769E+02  0.22999563686E+01 -0.36469667599E+02  0.43170365748E+02  0.00000000000E+00 0. -1.
<scales pt_clust_5="13000.00000" pt_clust_6="13000.00000" pt_clust_7="13000.00000" pt_clust_8="13000.00000" pt_clust_9="23.10073"></scales>
<clustering>
<clus scale="   23.101">  2  9  1 -1</clus>
<clus scale="   91.061">  7  8 -1 -1</clus>
<clus scale="   92.068">  5  6 -1 -1</clus>
<clus scale="   94.042">  2  7  1 -1</clus>
<clus scale="   23.101">  2  5  1 -1</clus>
</clustering>
</event>
<event>
 9    1  0.1881049E-005  0.1063947E+03  0.7546771E-02  0.1267868E+00
         21   -1    0    0  501  502  0.00000000000E+00  0.00000000000E+00  0.13460740619E+03  0.13460740619E+03  0.00000000000E+00 0. -1.
          1   -1    0    0  502    0 -0.00000000000E+00 -0.00000000000E+00 -0.52285011257E+03  0.52285011257E+03  0.00000000000E+00 0. -1.
         23    2    1    2    0    0 -0.18605385041E+02 -0.45755359722E+02 -0.28018699137E+03  0.29923450325E+03  0.92719062249E+02 0.  0.
         23    2    1    2    0    0 -0.19308977525E+02  0.56204047061E+02 -0.21625080727E+03  0.24310198379E+03  0.93821273488E+02 0.  0.
        -11    1    4    4    0    0 -0.18121174864E+02  0.81638217450E+02 -0.18317418375E+03  0.20136026699E+03  0.00000000000E+00 0.  1.
         11    1    4    4    0    0 -0.11878026617E+01 -0.25434170390E+02 -0.33076623518E+02  0.41741716806E+02  0.00000000000E+00 0. -1.
        -13    1    3    3    0    0 -0.41635891073E+02  0.84800822393E+01 -0.15751089564E+03  0.16314147684E+03  0.00000000000E+00 0.  1.
         13    1    3    3    0    0  0.23030506031E+02 -0.54235441962E+02 -0.12267609572E+03  0.13609302640E+03  0.00000000000E+00 0. -1.
          1    1    1    2  501    0  0.37914362567E+02 -0.10448687338E+02  0.10819509226E+03  0.11512103173E+03  0.00000000000E+00 0. -1.
<scales pt_clust_5="13000.00000" pt_clust_6="13000.00000" pt_clust_7="13000.00000" pt_clust_8="13000.00000" pt_clust_9="39.32778"></scales>
<clustering>
<clus scale="   39.328">  1  9  2 -1</clus>
<clus scale="   92.719">  7  8 -1 -1</clus>
<clus scale="   93.821">  5  6 -1 -1</clus>
<clus scale="  105.424">  2  7  1 -1</clus>
<clus scale="   39.328">  1  5  2 -1</clus>
</clustering>
</event>
<event>
 9    1  0.1881049E-005  0.1198053E+03  0.7546771E-02  0.1247398E+00
         21   -1    0    0  501  502  0.00000000000E+00  0.00000000000E+00  0.56219031771E+02  0.56219031771E+02  0.00000000000E+00 0.  1.
          1   -1    0    0  502    0 -0.00000000000E+00 -0.00000000000E+00 -0.40897607294E+03  0.40897607294E+03  0.00000000000E+00 0. -1.
         23    2    1    2    0    0  0.64710824643E+02  0.34128769135E+02 -0.26804793145E+03  0.28914582939E+03  0.80020955930E+02 0.  0.
         23    2    1    2    0    0 -0.66813331306E+02 -0.58174776365E+02 -0.81451583292E+02  0.15169270586E+03  0.92347120930E+02 0.  0.
        -13    1    3    3    0    0  0.75014550259E+02  0.27695171714E+01 -0.19652766444E+03  0.21037579677E+03  0.00000000000E+00 0. -1.
         13    1    3    3    0    0 -0.10303725616E+02  0.31359251964E+02 -0.71520267011E+02  0.78770032618E+02  0.00000000000E+00 0.  1.
        -13    1    4    4    0    0 -0.29596610084E+02 -0.11062073458E+02  0.17374586064E+02  0.36058356016E+02  0.00000000000E+00 0.  1.
         13    1    4    4    0    0 -0.37216721221E+02 -0.47112702907E+02 -0.98826169356E+02  0.11563434984E+03  0.00000000000E+00 0. -1.
          1    1    1    2  501    0  0.21025066629E+01  0.24046007229E+02 -0.32575264279E+01  0.24356569470E+02  0.00000000000E+00 0. -1.
<scales pt_clust_5="13000.00000" pt_clust_6="13000.00000" pt_clust_7="13000.00000" pt_clust_8="13000.00000" pt_clust_9="24.13775"></scales>
<clustering>
<clus scale="   24.138">  1  9  2 -1</clus>
<clus scale="   80.021">  5  6 -1 -1</clus>
<clus scale="   92.347">  7  8 -1 -1</clus>
<clus scale="  110.583">  2  5  1 -1</clus>
<clus scale="   24.138">  1  5  2 -1</clus>
</clustering>
</event>
<event>
 9    1  0.1881049E-005  0.1281998E+03  0.7546771E-02  0.1247120E+00
         21   -1    0    0  501  502  0.00000000000E+00  0.00000000000E+00  0.12694279301E+03  0.12694279301E+03  0.00000000000E+00 0. -1.
         -4   -1    0    0    0  501 -0.00000000000E+00 -0.00000000000E+00 -0.18917316506E+03  0.18917316506E+03  0.00000000000E+00 0.  1.
         23    2    1    2    0    0 -0.45499879060E+01 -0.32401834917E+02 -0.81623122226E+02  0.12087137884E+03  0.82927527665E+02 0.  0.
         23    2    1    2    0    0  0.22589684455E+02  0.55455618005E+02  0.56630418856E+02  0.14787843590E+03  0.12278195328E+03 0.  0.
        -11    1    4    4    0    0 -0.15048891859E+02 -0.23650207409E+02 -0.17561940308E+02  0.33079044787E+02  0.00000000000E+00 0.  1.
         11    1    4    4    0    0  0.37638576313E+02  0.79105825414E+02  0.74192359164E+02  0.11479939111E+03  0.00000000000E+00 0. -1.
        -11    1    3    3    0    0 -0.47411217215E+01 -0.60352376188E+02 -0.62449349969E+02  0.86975909643E+02  0.00000000000E+00 0.  1.
         11    1    3    3    0    0  0.19113381555E+00  0.27950541271E+02 -0.19173772258E+02  0.33895469197E+02  0.00000000000E+00 0. -1.
         -4    1    1    2    0  502 -0.18039696549E+02 -0.23053783088E+02 -0.37237668677E+02  0.47366143338E+02  0.00000000000E+00 0.  1.
<scales pt_clust_5="13000.00000" pt_clust_6="13000.00000" pt_clust_7="13000.00000" pt_clust_8="13000.00000" pt_clust_9="29.27300"></scales>
<clustering>
<clus scale="   29.273">  1  9  2 -1</clus>
<clus scale="   82.928">  7  8 -1 -1</clus>
<clus scale="   90.757">  2  7  1 -1</clus>
<clus scale="  122.782">  5  6 -1 -1</clus>
<clus scale="   29.273">  1  5  2 -1</clus>
</clustering>
</event>
<event>
 9    1  0.1881049E-005  0.1047738E+03  0.7546771E-02  0.1271219E+00
         21   -1    0    0  501  502  0.00000000000E+00  0.00000000000E+00  0.16024216496E+03  0.16024216496E+03  0.00000000000E+00 0. -1.
          1   -1    0    0  502    0 -0.00000000000E+00 -0.00000000000E+00 -0.12381137895E+03  0.12381137895E+03  0.00000000000E+00 0. -1.
         23    2    1    2    0    0  0.58497728839E+02  0.37177942373E+01 -0.58020940463E+02  0.12384179800E+03  0.92382655977E+02 0.  0.
         23    2    1    2    0    0 -0.22977210651E+02 -0.24084345653E+01  0.71031199491E+02  0.11764482543E+03  0.90890708454E+02 0.  0.
        -13    1    4    4    0    0 -0.50250011769E+02  0.20190872868E+02  0.25223510412E+02  0.59740777593E+02  0.00000000000E+00 0.  1.
         13    1    4    4    0    0  0.27272801118E+02 -0.22599307433E+02  0.45807689079E+02  0.57904047838E+02  0.00000000000E+00 0. -1.
        -13    1    3    3    0    0  0.33187062493E+02  0.32855908738E+02 -0.69358314029E+02  0.83614996148E+02  0.00000000000E+00 0. -1.
         13    1    3    3    0    0  0.25310666345E+02 -0.29138114501E+02  0.11337373566E+02  0.40226801847E+02  0.00000000000E+00 0.  1.
          1    1    1    2  501    0 -0.35520518187E+02 -0.13093596719E+01  0.23420526979E+02  0.42566920479E+02  0.00000000000E+00 0. -1.
<scales pt_clust_5="13000.00000" pt_clust_6="13000.00000" pt_clust_7="13000.00000" pt_clust_8="13000.00000" pt_clust_9="35.54464"></scales>
<clustering>
<clus scale="   35.545">  1  9  2 -1</clus>
<clus scale="   90.891">  5  6 -1 -1</clus>
<clus scale="   92.383">  7  8 -1 -1</clus>
<clus scale="  103.461">  1  5  2 -1</clus>
<clus scale="   35.545">  1  5  2 -1</clus>
</clustering>
</event>
<event>
 9    1  0.3430530E-005  0.1053964E+03  0.7546771E-02  0.1271742E+00
          2   -1    0    0  502    0 -0.00000000000E+00  0.00000000000E+00  0.59084062278E+03  0.59084062278E+03  0.00000000000E+00 0. -1.
         21   -1    0    0  501  502  0.00000000000E+00 -0.00000000000E+00 -0.14443245141E+03  0.14443245141E+03  0.00000000000E+00 0. -1.
         23    2    1    2    0    0  0.35211571628E+02  0.35387948082E+02  0.54967104182E+03  0.55981700100E+03  0.93619756181E+02 0.  0.
         23    2    1    2    0    0 -0.29110902679E+02  0.76022571602E+01 -0.91189545934E+02  0.13038789070E+03  0.88205610848E+02 0.  0.
        -11    1    4    4    0    0 -0.34497906019E+02  0.44108344090E+02 -0.49812043028E+02  0.74945921628E+02  0.00000000000E+00 0. -1.
         11    1    4    4    0    0  0.53870033398E+01 -0.36506086930E+02 -0.41377502906E+02  0.55441969073E+02  0.00000000000E+00 0.  1.
        -11    1    3    3    0    0 -0.32052874366E+02  0.97476893181E+01  0.14778546394E+03  0.15153530135E+03  0.00000000000E+00 0.  1.
         11    1    3    3    0    0  0.67264445994E+02  0.25640258764E+02  0.40188557787E+03  0.40828169965E+03  0.00000000000E+00 0. -1.
          2    1    1    2  501    0 -0.61006689490E+01 -0.42990205242E+02 -0.12073324516E+02  0.45068182494E+02  0.00000000000E+00 0. -1.
<scales pt_clust_5="13000.00000" pt_clust_6="13000.00000" pt_clust_7="13000.00000" pt_clust_8="13000.00000" pt_clust_9="43.42092"></scales>
<clustering>
<clus scale="   43.421">  2  9  1 -1</clus>
<clus scale="   88.206">  5  6 -1 -1</clus>
<clus scale="   93.620">  7  8 -1 -1</clus>
<clus scale="  100.618">  2  5  1 -1</clus>
<clus scale="   43.421">  2  5  1 -1</clus>
</clustering>
</event>
<event>
 9    1  0.1881049E-005  0.1914867E+03  0.7546771E-02  0.1157399E+00
         21   -1    0    0  501  502  0.00000000000E+00  0.00000000000E+00  0.25511459406E+02  0.25511459406E+02  0.00000000000E+00 0. -1.
          1   -1    0    0  502    0 -0.00000000000E+00 -0.00000000000E+00 -0.18618018084E+04  0.18618018084E+04  0.00000000000E+00 0. -1.
         23    2    1    2    0    0  0.15683215431E+03  0.39519802412E+02 -0.85879470200E+03  0.87882882689E+03  0.93024875113E+02 0.  0.
         23    2    1    2    0    0 -0.15227133714E+03 -0.83183203670E+02 -0.87221919723E+03  0.89442119294E+03  0.95482652217E+02 0.  0.
        -11    1    3    3    0    0  0.55898464179E+02  0.61647742649E+02 -0.39110750058E+03  0.39986267578E+03  0.00000000000E+00 0.  1.
         11    1    3    3    0    0  0.10093369013E+03 -0.22127940237E+02 -0.46768720142E+03  0.47896615111E+03  0.00000000000E+00 0. -1.
        -13    1    4    4    0    0 -0.87426761459E+02  0.20468129898E+01 -0.47695776203E+03  0.48490858398E+03  0.00000000000E+00 0. -1.
         13    1    4    4    0    0 -0.64844575679E+02 -0.85230016659E+02 -0.39526143520E+03  0.40951260896E+03  0.00000000000E+00 0.  1.
          1    1    1    2  501    0 -0.45608171670E+01  0.43663401257E+02 -0.10527644973E+03  0.11406324794E+03  0.00000000000E+00 0. -1.
<scales pt_clust_5="13000.00000" pt_clust_6="13000.00000" pt_clust_7="13000.00000" pt_clust_8="13000.00000" pt_clust_9="43.90095"></scales>
<clustering>
<clus scale="   43.901">  1  9  2 -1</clus>
<clus scale="   93.025">  5  6 -1 -1</clus>
<clus scale="   95.483">  7  8 -1 -1</clus>
<clus scale="  190.273">  2  5  1 -1</clus>
<clus scale="   43.901">  1  5  2 -1</clus>
</clustering>
</event>
<event>
 9    1  0.1881049E-005  0.1258566E+03  0.7546771E-02  0.1234355E+00
          1   -1    0    0  502    0 -0.00000000000E+00  0.00000000000E+00  0.94010936155E+02  0.94010936155E+02  0.00000000000E+00 0. -1.
         21   -1    0    0  501  502  0.00000000000E+00 -0.00000000000E+00 -0.31417410434E+03  0.31417410434E+03  0.00000000000E+00 0. -1.
         23    2    1    2    0    0  0.23561336579E+02 -0.91899987650E+02 -0.19038576005E+02  0.13494035259E+03  0.94051512844E+02 0.  0.
         23    2    1    2    0    0  0.27627131604E+02  0.70514155589E+02 -0.90819734470E+02  0.14977495590E+03  0.91917401544E+02 0.  0.
        -11    1    4    4    0    0  0.55467110562E+01 -0.21230416969E+02 -0.56496850001E+01  0.22658674913E+02  0.00000000000E+00 0. -1.
         11    1    4    4    0    0  0.22080420547E+02  0.91744572558E+02 -0.85170049470E+02  0.12711628099E+03  0.00000000000E+00 0.  1.
        -13    1    3    3    0    0  0.36652558347E+02 -0.23756372136E+02 -0.43230460011E+02  0.61454437783E+02  0.00000000000E+00 0.  1.
         13    1    3    3    0    0 -0.13091221768E+02 -0.68143615514E+02  0.24191884006E+02  0.73485914803E+02  0.00000000000E+00 0. -1.
          1    1    1    2  501    0 -0.51188468183E+02  0.21385832061E+02 -0.11030485771E+03  0.12346973201E+03  0.00000000000E+00 0. -1.
<scales pt_clust_5="13000.00000" pt_clust_6="13000.00000" pt_clust_7="13000.00000" pt_clust_8="13000.00000" pt_clust_9="55.47624"></scales>
<clustering>
<clus scale="   55.476">  2  9  1 -1</clus>
<clus scale="   91.917">  5  6 -1 -1</clus>
<clus scale="   94.052">  7  8 -1 -1</clus>
<clus scale="  124.270">  2  5  1 -1</clus>
<clus scale="   55.476">  2  5  1 -1</clus>
</clustering>
</event>
<event>
 9    1  0.1881049E-005  0.3200504E+03  0.7546771E-02  0.1075912E+00
         21   -1    0    0  501  502  0.00000000000E+00  0.00000000000E+00  0.73489070503E+02  0.73489070503E+02  0.00000000000E+00 0.  1.
          1   -1    0    0  502    0 -0.00000000000E+00 -0.00000000000E+00 -0.17071994739E+04  0.17071994739E+04  0.00000000000E+00 0. -1.
         23    2    1    2    0    0 -0.12378475786E+03 -0.27251824842E+03 -0.96195248589E+03  0.10114368013E+04  0.89793963427E+02 0.  0.
         23    2    1    2    0    0  0.10573582932E+03  0.29717567311E+03 -0.53227311994E+03  0.62645902214E+03  0.98197687934E+02 0.  0.
        -11    1    3    3    0    0 -0.98313130944E+02 -0.18923057698E+03 -0.79536140273E+03  0.82345215036E+03  0.00000000000E+00 0.  1.
         11    1    3    3    0    0 -0.25471626918E+02 -0.83287671446E+02 -0.16659108316E+03  0.18798465092E+03  0.00000000000E+00 0. -1.
        -13    1    4    4    0    0  0.21447897290E+02  0.40081979019E+02 -0.15948268664E+03  0.16583517322E+03  0.00000000000E+00 0.  1.
         13    1    4    4    0    0  0.84287932026E+02  0.25709369409E+03 -0.37279043330E+03  0.46062384891E+03  0.00000000000E+00 0. -1.
          1    1    1    2  501    0  0.18048928545E+02 -0.24657424689E+02 -0.13948479752E+03  0.14279272094E+03  0.00000000000E+00 0. -1.
<scales pt_clust_5="13000.00000" pt_clust_6="13000.00000" pt_clust_7="13000.00000" pt_clust_8="13000.00000" pt_clust_9="30.55738"></scales>
<clustering>
<clus scale="   30.557">  1  9  2 -1</clus>
<clus scale="   89.794">  5  6 -1 -1</clus>
<clus scale="   98.198">  7  8 -1 -1</clus>
<clus scale="  317.573">  2  5  1 -1</clus>
<clus scale="   30.557">  1  5  2 -1</clus>
</clustering>
</event>
<event>
 9    1  0.1881049E-005  0.1107979E+03  0.7546771E-02  0.1263829E+00
         21   -1    0    0  501  502  0.00000000000E+00  0.00000000000E+00  0.59713672627E+03  0.59713672627E+03  0.00000000000E+00 0.  1.
          1   -1    0    0  502    0 -0.00000000000E+00 -0.00000000000E+00 -0.48714930279E+02  0.48714930279E+02  0.00000000000E+00 0. -1.
         23    2    1    2    0    0 -0.40807461562E+02  0.98309013659E+01  0.51400211204E+02  0.11054329457E+03  0.88407820477E+02 0.  0.
         23    2    1    2    0    0  0.87373159147E+02  0.28237317733E+02  0.38587448345E+03  0.40893102369E+03  0.99468839893E+02 0.  0.
        -11    1    4    4    0    0  0.84479971383E+02 -0.14137767207E+02  0.31372562161E+03  0.32520840654E+03  0.00000000000E+00 0. -1.
         11    1    4    4    0    0  0.28931877639E+01  0.42375084940E+02  0.72148861837E+02  0.83722617156E+02  0.00000000000E+00 0.  1.
        -11    1    3    3    0    0 -0.10980253402E+02  0.48001607036E+02  0.29284170996E+02  0.57291211488E+02  0.00000000000E+00 0.  1.
         11    1    3    3    0    0 -0.29827208159E+02 -0.38170705670E+02  0.22116040208E+02  0.53252083081E+02  0.00000000000E+00 0. -1.
          1    1    1    2  501    0 -0.46565697585E+02 -0.38068219099E+02  0.11114710134E+03  0.12637733829E+03  0.00000000000E+00 0. -1.
<scales pt_clust_5="13000.00000" pt_clust_6="13000.00000" pt_clust_7="13000.00000" pt_clust_8="13000.00000" pt_clust_9="60.14610"></scales>
<clustering>
<clus scale="   60.146">  1  9  2 -1</clus>
<clus scale="   88.408">  7  8 -1 -1</clus>
<clus scale="   99.469">  5  6 -1 -1</clus>
<clus scale="  100.986">  2  7  1 -1</clus>
<clus scale="   60.146">  1  5  2 -1</clus>
</clustering>
</event>
<event>
 9    1  0.1881049E-005  0.1876116E+03  0.7546771E-02  0.1169779E+00
         21   -1    0    0  501  502  0.00000000000E+00  0.00000000000E+00  0.13612599896E+03  0.13612599896E+03  0.00000000000E+00 0.  1.
         -3   -1    0    0    0  501 -0.00000000000E+00 -0.00000000000E+00 -0.63312901270E+03  0.63312901270E+03  0.00000000000E+00 0.  1.
         23    2    1    2    0    0  0.55050352505E+02 -0.10887308811E+03 -0.17796479249E+03  0.23399613799E+03  0.90547416307E+02 0.  0.
         23    2    1    2    0    0 -0.20383864264E+03  0.70554596636E+02 -0.29781190694E+03  0.38015626735E+03  0.96429831233E+02 0.  0.
        -11    1    3    3    0    0  0.40877361152E+02  0.99728997942E+00 -0.42046700970E+02  0.58650475740E+02  0.00000000000E+00 0. -1.
         11    1    3    3    0    0  0.14172991353E+02 -0.10987037809E+03 -0.13591809153E+03  0.17534566225E+03  0.00000000000E+00 0.  1.
        -11    1    4    4    0    0 -0.17464663266E+03  0.57507062999E+02 -0.17713168241E+03  0.25531185149E+03  0.00000000000E+00 0.  1.
         11    1    4    4    0    0 -0.29192009978E+02  0.13047533637E+02 -0.12068022453E+03  0.12484441587E+03  0.00000000000E+00 0. -1.
         -3    1    1    2    0  502  0.14878829014E+03  0.38318491472E+02 -0.21226314303E+02  0.15510260633E+03  0.00000000000E+00 0.  1.
<scales pt_clust_5="13000.00000" pt_clust_6="13000.00000" pt_clust_7="13000.00000" pt_clust_8="13000.00000" pt_clust_9="160.93292"></scales>
<clustering>
<clus scale="   90.547">  5  6 -1 -1</clus>
<clus scale="   96.430">  7  8 -1 -1</clus>
<clus scale="  151.930">  2  5  1 -1</clus>
<clus scale="  160.933">  1  9  2 -1</clus>
<clus scale="  160.933">  1  5  2 -1</clus>
</clustering>
</event>
<event>
 9    1  0.1881049E-005  0.9275592E+02  0.7546771E-02  0.1297777E+00
         21   -1    0    0  501  502  0.00000000000E+00  0.00000000000E+00  0.15067635928E+03  0.15067635928E+03  0.00000000000E+00 0. -1.
          2   -1    0    0  502    0 -0.00000000000E+00 -0.00000000000E+00 -0.15665683285E+03  0.15665683285E+03  0.00000000000E+00 0. -1.
         23    2    1    2    0    0 -0.55728522986E+01 -0.19477239220E+02 -0.89775203417E+02  0.12791232397E+03  0.88834429944E+02 0.  0.
         23    2    1    2    0    0  0.17172858916E+02 -0.17547989228E+01  0.80545285928E+00  0.92976783972E+02  0.91356703098E+02 0.  0.
        -11    1    3    3    0    0  0.40344902840E+02 -0.20199555590E+02 -0.47044881000E+02  0.65184001561E+02  0.00000000000E+00 0. -1.
         11    1    3    3    0    0 -0.45917755138E+02  0.72231637079E+00 -0.42730322417E+02  0.62728322405E+02  0.00000000000E+00 0.  1.
        -13    1    4    4    0    0 -0.13212902420E+02  0.39547191567E+02  0.57078677877E-01  0.41696095850E+02  0.00000000000E+00 0.  1.
         13    1    4    4    0    0  0.30385761336E+02 -0.41301990489E+02  0.74837418140E+00  0.51280688122E+02  0.00000000000E+00 0. -1.
          2    1    1    2  501    0 -0.11600006617E+02  0.21232038143E+02  0.82989276983E+02  0.86444084190E+02  0.00000000000E+00 0. -1.
<scales pt_clust_5="13000.00000" pt_clust_6="13000.00000" pt_clust_7="13000.00000" pt_clust_8="13000.00000" pt_clust_9="24.19421"></scales>
<clustering>
<clus scale="   24.194">  1  9  2 -1</clus>
<clus scale="   88.834">  5  6 -1 -1</clus>
<clus scale="   90.273">  2  5  1 -1</clus>
<clus scale="   91.357">  7  8 -1 -1</clus>
<clus scale="   24.194">  1  5  2 -1</clus>
</clustering>
</event>
<event>
 9    1  0.1881049E-005  0.1683882E+03  0.7546771E-02  0.1198728E+00
          2   -1    0    0  502    0 -0.00000000000E+00  0.00000000000E+00  0.10317913227E+04  0.10317913227E+04  0.00000000000E+00 0. -1.
         21   -1    0    0  501  502  0.00000000000E+00 -0.00000000000E+00 -0.45258229227E+02  0.45258229227E+02  0.00000000000E+00 0. -1.
         23    2    1    2    0    0  0.56017988768E+02  0.27016061062E+02  0.22102291196E+03  0.24694061727E+03  0.90888163283E+02 0.  0.
         23    2    1    2    0    0 -0.15943316171E+03 -0.85442876098E+02  0.47893451426E+03  0.51989287484E+03  0.90503669723E+02 0.  0.
        -11    1    3    3    0    0  0.56780451297E+02 -0.18613458440E+02  0.88529298842E+02  0.10680785195E+03  0.00000000000E+00 0. -1.
         11    1    3    3    0    0 -0.76246252858E+00  0.45629519502E+02  0.13249361311E+03  0.14013276532E+03  0.00000000000E+00 0.  1.
        -13    1    4    4    0    0 -0.34408666384E+02 -0.11237982301E+01  0.27888823898E+02  0.44305820647E+02  0.00000000000E+00 0.  1.
         13    1    4    4    0    0 -0.12502449532E+03 -0.84319077868E+02  0.45104569036E+03  0.47558705419E+03  0.00000000000E+00 0. -1.
          2    1    1    2  501    0  0.10341517294E+03  0.58426815036E+02  0.28657566730E+03  0.31021605986E+03  0.00000000000E+00 0. -1.
<scales pt_clust_5="13000.00000" pt_clust_6="13000.00000" pt_clust_7="13000.00000" pt_clust_8="13000.00000" pt_clust_9="141.99889"></scales>
<clustering>
<clus scale="   90.504">  7  8 -1 -1</clus>
<clus scale="   90.888">  5  6 -1 -1</clus>
<clus scale="  110.130">  1  5  2 -1</clus>
<clus scale="  141.999">  2  9  1 -1</clus>
<clus scale="  141.999">  2  5  1 -1</clus>
</clustering>
</event>
<event>
 9    1  0.1881049E-005  0.9957668E+02  0.7546771E-02  0.1282361E+00
         21   -1    0    0  501  502  0.00000000000E+00  0.00000000000E+00  0.92061044421E+02  0.92061044421E+02  0.00000000000E+00 0.  1.
          3   -1    0    0  502    0 -0.00000000000E+00 -0.00000000000E+00 -0.14933078331E+03  0.14933078331E+03  0.00000000000E+00 0. -1.
         23    2    1    2    0    0 -0.13739136163E+02 -0.21593441683E+02 -0.65960846314E+02  0.11810637476E+03  0.94568715370E+02 0.  0.
         23    2    1    2    0    0  0.33068607201E+02  0.29066019949E+02  0.82426361498E+01  0.10255699420E+03  0.92258493974E+02 0.  0.
        -13    1    4    4    0    0  0.27149247222E+02 -0.26594478558E+02 -0.16407690882E+02  0.41395171634E+02  0.00000000000E+00 0.  1.
         13    1    4    4    0    0  0.59193599782E+01  0.55660498507E+02  0.24650327032E+02  0.61161822564E+02  0.00000000000E+00 0. -1.
        -13    1    3    3    0    0 -0.22515455851E+02  0.39547591656E+01 -0.83051606912E+02  0.86140323211E+02  0.00000000000E+00 0. -1.
         13    1    3    3    0    0  0.87763196887E+01 -0.25548200849E+02  0.17090760598E+02  0.31966051550E+02  0.00000000000E+00 0.  1.
          3    1    1    2  501    0 -0.19329471038E+02 -0.74725782659E+01  0.44847127471E+00  0.20728458771E+02  0.00000000000E+00 0. -1.
<scales pt_clust_5="13000.00000" pt_clust_6="13000.00000" pt_clust_7="13000.00000" pt_clust_8="13000.00000" pt_clust_9="20.72361"></scales>
<clustering>
<clus scale="   20.724">  1  9  2 -1</clus>
<clus scale="   92.258">  5  6 -1 -1</clus>
<clus scale="   94.569">  7  8 -1 -1</clus>
<clus scale="   97.385">  1  5  2 -1</clus>
<clus scale="   20.724">  1  5  2 -1</clus>
</clustering>
</event>
<event>
 9    1  0.1881049E-005  0.9557809E+02  0.7546771E-02  0.1290614E+00
          1   -1    0    0  502    0 -0.00000000000E+00  0.00000000000E+00  0.69642984813E+03  0.69642984813E+03  0.00000000000E+00 0. -1.
         21   -1    0    0  501  502  0.00000000000E+00 -0.00000000000E+00 -0.18385158676E+02  0.18385158676E+02  0.00000000000E+00 0.  1.
         23    2    1    2    0    0  0.19043137728E+02  0.58435566656E+01  0.25575345689E+03  0.27260344720E+03  0.92228089346E+02 0.  0.
         23    2    1    2    0    0 -0.17074581889E+02 -0.29847422018E+02  0.24952487800E+03  0.26777453935E+03  0.90874249596E+02 0.  0.
        -11    1    4    4    0    0  0.15874568123E+02  0.26593679153E+02  0.64597546747E+02  0.71638458454E+02  0.00000000000E+00 0.  1.
         11    1    4    4    0    0 -0.32949150011E+02 -0.56441101171E+02  0.18492733125E+03  0.19613608090E+03  0.00000000000E+00 0. -1.
        -11    1    3    3    0    0 -0.32383345412E+02  0.41709139159E+01  0.44617652232E+02  0.55288447922E+02  0.00000000000E+00 0. -1.
         11    1    3    3    0    0  0.51426483140E+02  0.16726427498E+01  0.21113580466E+03  0.21731499928E+03  0.00000000000E+00 0.  1.
          1    1    1    2  501    0 -0.19685558389E+01  0.24003865352E+02  0.17276635457E+03  0.17443702025E+03  0.00000000000E+00 0. -1.
<scales pt_clust_5="13000.00000" pt_clust_6="13000.00000" pt_clust_7="13000.00000" pt_clust_8="13000.00000" pt_clust_9="24.08446"></scales>
<clustering>
<clus scale="   24.084">  2  9  1 -1</clus>
<clus scale="   90.874">  5  6 -1 -1</clus>
<clus scale="   92.228">  7  8 -1 -1</clus>
<clus scale="   94.272">  2  5  1 -1</clus>
<clus scale="   24.084">  2  5  1 -1</clus>
</clustering>
</event>
<event>
 9    1  0.1881049E-005  0.9568761E+02  0.7546771E-02  0.1289851E+00
         21   -1    0    0  501  502  0.00000000000E+00  0.00000000000E+00  0.53489651106E+02  0.53489651106E+02  0.00000000000E+00 0. -1.
          1   -1    0    0  502    0 -0.00000000000E+00 -0.00000000000E+00 -0.36327079376E+03  0.36327079376E+03  0.00000000000E+00 0. -1.
         23    2    1    2    0    0  0.71403688281E+01  0.26933945567E+02 -0.20056505345E+03  0.22191863692E+03  0.90802634647E+02 0.  0.
         23    2    1    2    0    0 -0.34681374624E+02 -0.16332129154E+02 -0.12653617265E+03  0.16062352625E+03  0.91208431662E+02 0.  0.
        -11    1    3    3    0    0 -0.13561670408E+02 -0.23728622899E+02 -0.21789619725E+02  0.34953597478E+02  0.00000000000E+00 0.  1.
         11    1    3    3    0    0  0.20702039236E+02  0.50662568466E+02 -0.17877543372E+03  0.18696503944E+03  0.00000000000E+00 0. -1.
        -13    1    4    4    0    0 -0.11979606083E+01 -0.30745927715E+02 -0.19693740581E+01  0.30832217158E+02  0.00000000000E+00 0.  1.
         13    1    4    4    0    0 -0.33483414016E+02  0.14413798562E+02 -0.12456679859E+03  0.12979130909E+03  0.00000000000E+00 0. -1.
          1    1    1    2  501    0  0.27541005796E+02 -0.10601816414E+02  0.17320083446E+02  0.34218281694E+02  0.00000000000E+00 0. -1.
<scales pt_clust_5="13000.00000" pt_clust_6="13000.00000" pt_clust_7="13000.00000" pt_clust_8="13000.00000" pt_clust_9="29.51111"></scales>
<clustering>
<clus scale="   29.511">  1  9  2 -1</clus>
<clus scale="   90.803">  5  6 -1 -1</clus>
<clus scale="   91.208">  7  8 -1 -1</clus>
<clus scale="   95.301">  2  5  1 -1</clus>
<clus scale="   29.511">  1  5  2 -1</clus>
</clustering>
</event>
<event>
 9    1  0.1881049E-005  0.9498673E+02  0.7546771E-02  0.1291461E+00
          1   -1    0    0  502    0 -0.00000000000E+00  0.00000000000E+00  0.27647831737E+03  0.27647831737E+03  0.00000000000E+00 0. -1.
         21   -1    0    0  501  502  0.00000000000E+00 -0.00000000000E+00 -0.10497935613E+03  0.10497935613E+03  0.00000000000E+00 0. -1.
         23    2    1    2    0    0  0.39151500310E+02 -0.13105439139E+02  0.16836501894E+03  0.19581559526E+03  0.91062479833E+02 0.  0.
         23    2    1    2    0    0  0.77255311655E+01  0.18197241293E+02  0.61006209695E+02  0.11099235042E+03  0.90590953237E+02 0.  0.
        -13    1    4    4    0    0 -0.32835890424E+02  0.35274395967E+02  0.26001921459E+02  0.54759278943E+02  0.00000000000E+00 0.  1.
         13    1    4    4    0    0  0.40561421589E+02 -0.17077154674E+02  0.35004288236E+02  0.56233071479E+02  0.00000000000E+00 0. -1.
        -13    1    3    3    0    0  0.63025271972E+02  0.66333776572E+01  0.79266853466E+02  0.10148606143E+03  0.00000000000E+00 0.  1.
         13    1    3    3    0    0 -0.23873771662E+02 -0.19738816796E+02  0.89098165474E+02  0.94329533831E+02  0.00000000000E+00 0. -1.
          1    1    1    2  501    0 -0.46877031475E+02 -0.50918021543E+01 -0.57872267391E+02  0.74649727810E+02  0.00000000000E+00 0. -1.
<scales pt_clust_5="13000.00000" pt_clust_6="13000.00000" pt_clust_7="13000.00000" pt_clust_8="13000.00000" pt_clust_9="47.15276"></scales>
<clustering>
<clus scale="   47.153">  2  9  1 -1</clus>
<clus scale="   90.591">  5  6 -1 -1</clus>
<clus scale="   91.062">  7  8 -1 -1</clus>
<clus scale="   94.535">  2  5  1 -1</clus>
<clus scale="   47.153">  2  5  1 -1</clus>
</clustering>
</event>
<event>
 9    1  0.1881049E-005  0.1063331E+03  0.7546771E-02  0.1269196E+00
         21   -1    0    0  501  502  0.00000000000E+00  0.00000000000E+00  0.21844294865E+03  0.21844294865E+03  0.00000000000E+00 0.  1.
          1   -1    0    0  502    0 -0.00000000000E+00 -0.00000000000E+00 -0.24832242397E+03  0.24832242397E+03  0.00000000000E+00 0. -1.
         23    2    1    2    0    0 -0.36060062686E+02 -0.32806097854E+02 -0.20532516714E+03  0.23066397568E+03  0.93117545259E+02 0.  0.
         23    2    1    2    0    0  0.49622420011E+02  0.62404285972E+02  0.10786046563E+03  0.16108304534E+03  0.89203071555E+02 0.  0.
        -13    1    4    4    0    0  0.32858965659E+02  0.21788744849E+01 -0.37634862730E+01  0.33145481549E+02  0.00000000000E+00 0. -1.
         13    1    4    4    0    0  0.16763454352E+02  0.60225411487E+02  0.11162395190E+03  0.12793756379E+03  0.00000000000E+00 0.  1.
        -13    1    3    3    0    0 -0.35732235707E+02  0.75371102763E+01 -0.17854232014E+03  0.18223874665E+03  0.00000000000E+00 0.  1.
         13    1    3    3    0    0 -0.32782697948E+00 -0.40343208130E+02 -0.26782847008E+02  0.48425229030E+02  0.00000000000E+00 0. -1.
          1    1    1    2  501    0 -0.13562357324E+02 -0.29598188118E+02  0.67585226196E+02  0.75018351595E+02  0.00000000000E+00 0. -1.
<scales pt_clust_5="13000.00000" pt_clust_6="13000.00000" pt_clust_7="13000.00000" pt_clust_8="13000.00000" pt_clust_9="32.55749"></scales>
<clustering>
<clus scale="   32.557">  1  9  2 -1</clus>
<clus scale="   89.203">  5  6 -1 -1</clus>
<clus scale="   93.118">  7  8 -1 -1</clus>
<clus scale="  102.923">  1  5  2 -1</clus>
<clus scale="   32.557">  1  5  2 -1</clus>
</clustering>
</event>
<event>
 9    1  0.1881049E-005  0.9368989E+02  0.7546771E-02  0.1296160E+00
         21   -1    0    0  501  502  0.00000000000E+00  0.00000000000E+00  0.50135240339E+03  0.50135240339E+03  0.00000000000E+00 0. -1.
          1   -1    0    0  502    0 -0.00000000000E+00 -0.00000000000E+00 -0.53394906670E+02  0.53394906670E+02  0.00000000000E+00 0. -1.
         23    2    1    2    0    0 -0.79394666449E+01 -0.16897457777E+02  0.57016390512E+02  0.11006056031E+03  0.92270791360E+02 0.  0.
         23    2    1    2    0    0  0.23489451394E+02 -0.31038774839E+02  0.69415639801E+02  0.11923581647E+03  0.88789014021E+02 0.  0.
        -13    1    4    4    0    0  0.14245944663E+02 -0.61780872938E+02  0.36048240953E+02  0.72933523678E+02  0.00000000000E+00 0. -1.
         13    1    4    4    0    0  0.92435067307E+01  0.30742098099E+02  0.33367398848E+02  0.46302292795E+02  0.00000000000E+00 0.  1.
        -13    1    3    3    0    0 -0.49611796995E+02 -0.12691688844E+01  0.29432282320E+02  0.57699223853E+02  0.00000000000E+00 0.  1.
         13    1    3    3    0    0  0.41672330350E+02 -0.15628288893E+02  0.27584108191E+02  0.52361336454E+02  0.00000000000E+00 0. -1.
          1    1    1    2  501    0 -0.15549984749E+02  0.47936232616E+02  0.32152546641E+03  0.32545093328E+03  0.00000000000E+00 0. -1.
<scales pt_clust_5="13000.00000" pt_clust_6="13000.00000" pt_clust_7="13000.00000" pt_clust_8="13000.00000" pt_clust_9="50.39528"></scales>
<clustering>
<clus scale="   50.395">  1  9  2 -1</clus>
<clus scale="   88.789">  5  6 -1 -1</clus>
<clus scale="   90.263">  1  5  2 -1</clus>
<clus scale="   92.271">  7  8 -1 -1</clus>
<clus scale="   50.395">  1  5  2 -1</clus>
</clustering>
</event>
<event>
 9    1  0.1881049E-005  0.1223284E+03  0.7546771E-02  0.1239599E+00
          1   -1    0    0  502    0 -0.00000000000E+00  0.00000000000E+00  0.26462032899E+03  0.26462032899E+03  0.00000000000E+00 0. -1.
         21   -1    0    0  501  502  0.00000000000E+00 -0.00000000000E+00 -0.35336931909E+03  0.35336931909E+03  0.00000000000E+00 0. -1.
         23    2    1    2    0    0  0.93019264600E+01 -0.91985984779E+02  0.21964127913E+03  0.25542705637E+03  0.91938797021E+02 0.  0.
         23    2    1    2    0    0 -0.65212050940E+01  0.99357112854E+01 -0.86964068974E+02  0.12640683388E+03  0.90965344410E+02 0.  0.
        -13    1    3    3    0    0  0.17425700978E+02 -0.69066588014E+02  0.21985852347E+03  0.23110953891E+03  0.00000000000E+00 0. -1.
         13    1    3    3    0    0 -0.81237745181E+01 -0.22919396765E+02 -0.21724433484E+00  0.24317517464E+02  0.00000000000E+00 0.  1.
        -13    1    4    4    0    0  0.24623932322E+02 -0.40324464733E+01  0.74267644062E+01  0.26033737671E+02  0.00000000000E+00 0. -1.
         13    1    4    4    0    0 -0.31145137416E+02  0.13968157759E+02 -0.94390833380E+02  0.10037309621E+03  0.00000000000E+00 0.  1.
          1    1    1    2  501    0 -0.27807213661E+01  0.82050273494E+02 -0.22142620026E+03  0.23615575782E+03  0.00000000000E+00 0. -1.
<scales pt_clust_5="13000.00000" pt_clust_6="13000.00000" pt_clust_7="13000.00000" pt_clust_8="13000.00000" pt_clust_9="82.09738"></scales>
<clustering>
<clus scale="   82.097">  2  9  1 -1</clus>
<clus scale="   90.965">  7  8 -1 -1</clus>
<clus scale="   91.939">  5  6 -1 -1</clus>
<clus scale="  121.599">  2  7  1 -1</clus>
<clus scale="   82.097">  2  5  1 -1</clus>
</clustering>
</event>
<event>
 9    1  0.1881049E-005  0.9542056E+02  0.7546771E-02  0.1292749E+00
         21   -1    0    0  501  502  0.00000000000E+00  0.00000000000E+00  0.73307206488E+02  0.73307206488E+02  0.00000000000E+00 0.  1.
          2   -1    0    0  502    0 -0.00000000000E+00 -0.00000000000E+00 -0.38026822593E+03  0.38026822593E+03  0.00000000000E+00 0. -1.
         23    2    1    2    0    0 -0.21812145285E+02  0.52687054551E+01 -0.27761413906E+03  0.29388699007E+03  0.93789252005E+02 0.  0.
         23    2    1    2    0    0  0.96019050528E+00 -0.11003077874E+02 -0.69745581700E+02  0.11386549925E+03  0.89324778563E+02 0.  0.
        -11    1    4    4    0    0  0.37398739031E+02 -0.12109929717E+02 -0.50874154582E+01  0.39638338448E+02  0.00000000000E+00 0. -1.
         11    1    4    4    0    0 -0.36438548526E+02  0.11068518424E+01 -0.64658166242E+02  0.74227160807E+02  0.00000000000E+00 0.  1.
        -13    1    3    3    0    0 -0.58956593302E+02  0.27258789708E+00 -0.16992377707E+03  0.17986118039E+03  0.00000000000E+00 0.  1.
         13    1    3    3    0    0  0.37144448017E+02  0.49961175580E+01 -0.10769036198E+03  0.11402580968E+03  0.00000000000E+00 0. -1.
          2    1    1    2  501    0  0.20851954779E+02  0.57343724190E+01  0.40398701316E+02  0.45822943087E+02  0.00000000000E+00 0. -1.
<scales pt_clust_5="13000.00000" pt_clust_6="13000.00000" pt_clust_7="13000.00000" pt_clust_8="13000.00000" pt_clust_9="21.62607"></scales>
<clustering>
<clus scale="   21.626">  1  9  2 -1</clus>
<clus scale="   89.325">  5  6 -1 -1</clus>
<clus scale="   91.036">  1  5  2 -1</clus>
<clus scale="   93.789">  7  8 -1 -1</clus>
<clus scale="   21.626">  1  5  2 -1</clus>
</clustering>
</event>
<event>
 9    1  0.1881049E-005  0.1019122E+03  0.7546771E-02  0.1277120E+00
         21   -1    0    0  501  502  0.00000000000E+00  0.00000000000E+00  0.26287059826E+03  0.26287059826E+03  0.00000000000E+00 0. -1.
          1   -1    0    0  502    0 -0.00000000000E+00 -0.00000000000E+00 -0.10736475969E+03  0.10736475969E+03  0.00000000000E+00 0. -1.
         23    2    1    2    0    0  0.28307265106E+01  0.52582694389E+02 -0.29751071422E+02  0.11269845718E+03  0.95093970564E+02 0.  0.
         23    2    1    2    0    0  0.36341497045E+02  0.14408614412E+02  0.10574586324E+03  0.14643197240E+03  0.93444220634E+02 0.  0.
        -11    1    4    4    0    0  0.55333161253E+02  0.26380190104E+01  0.11048203363E+03  0.12359206137E+03  0.00000000000E+00 0. -1.
         11    1    4    4    0    0 -0.18991664208E+02  0.11770595402E+02 -0.47361703916E+01  0.22839911022E+02  0.00000000000E+00 0.  1.
        -13    1    3    3    0    0  0.35367073750E+02  0.38923744618E+02 -0.49532366736E+02  0.72245021664E+02  0.00000000000E+00 0. -1.
         13    1    3    3    0    0 -0.32536347240E+02  0.13658949771E+02  0.19781295313E+02  0.40453435513E+02  0.00000000000E+00 0.  1.
          1    1    1    2  501    0 -0.39172223556E+02 -0.66991308802E+02  0.79511046756E+02  0.11110492838E+03  0.00000000000E+00 0. -1.
<scales pt_clust_5="13000.00000" pt_clust_6="13000.00000" pt_clust_7="13000.00000" pt_clust_8="13000.00000" pt_clust_9="77.60347"></scales>
<clustering>
<clus scale="   77.603">  1  9  2 -1</clus>
<clus scale="   93.444">  5  6 -1 -1</clus>
<clus scale="   95.094">  7  8 -1 -1</clus>
<clus scale="  100.375">  1  5  2 -1</clus>
<clus scale="   77.603">  1  5  2 -1</clus>
</clustering>
</event>
<event>
 9    1  0.1881049E-005  0.1422899E+03  0.7546771E-02  0.1211202E+00
         21   -1    0    0  501  502  0.00000000000E+00  0.00000000000E+00  0.26932686426E+03  0.26932686426E+03  0.00000000000E+00 0. -1.
         -3   -1    0    0    0  501 -0.00000000000E+00 -0.00000000000E+00 -0.15888372502E+03  0.15888372502E+03  0.00000000000E+00 0.  1.
         23    2    1    2    0    0 -0.10677504586E+02 -0.85757931855E+02 -0.68733563839E+01  0.12814219698E+03  0.94364970394E+02 0.  0.
         23    2    1    2    0    0  0.30963922870E+02  0.12701195945E+03 -0.15473200230E+02  0.15954602084E+03  0.90137175881E+02 0.  0.
        -13    1    3    3    0    0 -0.34958877448E+02 -0.23192826288E+02 -0.35714339833E+02  0.55095774551E+02  0.00000000000E+00 0.  1.
         13    1    3    3    0    0  0.24281372863E+02 -0.62565105567E+02  0.28840983449E+02  0.73046422424E+02  0.00000000000E+00 0. -1.
        -13    1    4    4    0    0 -0.13351537989E+02  0.19205575593E+02  0.26787067117E+02  0.35562124026E+02  0.00000000000E+00 0.  1.
         13    1    4    4    0    0  0.44315460859E+02  0.10780638386E+03 -0.42260267346E+02  0.12398389681E+03  0.00000000000E+00 0. -1.
         -3    1    1    2    0  502 -0.20286418284E+02 -0.41254027599E+02  0.13278969585E+03  0.14052237147E+03  0.00000000000E+00 0.  1.
<scales pt_clust_5="13000.00000" pt_clust_6="13000.00000" pt_clust_7="13000.00000" pt_clust_8="13000.00000" pt_clust_9="45.97210"></scales>
<clustering>
<clus scale="   45.972">  1  9  2 -1</clus>
<clus scale="   90.137">  7  8 -1 -1</clus>
<clus scale="   94.365">  5  6 -1 -1</clus>
<clus scale="  139.522">  1  7  2 -1</clus>
<clus scale="   45.972">  1  5  2 -1</clus>
</clustering>
</event>
<event>
 9    1  0.1881049E-005  0.1077117E+03  0.7546771E-02  0.1265214E+00
          3   -1    0    0  502    0 -0.00000000000E+00  0.00000000000E+00  0.76561672188E+02  0.76561672188E+02  0.00000000000E+00 0. -1.
         21   -1    0    0  501  502  0.00000000000E+00 -0.00000000000E+00 -0.44486497024E+03  0.44486497024E+03  0.00000000000E+00 0. -1.
         23    2    1    2    0    0  0.13470178050E+02 -0.66214497016E+02 -0.41102914050E+01  0.11298135124E+03  0.90454883348E+02 0.  0.
         23    2    1    2    0    0 -0.53589081412E+02  0.10689102713E+02 -0.15259616743E+03  0.18603616775E+03  0.91311657712E+02 0.  0.
        -13    1    3    3    0    0  0.27310200870E+02  0.66546728942E+01 -0.23138399849E+02  0.36407654284E+02  0.00000000000E+00 0.  1.
         13    1    3    3    0    0 -0.13840022820E+02 -0.72869169910E+02  0.19028108444E+02  0.76573696959E+02  0.00000000000E+00 0. -1.
        -13    1    4    4    0    0 -0.72835156764E+02  0.23262345460E+02 -0.14074397615E+03  0.16017166915E+03  0.00000000000E+00 0. -1.
         13    1    4    4    0    0  0.19246075352E+02 -0.12573242748E+02 -0.11852191283E+02  0.25864498601E+02  0.00000000000E+00 0.  1.
          3    1    1    2  501    0  0.40118903362E+02  0.55525394303E+02 -0.21159683922E+03  0.22240912343E+03  0.00000000000E+00 0. -1.
<scales pt_clust_5="13000.00000" pt_clust_6="13000.00000" pt_clust_7="13000.00000" pt_clust_8="13000.00000" pt_clust_9="68.50252"></scales>
<clustering>
<clus scale="   68.503">  2  9  1 -1</clus>
<clus scale="   90.455">  5  6 -1 -1</clus>
<clus scale="   91.312">  7  8 -1 -1</clus>
<clus scale="  106.986">  1  5  2 -1</clus>
<clus scale="   68.503">  2  5  1 -1</clus>
</clustering>
</event>
<event>
 9    1  0.1881049E-005  0.1533215E+03  0.7546771E-02  0.1196770E+00
         21   -1    0    0  501  502  0.00000000000E+00  0.00000000000E+00  0.16702460145E+03  0.16702460145E+03  0.00000000000E+00 0.  1.
          1   -1    0    0  502    0 -0.00000000000E+00 -0.00000000000E+00 -0.18289126835E+03  0.18289126835E+03  0.00000000000E+00 0. -1.
         23    2    1    2    0    0  0.29129597925E+02  0.10816479529E+03 -0.38352732629E+02  0.14926426035E+03  0.90888563096E+02 0.  0.
         23    2    1    2    0    0 -0.48570537166E+02 -0.12917662259E+03  0.34366813743E+01  0.16626664108E+03  0.92666543327E+02 0.  0.
        -13    1    3    3    0    0  0.21791949559E+02  0.69225181464E+02  0.23084403475E+02  0.76157104055E+02  0.00000000000E+00 0.  1.
         13    1    3    3    0    0  0.73376483658E+01  0.38939613827E+02 -0.61437136104E+02  0.73107156293E+02  0.00000000000E+00 0. -1.
        -13    1    4    4    0    0 -0.54426923604E+02 -0.28427722266E+02 -0.16087880547E+02  0.63476336589E+02  0.00000000000E+00 0. -1.
         13    1    4    4    0    0  0.58563864384E+01 -0.10074890033E+03  0.19524561921E+02  0.10279030449E+03  0.00000000000E+00 0.  1.
          1    1    1    2  501    0  0.19440939241E+02  0.21011827301E+02  0.19049384357E+02  0.34384968366E+02  0.00000000000E+00 0. -1.
<scales pt_clust_5="13000.00000" pt_clust_6="13000.00000" pt_clust_7="13000.00000" pt_clust_8="13000.00000" pt_clust_9="28.62598"></scales>
<clustering>
<clus scale="   28.626">  1  9  2 -1</clus>
<clus scale="   90.889">  5  6 -1 -1</clus>
<clus scale="   92.667">  7  8 -1 -1</clus>
<clus scale="  152.254">  2  5  1 -1</clus>
<clus scale="   28.626">  1  5  2 -1</clus>
</clustering>
</event>
<event>
 9    1  0.1881049E-005  0.2310191E+03  0.7546771E-02  0.1126006E+00
         21   -1    0    0  501  502  0.00000000000E+00  0.00000000000E+00  0.87399803256E+03  0.87399803256E+03  0.00000000000E+00 0. -1.
         -3   -1    0    0    0  501 -0.00000000000E+00 -0.00000000000E+00 -0.12876465308E+03  0.12876465308E+03  0.00000000000E+00 0.  1.
         23    2    1    2    0    0  0.98423546698E+02  0.18514741079E+03  0.24110185748E+02  0.23041048040E+03  0.92417152927E+02 0.  0.
         23    2    1    2    0    0 -0.82209934774E+02 -0.20654561787E+03  0.56564242378E+03  0.61457060205E+03  0.91247507865E+02 0.  0.
        -11    1    3    3    0    0  0.82551252940E+02  0.15724653977E+03 -0.16821527815E+02  0.17839323818E+03  0.00000000000E+00 0.  1.
         11    1    3    3    0    0  0.15872293758E+02  0.27900871021E+02  0.40931713563E+02  0.52017242219E+02  0.00000000000E+00 0. -1.
        -11    1    4    4    0    0 -0.71410858919E+02 -0.63673692454E+02  0.25896788365E+03  0.27607646521E+03  0.00000000000E+00 0.  1.
         11    1    4    4    0    0 -0.10799075855E+02 -0.14287192542E+03  0.30667454012E+03  0.33849413683E+03  0.00000000000E+00 0. -1.
         -3    1    1    2    0  502 -0.16213611924E+02  0.21398207084E+02  0.15548076996E+03  0.15778160319E+03  0.00000000000E+00 0.  1.
<scales pt_clust_5="13000.00000" pt_clust_6="13000.00000" pt_clust_7="13000.00000" pt_clust_8="13000.00000" pt_clust_9="26.84706"></scales>
<clustering>
<clus scale="   26.847">  1  9  2 -1</clus>
<clus scale="   91.248">  7  8 -1 -1</clus>
<clus scale="   92.417">  5  6 -1 -1</clus>
<clus scale="  230.554">  1  7  2 -1</clus>
<clus scale="   26.847">  1  5  2 -1</clus>
</clustering>
</event>
<event>
 9    1  0.1881049E-005  0.1341874E+03  0.7546771E-02  0.1223743E+00
         -2   -1    0    0    0  501 -0.00000000000E+00  0.00000000000E+00  0.17361482551E+03  0.17361482551E+03  0.00000000000E+00 0. -1.
         21   -1    0    0  501  502  0.00000000000E+00 -0.00000000000E+00 -0.23611072666E+03  0.23611072666E+03  0.00000000000E+00 0.  1.
         23    2    1    2    0    0  0.33199904917E+02  0.87927474462E+02  0.11578483772E+03  0.17891998828E+03  0.98857266336E+02 0.  0.
         23    2    1    2    0    0 -0.93706104696E+01 -0.76300534482E+02 -0.13007425196E+03  0.17578841760E+03  0.89848076414E+02 0.  0.
        -11    1    3    3    0    0  0.53411948189E+02  0.44995668510E+02  0.21011381440E+02  0.72930957378E+02  0.00000000000E+00 0.  1.
         11    1    3    3    0    0 -0.20212043272E+02  0.42931805951E+02  0.94773456282E+02  0.10598903090E+03  0.00000000000E+00 0. -1.
        -11    1    4    4    0    0  0.10121054112E+02  0.17594754661E+02 -0.36712563764E+02  0.41950249892E+02  0.00000000000E+00 0. -1.
         11    1    4    4    0    0 -0.19491664582E+02 -0.93895289143E+02 -0.93361688195E+02  0.13383816770E+03  0.00000000000E+00 0.  1.
         -2    1    1    2    0  502 -0.23829294448E+02 -0.11626939980E+02 -0.48206486908E+02  0.55017146302E+02  0.00000000000E+00 0. -1.
<scales pt_clust_5="13000.00000" pt_clust_6="13000.00000" pt_clust_7="13000.00000" pt_clust_8="13000.00000" pt_clust_9="26.51454"></scales>
<clustering>
<clus scale="   26.515">  2  9  1 -1</clus>
<clus scale="   89.848">  7  8 -1 -1</clus>
<clus scale="   98.857">  5  6 -1 -1</clus>
<clus scale="  127.696">  2  7  1 -1</clus>
<clus scale="   26.515">  2  5  1 -1</clus>
</clustering>
</event>
<event>
 9    1  0.1881049E-005  0.9710109E+02  0.7546771E-02  0.1286979E+00
         21   -1    0    0  501  502  0.00000000000E+00  0.00000000000E+00  0.10852707514E+03  0.10852707514E+03  0.00000000000E+00 0. -1.
          2   -1    0    0  502    0 -0.00000000000E+00 -0.00000000000E+00 -0.44414376651E+03  0.44414376651E+03  0.00000000000E+00 0. -1.
         23    2    1    2    0    0  0.26904335159E+02 -0.36078448452E+02 -0.28886648540E+03  0.30645198604E+03  0.91888386983E+02 0.  0.
         23    2    1    2    0    0  0.13617087759E+02  0.16199679061E+02 -0.12490011630E+03  0.15597164140E+03  0.90990434596E+02 0.  0.
        -13    1    3    3    0    0  0.37391222072E+02  0.47987474180E+01 -0.43846283666E+02  0.57824113103E+02  0.00000000000E+00 0.  1.
         13    1    3    3    0    0 -0.10486886913E+02 -0.40877195870E+02 -0.24502020174E+03  0.24862787293E+03  0.00000000000E+00 0. -1.
        -13    1    4    4    0    0  0.19461293294E+02 -0.27717730101E+02 -0.14180015148E+02  0.36716308750E+02  0.00000000000E+00 0. -1.
         13    1    4    4    0    0 -0.58442055356E+01  0.43917409163E+02 -0.11072010115E+03  0.11925533265E+03  0.00000000000E+00 0.  1.
          2    1    1    2  501    0 -0.40521422917E+02  0.19878769391E+02  0.78149910332E+02  0.90247214210E+02  0.00000000000E+00 0. -1.
<scales pt_clust_5="13000.00000" pt_clust_6="13000.00000" pt_clust_7="13000.00000" pt_clust_8="13000.00000" pt_clust_9="45.13481"></scales>
<clustering>
<clus scale="   45.135">  1  9  2 -1</clus>
<clus scale="   90.990">  7  8 -1 -1</clus>
<clus scale="   91.888">  5  6 -1 -1</clus>
<clus scale="   96.252">  1  7  2 -1</clus>
<clus scale="   45.135">  1  5  2 -1</clus>
</clustering>
</event>
<event>
 9    1  0.1881049E-005  0.1480824E+03  0.7546771E-02  0.1204144E+00
         -4   -1    0    0    0  501 -0.00000000000E+00  0.00000000000E+00  0.22700332745E+03  0.22700332745E+03  0.00000000000E+00 0.  1.
         21   -1    0    0  501  502  0.00000000000E+00 -0.00000000000E+00 -0.20928401838E+03  0.20928401838E+03  0.00000000000E+00 0.  1.
         23    2    1    2    0    0 -0.12561926463E+02  0.77186536804E+02 -0.13786009233E+02  0.11842114766E+03  0.87851867956E+02 0.  0.
         23    2    1    2    0    0  0.65684413352E+02 -0.16442636309E+03 -0.23218370214E+02  0.20198924623E+03  0.94393282817E+02 0.  0.
        -11    1    3    3    0    0  0.27107926496E+02  0.27452946457E+02 -0.34253473948E+02  0.51592678023E+02  0.00000000000E+00 0.  1.
         11    1    3    3    0    0 -0.39669852960E+02  0.49733590348E+02  0.20467464715E+02  0.66828469641E+02  0.00000000000E+00 0. -1.
        -13    1    4    4    0    0  0.88706527281E+01 -0.30122819247E+02 -0.44660508570E+02  0.54595180602E+02  0.00000000000E+00 0. -1.
         13    1    4    4    0    0  0.56813760624E+02 -0.13430354385E+03  0.21442138356E+02  0.14739406563E+03  0.00000000000E+00 0.  1.
         -4    1    1    2    0  502 -0.53122486889E+02  0.87239826290E+02  0.54723688515E+02  0.11587695193E+03  0.00000000000E+00 0.  1.
<scales pt_clust_5="13000.00000" pt_clust_6="13000.00000" pt_clust_7="13000.00000" pt_clust_8="13000.00000" pt_clust_9="102.14106"></scales>
<clustering>
<clus scale="   87.852">  5  6 -1 -1</clus>
<clus scale="   94.393">  7  8 -1 -1</clus>
<clus scale="  102.141">  2  9  1 -1</clus>
<clus scale="  144.001">  1  5  2 -1</clus>
<clus scale="  102.141">  2  5  1 -1</clus>
</clustering>
</event>
<event>
 9    1  0.1881049E-005  0.1770664E+03  0.7546771E-02  0.1172499E+00
         -1   -1    0    0    0  501 -0.00000000000E+00  0.00000000000E+00  0.93292668335E+03  0.93292668335E+03  0.00000000000E+00 0.  1.
         21   -1    0    0  501  502  0.00000000000E+00 -0.00000000000E+00 -0.60637938339E+02  0.60637938339E+02  0.00000000000E+00 0. -1.
         23    2    1    2    0    0 -0.81045629437E+02  0.11673916193E+03  0.59094262942E+03  0.61670599860E+03  0.10448287642E+03 0.  0.
         23    2    1    2    0    0  0.40351442479E+02 -0.14457662110E+03  0.27596922089E+03  0.32726172820E+03  0.91709266665E+02 0.  0.
        -11    1    4    4    0    0  0.27225729044E+02 -0.85614520454E+02  0.24160077922E+03  0.25776350198E+03  0.00000000000E+00 0. -1.
         11    1    4    4    0    0  0.13125713435E+02 -0.58962100644E+02  0.34368441669E+02  0.69498226224E+02  0.00000000000E+00 0.  1.
        -13    1    3    3    0    0 -0.10302658521E+03  0.69527519099E+02  0.42055454810E+03  0.43853697802E+03  0.00000000000E+00 0.  1.
         13    1    3    3    0    0  0.21980955771E+02  0.47211642828E+02  0.17038808132E+03  0.17816902057E+03  0.00000000000E+00 0. -1.
         -1    1    1    2    0  502  0.40694186958E+02  0.27837459171E+02  0.53768947010E+01  0.49596894882E+02  0.00000000000E+00 0.  1.
<scales pt_clust_5="13000.00000" pt_clust_6="13000.00000" pt_clust_7="13000.00000" pt_clust_8="13000.00000" pt_clust_9="49.30457"></scales>
<clustering>
<clus scale="   49.305">  2  9  1 -1</clus>
<clus scale="   91.709">  5  6 -1 -1</clus>
<clus scale="  104.483">  7  8 -1 -1</clus>
<clus scale="  169.842">  2  5  1 -1</clus>
<clus scale="   49.305">  2  5  1 -1</clus>
</clustering>
</event>
<event>
 9    1  0.1881049E-005  0.1007099E+03  0.7546771E-02  0.1279116E+00
         21   -1    0    0  501  502  0.00000000000E+00  0.00000000000E+00  0.62744963692E+02  0.62744963692E+02  0.00000000000E+00 0. -1.
         -1   -1    0    0    0  501 -0.00000000000E+00 -0.00000000000E+00 -0.36585296807E+03  0.36585296807E+03  0.00000000000E+00 0.  1.
         23    2    1    2    0    0  0.14967961850E+02  0.51651739210E+01 -0.11128693878E+03  0.14426116064E+03  0.90420024449E+02 0.  0.
         23    2    1    2    0    0 -0.32191818273E+02 -0.81183293435E+02 -0.14955097822E+03  0.19566785881E+03  0.91067972352E+02 0.  0.
        -11    1    4    4    0    0 -0.17928826158E+02 -0.98266267699E+02 -0.99969250281E+02  0.14132074574E+03  0.00000000000E+00 0. -1.
         11    1    4    4    0    0 -0.14262992116E+02  0.17082974263E+02 -0.49581727936E+02  0.54347113068E+02  0.00000000000E+00 0.  1.
        -13    1    3    3    0    0  0.38171455465E+02 -0.35494010827E+01 -0.11308860829E+03  0.11940976336E+03  0.00000000000E+00 0. -1.
         13    1    3    3    0    0 -0.23203493615E+02  0.87145750037E+01  0.18016695133E+01  0.24851397274E+02  0.00000000000E+00 0.  1.
         -1    1    1    2    0  502  0.17223856423E+02  0.76018119514E+02 -0.42270087384E+02  0.88668912320E+02  0.00000000000E+00 0.  1.
<scales pt_clust_5="13000.00000" pt_clust_6="13000.00000" pt_clust_7="13000.00000" pt_clust_8="13000.00000" pt_clust_9="77.94495"></scales>
<clustering>
<clus scale="   77.945">  1  9  2 -1</clus>
<clus scale="   90.420">  7  8 -1 -1</clus>
<clus scale="   91.068">  5  6 -1 -1</clus>
<clus scale="  100.124">  2  7  1 -1</clus>
<clus scale="   77.945">  1  5  2 -1</clus>
</clustering>
</event>
<event>
 9    1  0.1881049E-005  0.1479097E+03  0.7546771E-02  0.1203123E+00
          2   -1    0    0  502    0 -0.00000000000E+00  0.00000000000E+00  0.20274884373E+03  0.20274884373E+03  0.00000000000E+00 0. -1.
         21   -1    0    0  501  502  0.00000000000E+00 -0.00000000000E+00 -0.23115999593E+03  0.23115999593E+03  0.00000000000E+00 0. -1.
         23    2    1    2    0    0  0.99542329759E+02 -0.50019583675E+02  0.10938222435E+03  0.17999322582E+03  0.89568164940E+02 0.  0.
         23    2    1    2    0    0 -0.13073513581E+03  0.52449322495E+02 -0.73160355825E+02  0.18210807839E+03  0.89265376179E+02 0.  0.
        -13    1    3    3    0    0 -0.11021197252E+02 -0.26383925240E+02  0.32394305410E+02  0.43208440413E+02  0.00000000000E+00 0.  1.
         13    1    3    3    0    0  0.11056352701E+03 -0.23635658435E+02  0.76987918943E+02  0.13678478540E+03  0.00000000000E+00 0. -1.
        -13    1    4    4    0    0 -0.12306566495E+03  0.11268178427E+02 -0.44481253674E+02  0.13134196459E+03  0.00000000000E+00 0. -1.
         13    1    4    4    0    0 -0.76694708648E+01  0.41181144069E+02 -0.28679102150E+02  0.50766113800E+02  0.00000000000E+00 0.  1.
          2    1    1    2  501    0  0.31192806054E+02 -0.24297388208E+01 -0.64633020723E+02  0.71807535455E+02  0.00000000000E+00 0. -1.
<scales pt_clust_5="13000.00000" pt_clust_6="13000.00000" pt_clust_7="13000.00000" pt_clust_8="13000.00000" pt_clust_9="31.28729"></scales>
<clustering>
<clus scale="   31.287">  2  9  1 -1</clus>
<clus scale="   89.265">  7  8 -1 -1</clus>
<clus scale="   89.568">  5  6 -1 -1</clus>
<clus scale="  147.727">  2  7  1 -1</clus>
<clus scale="   31.287">  2  5  1 -1</clus>
</clustering>
</event>
<event>
 9    1  0.1881049E-005  0.1749548E+03  0.7546771E-02  0.1173842E+00
          1   -1    0    0  502    0 -0.00000000000E+00  0.00000000000E+00  0.19088357323E+03  0.19088357323E+03  0.00000000000E+00 0. -1.
         21   -1    0    0  501  502  0.00000000000E+00 -0.00000000000E+00 -0.29856332472E+03  0.29856332472E+03  0.00000000000E+00 0.  1.
         23    2    1    2    0    0 -0.32745664029E+02  0.13761584267E+03  0.49724372616E+02  0.18085367439E+03  0.10111943255E+03 0.  0.
         23    2    1    2    0    0 -0.45282167299E+02 -0.13700655162E+03 -0.75392943565E+02  0.19539186566E+03  0.10803987859E+03 0.  0.
        -11    1    4    4    0    0 -0.15885361917E+02 -0.74156249420E+02 -0.96623035176E+02  0.12283120523E+03  0.00000000000E+00 0. -1.
         11    1    4    4    0    0 -0.29396805381E+02 -0.62850302196E+02  0.21230091611E+02  0.72560660434E+02  0.00000000000E+00 0.  1.
        -13    1    3    3    0    0 -0.51146034141E+02  0.76981949225E+02 -0.11017100877E+02  0.93077998617E+02  0.00000000000E+00 0.  1.
         13    1    3    3    0    0  0.18400370112E+02  0.60633893449E+02  0.60741473493E+02  0.87775675771E+02  0.00000000000E+00 0. -1.
          1    1    1    2  501    0  0.78027831328E+02 -0.60929105726E+00 -0.82011180534E+02  0.11320135790E+03  0.00000000000E+00 0. -1.
<scales pt_clust_5="13000.00000" pt_clust_6="13000.00000" pt_clust_7="13000.00000" pt_clust_8="13000.00000" pt_clust_9="78.03021"></scales>
<clustering>
<clus scale="   78.030">  2  9  1 -1</clus>
<clus scale="  101.119">  7  8 -1 -1</clus>
<clus scale="  108.040">  5  6 -1 -1</clus>
<clus scale="  170.768">  1  7  2 -1</clus>
<clus scale="   78.030">  2  5  1 -1</clus>
</clustering>
</event>
<event>
 9    1  0.1881049E-005  0.2935823E+03  0.7546771E-02  0.1108687E+00
         21   -1    0    0  501  502  0.00000000000E+00  0.00000000000E+00  0.41135269384E+03  0.41135269384E+03  0.00000000000E+00 0. -1.
          2   -1    0    0  502    0 -0.00000000000E+00 -0.00000000000E+00 -0.42006426741E+03  0.42006426741E+03  0.00000000000E+00 0. -1.
         23    2    1    2    0    0  0.10568519142E+03 -0.10325073766E+03 -0.15408675865E+02  0.17428827327E+03  0.91153169964E+02 0.  0.
         23    2    1    2    0    0 -0.33415729606E+03  0.18558302126E+03 -0.76784318273E+02  0.40032671154E+03  0.90903730094E+02 0.  0.
        -13    1    3    3    0    0  0.11823477014E+02 -0.63722187405E+02  0.17722440765E+02  0.67189260177E+02  0.00000000000E+00 0. -1.
         13    1    3    3    0    0  0.93861714401E+02 -0.39528550253E+02 -0.33131116630E+02  0.10709901309E+03  0.00000000000E+00 0.  1.
        -13    1    4    4    0    0 -0.30237803667E+03  0.13332163288E+03 -0.76303041252E+02  0.33915968062E+03  0.00000000000E+00 0. -1.
         13    1    4    4    0    0 -0.31779259387E+02  0.52261388386E+02 -0.48127702099E+00  0.61167030914E+02  0.00000000000E+00 0.  1.
          2    1    1    2  501    0  0.22847210464E+03 -0.82332283606E+02  0.83481420565E+02  0.25680197644E+03  0.00000000000E+00 0. -1.
<scales pt_clust_5="13000.00000" pt_clust_6="13000.00000" pt_clust_7="13000.00000" pt_clust_8="13000.00000" pt_clust_9="279.15421"></scales>
<clustering>
<clus scale="   90.904">  7  8 -1 -1</clus>
<clus scale="   91.153">  5  6 -1 -1</clus>
<clus scale="  173.606">  2  5  1 -1</clus>
<clus scale="  279.154">  1  9  2 -1</clus>
<clus scale="  279.154">  1  5  2 -1</clus>
</clustering>
</event>
<event>
 9    1  0.1881049E-005  0.1086287E+03  0.7546771E-02  0.1263553E+00
          2   -1    0    0  502    0 -0.00000000000E+00  0.00000000000E+00  0.14807888480E+03  0.14807888480E+03  0.00000000000E+00 0. -1.
         21   -1    0    0  501  502  0.00000000000E+00 -0.00000000000E+00 -0.16001216075E+03  0.16001216075E+03  0.00000000000E+00 0. -1.
         23    2    1    2    0    0 -0.49930413048E+02  0.40605807511E+02  0.50548478623E+02  0.12187209426E+03  0.90309362289E+02 0.  0.
         23    2    1    2    0    0  0.25275153927E+02 -0.47686148028E+02  0.12608189747E+02  0.10686838254E+03  0.91373314584E+02 0.  0.
        -11    1    3    3    0    0  0.19449331566E+02  0.35288855088E+02  0.26605159307E+02  0.48284721119E+02  0.00000000000E+00 0. -1.
         11    1    3    3    0    0 -0.69379744613E+02  0.53169524233E+01  0.23943319316E+02  0.73587373139E+02  0.00000000000E+00 0.  1.
        -11    1    4    4    0    0  0.18423703897E+01  0.26446127851E+02 -0.54184476185E+01  0.27058299680E+02  0.00000000000E+00 0.  1.
         11    1    4    4    0    0  0.23432783537E+02 -0.74132275879E+02  0.18026637365E+02  0.79810082859E+02  0.00000000000E+00 0. -1.
          2    1    1    2  501    0  0.24655259121E+02  0.70803405165E+01 -0.75089944317E+02  0.79350568755E+02  0.00000000000E+00 0. -1.
<scales pt_clust_5="13000.00000" pt_clust_6="13000.00000" pt_clust_7="13000.00000" pt_clust_8="13000.00000" pt_clust_9="25.65176"></scales>
<clustering>
<clus scale="   25.652">  2  9  1 -1</clus>
<clus scale="   90.309">  5  6 -1 -1</clus>
<clus scale="   91.373">  7  8 -1 -1</clus>
<clus scale="  107.735">  1  5  2 -1</clus>
<clus scale="   25.652">  2  5  1 -1</clus>
</clustering>
</event>
<event>
 9    1  0.1881049E-005  0.1317799E+03  0.7546771E-02  0.1235358E+00
         21   -1    0    0  501  502  0.00000000000E+00  0.00000000000E+00  0.19678087816E+03  0.19678087816E+03  0.00000000000E+00 0. -1.
          1   -1    0    0  502    0 -0.00000000000E+00 -0.00000000000E+00 -0.27188568168E+03  0.27188568168E+03  0.00000000000E+00 0. -1.
         23    2    1    2    0    0  0.62866417864E+02 -0.40332300214E+01 -0.22011160728E+03  0.25835097129E+03  0.11969816737E+03 0.  0.
         23    2    1    2    0    0 -0.16708627091E+02  0.23221039175E+02  0.62106679539E+02  0.11351091787E+03  0.90604050419E+02 0.  0.
        -11    1    4    4    0    0 -0.18656474696E+02  0.56495330650E+02  0.27772428510E+02  0.65658923374E+02  0.00000000000E+00 0. -1.
         11    1    4    4    0    0  0.19478476044E+01 -0.33274291474E+02  0.34334251029E+02  0.47851994495E+02  0.00000000000E+00 0.  1.
        -13    1    3    3    0    0  0.84078748155E+02 -0.25694121639E+02 -0.94250189332E+02  0.12888957276E+03  0.00000000000E+00 0.  1.
         13    1    3    3    0    0 -0.21212330292E+02  0.21660891618E+02 -0.12586141794E+03  0.12946139853E+03  0.00000000000E+00 0. -1.
          1    1    1    2  501    0 -0.46157790772E+02 -0.19187809154E+02  0.82900124216E+02  0.96804670673E+02  0.00000000000E+00 0. -1.
<scales pt_clust_5="13000.00000" pt_clust_6="13000.00000" pt_clust_7="13000.00000" pt_clust_8="13000.00000" pt_clust_9="49.98714"></scales>
<clustering>
<clus scale="   49.987">  1  9  2 -1</clus>
<clus scale="   90.604">  5  6 -1 -1</clus>
<clus scale="  106.054">  1  5  2 -1</clus>
<clus scale="  119.698">  7  8 -1 -1</clus>
<clus scale="   49.987">  1  5  2 -1</clus>
</clustering>
</event>
<event>
 9    1  0.1881049E-005  0.1240721E+03  0.7546771E-02  0.1236670E+00
         21   -1    0    0  501  502  0.00000000000E+00  0.00000000000E+00  0.22570165992E+02  0.22570165992E+02  0.00000000000E+00 0.  1.
          2   -1    0    0  502    0 -0.00000000000E+00 -0.00000000000E+00 -0.16146447416E+04  0.16146447416E+04  0.00000000000E+00 0. -1.
         23    2    1    2    0    0 -0.18635823510E+02  0.52157828785E+02 -0.41373851215E+03  0.42709502396E+03  0.90348602805E+02 0.  0.
         23    2    1    2    0    0  0.21933155872E+02 -0.14116024221E+03 -0.54439518612E+03  0.56995323506E+03  0.89851511807E+02 0.  0.
        -11    1    3    3    0    0 -0.37481155232E+02 -0.16645513087E+01 -0.78072956327E+02  0.86619825896E+02  0.00000000000E+00 0.  1.
         11    1    3    3    0    0  0.18845331722E+02  0.53822380094E+02 -0.33566555583E+03  0.34047519806E+03  0.00000000000E+00 0. -1.
        -13    1    4    4    0    0 -0.19757069222E+02 -0.90560333554E+02 -0.41093275969E+03  0.42125674925E+03  0.00000000000E+00 0.  1.
         13    1    4    4    0    0  0.41690225094E+02 -0.50599908656E+02 -0.13346242643E+03  0.14869648581E+03  0.00000000000E+00 0. -1.
          2    1    1    2  501    0 -0.32973323614E+01  0.89002413425E+02 -0.63394087733E+03  0.64016664857E+03  0.00000000000E+00 0. -1.
<scales pt_clust_5="13000.00000" pt_clust_6="13000.00000" pt_clust_7="13000.00000" pt_clust_8="13000.00000" pt_clust_9="89.06352"></scales>
<clustering>
<clus scale="   89.064">  1  9  2 -1</clus>
<clus scale="   89.852">  7  8 -1 -1</clus>
<clus scale="   90.349">  5  6 -1 -1</clus>
<clus scale="  123.711">  1  7  2 -1</clus>
<clus scale="   89.064">  1  5  2 -1</clus>
</clustering>
</event>
<event>
 9    1  0.1881049E-005  0.9952590E+02  0.7546771E-02  0.1285049E+00
          1   -1    0    0  502    0 -0.00000000000E+00  0.00000000000E+00  0.39352267278E+03  0.39352267278E+03  0.00000000000E+00 0. -1.
         21   -1    0    0  501  502  0.00000000000E+00 -0.00000000000E+00 -0.81534412971E+02  0.81534412971E+02  0.00000000000E+00 0.  1.
         23    2    1    2    0    0 -0.11221927657E+02 -0.20426983294E+02  0.33449727550E+03  0.34704395171E+03  0.89486780027E+02 0.  0.
         23    2    1    2    0    0 -0.18991388793E+01  0.37063891283E+02 -0.11303868880E+02  0.10404431242E+03  0.96540679145E+02 0.  0.
        -11    1    4    4    0    0  0.17976444369E+02  0.59615488522E+02  0.15058660021E+02  0.64061862801E+02  0.00000000000E+00 0.  1.
         11    1    4    4    0    0 -0.19875583248E+02 -0.22551597239E+02 -0.26362528902E+02  0.39982449619E+02  0.00000000000E+00 0. -1.
        -11    1    3    3    0    0 -0.31436644650E+02 -0.48514223481E+02  0.20326133283E+03  0.21132217567E+03  0.00000000000E+00 0. -1.
         11    1    3    3    0    0  0.20214716993E+02  0.28087240187E+02  0.13123594266E+03  0.13572177604E+03  0.00000000000E+00 0.  1.
          1    1    1    2  501    0  0.13121066536E+02 -0.16636907989E+02 -0.11205146810E+02  0.23968821613E+02  0.00000000000E+00 0. -1.
<scales pt_clust_5="13000.00000" pt_clust_6="13000.00000" pt_clust_7="13000.00000" pt_clust_8="13000.00000" pt_clust_9="21.18842"></scales>
<clustering>
<clus scale="   21.188">  2  9  1 -1</clus>
<clus scale="   89.487">  7  8 -1 -1</clus>
<clus scale="   92.699">  1  7  2 -1</clus>
<clus scale="   96.541">  5  6 -1 -1</clus>
<clus scale="   21.188">  2  5  1 -1</clus>
</clustering>
</event>
<event>
 9    1  0.1881049E-005  0.9435845E+02  0.7546771E-02  0.1293969E+00
         21   -1    0    0  501  502  0.00000000000E+00  0.00000000000E+00  0.63737665811E+02  0.63737665811E+02  0.00000000000E+00 0. -1.
          3   -1    0    0  502    0 -0.00000000000E+00 -0.00000000000E+00 -0.23927578447E+03  0.23927578447E+03  0.00000000000E+00 0. -1.
         23    2    1    2    0    0  0.20218794586E+02 -0.13102496194E+02 -0.99904608909E+02  0.13658311877E+03  0.89964117245E+02 0.  0.
         23    2    1    2    0    0 -0.16349073762E+02 -0.34920128002E+02 -0.50675593861E+02  0.11217127936E+03  0.92345398090E+02 0.  0.
        -11    1    3    3    0    0  0.50870443744E+02 -0.27772563044E+02 -0.73184703287E+02  0.93354796877E+02  0.00000000000E+00 0. -1.
         11    1    3    3    0    0 -0.30651649158E+02  0.14670066850E+02 -0.26719905622E+02  0.43228321896E+02  0.00000000000E+00 0.  1.
        -13    1    4    4    0    0  0.15009314159E+02 -0.38394471347E+02 -0.65436166204E+02  0.77338908635E+02  0.00000000000E+00 0.  1.
         13    1    4    4    0    0 -0.31358387920E+02  0.34743433447E+01  0.14760572343E+02  0.34832370728E+02  0.00000000000E+00 0. -1.
          3    1    1    2  501    0 -0.38697208244E+01  0.48022624196E+02 -0.24957915886E+02  0.54259052142E+02  0.00000000000E+00 0. -1.
<scales pt_clust_5="13000.00000" pt_clust_6="13000.00000" pt_clust_7="13000.00000" pt_clust_8="13000.00000" pt_clust_9="48.17829"></scales>
<clustering>
<clus scale="   48.178">  1  9  2 -1</clus>
<clus scale="   89.964">  5  6 -1 -1</clus>
<clus scale="   92.029">  2  5  1 -1</clus>
<clus scale="   92.345">  7  8 -1 -1</clus>
<clus scale="   48.178">  1  5  2 -1</clus>
</clustering>
</event>
<event>
 9    1  0.1881049E-005  0.1225569E+03  0.7546771E-02  0.1243663E+00
         21   -1    0    0  501  502  0.00000000000E+00  0.00000000000E+00  0.15797008543E+03  0.15797008543E+03  0.00000000000E+00 0. -1.
         -3   -1    0    0    0  501 -0.00000000000E+00 -0.00000000000E+00 -0.19637422624E+03  0.19637422624E+03  0.00000000000E+00 0.  1.
         23    2    1    2    0    0 -0.96013512914E+01 -0.61171825358E+02 -0.91531309018E+02  0.15257225238E+03  0.10519569146E+03 0.  0.
         23    2    1    2    0    0  0.32265150274E+02  0.58274975957E+02 -0.28476770648E+02  0.11702984809E+03  0.91913253301E+02 0.  0.
        -11    1    3    3    0    0 -0.25860964903E+02  0.17291750237E+02 -0.25111918961E+00  0.31110403289E+02  0.00000000000E+00 0.  1.
         11    1    3    3    0    0  0.16259613612E+02 -0.78463575595E+02 -0.91280189829E+02  0.12146184909E+03  0.00000000000E+00 0. -1.
        -11    1    4    4    0    0  0.23436140537E+02 -0.17770169909E+02 -0.27800392436E+02  0.40470896228E+02  0.00000000000E+00 0. -1.
         11    1    4    4    0    0  0.88290097371E+01  0.76045145866E+02 -0.67637821152E+00  0.76558951862E+02  0.00000000000E+00 0.  1.
         -3    1    1    2    0  502 -0.22663798983E+02  0.28968494007E+01  0.81603938864E+02  0.84742211199E+02  0.00000000000E+00 0.  1.
<scales pt_clust_5="13000.00000" pt_clust_6="13000.00000" pt_clust_7="13000.00000" pt_clust_8="13000.00000" pt_clust_9="22.84818"></scales>
<clustering>
<clus scale="   22.848">  1  9  2 -1</clus>
<clus scale="   91.913">  7  8 -1 -1</clus>
<clus scale="  105.196">  5  6 -1 -1</clus>
<clus scale="  111.365">  1  7  2 -1</clus>
<clus scale="   22.848">  1  5  2 -1</clus>
</clustering>
</event>
<event>
 9    1  0.2100661E-005  0.1085832E+03  0.7546771E-02  0.1268730E+00
         21   -1    0    0  501  502  0.00000000000E+00  0.00000000000E+00  0.99417866594E+02  0.99417866594E+02  0.00000000000E+00 0. -1.
          1   -1    0    0  502    0 -0.00000000000E+00 -0.00000000000E+00 -0.69555648483E+03  0.69555648483E+03  0.00000000000E+00 0. -1.
         23    2    1    2    0    0  0.26695272065E+02 -0.52385464174E+02 -0.62640189540E+03  0.63598250293E+03  0.92938340077E+02 0.  0.
         23    2    1    2    0    0 -0.25407667962E+02  0.88606575133E+00  0.56689520875E+02  0.10109372833E+03  0.79749015211E+02 0.  0.
        -13    1    3    3    0    0 -0.71482614703E+01  0.24698076658E+02 -0.13670949561E+03  0.13910635795E+03  0.00000000000E+00 0.  1.
         13    1    3    3    0    0  0.33843533535E+02 -0.77083540832E+02 -0.48969239980E+03  0.49687614498E+03  0.00000000000E+00 0. -1.
        -13    1    4    4    0    0 -0.11792894352E+02 -0.39287470690E+02  0.23845236293E+02  0.47446527842E+02  0.00000000000E+00 0. -1.
         13    1    4    4    0    0 -0.13614773610E+02  0.40173536441E+02  0.32844284582E+02  0.53647200489E+02  0.00000000000E+00 0.  1.
          1    1    1    2  501    0 -0.12876041027E+01  0.51499398422E+02 -0.26426243705E+02  0.57898120164E+02  0.00000000000E+00 0. -1.
<scales pt_clust_5="13000.00000" pt_clust_6="13000.00000" pt_clust_7="13000.00000" pt_clust_8="13000.00000" pt_clust_9="51.51549"></scales>
<clustering>
<clus scale="   51.515">  1  9  2 -1</clus>
<clus scale="   79.749">  7  8 -1 -1</clus>
<clus scale="   92.938">  5  6 -1 -1</clus>
<clus scale="   97.533">  1  7  2 -1</clus>
<clus scale="   51.515">  1  5  2 -1</clus>
</clustering>
</event>
<event>
 9    1  0.1881049E-005  0.1077651E+03  0.7546771E-02  0.1268677E+00
         -1   -1    0    0    0  501 -0.00000000000E+00  0.00000000000E+00  0.26067829872E+03  0.26067829872E+03  0.00000000000E+00 0.  1.
         21   -1    0    0  501  502  0.00000000000E+00 -0.00000000000E+00 -0.13194256552E+03  0.13194256552E+03  0.00000000000E+00 0. -1.
         23    2    1    2    0    0  0.14011381235E+02 -0.38053140488E+02  0.15546429495E+03  0.18757006061E+03  0.96793699849E+02 0.  0.
         23    2    1    2    0    0 -0.16435077968E+02  0.90298481747E+02 -0.62550600042E+02  0.14165783543E+03  0.87922904755E+02 0.  0.
        -11    1    3    3    0    0 -0.11684688145E+02 -0.32502813583E+02  0.15746199490E+03  0.16120559750E+03  0.00000000000E+00 0.  1.
         11    1    3    3    0    0  0.25696069380E+02 -0.55503269056E+01 -0.19976999501E+01  0.26364463116E+02  0.00000000000E+00 0. -1.
        -13    1    4    4    0    0 -0.60113986917E+01  0.42610079040E+02  0.18661510997E+02  0.46904240136E+02  0.00000000000E+00 0.  1.
         13    1    4    4    0    0 -0.10423679277E+02  0.47688402706E+02 -0.81212111040E+02  0.94753595298E+02  0.00000000000E+00 0. -1.
         -1    1    1    2    0  502  0.24236967336E+01 -0.52245341258E+02  0.35822038295E+02  0.63392968195E+02  0.00000000000E+00 0.  1.
<scales pt_clust_5="13000.00000" pt_clust_6="13000.00000" pt_clust_7="13000.00000" pt_clust_8="13000.00000" pt_clust_9="52.30156"></scales>
<clustering>
<clus scale="   52.302">  2  9  1 -1</clus>
<clus scale="   87.923">  7  8 -1 -1</clus>
<clus scale="   96.794">  5  6 -1 -1</clus>
<clus scale="   99.874">  2  7  1 -1</clus>
<clus scale="   52.302">  2  5  1 -1</clus>
</clustering>
</event>
<event>
 9    1  0.1881049E-005  0.9326178E+02  0.7546771E-02  0.1295417E+00
         21   -1    0    0  501  502  0.00000000000E+00  0.00000000000E+00  0.64541950488E+02  0.64541950488E+02  0.00000000000E+00 0.  1.
          1   -1    0    0  502    0 -0.00000000000E+00 -0.00000000000E+00 -0.37079139435E+03  0.37079139435E+03  0.00000000000E+00 0. -1.
         23    2    1    2    0    0  0.13136139716E+02 -0.58880376291E+01 -0.27224868819E+03  0.28784480939E+03  0.92347490050E+02 0.  0.
         23    2    1    2    0    0  0.55338227997E+01 -0.11928191753E+02 -0.59634078224E+02  0.11111474331E+03  0.92829725526E+02 0.  0.
        -11    1    3    3    0    0  0.51716268349E+02 -0.11636535940E+01 -0.18930737743E+03  0.19624782713E+03  0.00000000000E+00 0. -1.
         11    1    3    3    0    0 -0.38580128632E+02 -0.47243840351E+01 -0.82941310758E+02  0.91596982265E+02  0.00000000000E+00 0.  1.
        -11    1    4    4    0    0  0.85278597854E+01  0.40426474991E+02 -0.26225919289E+02  0.48936929975E+02  0.00000000000E+00 0.  1.
         11    1    4    4    0    0 -0.29940369857E+01 -0.52354666744E+02 -0.33408158935E+02  0.62177813332E+02  0.00000000000E+00 0. -1.
          1    1    1    2  501    0 -0.18669962516E+02  0.17816229382E+02  0.25633322551E+02  0.36373792142E+02  0.00000000000E+00 0. -1.
<scales pt_clust_5="13000.00000" pt_clust_6="13000.00000" pt_clust_7="13000.00000" pt_clust_8="13000.00000" pt_clust_9="25.80670"></scales>
<clustering>
<clus scale="   25.807">  1  9  2 -1</clus>
<clus scale="   92.347">  5  6 -1 -1</clus>
<clus scale="   92.782">  2  5  1 -1</clus>
<clus scale="   92.830">  7  8 -1 -1</clus>
<clus scale="   25.807">  1  5  2 -1</clus>
</clustering>
</event>
<event>
 9    1  0.1881049E-005  0.1408508E+03  0.7546771E-02  0.1212577E+00
         21   -1    0    0  501  502  0.00000000000E+00  0.00000000000E+00  0.46386250681E+03  0.46386250681E+03  0.00000000000E+00 0.  1.
          4   -1    0    0  502    0 -0.00000000000E+00 -0.00000000000E+00 -0.53641241816E+02  0.53641241816E+02  0.00000000000E+00 0. -1.
         23    2    1    2    0    0  0.87787268629E+02 -0.75350005083E+02  0.12459185144E+03  0.19323923920E+03  0.91837063997E+02 0.  0.
         23    2    1    2    0    0 -0.66195700152E+02  0.65183691968E+02  0.23402027269E+03  0.26740456594E+03  0.90049594340E+02 0.  0.
        -11    1    4    4    0    0  0.14141551412E+02  0.43986359145E+02  0.78855490727E+02  0.91394593302E+02  0.00000000000E+00 0.  1.
         11    1    4    4    0    0 -0.80337251564E+02  0.21197332823E+02  0.15516478196E+03  0.17600997264E+03  0.00000000000E+00 0. -1.
        -13    1    3    3    0    0  0.48078778492E+02 -0.22761957460E+02  0.10304822108E+01  0.53204675944E+02  0.00000000000E+00 0. -1.
         13    1    3    3    0    0  0.39708490137E+02 -0.52588047623E+02  0.12356136923E+03  0.14003456326E+03  0.00000000000E+00 0.  1.
          4    1    1    2  501    0 -0.21591568477E+02  0.10166313115E+02  0.51609140872E+02  0.56859943485E+02  0.00000000000E+00 0. -1.
<scales pt_clust_5="13000.00000" pt_clust_6="13000.00000" pt_clust_7="13000.00000" pt_clust_8="13000.00000" pt_clust_9="23.86524"></scales>
<clustering>
<clus scale="   23.865">  1  9  2 -1</clus>
<clus scale="   90.050">  5  6 -1 -1</clus>
<clus scale="   91.837">  7  8 -1 -1</clus>
<clus scale="  139.692">  1  5  2 -1</clus>
<clus scale="   23.865">  1  5  2 -1</clus>
</clustering>
</event>
<event>
 9    1  0.1881049E-005  0.1091721E+03  0.7546771E-02  0.1262328E+00
          1   -1    0    0  502    0 -0.00000000000E+00  0.00000000000E+00  0.22737943197E+03  0.22737943197E+03  0.00000000000E+00 0. -1.
         21   -1    0    0  501  502  0.00000000000E+00 -0.00000000000E+00 -0.12080359117E+03  0.12080359117E+03  0.00000000000E+00 0.  1.
         23    2    1    2    0    0 -0.28191189014E+02 -0.60145420512E+02  0.13775717600E+03  0.17793558069E+03  0.90949527696E+02 0.  0.
         23    2    1    2    0    0  0.14654875550E+02  0.44100689533E+02  0.28887394287E+02  0.10661633814E+03  0.91503692905E+02 0.  0.
        -11    1    4    4    0    0  0.33302123684E+02 -0.28220508306E+01  0.42742332605E+02  0.54257740547E+02  0.00000000000E+00 0. -1.
         11    1    4    4    0    0 -0.18647248134E+02  0.46922740364E+02 -0.13854938318E+02  0.52358597594E+02  0.00000000000E+00 0.  1.
        -13    1    3    3    0    0 -0.53062635252E+00  0.20525382966E+02  0.56602664546E+02  0.60211581477E+02  0.00000000000E+00 0. -1.
         13    1    3    3    0    0 -0.27660562662E+02 -0.80670803478E+02  0.81154511455E+02  0.11772399921E+03  0.00000000000E+00 0.  1.
          1    1    1    2  501    0  0.13536313465E+02  0.16044730979E+02 -0.60068729485E+02  0.63631104315E+02  0.00000000000E+00 0. -1.
<scales pt_clust_5="13000.00000" pt_clust_6="13000.00000" pt_clust_7="13000.00000" pt_clust_8="13000.00000" pt_clust_9="20.99203"></scales>
<clustering>
<clus scale="   20.992">  2  9  1 -1</clus>
<clus scale="   90.950">  7  8 -1 -1</clus>
<clus scale="   91.504">  5  6 -1 -1</clus>
<clus scale="  108.708">  1  7  2 -1</clus>
<clus scale="   20.992">  2  5  1 -1</clus>
</clustering>
</event>
<event>
 9    1  0.1881049E-005  0.1054636E+03  0.7546771E-02  0.1269931E+00
         21   -1    0    0  501  502  0.00000000000E+00  0.00000000000E+00  0.45164401446E+02  0.45164401446E+02  0.00000000000E+00 0.  1.
          4   -1    0    0  502    0 -0.00000000000E+00 -0.00000000000E+00 -0.69279065433E+03  0.69279065433E+03  0.00000000000E+00 0. -1.
         23    2    1    2    0    0 -0.41381675454E+02 -0.21636800702E+02 -0.33354348832E+03  0.34839793323E+03  0.89158662347E+02 0.  0.
         23    2    1    2    0    0  0.91316208644E+02 -0.54054761147E+02 -0.18575813546E+03  0.23242698357E+03  0.90860611032E+02 0.  0.
        -13    1    4    4    0    0  0.32300061627E+02 -0.11271477358E+02 -0.14644997157E+01  0.34241567464E+02  0.00000000000E+00 0.  1.
         13    1    4    4    0    0  0.59016147016E+02 -0.42783283790E+02 -0.18429363575E+03  0.19818541610E+03  0.00000000000E+00 0. -1.
        -13    1    3    3    0    0 -0.43100996431E+01 -0.47112640605E+02 -0.23978722359E+03  0.24440967751E+03  0.00000000000E+00 0.  1.
         13    1    3    3    0    0 -0.37071575811E+02  0.25475839903E+02 -0.93756264727E+02  0.10398825572E+03  0.00000000000E+00 0. -1.
          4    1    1    2  501    0 -0.49934533190E+02  0.75691561850E+02 -0.12832462910E+03  0.15713013897E+03  0.00000000000E+00 0. -1.
<scales pt_clust_5="13000.00000" pt_clust_6="13000.00000" pt_clust_7="13000.00000" pt_clust_8="13000.00000" pt_clust_9="90.67894"></scales>
<clustering>
<clus scale="   89.159">  7  8 -1 -1</clus>
<clus scale="   90.679">  1  9  2 -1</clus>
<clus scale="   90.861">  5  6 -1 -1</clus>
<clus scale="  104.001">  2  7  1 -1</clus>
<clus scale="   90.679">  1  5  2 -1</clus>
</clustering>
</event>
<event>
 9    1  0.1881049E-005  0.1019458E+03  0.7546771E-02  0.1277033E+00
          4   -1    0    0  502    0 -0.00000000000E+00  0.00000000000E+00  0.72067185294E+03  0.72067185294E+03  0.00000000000E+00 0. -1.
         21   -1    0    0  501  502  0.00000000000E+00 -0.00000000000E+00 -0.24099850172E+02  0.24099850172E+02  0.00000000000E+00 0.  1.
         23    2    1    2    0    0  0.22838817506E+02  0.59033147877E+02  0.41355884228E+03  0.42813870743E+03  0.90913764856E+02 0.  0.
         23    2    1    2    0    0  0.43780755908E+01 -0.27593305770E+02  0.23612482974E+03  0.25396132343E+03  0.89223654447E+02 0.  0.
        -11    1    4    4    0    0  0.45218808229E+02 -0.22734705812E+01  0.12214410505E+03  0.13026546620E+03  0.00000000000E+00 0.  1.
         11    1    4    4    0    0 -0.40840732638E+02 -0.25319835188E+02  0.11398072468E+03  0.12369585723E+03  0.00000000000E+00 0. -1.
        -11    1    3    3    0    0  0.55716458767E+02  0.24728977274E+02  0.18822665817E+03  0.19785125964E+03  0.00000000000E+00 0.  1.
         11    1    3    3    0    0 -0.32877641261E+02  0.34304170603E+02  0.22533218411E+03  0.23028744780E+03  0.00000000000E+00 0. -1.
          4    1    1    2  501    0 -0.27216893097E+02 -0.31439842107E+02  0.46888330751E+02  0.62671672247E+02  0.00000000000E+00 0. -1.
<scales pt_clust_5="13000.00000" pt_clust_6="13000.00000" pt_clust_7="13000.00000" pt_clust_8="13000.00000" pt_clust_9="41.58393"></scales>
<clustering>
<clus scale="   41.584">  2  9  1 -1</clus>
<clus scale="   89.224">  5  6 -1 -1</clus>
<clus scale="   90.914">  7  8 -1 -1</clus>
<clus scale="  100.442">  2  5  1 -1</clus>
<clus scale="   41.584">  2  5  1 -1</clus>
</clustering>
</event>
<event>
 9    1  0.1881049E-005  0.2670358E+03  0.7546771E-02  0.1145263E+00
         -4   -1    0    0    0  501 -0.00000000000E+00  0.00000000000E+00  0.26375102724E+03  0.26375102724E+03  0.00000000000E+00 0.  1.
         21   -1    0    0  501  502  0.00000000000E+00 -0.00000000000E+00 -0.41462309653E+03  0.41462309653E+03  0.00000000000E+00 0.  1.
         23    2    1    2    0    0  0.12284911363E+02  0.88506631140E+01  0.46290610969E+02  0.10430514027E+03  0.92236046852E+02 0.  0.
         23    2    1    2    0    0  0.21677667756E+03 -0.10942112607E+03 -0.12051624648E+02  0.26286208697E+03  0.99930597628E+02 0.  0.
        -11    1    4    4    0    0  0.11482043609E+03 -0.25647801560E+01 -0.29083748585E+01  0.11488589681E+03  0.00000000000E+00 0.  1.
         11    1    4    4    0    0  0.10195624147E+03 -0.10685634591E+03 -0.91432497892E+01  0.14797619016E+03  0.00000000000E+00 0. -1.
        -13    1    3    3    0    0 -0.21797148385E+02 -0.31209880085E+02  0.71278234867E+01  0.38729551512E+02  0.00000000000E+00 0.  1.
         13    1    3    3    0    0  0.34082059748E+02  0.40060543199E+02  0.39162787482E+02  0.65575588762E+02  0.00000000000E+00 0. -1.
         -4    1    1    2    0  502 -0.22906158893E+03  0.10057046295E+03 -0.18511105561E+03  0.31120689653E+03  0.00000000000E+00 0.  1.
<scales pt_clust_5="13000.00000" pt_clust_6="13000.00000" pt_clust_7="13000.00000" pt_clust_8="13000.00000" pt_clust_9="247.63279"></scales>
<clustering>
<clus scale="   92.236">  7  8 -1 -1</clus>
<clus scale="   93.471">  1  7  2 -1</clus>
<clus scale="   99.931">  5  6 -1 -1</clus>
<clus scale="  247.633">  2  9  1 -1</clus>
<clus scale="  247.633">  2  5  1 -1</clus>
</clustering>
</event>
<event>
 9    1  0.1881049E-005  0.1725352E+03  0.7546771E-02  0.1177211E+00
         21   -1    0    0  501  502  0.00000000000E+00  0.00000000000E+00  0.17187158043E+03  0.17187158043E+03  0.00000000000E+00 0. -1.
          1   -1    0    0  502    0 -0.00000000000E+00 -0.00000000000E+00 -0.47902767308E+03  0.47902767308E+03  0.00000000000E+00 0. -1.
         23    2    1    2    0    0  0.15301666393E+03  0.55953570936E+02 -0.36340387107E+03  0.40815729779E+03  0.89359413002E+02 0.  0.
         23    2    1    2    0    0 -0.72673689146E+02 -0.27755641677E+02 -0.17643005979E+02  0.13000347591E+03  0.10265372545E+03 0.  0.
        -11    1    4    4    0    0 -0.40038685018E+01 -0.34575812058E+02 -0.44027086259E+02  0.56123988337E+02  0.00000000000E+00 0. -1.
         11    1    4    4    0    0 -0.68669820644E+02  0.68201703812E+01  0.26384080280E+02  0.73879487570E+02  0.00000000000E+00 0.  1.
        -13    1    3    3    0    0  0.86457146560E+02  0.77021436503E+02 -0.23620364462E+03  0.26305760130E+03  0.00000000000E+00 0.  1.
         13    1    3    3    0    0  0.66559517366E+02 -0.21067865567E+02 -0.12720022645E+03  0.14509969649E+03  0.00000000000E+00 0. -1.
          1    1    1    2  501    0 -0.80342974780E+02 -0.28197929259E+02  0.73890784400E+02  0.11273847981E+03  0.00000000000E+00 0. -1.
<scales pt_clust_5="13000.00000" pt_clust_6="13000.00000" pt_clust_7="13000.00000" pt_clust_8="13000.00000" pt_clust_9="85.14762"></scales>
<clustering>
<clus scale="   85.148">  1  9  2 -1</clus>
<clus scale="   89.359">  7  8 -1 -1</clus>
<clus scale="  102.654">  5  6 -1 -1</clus>
<clus scale="  164.972">  2  7  1 -1</clus>
<clus scale="   85.148">  1  5  2 -1</clus>
</clustering>
</event>
<event>
 9    1  0.1881049E-005  0.1327716E+03  0.7546771E-02  0.1227165E+00
         -2   -1    0    0    0  501 -0.00000000000E+00  0.00000000000E+00  0.29084276245E+03  0.29084276245E+03  0.00000000000E+00 0.  1.
         21   -1    0    0  501  502  0.00000000000E+00 -0.00000000000E+00 -0.21150145222E+03  0.21150145222E+03  0.00000000000E+00 0.  1.
         23    2    1    2    0    0 -0.36292466390E+02 -0.89821268459E+02  0.19354437273E+03  0.23987247910E+03  0.10341362884E+03 0.  0.
         23    2    1    2    0    0 -0.89726716409E+01  0.63241612755E+02  0.25325476695E+02  0.11339583520E+03  0.90206569891E+02 0.  0.
        -11    1    3    3    0    0 -0.61124033439E+02 -0.98049168033E+02  0.15742490098E+03  0.19527515526E+03  0.00000000000E+00 0.  1.
         11    1    3    3    0    0  0.24831567049E+02  0.82278995746E+01  0.36119471754E+02  0.44597323836E+02  0.00000000000E+00 0. -1.
        -13    1    4    4    0    0  0.34754314685E+02  0.71924475428E+01  0.22956231544E+02  0.42267981470E+02  0.00000000000E+00 0. -1.
         13    1    4    4    0    0 -0.43726986326E+02  0.56049165212E+02  0.23692451511E+01  0.71127853733E+02  0.00000000000E+00 0.  1.
         -2    1    1    2    0  502  0.45265138031E+02  0.26579655704E+02 -0.13952853920E+03  0.14907590037E+03  0.00000000000E+00 0.  1.
<scales pt_clust_5="13000.00000" pt_clust_6="13000.00000" pt_clust_7="13000.00000" pt_clust_8="13000.00000" pt_clust_9="52.49201"></scales>
<clustering>
<clus scale="   52.492">  2  9  1 -1</clus>
<clus scale="   90.207">  7  8 -1 -1</clus>
<clus scale="  103.414">  5  6 -1 -1</clus>
<clus scale="  122.765">  2  7  1 -1</clus>
<clus scale="   52.492">  2  5  1 -1</clus>
</clustering>
</event>
<event>
 9    1  0.1881049E-005  0.1038576E+03  0.7546771E-02  0.1272736E+00
          1   -1    0    0  502    0 -0.00000000000E+00  0.00000000000E+00  0.86671613953E+02  0.86671613953E+02  0.00000000000E+00 0. -1.
         21   -1    0    0  501  502  0.00000000000E+00 -0.00000000000E+00 -0.24293967641E+03  0.24293967641E+03  0.00000000000E+00 0.  1.
         23    2    1    2    0    0  0.48870175767E+02 -0.77633963566E+00  0.20989960368E+02  0.10602849881E+03  0.91720048741E+02 0.  0.
         23    2    1    2    0    0 -0.46454633197E+02  0.24355200160E+02 -0.10901138667E+03  0.15133737055E+03  0.90930240188E+02 0.  0.
        -11    1    3    3    0    0 -0.87561235101E+00 -0.40312734187E+02  0.63326852036E+01  0.40816493437E+02  0.00000000000E+00 0.  1.
         11    1    3    3    0    0  0.49745788118E+02  0.39536394551E+02  0.14657275165E+02  0.65212005373E+02  0.00000000000E+00 0. -1.
        -13    1    4    4    0    0 -0.37408226300E+02 -0.23752825348E+02 -0.87062578102E+02  0.97690657756E+02  0.00000000000E+00 0.  1.
         13    1    4    4    0    0 -0.90464068970E+01  0.48108025509E+02 -0.21948808570E+02  0.53646712795E+02  0.00000000000E+00 0. -1.
          1    1    1    2  501    0 -0.24155425698E+01 -0.23578860525E+02 -0.68246636156E+02  0.72245421005E+02  0.00000000000E+00 0. -1.
<scales pt_clust_5="13000.00000" pt_clust_6="13000.00000" pt_clust_7="13000.00000" pt_clust_8="13000.00000" pt_clust_9="23.70227"></scales>
<clustering>
<clus scale="   23.702">  2  9  1 -1</clus>
<clus scale="   90.930">  7  8 -1 -1</clus>
<clus scale="   91.720">  5  6 -1 -1</clus>
<clus scale="  103.161">  2  7  1 -1</clus>
<clus scale="   23.702">  2  5  1 -1</clus>
</clustering>
</event>
<event>
 9    1  0.2809516E-005  0.9264858E+02  0.7546771E-02  0.1296655E+00
          1   -1    0    0  502    0 -0.00000000000E+00  0.00000000000E+00  0.10262209472E+03  0.10262209472E+03  0.00000000000E+00 0. -1.
         21   -1    0    0  501  502  0.00000000000E+00 -0.00000000000E+00 -0.21749711440E+03  0.21749711440E+03  0.00000000000E+00 0. -1.
         23    2    1    2    0    0  0.11156979968E+02 -0.63254394712E+01  0.52047634936E+02  0.10565951842E+03  0.91052117729E+02 0.  0.
         23    2    1    2    0    0 -0.33810176474E+02  0.18123280197E+02 -0.15977763519E+03  0.18793785705E+03  0.91214933473E+02 0.  0.
        -11    1    3    3    0    0 -0.26667317046E+02  0.29560256384E+02  0.22345041353E+02  0.45653646393E+02  0.00000000000E+00 0. -1.
         11    1    3    3    0    0  0.37824297014E+02 -0.35885695855E+02  0.29702593583E+02  0.60005872022E+02  0.00000000000E+00 0.  1.
        -11    1    4    4    0    0 -0.59937389181E+02  0.32723126744E+02 -0.12116689854E+03  0.13908526503E+03  0.00000000000E+00 0. -1.
         11    1    4    4    0    0  0.26127212707E+02 -0.14599846547E+02 -0.38610736650E+02  0.48852592026E+02  0.00000000000E+00 0.  1.
          1    1    1    2  501    0  0.22653196507E+02 -0.11797840725E+02 -0.71450194283E+01  0.26521833654E+02  0.00000000000E+00 0. -1.
<scales pt_clust_5="13000.00000" pt_clust_6="13000.00000" pt_clust_7="13000.00000" pt_clust_8="13000.00000" pt_clust_9="25.54128"></scales>
<clustering>
<clus scale="   25.541">  2  9  1 -1</clus>
<clus scale="   91.052">  5  6 -1 -1</clus>
<clus scale="   91.215">  7  8 -1 -1</clus>
<clus scale="   92.488">  1  5  2 -1</clus>
<clus scale="   25.541">  2  5  1 -1</clus>
</clustering>
</event>
<event>
 9    1  0.1881049E-005  0.9409105E+02  0.7546771E-02  0.1299605E+00
         21   -1    0    0  501  502  0.00000000000E+00  0.00000000000E+00  0.21270789787E+03  0.21270789787E+03  0.00000000000E+00 0. -1.
         -1   -1    0    0    0  501 -0.00000000000E+00 -0.00000000000E+00 -0.76108090439E+02  0.76108090439E+02  0.00000000000E+00 0.  1.
         23    2    1    2    0    0  0.38997530043E+02  0.24885176971E+02  0.52904928612E+02  0.10716285238E+03  0.80900346574E+02 0.  0.
         23    2    1    2    0    0  0.12247263077E+02  0.20968359853E+01  0.82125433314E+02  0.12371764590E+03  0.91690113628E+02 0.  0.
        -11    1    3    3    0    0  0.48709521297E+02  0.47686925489E+02  0.42154703489E+02  0.80147859321E+02  0.00000000000E+00 0. -1.
         11    1    3    3    0    0 -0.97119912538E+01 -0.22801748518E+02  0.10750225123E+02  0.27014993056E+02  0.00000000000E+00 0.  1.
        -13    1    4    4    0    0  0.48969358937E+02  0.15414621554E+02  0.59457610399E+02  0.78554542241E+02  0.00000000000E+00 0. -1.
         13    1    4    4    0    0 -0.36722095861E+02 -0.13317785568E+02  0.22667822915E+02  0.45163103664E+02  0.00000000000E+00 0.  1.
         -1    1    1    2    0  502 -0.51244793119E+02 -0.26982012956E+02  0.15694454998E+01  0.57935490023E+02  0.00000000000E+00 0.  1.
<scales pt_clust_5="13000.00000" pt_clust_6="13000.00000" pt_clust_7="13000.00000" pt_clust_8="13000.00000" pt_clust_9="57.91426"></scales>
<clustering>
<clus scale="   57.914">  1  9  2 -1</clus>
<clus scale="   80.900">  5  6 -1 -1</clus>
<clus scale="   83.612">  2  5  1 -1</clus>
<clus scale="   91.690">  7  8 -1 -1</clus>
<clus scale="   57.914">  1  5  2 -1</clus>
</clustering>
</event>
<event>
 9    1  0.1881049E-005  0.1393402E+03  0.7546771E-02  0.1229800E+00
          1   -1    0    0  502    0 -0.00000000000E+00  0.00000000000E+00  0.14182653400E+03  0.14182653400E+03  0.00000000000E+00 0. -1.
         21   -1    0    0  501  502  0.00000000000E+00 -0.00000000000E+00 -0.57195000408E+03  0.57195000408E+03  0.00000000000E+00 0. -1.
         23    2    1    2    0    0  0.42749547046E+02  0.28999004614E+01  0.82271179901E+02  0.12993457666E+03  0.90986339499E+02 0.  0.
         23    2    1    2    0    0  0.26045737218E+02 -0.95843419953E+02 -0.39943187680E+03  0.42218839023E+03  0.93983355239E+02 0.  0.
        -11    1    4    4    0    0  0.33142268648E+02 -0.47206196010E+02 -0.34094934893E+03  0.34579371517E+03  0.00000000000E+00 0.  1.
         11    1    4    4    0    0 -0.70965314308E+01 -0.48637223944E+02 -0.58482527867E+02  0.76394675057E+02  0.00000000000E+00 0. -1.
        -13    1    3    3    0    0 -0.14557786804E+02 -0.25932018626E+02  0.49872534601E+02  0.58066069733E+02  0.00000000000E+00 0.  1.
         13    1    3    3    0    0  0.57307333851E+02  0.28831919088E+02  0.32398645300E+02  0.71868506932E+02  0.00000000000E+00 0. -1.
          1    1    1    2  501    0 -0.68795284264E+02  0.92943519492E+02 -0.11296277318E+03  0.16165357119E+03  0.00000000000E+00 0. -1.
<scales pt_clust_5="13000.00000" pt_clust_6="13000.00000" pt_clust_7="13000.00000" pt_clust_8="13000.00000" pt_clust_9="102.87290"></scales>
<clustering>
<clus scale="   90.986">  7  8 -1 -1</clus>
<clus scale="   93.983">  5  6 -1 -1</clus>
<clus scale="  100.571">  1  7  2 -1</clus>
<clus scale="  102.873">  2  9  1 -1</clus>
<clus scale="  102.873">  2  5  1 -1</clus>
</clustering>
</event>
<event>
 9    1  0.1881049E-005  0.9694788E+02  0.7546771E-02  0.1293470E+00
          4   -1    0    0  502    0 -0.00000000000E+00  0.00000000000E+00  0.37659741112E+02  0.37659741112E+02  0.00000000000E+00 0. -1.
         21   -1    0    0  501  502  0.00000000000E+00 -0.00000000000E+00 -0.31606526187E+03  0.31606526187E+03  0.00000000000E+00 0.  1.
         23    2    1    2    0    0 -0.21689246711E+02  0.14819645887E+02 -0.69961565870E+02  0.10933286567E+03  0.79806074259E+02 0.  0.
         23    2    1    2    0    0  0.20490990829E+02 -0.36296517333E+02 -0.13926332860E+03  0.17194456402E+03  0.91833221249E+02 0.  0.
        -11    1    3    3    0    0 -0.39151072603E+02 -0.64712543314E+01 -0.65744539888E+01  0.40223215484E+02  0.00000000000E+00 0. -1.
         11    1    3    3    0    0  0.17461825892E+02  0.21290900218E+02 -0.63387111882E+02  0.69109650182E+02  0.00000000000E+00 0.  1.
        -13    1    4    4    0    0  0.25048673851E+02 -0.64250701237E+02 -0.11743530596E+03  0.13618604832E+03  0.00000000000E+00 0.  1.
         13    1    4    4    0    0 -0.45576830226E+01  0.27954183904E+02 -0.21828022649E+02  0.35758515700E+02  0.00000000000E+00 0. -1.
          4    1    1    2  501    0  0.11982558822E+01  0.21476871446E+02 -0.69180626286E+02  0.72447573304E+02  0.00000000000E+00 0. -1.
<scales pt_clust_5="13000.00000" pt_clust_6="13000.00000" pt_clust_7="13000.00000" pt_clust_8="13000.00000" pt_clust_9="21.51027"></scales>
<clustering>
<clus scale="   21.510">  2  9  1 -1</clus>
<clus scale="   79.806">  5  6 -1 -1</clus>
<clus scale="   85.642">  1  5  2 -1</clus>
<clus scale="   91.833">  7  8 -1 -1</clus>
<clus scale="   21.510">  2  5  1 -1</clus>
</clustering>
</event>
<event>
 9    1  0.1881049E-005  0.9304144E+02  0.7546771E-02  0.1297307E+00
          2   -1    0    0  502    0 -0.00000000000E+00  0.00000000000E+00  0.10012976140E+03  0.10012976140E+03  0.00000000000E+00 0. -1.
         21   -1    0    0  501  502  0.00000000000E+00 -0.00000000000E+00 -0.55166493503E+03  0.55166493503E+03  0.00000000000E+00 0. -1.
         23    2    1    2    0    0 -0.18410643082E+02 -0.29262240620E+01  0.59126597208E+02  0.10750164336E+03  0.87824451391E+02 0.  0.
         23    2    1    2    0    0  0.31460300399E+02  0.70755095716E+02 -0.32696490073E+03  0.34803916273E+03  0.90714819134E+02 0.  0.
        -11    1    4    4    0    0  0.53699869574E+02  0.10419240961E+02 -0.16188541751E+03  0.17087751454E+03  0.00000000000E+00 0.  1.
         11    1    4    4    0    0 -0.22239569176E+02  0.60335854755E+02 -0.16507948322E+03  0.17716164818E+03  0.00000000000E+00 0. -1.
        -11    1    3    3    0    0  0.27247797373E+02  0.24316671515E+02  0.26482372500E+02  0.45111628528E+02  0.00000000000E+00 0.  1.
         11    1    3    3    0    0 -0.45658440455E+02 -0.27242895577E+02  0.32644224709E+02  0.62390014834E+02  0.00000000000E+00 0. -1.
          2    1    1    2  501    0 -0.13049657316E+02 -0.67828871654E+02 -0.18369687011E+03  0.19625389034E+03  0.00000000000E+00 0. -1.
<scales pt_clust_5="13000.00000" pt_clust_6="13000.00000" pt_clust_7="13000.00000" pt_clust_8="13000.00000" pt_clust_9="69.07278"></scales>
<clustering>
<clus scale="   69.073">  2  9  1 -1</clus>
<clus scale="   87.824">  7  8 -1 -1</clus>
<clus scale="   90.226">  1  7  2 -1</clus>
<clus scale="   90.715">  5  6 -1 -1</clus>
<clus scale="   69.073">  2  5  1 -1</clus>
</clustering>
</event>
<event>
 9    1  0.1881049E-005  0.1052191E+03  0.7546771E-02  0.1273577E+00
         21   -1    0    0  501  502  0.00000000000E+00  0.00000000000E+00  0.60322792141E+02  0.60322792141E+02  0.00000000000E+00 0. -1.
          1   -1    0    0  502    0 -0.00000000000E+00 -0.00000000000E+00 -0.59128765649E+03  0.59128765649E+03  0.00000000000E+00 0. -1.
         23    2    1    2    0    0  0.41267658245E+02  0.34010204081E+01 -0.39124379782E+03  0.40607314629E+03  0.10054404134E+03 0.  0.
         23    2    1    2    0    0  0.10678255089E+02  0.60537517257E+02 -0.11410579185E+03  0.15926646829E+03  0.92557333904E+02 0.  0.
        -11    1    3    3    0    0 -0.68128007859E+01 -0.41871248157E+02 -0.16731790391E+03  0.17261198292E+03  0.00000000000E+00 0.  1.
         11    1    3    3    0    0  0.48080459031E+02  0.45272268566E+02 -0.22392589391E+03  0.23346116338E+03  0.00000000000E+00 0. -1.
        -13    1    4    4    0    0 -0.15432743905E+02  0.18008931103E+02 -0.10610658956E+03  0.10872488001E+03  0.00000000000E+00 0.  1.
         13    1    4    4    0    0  0.26110998994E+02  0.42528586154E+02 -0.79992022878E+01  0.50541588280E+02  0.00000000000E+00 0. -1.
          1    1    1    2  501    0 -0.51945913334E+02 -0.63938537665E+02 -0.25615274674E+02  0.86270834048E+02  0.00000000000E+00 0. -1.
<scales pt_clust_5="13000.00000" pt_clust_6="13000.00000" pt_clust_7="13000.00000" pt_clust_8="13000.00000" pt_clust_9="82.38030"></scales>
<clustering>
<clus scale="   82.380">  1  9  2 -1</clus>
<clus scale="   92.557">  7  8 -1 -1</clus>
<clus scale="   97.616">  1  7  2 -1</clus>
<clus scale="  100.544">  5  6 -1 -1</clus>
<clus scale="   82.380">  1  5  2 -1</clus>
</clustering>
</event>
<event>
 9    1  0.1881049E-005  0.1167885E+03  0.7546771E-02  0.1248697E+00
         21   -1    0    0  501  502  0.00000000000E+00  0.00000000000E+00  0.18106629997E+03  0.18106629997E+03  0.00000000000E+00 0.  1.
         -1   -1    0    0    0  501 -0.00000000000E+00 -0.00000000000E+00 -0.26586683477E+03  0.26586683477E+03  0.00000000000E+00 0.  1.
         23    2    1    2    0    0 -0.32278458679E+02  0.70021235068E+02 -0.11452760960E+03  0.16480632919E+03  0.89998225111E+02 0.  0.
         23    2    1    2    0    0 -0.17313699891E+01 -0.73965715395E+02 -0.96305645426E+02  0.15152636933E+03  0.90617540059E+02 0.  0.
        -11    1    3    3    0    0  0.25072863850E+01  0.74418428769E+02 -0.45171342956E+02  0.87090982598E+02  0.00000000000E+00 0. -1.
         11    1    3    3    0    0 -0.34785745064E+02 -0.43971937007E+01 -0.69356266646E+02  0.77715346587E+02  0.00000000000E+00 0.  1.
        -11    1    4    4    0    0  0.70738838078E+01 -0.37203287510E+02  0.96072635343E+01  0.39069475890E+02  0.00000000000E+00 0. -1.
         11    1    4    4    0    0 -0.88052537969E+01 -0.36762427885E+02 -0.10591290896E+03  0.11245689344E+03  0.00000000000E+00 0.  1.
         -1    1    1    2    0  502  0.34009828668E+02  0.39444803267E+01  0.12603272023E+03  0.13060043622E+03  0.00000000000E+00 0.  1.
<scales pt_clust_5="13000.00000" pt_clust_6="13000.00000" pt_clust_7="13000.00000" pt_clust_8="13000.00000" pt_clust_9="34.23781"></scales>
<clustering>
<clus scale="   34.238">  1  9  2 -1</clus>
<clus scale="   89.998">  5  6 -1 -1</clus>
<clus scale="   90.618">  7  8 -1 -1</clus>
<clus scale="  116.309">  2  5  1 -1</clus>
<clus scale="   34.238">  1  5  2 -1</clus>
</clustering>
</event>
<event>
 9    1  0.1881049E-005  0.9575828E+02  0.7546771E-02  0.1289506E+00
         21   -1    0    0  501  502  0.00000000000E+00  0.00000000000E+00  0.13891555588E+03  0.13891555588E+03  0.00000000000E+00 0. -1.
          2   -1    0    0  502    0 -0.00000000000E+00 -0.00000000000E+00 -0.34649331892E+03  0.34649331892E+03  0.00000000000E+00 0. -1.
         23    2    1    2    0    0  0.26116594660E+02  0.34272215481E+01 -0.30399793896E+03  0.31859229461E+03  0.91610484824E+02 0.  0.
         23    2    1    2    0    0 -0.49039932282E+02  0.14526603343E+02  0.62385761111E+02  0.12202639570E+03  0.91556107901E+02 0.  0.
        -11    1    3    3    0    0  0.54641148599E+02  0.23835390238E+02 -0.20860865483E+03  0.21695933218E+03  0.00000000000E+00 0. -1.
         11    1    3    3    0    0 -0.28524553939E+02 -0.20408168690E+02 -0.95389284125E+02  0.10163296243E+03  0.00000000000E+00 0.  1.
        -13    1    4    4    0    0 -0.70510561440E+02 -0.10589093462E+02  0.36810327151E+02  0.80242559530E+02  0.00000000000E+00 0. -1.
         13    1    4    4    0    0  0.21470629158E+02  0.25115696806E+02  0.25575433960E+02  0.41783836166E+02  0.00000000000E+00 0.  1.
          2    1    1    2  501    0  0.22923337622E+02 -0.17953824891E+02  0.34034414807E+02  0.44790184496E+02  0.00000000000E+00 0. -1.
<scales pt_clust_5="13000.00000" pt_clust_6="13000.00000" pt_clust_7="13000.00000" pt_clust_8="13000.00000" pt_clust_9="29.11734"></scales>
<clustering>
<clus scale="   29.117">  1  9  2 -1</clus>
<clus scale="   91.556">  7  8 -1 -1</clus>
<clus scale="   91.610">  5  6 -1 -1</clus>
<clus scale="   95.706">  1  7  2 -1</clus>
<clus scale="   29.117">  1  5  2 -1</clus>
</clustering>
</event>
<event>
 9    1  0.1881049E-005  0.1437010E+03  0.7546771E-02  0.1208881E+00
         21   -1    0    0  501  502  0.00000000000E+00  0.00000000000E+00  0.10250390885E+03  0.10250390885E+03  0.00000000000E+00 0.  1.
         -1   -1    0    0    0  501 -0.00000000000E+00 -0.00000000000E+00 -0.37214890452E+03  0.37214890452E+03  0.00000000000E+00 0.  1.
         23    2    1    2    0    0 -0.73928733143E+02  0.64915961712E+02 -0.14829650969E+03  0.20052184329E+03  0.92399216326E+02 0.  0.
         23    2    1    2    0    0  0.10975824358E+03 -0.53840088890E+02 -0.15849243529E+03  0.22134743338E+03  0.94494481400E+02 0.  0.
        -11    1    4    4    0    0 -0.49739981543E+01 -0.26014741381E+02 -0.66815718264E+02  0.71873831357E+02  0.00000000000E+00 0.  1.
         11    1    4    4    0    0  0.11473224174E+03 -0.27825347509E+02 -0.91676717022E+02  0.14947360202E+03  0.00000000000E+00 0. -1.
        -11    1    3    3    0    0  0.17394319946E+02  0.32876471940E+02 -0.30745488386E+02  0.48256707614E+02  0.00000000000E+00 0.  1.
         11    1    3    3    0    0 -0.91323053089E+02  0.32039489772E+02 -0.11755102131E+03  0.15226513567E+03  0.00000000000E+00 0. -1.
         -1    1    1    2    0  502 -0.35829510439E+02 -0.11075872822E+02  0.37143949306E+02  0.52783536705E+02  0.00000000000E+00 0.  1.
<scales pt_clust_5="13000.00000" pt_clust_6="13000.00000" pt_clust_7="13000.00000" pt_clust_8="13000.00000" pt_clust_9="37.50238"></scales>
<clustering>
<clus scale="   37.502">  1  9  2 -1</clus>
<clus scale="   92.399">  7  8 -1 -1</clus>
<clus scale="   94.494">  5  6 -1 -1</clus>
<clus scale="  142.332">  2  7  1 -1</clus>
<clus scale="   37.502">  1  5  2 -1</clus>
</clustering>
</event>
<event>
 9    1  0.1881049E-005  0.1015831E+03  0.7546771E-02  0.1281430E+00
         -1   -1    0    0    0  501 -0.00000000000E+00  0.00000000000E+00  0.50305380261E+03  0.50305380261E+03  0.00000000000E+00 0.  1.
         21   -1    0    0  501  502  0.00000000000E+00 -0.00000000000E+00 -0.85386195638E+02  0.85386195638E+02  0.00000000000E+00 0.  1.
         23    2    1    2    0    0  0.12614478948E+02 -0.23924301081E+02  0.39892231113E+03  0.40976863553E+03  0.89665082850E+02 0.  0.
         23    2    1    2    0    0  0.91483695370E+01  0.26892291990E+02  0.69336905727E+02  0.12351756380E+03  0.98194164984E+02 0.  0.
        -11    1    3    3    0    0  0.49351479680E+02 -0.27911126144E+02  0.23939719228E+03  0.24601954228E+03  0.00000000000E+00 0.  1.
         11    1    3    3    0    0 -0.36737000731E+02  0.39868250633E+01  0.15952511885E+03  0.16374909325E+03  0.00000000000E+00 0. -1.
        -13    1    4    4    0    0 -0.62967251519E+01 -0.36466184842E+02  0.25300465402E+02  0.44827948136E+02  0.00000000000E+00 0. -1.
         13    1    4    4    0    0  0.15445094689E+02  0.63358476832E+02  0.44036440324E+02  0.78689615661E+02  0.00000000000E+00 0.  1.
         -1    1    1    2    0  502 -0.21762848485E+02 -0.29679909090E+01 -0.50591609889E+02  0.55153798920E+02  0.00000000000E+00 0.  1.
<scales pt_clust_5="13000.00000" pt_clust_6="13000.00000" pt_clust_7="13000.00000" pt_clust_8="13000.00000" pt_clust_9="21.96430"></scales>
<clustering>
<clus scale="   21.964">  2  9  1 -1</clus>
<clus scale="   89.665">  5  6 -1 -1</clus>
<clus scale="   93.364">  1  5  2 -1</clus>
<clus scale="   98.194">  7  8 -1 -1</clus>
<clus scale="   21.964">  2  5  1 -1</clus>
</clustering>
</event>
<event>
 9    1  0.1881049E-005  0.1391588E+03  0.7546771E-02  0.1214653E+00
         21   -1    0    0  501  502  0.00000000000E+00  0.00000000000E+00  0.50603852251E+03  0.50603852251E+03  0.00000000000E+00 0. -1.
         -3   -1    0    0    0  501 -0.00000000000E+00 -0.00000000000E+00 -0.12752586202E+03  0.12752586202E+03  0.00000000000E+00 0.  1.
         23    2    1    2    0    0  0.56564698586E+02  0.91688251366E+02 -0.58986293805E+02  0.15236627033E+03  0.90165386447E+02 0.  0.
         23    2    1    2    0    0 -0.15188487080E+02 -0.98705993522E+02  0.20897203412E+03  0.24884968440E+03  0.91012587505E+02 0.  0.
        -11    1    4    4    0    0 -0.49279025897E+02 -0.42882355517E+02  0.13585781155E+03  0.15074701910E+03  0.00000000000E+00 0.  1.
         11    1    4    4    0    0  0.34090538817E+02 -0.55823638005E+02  0.73114222568E+02  0.98102665298E+02  0.00000000000E+00 0. -1.
        -13    1    3    3    0    0  0.42824093466E+02  0.27300496355E+00 -0.21875206299E+00  0.42825522360E+02  0.00000000000E+00 0. -1.
         13    1    3    3    0    0  0.13740605120E+02  0.91415246403E+02 -0.58767541742E+02  0.10954074797E+03  0.00000000000E+00 0.  1.
         -3    1    1    2    0  502 -0.41376211507E+02  0.70177421554E+01  0.22852692018E+03  0.23234842980E+03  0.00000000000E+00 0.  1.
<scales pt_clust_5="13000.00000" pt_clust_6="13000.00000" pt_clust_7="13000.00000" pt_clust_8="13000.00000" pt_clust_9="41.96713"></scales>
<clustering>
<clus scale="   41.967">  1  9  2 -1</clus>
<clus scale="   90.165">  7  8 -1 -1</clus>
<clus scale="   91.013">  5  6 -1 -1</clus>
<clus scale="  138.606">  2  7  1 -1</clus>
<clus scale="   41.967">  1  5  2 -1</clus>
</clustering>
</event>
<event>
 9    1  0.1881049E-005  0.1182305E+03  0.7546771E-02  0.1246240E+00
         21   -1    0    0  501  502  0.00000000000E+00  0.00000000000E+00  0.68978321955E+02  0.68978321955E+02  0.00000000000E+00 0. -1.
          2   -1    0    0  502    0 -0.00000000000E+00 -0.00000000000E+00 -0.37713033848E+03  0.37713033848E+03  0.00000000000E+00 0. -1.
         23    2    1    2    0    0  0.48816241795E+02  0.26615396480E+02 -0.14654630026E+03  0.18167489848E+03  0.91861557928E+02 0.  0.
         23    2    1    2    0    0 -0.87882747687E+02 -0.46219313039E+02 -0.17290870031E+03  0.21928663717E+03  0.91266688125E+02 0.  0.
        -11    1    4    4    0    0 -0.22647495171E+01 -0.48942904930E+02 -0.57089936965E+02  0.75231628562E+02  0.00000000000E+00 0.  1.
         11    1    4    4    0    0 -0.85617998170E+02  0.27235918916E+01 -0.11581876335E+03  0.14405500861E+03  0.00000000000E+00 0. -1.
        -13    1    3    3    0    0  0.15102276524E+02 -0.17295764440E+02  0.20970740002E+01  0.23056884940E+02  0.00000000000E+00 0.  1.
         13    1    3    3    0    0  0.33713965271E+02  0.43911160921E+02 -0.14864337426E+03  0.15861801354E+03  0.00000000000E+00 0. -1.
          2    1    1    2  501    0  0.39066505893E+02  0.19603916558E+02  0.11302984050E+02  0.45147124776E+02  0.00000000000E+00 0. -1.
<scales pt_clust_5="13000.00000" pt_clust_6="13000.00000" pt_clust_7="13000.00000" pt_clust_8="13000.00000" pt_clust_9="43.70933"></scales>
<clustering>
<clus scale="   43.709">  1  9  2 -1</clus>
<clus scale="   91.267">  5  6 -1 -1</clus>
<clus scale="   91.862">  7  8 -1 -1</clus>
<clus scale="  117.769">  1  5  2 -1</clus>
<clus scale="   43.709">  1  5  2 -1</clus>
</clustering>
</event>
<event>
 9    1  0.1881049E-005  0.1206515E+03  0.7546771E-02  0.1243425E+00
          4   -1    0    0  502    0 -0.00000000000E+00  0.00000000000E+00  0.12401445169E+03  0.12401445169E+03  0.00000000000E+00 0. -1.
         21   -1    0    0  501  502  0.00000000000E+00 -0.00000000000E+00 -0.15703119786E+03  0.15703119786E+03  0.00000000000E+00 0. -1.
         23    2    1    2    0    0 -0.29083634097E+02  0.60667123702E+02  0.35739192218E+01  0.11193808553E+03  0.89392418150E+02 0.  0.
         23    2    1    2    0    0  0.51179403540E+02 -0.70488142351E+02 -0.33801826600E+01  0.12802701390E+03  0.93763431537E+02 0.  0.
        -11    1    4    4    0    0  0.17647268463E+02 -0.69122868807E+02 -0.37136462299E+02  0.80427071987E+02  0.00000000000E+00 0.  1.
         11    1    4    4    0    0  0.33532135077E+02 -0.13652735441E+01  0.33756279639E+02  0.47599941909E+02  0.00000000000E+00 0. -1.
        -13    1    3    3    0    0 -0.14954964647E+02 -0.14690450306E+02  0.24713006492E+02  0.32406681219E+02  0.00000000000E+00 0. -1.
         13    1    3    3    0    0 -0.14128669450E+02  0.75357574008E+02 -0.21139087270E+02  0.79531404310E+02  0.00000000000E+00 0.  1.
          4    1    1    2  501    0 -0.22095769444E+02  0.98210186484E+01 -0.33210482734E+02  0.41080550118E+02  0.00000000000E+00 0. -1.
<scales pt_clust_5="13000.00000" pt_clust_6="13000.00000" pt_clust_7="13000.00000" pt_clust_8="13000.00000" pt_clust_9="24.18006"></scales>
<clustering>
<clus scale="   24.180">  2  9  1 -1</clus>
<clus scale="   89.392">  7  8 -1 -1</clus>
<clus scale="   93.763">  5  6 -1 -1</clus>
<clus scale="  117.287">  1  7  2 -1</clus>
<clus scale="   24.180">  2  5  1 -1</clus>
</clustering>
</event>
<event>
 9    1  0.1881049E-005  0.1041283E+03  0.7546771E-02  0.1273114E+00
          1   -1    0    0  502    0 -0.00000000000E+00  0.00000000000E+00  0.14287514696E+03  0.14287514696E+03  0.00000000000E+00 0. -1.
         21   -1    0    0  501  502  0.00000000000E+00 -0.00000000000E+00 -0.12175970300E+03  0.12175970300E+03  0.00000000000E+00 0.  1.
         23    2    1    2    0    0  0.52968402626E+02  0.26196933626E+01  0.29024466093E+02  0.10869424984E+03  0.90329983098E+02 0.  0.
         23    2    1    2    0    0 -0.32141198480E+02  0.32648747122E+02 -0.31747142624E+02  0.10854976434E+03  0.93145976541E+02 0.  0.
        -11    1    3    3    0    0  0.56801682009E+01 -0.36374664427E+02 -0.71782388788E+01  0.37508767460E+02  0.00000000000E+00 0.  1.
         11    1    3    3    0    0  0.47288234425E+02  0.38994357790E+02  0.36202704972E+02  0.71185482381E+02  0.00000000000E+00 0. -1.
        -11    1    4    4    0    0  0.32554658699E+02  0.13358635217E+02 -0.18486289285E+02  0.39749236840E+02  0.00000000000E+00 0. -1.
         11    1    4    4    0    0 -0.64695857178E+02  0.19290111905E+02 -0.13260853339E+02  0.68800527503E+02  0.00000000000E+00 0.  1.
          1    1    1    2  501    0 -0.20827204146E+02 -0.35268440484E+02  0.23838120487E+02  0.47390835772E+02  0.00000000000E+00 0. -1.
<scales pt_clust_5="13000.00000" pt_clust_6="13000.00000" pt_clust_7="13000.00000" pt_clust_8="13000.00000" pt_clust_9="40.95897"></scales>
<clustering>
<clus scale="   40.959">  2  9  1 -1</clus>
<clus scale="   90.330">  5  6 -1 -1</clus>
<clus scale="   93.146">  7  8 -1 -1</clus>
<clus scale="  101.617">  1  5  2 -1</clus>
<clus scale="   40.959">  2  5  1 -1</clus>
</clustering>
</event>
<event>
 9    1  0.1881049E-005  0.1455523E+03  0.7546771E-02  0.1206221E+00
         21   -1    0    0  501  502  0.00000000000E+00  0.00000000000E+00  0.23867653726E+03  0.23867653726E+03  0.00000000000E+00 0.  1.
         -3   -1    0    0    0  501 -0.00000000000E+00 -0.00000000000E+00 -0.16736837341E+03  0.16736837341E+03  0.00000000000E+00 0.  1.
         23    2    1    2    0    0 -0.76865756523E+02  0.71478405952E+02 -0.59892682305E+02  0.15156156824E+03  0.91467308536E+02 0.  0.
         23    2    1    2    0    0  0.96800060861E+02 -0.90999284665E+02  0.49660837885E+02  0.16830205591E+03  0.90599457027E+02 0.  0.
        -11    1    4    4    0    0  0.85128256469E+02 -0.63882701330E+02 -0.45983476455E+01  0.10653151825E+03  0.00000000000E+00 0.  1.
         11    1    4    4    0    0  0.11671804392E+02 -0.27116583334E+02  0.54259185530E+02  0.61770537669E+02  0.00000000000E+00 0. -1.
        -11    1    3    3    0    0 -0.68643524128E+02  0.90606071915E+02 -0.34640728521E+02  0.11883338649E+03  0.00000000000E+00 0.  1.
         11    1    3    3    0    0 -0.82222323946E+01 -0.19127665963E+02 -0.25251953784E+02  0.32728181750E+02  0.00000000000E+00 0. -1.
         -3    1    1    2    0  502 -0.19934304339E+02  0.19520878713E+02  0.81540008270E+02  0.86181286506E+02  0.00000000000E+00 0.  1.
<scales pt_clust_5="13000.00000" pt_clust_6="13000.00000" pt_clust_7="13000.00000" pt_clust_8="13000.00000" pt_clust_9="27.90056"></scales>
<clustering>
<clus scale="   27.901">  1  9  2 -1</clus>
<clus scale="   90.599">  5  6 -1 -1</clus>
<clus scale="   91.467">  7  8 -1 -1</clus>
<clus scale="  145.009">  1  5  2 -1</clus>
<clus scale="   27.901">  1  5  2 -1</clus>
</clustering>
</event>
<event>
 9    1  0.1881049E-005  0.1548256E+03  0.7546771E-02  0.1196011E+00
         21   -1    0    0  501  502  0.00000000000E+00  0.00000000000E+00  0.61407302849E+02  0.61407302849E+02  0.00000000000E+00 0. -1.
         -4   -1    0    0    0  501 -0.00000000000E+00 -0.00000000000E+00 -0.90127527793E+03  0.90127527793E+03  0.00000000000E+00 0.  1.
         23    2    1    2    0    0 -0.28094196069E+02  0.11529023530E+03 -0.59562956471E+03  0.61414736399E+03  0.91221072844E+02 0.  0.
         23    2    1    2    0    0  0.69702734360E+02 -0.12840281772E+03 -0.25321452922E+03  0.30399556045E+03  0.83366349242E+02 0.  0.
        -11    1    4    4    0    0  0.30392821657E+02 -0.12232424467E+03 -0.21254350828E+03  0.24710663155E+03  0.00000000000E+00 0. -1.
         11    1    4    4    0    0  0.39309912703E+02 -0.60785730549E+01 -0.40671020944E+02  0.56888928903E+02  0.00000000000E+00 0.  1.
        -11    1    3    3    0    0  0.24480610313E+02  0.60035124593E+02 -0.37847271136E+03  0.38398581967E+03  0.00000000000E+00 0.  1.
         11    1    3    3    0    0 -0.52574806382E+02  0.55255110706E+02 -0.21715685336E+03  0.23016154432E+03  0.00000000000E+00 0. -1.
         -4    1    1    2    0  502 -0.41608538291E+02  0.13112582424E+02  0.89761188588E+01  0.44539656334E+02  0.00000000000E+00 0.  1.
<scales pt_clust_5="13000.00000" pt_clust_6="13000.00000" pt_clust_7="13000.00000" pt_clust_8="13000.00000" pt_clust_9="43.62580"></scales>
<clustering>
<clus scale="   43.626">  1  9  2 -1</clus>
<clus scale="   83.366">  5  6 -1 -1</clus>
<clus scale="   91.221">  7  8 -1 -1</clus>
<clus scale="  150.332">  1  5  2 -1</clus>
<clus scale="   43.626">  1  5  2 -1</clus>
</clustering>
</event>
<event>
 9    1  0.1881049E-005  0.2266472E+03  0.7546771E-02  0.1129329E+00
         21   -1    0    0  501  502  0.00000000000E+00  0.00000000000E+00  0.15090947047E+03  0.15090947047E+03  0.00000000000E+00 0.  1.
          2   -1    0    0  502    0 -0.00000000000E+00 -0.00000000000E+00 -0.56095745535E+03  0.56095745535E+03  0.00000000000E+00 0. -1.
         23    2    1    2    0    0  0.14309074153E+03  0.12561689494E+03 -0.25937595127E+03  0.33360987942E+03  0.88119821537E+02 0.  0.
         23    2    1    2    0    0 -0.19251969330E+03 -0.13685432953E+03 -0.18766153499E+03  0.31550575621E+03  0.92380142173E+02 0.  0.
        -11    1    3    3    0    0  0.54618753863E+02  0.20019544087E+01 -0.44940817322E+02  0.70759403308E+02  0.00000000000E+00 0.  1.
         11    1    3    3    0    0  0.88471987666E+02  0.12361494053E+03 -0.21443513395E+03  0.26285047611E+03  0.00000000000E+00 0. -1.
        -13    1    4    4    0    0 -0.14890720908E+03 -0.63365924237E+02 -0.87944858988E+02  0.18418169153E+03  0.00000000000E+00 0.  1.
         13    1    4    4    0    0 -0.43612484213E+02 -0.73488405291E+02 -0.99716675999E+02  0.13132406468E+03  0.00000000000E+00 0. -1.
          2    1    1    2  501    0  0.49428951769E+02  0.11237434589E+02  0.36989501369E+02  0.62751290191E+02  0.00000000000E+00 0. -1.
<scales pt_clust_5="13000.00000" pt_clust_6="13000.00000" pt_clust_7="13000.00000" pt_clust_8="13000.00000" pt_clust_9="50.69025"></scales>
<clustering>
<clus scale="   50.690">  1  9  2 -1</clus>
<clus scale="   88.120">  5  6 -1 -1</clus>
<clus scale="   92.380">  7  8 -1 -1</clus>
<clus scale="  224.944">  2  5  1 -1</clus>
<clus scale="   50.690">  1  5  2 -1</clus>
</clustering>
</event>
<event>
 9    1  0.1881049E-005  0.1757929E+03  0.7546771E-02  0.1172147E+00
          2   -1    0    0  502    0 -0.00000000000E+00  0.00000000000E+00  0.40868791566E+03  0.40868791566E+03  0.00000000000E+00 0. -1.
         21   -1    0    0  501  502  0.00000000000E+00 -0.00000000000E+00 -0.12390178335E+03  0.12390178335E+03  0.00000000000E+00 0.  1.
         23    2    1    2    0    0  0.61170102868E+02  0.14405121832E+03  0.27270892568E+03  0.32737792600E+03  0.91179017877E+02 0.  0.
         23    2    1    2    0    0 -0.40371831035E+02 -0.12670345921E+03  0.39270120153E+02  0.16683251555E+03  0.92775506413E+02 0.  0.
        -11    1    4    4    0    0 -0.59221362698E+02 -0.71213676164E+02 -0.59484210814E+01  0.92811320355E+02  0.00000000000E+00 0.  1.
         11    1    4    4    0    0  0.18849531663E+02 -0.55489783049E+02  0.45218541235E+02  0.74021195195E+02  0.00000000000E+00 0. -1.
        -13    1    3    3    0    0  0.60678385687E+02  0.42155605706E+02  0.76898071826E+02  0.10664086943E+03  0.00000000000E+00 0. -1.
         13    1    3    3    0    0  0.49171718118E+00  0.10189561262E+03  0.19581085386E+03  0.22073705657E+03  0.00000000000E+00 0.  1.
          2    1    1    2  501    0 -0.20798271833E+02 -0.17347759109E+02 -0.27192913525E+02  0.38379257462E+02  0.00000000000E+00 0. -1.
<scales pt_clust_5="13000.00000" pt_clust_6="13000.00000" pt_clust_7="13000.00000" pt_clust_8="13000.00000" pt_clust_9="27.08344"></scales>
<clustering>
<clus scale="   27.083">  2  9  1 -1</clus>
<clus scale="   91.179">  7  8 -1 -1</clus>
<clus scale="   92.776">  5  6 -1 -1</clus>
<clus scale="  174.956">  1  7  2 -1</clus>
<clus scale="   27.083">  2  5  1 -1</clus>
</clustering>
</event>
<event>
 9    1  0.1881049E-005  0.1123179E+03  0.7546771E-02  0.1256718E+00
         -1   -1    0    0    0  501 -0.00000000000E+00  0.00000000000E+00  0.89100541722E+02  0.89100541722E+02  0.00000000000E+00 0.  1.
         21   -1    0    0  501  502  0.00000000000E+00 -0.00000000000E+00 -0.53098296127E+03  0.53098296127E+03  0.00000000000E+00 0. -1.
         23    2    1    2    0    0  0.57424057252E+02 -0.30196201483E+02  0.25066136322E+02  0.11574079716E+03  0.92511015576E+02 0.  0.
         23    2    1    2    0    0 -0.33369439333E+02  0.58636982032E+02 -0.16655236207E+03  0.20164586757E+03  0.91485252657E+02 0.  0.
        -11    1    4    4    0    0 -0.14837229667E+02 -0.22248361726E+02 -0.20612565816E+02  0.33764046754E+02  0.00000000000E+00 0.  1.
         11    1    4    4    0    0 -0.18532209666E+02  0.80885343758E+02 -0.14593979625E+03  0.16788182082E+03  0.00000000000E+00 0. -1.
        -13    1    3    3    0    0  0.62599796330E+01 -0.50595666376E+02 -0.78376093790E+01  0.51580392804E+02  0.00000000000E+00 0.  1.
         13    1    3    3    0    0  0.51164077620E+02  0.20399464893E+02  0.32903745701E+02  0.64160404361E+02  0.00000000000E+00 0. -1.
         -1    1    1    2    0  502 -0.24054617920E+02 -0.28440780550E+02 -0.30039619380E+03  0.30269683826E+03  0.00000000000E+00 0.  1.
<scales pt_clust_5="13000.00000" pt_clust_6="13000.00000" pt_clust_7="13000.00000" pt_clust_8="13000.00000" pt_clust_9="37.24920"></scales>
<clustering>
<clus scale="   37.249">  2  9  1 -1</clus>
<clus scale="   91.485">  5  6 -1 -1</clus>
<clus scale="   92.511">  7  8 -1 -1</clus>
<clus scale="  111.474">  2  5  1 -1</clus>
<clus scale="   37.249">  2  5  1 -1</clus>
</clustering>
</event>
<event>
 9    1  0.1881049E-005  0.1093660E+03  0.7546771E-02  0.1262610E+00
         21   -1    0    0  501  502  0.00000000000E+00  0.00000000000E+00  0.33165097439E+03  0.33165097439E+03  0.00000000000E+00 0.  1.
          1   -1    0    0  502    0 -0.00000000000E+00 -0.00000000000E+00 -0.10756949815E+03  0.10756949815E+03  0.00000000000E+00 0. -1.
         23    2    1    2    0    0  0.76489529698E+01 -0.50131048936E+02 -0.11440763698E+02  0.10457046074E+03  0.90732913743E+02 0.  0.
         23    2    1    2    0    0  0.78858691518E+02  0.80203129804E+02  0.13677893288E+03  0.19997208751E+03  0.92893078558E+02 0.  0.
        -13    1    4    4    0    0  0.31112428353E+02  0.30165626454E+02  0.12169941489E+03  0.12918473517E+03  0.00000000000E+00 0.  1.
         13    1    4    4    0    0  0.47746263165E+02  0.50037503351E+02  0.15079517993E+02  0.70787352336E+02  0.00000000000E+00 0. -1.
        -13    1    3    3    0    0 -0.39458766267E+02 -0.30152934267E+02  0.70589493259E+01  0.50159968558E+02  0.00000000000E+00 0. -1.
         13    1    3    3    0    0  0.47107719236E+02 -0.19978114669E+02 -0.18499713024E+02  0.54410492181E+02  0.00000000000E+00 0.  1.
          1    1    1    2  501    0 -0.86507644488E+02 -0.30072080869E+02  0.98743307052E+02  0.13467792429E+03  0.00000000000E+00 0. -1.
<scales pt_clust_5="13000.00000" pt_clust_6="13000.00000" pt_clust_7="13000.00000" pt_clust_8="13000.00000" pt_clust_9="91.58549"></scales>
<clustering>
<clus scale="   90.733">  7  8 -1 -1</clus>
<clus scale="   91.585">  1  9  2 -1</clus>
<clus scale="   92.893">  5  6 -1 -1</clus>
<clus scale="  107.537">  2  7  1 -1</clus>
<clus scale="   91.585">  1  5  2 -1</clus>
</clustering>
</event>
<event>
 9    1  0.1881049E-005  0.1075571E+03  0.7546771E-02  0.1265622E+00
          1   -1    0    0  502    0 -0.00000000000E+00  0.00000000000E+00  0.21469834005E+03  0.21469834005E+03  0.00000000000E+00 0. -1.
         21   -1    0    0  501  502  0.00000000000E+00 -0.00000000000E+00 -0.12197664447E+03  0.12197664447E+03  0.00000000000E+00 0.  1.
         23    2    1    2    0    0  0.22037636061E+02  0.70327637469E+02  0.11463862886E+03  0.16438113732E+03  0.91910331767E+02 0.  0.
         23    2    1    2    0    0 -0.40404708576E+02 -0.66955477371E+01  0.73889378733E+01  0.99869912763E+02  0.90785638940E+02 0.  0.
        -11    1    3    3    0    0  0.27074375521E+02  0.91418805994E+02  0.85542156346E+02  0.12809324889E+03  0.00000000000E+00 0.  1.
         11    1    3    3    0    0 -0.50367394601E+01 -0.21091168524E+02  0.29096472509E+02  0.36287888429E+02  0.00000000000E+00 0. -1.
        -13    1    4    4    0    0 -0.26842251126E+02  0.35389273051E+02 -0.19074058926E+02  0.48339702280E+02  0.00000000000E+00 0.  1.
         13    1    4    4    0    0 -0.13562457450E+02 -0.42084820788E+02  0.26462996799E+02  0.51530210483E+02  0.00000000000E+00 0. -1.
          1    1    1    2  501    0  0.18367072515E+02 -0.63632089732E+02 -0.29305871141E+02  0.72423934440E+02  0.00000000000E+00 0. -1.
<scales pt_clust_5="13000.00000" pt_clust_6="13000.00000" pt_clust_7="13000.00000" pt_clust_8="13000.00000" pt_clust_9="66.22984"></scales>
<clustering>
<clus scale="   66.230">  2  9  1 -1</clus>
<clus scale="   90.786">  7  8 -1 -1</clus>
<clus scale="   91.910">  5  6 -1 -1</clus>
<clus scale="  106.598">  2  7  1 -1</clus>
<clus scale="   66.230">  2  5  1 -1</clus>
</clustering>
</event>
<event>
 9    1  0.1881049E-005  0.1280478E+03  0.7546771E-02  0.1237610E+00
         21   -1    0    0  501  502  0.00000000000E+00  0.00000000000E+00  0.20591092390E+03  0.20591092390E+03  0.00000000000E+00 0.  1.
          2   -1    0    0  502    0 -0.00000000000E+00 -0.00000000000E+00 -0.15366628507E+03  0.15366628507E+03  0.00000000000E+00 0. -1.
         23    2    1    2    0    0 -0.19053429845E+02  0.55708619794E+02 -0.11571953287E+02  0.11100741360E+03  0.93392999010E+02 0.  0.
         23    2    1    2    0    0 -0.60746313043E+02  0.34298899118E+02  0.54374814386E+02  0.12791118775E+03  0.92401961474E+02 0.  0.
        -11    1    3    3    0    0  0.36745456053E+02  0.30214556934E+02  0.39221347502E+01  0.47733962042E+02  0.00000000000E+00 0. -1.
         11    1    3    3    0    0 -0.55798885897E+02  0.25494062861E+02 -0.15494088037E+02  0.63273451563E+02  0.00000000000E+00 0.  1.
        -13    1    4    4    0    0 -0.40336370409E+02 -0.23753773151E+02  0.46312718858E+02  0.65849316206E+02  0.00000000000E+00 0.  1.
         13    1    4    4    0    0 -0.20409942634E+02  0.58052672269E+02  0.80620955281E+01  0.62061871549E+02  0.00000000000E+00 0. -1.
          2    1    1    2  501    0  0.79799742888E+02 -0.90007518912E+02  0.94417777289E+01  0.12065860762E+03  0.00000000000E+00 0. -1.
<scales pt_clust_5="13000.00000" pt_clust_6="13000.00000" pt_clust_7="13000.00000" pt_clust_8="13000.00000" pt_clust_9="88.64607"></scales>
<clustering>
<clus scale="   92.402">  7  8 -1 -1</clus>
<clus scale="   93.393">  5  6 -1 -1</clus>
<clus scale="  110.403">  2  5  1 -1</clus>
<clus scale="   88.646">  1  9  2 -1</clus>
<clus scale="   88.646">  1  5  2 -1</clus>
</clustering>
</event>
<event>
 9    1  0.1881049E-005  0.1378139E+03  0.7546771E-02  0.1233628E+00
          2   -1    0    0  502    0 -0.00000000000E+00  0.00000000000E+00  0.37327325656E+03  0.37327325656E+03  0.00000000000E+00 0. -1.
         21   -1    0    0  501  502  0.00000000000E+00 -0.00000000000E+00 -0.12909784616E+03  0.12909784616E+03  0.00000000000E+00 0. -1.
         23    2    1    2    0    0  0.11873830531E+02 -0.85182608266E+01  0.12592175327E+03  0.15838493086E+03  0.94952355201E+02 0.  0.
         23    2    1    2    0    0 -0.15973640042E+02  0.10571417446E+03  0.17864025622E+03  0.22948553686E+03  0.96543392471E+02 0.  0.
        -11    1    4    4    0    0  0.66652077566E+01  0.10678314020E+03  0.95840755275E+02  0.14364022556E+03  0.00000000000E+00 0. -1.
         11    1    4    4    0    0 -0.22638847799E+02 -0.10689657383E+01  0.82799500942E+02  0.85845311309E+02  0.00000000000E+00 0.  1.
        -13    1    3    3    0    0 -0.16351484622E+02  0.36836269547E+02  0.71811981971E+02  0.82348300275E+02  0.00000000000E+00 0.  1.
         13    1    3    3    0    0  0.28225315153E+02 -0.45354530373E+02  0.54109771298E+02  0.76036630586E+02  0.00000000000E+00 0. -1.
          2    1    1    2  501    0  0.40998095108E+01 -0.97195913638E+02 -0.60386599083E+02  0.11450063500E+03  0.00000000000E+00 0. -1.
<scales pt_clust_5="13000.00000" pt_clust_6="13000.00000" pt_clust_7="13000.00000" pt_clust_8="13000.00000" pt_clust_9="98.34649"></scales>
<clustering>
<clus scale="   94.952">  7  8 -1 -1</clus>
<clus scale="   96.070">  1  7  2 -1</clus>
<clus scale="   96.543">  5  6 -1 -1</clus>
<clus scale="   98.346">  2  9  1 -1</clus>
<clus scale="   98.346">  2  5  1 -1</clus>
</clustering>
</event>
<event>
 9    1  0.1881049E-005  0.1226380E+03  0.7546771E-02  0.1239100E+00
         21   -1    0    0  501  502  0.00000000000E+00  0.00000000000E+00  0.22332760021E+03  0.22332760021E+03  0.00000000000E+00 0.  1.
          4   -1    0    0  502    0 -0.00000000000E+00 -0.00000000000E+00 -0.93981223946E+02  0.93981223946E+02  0.00000000000E+00 0. -1.
         23    2    1    2    0    0  0.24870187250E+02 -0.78179000880E+02  0.15727222525E+02  0.12312165275E+03  0.90449507768E+02 0.  0.
         23    2    1    2    0    0 -0.49018334078E+02  0.67952156773E+02  0.67651792084E+02  0.14126534535E+03  0.91426692702E+02 0.  0.
        -11    1    3    3    0    0 -0.14981002501E+02 -0.35958642958E+02  0.43814142362E+02  0.58627071479E+02  0.00000000000E+00 0.  1.
         11    1    3    3    0    0  0.39851189751E+02 -0.42220357922E+02 -0.28086919836E+02  0.64494581273E+02  0.00000000000E+00 0. -1.
        -11    1    4    4    0    0  0.33547877799E+00  0.74243028834E+02  0.39402872744E+02  0.84051925957E+02  0.00000000000E+00 0.  1.
         11    1    4    4    0    0 -0.49353812856E+02 -0.62908720609E+01  0.28248919340E+02  0.57213419392E+02  0.00000000000E+00 0. -1.
          4    1    1    2  501    0  0.24148146828E+02  0.10226844106E+02  0.45967361652E+02  0.52921826054E+02  0.00000000000E+00 0. -1.
<scales pt_clust_5="13000.00000" pt_clust_6="13000.00000" pt_clust_7="13000.00000" pt_clust_8="13000.00000" pt_clust_9="26.22444"></scales>
<clustering>
<clus scale="   26.224">  1  9  2 -1</clus>
<clus scale="   90.450">  5  6 -1 -1</clus>
<clus scale="   91.427">  7  8 -1 -1</clus>
<clus scale="  121.911">  2  5  1 -1</clus>
<clus scale="   26.224">  1  5  2 -1</clus>
</clustering>
</event>
<event>
 9    1  0.1881049E-005  0.1209902E+03  0.7546771E-02  0.1242906E+00
         -3   -1    0    0    0  501 -0.00000000000E+00  0.00000000000E+00  0.30989604463E+03  0.30989604463E+03  0.00000000000E+00 0.  1.
         21   -1    0    0  501  502  0.00000000000E+00 -0.00000000000E+00 -0.66820363270E+02  0.66820363270E+02  0.00000000000E+00 0. -1.
         23    2    1    2    0    0 -0.18027327831E+01  0.98759099121E+02  0.13095980043E+03  0.18610032171E+03  0.87899095019E+02 0.  0.
         23    2    1    2    0    0 -0.57118430165E+01 -0.55043571175E+02  0.64753777275E+02  0.12572629428E+03  0.92475021073E+02 0.  0.
        -11    1    3    3    0    0 -0.45830241118E+01  0.70461373747E+02  0.22700969826E+02  0.74169692808E+02  0.00000000000E+00 0. -1.
         11    1    3    3    0    0  0.27802913287E+01  0.28297725374E+02  0.10825883061E+03  0.11193062890E+03  0.00000000000E+00 0.  1.
        -13    1    4    4    0    0 -0.36888980821E+02  0.29076029573E+01  0.42287544824E+02  0.56191525235E+02  0.00000000000E+00 0. -1.
         13    1    4    4    0    0  0.31177137804E+02 -0.57951174133E+02  0.22466232451E+02  0.69534769041E+02  0.00000000000E+00 0.  1.
         -3    1    1    2    0  502  0.75145757996E+01 -0.43715527945E+02  0.47362103658E+02  0.64889791924E+02  0.00000000000E+00 0.  1.
<scales pt_clust_5="13000.00000" pt_clust_6="13000.00000" pt_clust_7="13000.00000" pt_clust_8="13000.00000" pt_clust_9="44.35672"></scales>
<clustering>
<clus scale="   44.357">  2  9  1 -1</clus>
<clus scale="   87.899">  5  6 -1 -1</clus>
<clus scale="   92.475">  7  8 -1 -1</clus>
<clus scale="  117.530">  1  5  2 -1</clus>
<clus scale="   44.357">  2  5  1 -1</clus>
</clustering>
</event>
<event>
 9    1  0.1881049E-005  0.1296288E+03  0.7546771E-02  0.1232201E+00
         21   -1    0    0  501  502  0.00000000000E+00  0.00000000000E+00  0.51678870857E+02  0.51678870857E+02  0.00000000000E+00 0. -1.
          2   -1    0    0  502    0 -0.00000000000E+00 -0.00000000000E+00 -0.80686260702E+03  0.80686260702E+03  0.00000000000E+00 0. -1.
         23    2    1    2    0    0  0.46871373888E+02  0.27292361641E+02 -0.28518091123E+03  0.30877674345E+03  0.10522892412E+03 0.  0.
         23    2    1    2    0    0 -0.13286651311E+03 -0.40471834090E+02 -0.17201813921E+03  0.23933964622E+03  0.91661040668E+02 0.  0.
        -13    1    4    4    0    0 -0.10955651865E+03  0.10759914701E+01 -0.15268340818E+03  0.18792554821E+03  0.00000000000E+00 0.  1.
         13    1    4    4    0    0 -0.23309994458E+02 -0.41547825560E+02 -0.19334731030E+02  0.51414098012E+02  0.00000000000E+00 0. -1.
        -13    1    3    3    0    0 -0.12451663613E+00  0.59564642162E+02 -0.17250930972E+03  0.18250321652E+03  0.00000000000E+00 0. -1.
         13    1    3    3    0    0  0.46995890524E+02 -0.32272280521E+02 -0.11267160151E+03  0.12627352693E+03  0.00000000000E+00 0.  1.
          2    1    1    2  501    0  0.85995139219E+02  0.13179472449E+02 -0.29798468571E+03  0.31042508820E+03  0.00000000000E+00 0. -1.
<scales pt_clust_5="13000.00000" pt_clust_6="13000.00000" pt_clust_7="13000.00000" pt_clust_8="13000.00000" pt_clust_9="86.99925"></scales>
<clustering>
<clus scale="   86.999">  1  9  2 -1</clus>
<clus scale="   91.661">  5  6 -1 -1</clus>
<clus scale="  105.229">  7  8 -1 -1</clus>
<clus scale="  118.879">  1  5  2 -1</clus>
<clus scale="   86.999">  1  5  2 -1</clus>
</clustering>
</event>
<event>
 9    1  0.1881049E-005  0.9715604E+02  0.7546771E-02  0.1288606E+00
         21   -1    0    0  501  502  0.00000000000E+00  0.00000000000E+00  0.35986528602E+03  0.35986528602E+03  0.00000000000E+00 0. -1.
          3   -1    0    0  502    0 -0.00000000000E+00 -0.00000000000E+00 -0.84980683221E+02  0.84980683221E+02  0.00000000000E+00 0. -1.
         23    2    1    2    0    0 -0.93622661919E+01 -0.62190786780E+01  0.26411092721E+02  0.97767449097E+02  0.93459078299E+02 0.  0.
         23    2    1    2    0    0 -0.52269347334E+02  0.26296106960E+02  0.18799204102E+02  0.10843269538E+03  0.89334592632E+02 0.  0.
        -13    1    3    3    0    0 -0.25155751466E+02 -0.45380546872E+02  0.13563184088E+02  0.53629896782E+02  0.00000000000E+00 0.  1.
         13    1    3    3    0    0  0.15793485274E+02  0.39161468194E+02  0.12847908633E+02  0.44137552316E+02  0.00000000000E+00 0. -1.
        -13    1    4    4    0    0  0.15719003123E+02 -0.17498054353E+02  0.14099626854E+02  0.27423866298E+02  0.00000000000E+00 0.  1.
         13    1    4    4    0    0 -0.67988350457E+02  0.43794161313E+02  0.46995772475E+01  0.81008829082E+02  0.00000000000E+00 0. -1.
          3    1    1    2  501    0  0.61631613526E+02 -0.20077028282E+02  0.22967430597E+03  0.23864582476E+03  0.00000000000E+00 0. -1.
<scales pt_clust_5="13000.00000" pt_clust_6="13000.00000" pt_clust_7="13000.00000" pt_clust_8="13000.00000" pt_clust_9="64.81931"></scales>
<clustering>
<clus scale="   64.819">  1  9  2 -1</clus>
<clus scale="   89.335">  7  8 -1 -1</clus>
<clus scale="   93.195">  1  7  2 -1</clus>
<clus scale="   93.459">  5  6 -1 -1</clus>
<clus scale="   64.819">  1  5  2 -1</clus>
</clustering>
</event>
<event>
 9    1  0.1881049E-005  0.2438096E+03  0.7546771E-02  0.1138683E+00
          2   -1    0    0  502    0 -0.00000000000E+00  0.00000000000E+00  0.37677321412E+03  0.37677321412E+03  0.00000000000E+00 0. -1.
         21   -1    0    0  501  502  0.00000000000E+00 -0.00000000000E+00 -0.30480731609E+03  0.30480731609E+03  0.00000000000E+00 0.  1.
         23    2    1    2    0    0 -0.10935237312E+03  0.16025989856E+02  0.12778451928E+03  0.19241242597E+03  0.92080858180E+02 0.  0.
         23    2    1    2    0    0  0.25138422920E+03 -0.11051890996E+03 -0.11089901430E+03  0.30990346804E+03  0.91285858590E+02 0.  0.
        -11    1    4    4    0    0  0.13803112594E+03 -0.67894842058E+02 -0.13358269705E+02  0.15440448399E+03  0.00000000000E+00 0.  1.
         11    1    4    4    0    0  0.11335310326E+03 -0.42624067906E+02 -0.97540744597E+02  0.15549898404E+03  0.00000000000E+00 0. -1.
        -11    1    3    3    0    0 -0.58012406271E+02 -0.36418855559E+02  0.77587184345E+02  0.10349658688E+03  0.00000000000E+00 0. -1.
         11    1    3    3    0    0 -0.51339966844E+02  0.52444845415E+02  0.50197334936E+02  0.88915839088E+02  0.00000000000E+00 0.  1.
          2    1    1    2  501    0 -0.14203185608E+03  0.94492920107E+02  0.55080393052E+02  0.17926463620E+03  0.00000000000E+00 0. -1.
<scales pt_clust_5="13000.00000" pt_clust_6="13000.00000" pt_clust_7="13000.00000" pt_clust_8="13000.00000" pt_clust_9="226.07537"></scales>
<clustering>
<clus scale="   91.286">  5  6 -1 -1</clus>
<clus scale="   92.081">  7  8 -1 -1</clus>
<clus scale="  143.853">  1  7  2 -1</clus>
<clus scale="  226.075">  2  9  1 -1</clus>
<clus scale="  226.075">  2  5  1 -1</clus>
</clustering>
</event>
<event>
 9    1  0.1881049E-005  0.9532724E+02  0.7546771E-02  0.1291817E+00
         21   -1    0    0  501  502  0.00000000000E+00  0.00000000000E+00  0.25906092792E+03  0.25906092792E+03  0.00000000000E+00 0. -1.
         -3   -1    0    0    0  501 -0.00000000000E+00 -0.00000000000E+00 -0.72517252780E+02  0.72517252780E+02  0.00000000000E+00 0.  1.
         23    2    1    2    0    0  0.66527654985E+01 -0.25103333950E+02  0.12815658170E+02  0.95883093594E+02  0.91405086722E+02 0.  0.
         23    2    1    2    0    0  0.10218298764E+02  0.48751281406E+01  0.45746216920E+02  0.10503080636E+03  0.93864654784E+02 0.  0.
        -11    1    3    3    0    0 -0.26217680545E+02 -0.42085325812E+01 -0.28602401549E+02  0.39027886108E+02  0.00000000000E+00 0.  1.
         11    1    3    3    0    0  0.32870446044E+02 -0.20894801369E+02  0.41418059719E+02  0.56855207486E+02  0.00000000000E+00 0. -1.
        -13    1    4    4    0    0 -0.15510112934E+02 -0.39951125209E+02  0.21200507735E+02  0.47813361489E+02  0.00000000000E+00 0.  1.
         13    1    4    4    0    0  0.25728411699E+02  0.44826253350E+02  0.24545709185E+02  0.57217444869E+02  0.00000000000E+00 0. -1.
         -3    1    1    2    0  502 -0.16871064263E+02  0.20228205809E+02  0.12798180004E+03  0.13066428074E+03  0.00000000000E+00 0.  1.
<scales pt_clust_5="13000.00000" pt_clust_6="13000.00000" pt_clust_7="13000.00000" pt_clust_8="13000.00000" pt_clust_9="26.34033"></scales>
<clustering>
<clus scale="   26.340">  1  9  2 -1</clus>
<clus scale="   91.405">  5  6 -1 -1</clus>
<clus scale="   92.906">  2  5  1 -1</clus>
<clus scale="   93.865">  7  8 -1 -1</clus>
<clus scale="   26.340">  1  5  2 -1</clus>
</clustering>
</event>
<event>
 9    1  0.1881049E-005  0.1531702E+03  0.7546771E-02  0.1197411E+00
         21   -1    0    0  501  502  0.00000000000E+00  0.00000000000E+00  0.15605980884E+03  0.15605980884E+03  0.00000000000E+00 0.  1.
          2   -1    0    0  502    0 -0.00000000000E+00 -0.00000000000E+00 -0.25642711190E+03  0.25642711190E+03  0.00000000000E+00 0. -1.
         23    2    1    2    0    0 -0.26315649149E+01  0.13846926408E+03 -0.11562375651E+03  0.20196528733E+03  0.90776990411E+02 0.  0.
         23    2    1    2    0    0  0.19288755472E+02 -0.78592012846E+02  0.55388171500E+02  0.13653986535E+03  0.95008024492E+02 0.  0.
        -11    1    4    4    0    0  0.41990167983E+02 -0.87021699597E+02  0.29351316910E+02  0.10098242526E+03  0.00000000000E+00 0. -1.
         11    1    4    4    0    0 -0.22701412511E+02  0.84296867515E+01  0.26036854590E+02  0.35557440089E+02  0.00000000000E+00 0.  1.
        -13    1    3    3    0    0  0.39553037339E+02  0.10286614492E+03 -0.81485151838E+02  0.13706099556E+03  0.00000000000E+00 0.  1.
         13    1    3    3    0    0 -0.42184602254E+02  0.35603119152E+02 -0.34138604676E+02  0.64904291768E+02  0.00000000000E+00 0. -1.
          2    1    1    2  501    0 -0.16657190557E+02 -0.59877251230E+02 -0.40131718042E+02  0.73981768059E+02  0.00000000000E+00 0. -1.
<scales pt_clust_5="13000.00000" pt_clust_6="13000.00000" pt_clust_7="13000.00000" pt_clust_8="13000.00000" pt_clust_9="62.15103"></scales>
<clustering>
<clus scale="   62.151">  1  9  2 -1</clus>
<clus scale="   90.777">  7  8 -1 -1</clus>
<clus scale="   95.008">  5  6 -1 -1</clus>
<clus scale="  150.582">  2  7  1 -1</clus>
<clus scale="   62.151">  1  5  2 -1</clus>
</clustering>
</event>
<event>
 9    1  0.1881049E-005  0.1186109E+03  0.7546771E-02  0.1246628E+00
         21   -1    0    0  501  502  0.00000000000E+00  0.00000000000E+00  0.11267999752E+04  0.11267999752E+04  0.00000000000E+00 0. -1.
          2   -1    0    0  502    0 -0.00000000000E+00 -0.00000000000E+00 -0.43119989851E+02  0.43119989851E+02  0.00000000000E+00 0. -1.
         23    2    1    2    0    0  0.34089947499E+02 -0.19632325351E+02  0.14519103091E+03  0.17468226392E+03  0.88802619056E+02 0.  0.
         23    2    1    2    0    0 -0.13028004143E+03  0.29840668178E+02  0.23869032527E+03  0.28878539148E+03  0.92523382352E+02 0.  0.
        -11    1    4    4    0    0 -0.13946909135E+02 -0.15867192495E+02  0.21273016167E+01  0.21232274590E+02  0.00000000000E+00 0.  1.
         11    1    4    4    0    0 -0.11633313229E+03  0.45707860673E+02  0.23656302365E+03  0.26755311689E+03  0.00000000000E+00 0. -1.
        -13    1    3    3    0    0 -0.23042504803E+02  0.16569723560E+02  0.31557518680E+02  0.42442782092E+02  0.00000000000E+00 0. -1.
         13    1    3    3    0    0  0.57132452303E+02 -0.36202048911E+02  0.11363351223E+03  0.13223948183E+03  0.00000000000E+00 0.  1.
          2    1    1    2  501    0  0.96190093927E+02 -0.10208342827E+02  0.69979862915E+03  0.70645230963E+03  0.00000000000E+00 0. -1.
<scales pt_clust_5="13000.00000" pt_clust_6="13000.00000" pt_clust_7="13000.00000" pt_clust_8="13000.00000" pt_clust_9="96.73027"></scales>
<clustering>
<clus scale="   88.803">  7  8 -1 -1</clus>
<clus scale="   92.523">  5  6 -1 -1</clus>
<clus scale="   96.730">  1  9  2 -1</clus>
<clus scale="  115.732">  2  7  1 -1</clus>
<clus scale="   96.730">  1  5  2 -1</clus>
</clustering>
</event>
<event>
 9    1  0.1881049E-005  0.2007455E+03  0.7546771E-02  0.1149181E+00
         21   -1    0    0  501  502  0.00000000000E+00  0.00000000000E+00  0.78404002471E+02  0.78404002471E+02  0.00000000000E+00 0. -1.
         -3   -1    0    0    0  501 -0.00000000000E+00 -0.00000000000E+00 -0.11501456868E+04  0.11501456868E+04  0.00000000000E+00 0.  1.
         23    2    1    2    0    0 -0.14664531583E+03 -0.67491355285E+02 -0.51476503894E+03  0.54765799200E+03  0.94267169241E+02 0.  0.
         23    2    1    2    0    0  0.19082690086E+03  0.13711431227E+03 -0.22398644422E+03  0.33784382500E+03  0.93558976969E+02 0.  0.
        -11    1    4    4    0    0  0.16225153504E+03  0.72866123469E+02 -0.12925708474E+03  0.21986911227E+03  0.00000000000E+00 0. -1.
         11    1    4    4    0    0  0.28575365817E+02  0.64248188805E+02 -0.94729359478E+02  0.11797471273E+03  0.00000000000E+00 0.  1.
        -13    1    3    3    0    0 -0.58840130158E+02  0.20228967776E+02 -0.19318377664E+03  0.20295650670E+03  0.00000000000E+00 0. -1.
         13    1    3    3    0    0 -0.87805185670E+02 -0.87720323061E+02 -0.32158126230E+03  0.34470148530E+03  0.00000000000E+00 0.  1.
         -3    1    1    2    0  502 -0.44181585030E+02 -0.69622956990E+02 -0.33299020116E+03  0.34304787226E+03  0.00000000000E+00 0.  1.
<scales pt_clust_5="13000.00000" pt_clust_6="13000.00000" pt_clust_7="13000.00000" pt_clust_8="13000.00000" pt_clust_9="82.45833"></scales>
<clustering>
<clus scale="   82.458">  1  9  2 -1</clus>
<clus scale="   93.559">  5  6 -1 -1</clus>
<clus scale="   94.267">  7  8 -1 -1</clus>
<clus scale="  200.414">  1  5  2 -1</clus>
<clus scale="   82.458">  1  5  2 -1</clus>
</clustering>
</event>
<event>
 9    1  0.1881049E-005  0.1576256E+03  0.7546771E-02  0.1191628E+00
          1   -1    0    0  502    0 -0.00000000000E+00  0.00000000000E+00  0.83760297443E+03  0.83760297443E+03  0.00000000000E+00 0. -1.
         21   -1    0    0  501  502  0.00000000000E+00 -0.00000000000E+00 -0.53331132167E+02  0.53331132167E+02  0.00000000000E+00 0. -1.
         23    2    1    2    0    0  0.91488034007E+02  0.21942657040E+02  0.21543099538E+03  0.25207587201E+03  0.90995554365E+02 0.  0.
         23    2    1    2    0    0 -0.17426949321E+03  0.19483509707E+02  0.39311209913E+03  0.44023927762E+03  0.92325704238E+02 0.  0.
        -11    1    3    3    0    0  0.48401756286E+02 -0.25346464757E+02  0.15391141015E+03  0.16332144826E+03  0.00000000000E+00 0. -1.
         11    1    3    3    0    0  0.43086277722E+02  0.47289121797E+02  0.61519585232E+02  0.88754423751E+02  0.00000000000E+00 0.  1.
        -11    1    4    4    0    0 -0.79667506234E+02  0.41030588987E+02  0.11567274403E+03  0.14632362931E+03  0.00000000000E+00 0.  1.
         11    1    4    4    0    0 -0.94601986980E+02 -0.21547079280E+02  0.27743935510E+03  0.29391564831E+03  0.00000000000E+00 0. -1.
          1    1    1    2  501    0  0.82781459206E+02 -0.41426166747E+02  0.17572874775E+03  0.19861895697E+03  0.00000000000E+00 0. -1.
<scales pt_clust_5="13000.00000" pt_clust_6="13000.00000" pt_clust_7="13000.00000" pt_clust_8="13000.00000" pt_clust_9="92.56838"></scales>
<clustering>
<clus scale="   90.996">  5  6 -1 -1</clus>
<clus scale="   92.326">  7  8 -1 -1</clus>
<clus scale="   92.568">  2  9  1 -1</clus>
<clus scale="  156.850">  1  5  2 -1</clus>
<clus scale="   92.568">  2  5  1 -1</clus>
</clustering>
</event>
<event>
 9    1  0.1881049E-005  0.1347481E+03  0.7546771E-02  0.1220658E+00
         21   -1    0    0  501  502  0.00000000000E+00  0.00000000000E+00  0.84651075559E+02  0.84651075559E+02  0.00000000000E+00 0.  1.
          1   -1    0    0  502    0 -0.00000000000E+00 -0.00000000000E+00 -0.43275462318E+03  0.43275462318E+03  0.00000000000E+00 0. -1.
         23    2    1    2    0    0  0.25523273680E+02 -0.96744220247E+02 -0.32058653718E+03  0.34775340536E+03  0.90254204698E+02 0.  0.
         23    2    1    2    0    0 -0.47740526738E+02  0.90302655156E+02 -0.41936600915E+02  0.14239381427E+03  0.89908800595E+02 0.  0.
        -11    1    3    3    0    0  0.45047039088E+02 -0.46194283439E+02 -0.25314498332E+03  0.26123845454E+03  0.00000000000E+00 0.  1.
         11    1    3    3    0    0 -0.19523765408E+02 -0.50549936808E+02 -0.67441553864E+02  0.86514950816E+02  0.00000000000E+00 0. -1.
        -11    1    4    4    0    0 -0.15106106657E+02  0.29945933513E+02 -0.62357153249E+02  0.70805140729E+02  0.00000000000E+00 0. -1.
         11    1    4    4    0    0 -0.32634420082E+02  0.60356721644E+02  0.20420552335E+02  0.71588673541E+02  0.00000000000E+00 0.  1.
          1    1    1    2  501    0  0.22217253059E+02  0.64415650910E+01  0.14419590472E+02  0.27258479115E+02  0.00000000000E+00 0. -1.
<scales pt_clust_5="13000.00000" pt_clust_6="13000.00000" pt_clust_7="13000.00000" pt_clust_8="13000.00000" pt_clust_9="23.13223"></scales>
<clustering>
<clus scale="   23.132">  1  9  2 -1</clus>
<clus scale="   89.909">  7  8 -1 -1</clus>
<clus scale="   90.254">  5  6 -1 -1</clus>
<clus scale="  134.517">  1  7  2 -1</clus>
<clus scale="   23.132">  1  5  2 -1</clus>
</clustering>
</event>
<event>
 9    1  0.1881049E-005  0.1031955E+03  0.7546771E-02  0.1274363E+00
         21   -1    0    0  501  502  0.00000000000E+00  0.00000000000E+00  0.16947343172E+03  0.16947343172E+03  0.00000000000E+00 0. -1.
         -1   -1    0    0    0  501 -0.00000000000E+00 -0.00000000000E+00 -0.40720766123E+03  0.40720766123E+03  0.00000000000E+00 0.  1.
         23    2    1    2    0    0  0.32005763269E+02 -0.36059465928E+02 -0.33089619088E+03  0.34614706860E+03  0.89447470612E+02 0.  0.
         23    2    1    2    0    0 -0.87384205441E+02 -0.35410357681E+00  0.10391308880E+03  0.16339009951E+03  0.90897028792E+02 0.  0.
        -11    1    3    3    0    0  0.63051072994E+02 -0.30106783814E+02 -0.21944832525E+03  0.23030289554E+03  0.00000000000E+00 0.  1.
         11    1    3    3    0    0 -0.31045309725E+02 -0.59526821141E+01 -0.11144786563E+03  0.11584417306E+03  0.00000000000E+00 0. -1.
        -11    1    4    4    0    0 -0.82034132284E+02  0.20453568206E+02  0.11209202797E+03  0.14040146027E+03  0.00000000000E+00 0. -1.
         11    1    4    4    0    0 -0.53500731578E+01 -0.20807671783E+02 -0.81789391730E+01  0.22988639234E+02  0.00000000000E+00 0.  1.
         -1    1    1    2    0  502  0.55378442173E+02  0.36413569505E+02 -0.10751127434E+02  0.67143924838E+02  0.00000000000E+00 0.  1.
<scales pt_clust_5="13000.00000" pt_clust_6="13000.00000" pt_clust_7="13000.00000" pt_clust_8="13000.00000" pt_clust_9="66.27760"></scales>
<clustering>
<clus scale="   66.278">  1  9  2 -1</clus>
<clus scale="   89.447">  5  6 -1 -1</clus>
<clus scale="   90.897">  7  8 -1 -1</clus>
<clus scale="  101.921">  2  5  1 -1</clus>
<clus scale="   66.278">  1  5  2 -1</clus>
</clustering>
</event>
<event>
 9    1  0.1881049E-005  0.1504757E+03  0.7546771E-02  0.1201813E+00
         -1   -1    0    0    0  501 -0.00000000000E+00  0.00000000000E+00  0.81539262478E+02  0.81539262478E+02  0.00000000000E+00 0.  1.
         21   -1    0    0  501  502  0.00000000000E+00 -0.00000000000E+00 -0.59782084263E+03  0.59782084263E+03  0.00000000000E+00 0. -1.
         23    2    1    2    0    0 -0.11672778307E+03  0.33924195058E+02 -0.42405269444E+02  0.16167809427E+03  0.97802724601E+02 0.  0.
         23    2    1    2    0    0  0.81647394263E+02 -0.63367270993E+02 -0.21144035638E+03  0.25127976136E+03  0.88049907105E+02 0.  0.
        -13    1    3    3    0    0 -0.63105730116E+02  0.11760418665E+02  0.28350784308E+02  0.70174123375E+02  0.00000000000E+00 0.  1.
         13    1    3    3    0    0 -0.53622052958E+02  0.22163776393E+02 -0.70756053752E+02  0.91503970897E+02  0.00000000000E+00 0. -1.
        -13    1    4    4    0    0  0.29493117618E+02 -0.76397230473E+02 -0.13285703412E+03  0.15606848601E+03  0.00000000000E+00 0. -1.
         13    1    4    4    0    0  0.52154276646E+02  0.13029959480E+02 -0.78583322257E+02  0.95211275348E+02  0.00000000000E+00 0.  1.
         -1    1    1    2    0  502  0.35080388811E+02  0.29443075935E+02 -0.26243595433E+03  0.26640224947E+03  0.00000000000E+00 0.  1.
<scales pt_clust_5="13000.00000" pt_clust_6="13000.00000" pt_clust_7="13000.00000" pt_clust_8="13000.00000" pt_clust_9="45.79878"></scales>
<clustering>
<clus scale="   45.799">  2  9  1 -1</clus>
<clus scale="   88.050">  7  8 -1 -1</clus>
<clus scale="   97.803">  5  6 -1 -1</clus>
<clus scale="  144.327">  2  7  1 -1</clus>
<clus scale="   45.799">  2  5  1 -1</clus>
</clustering>
</event>
<event>
 9    1  0.1881049E-005  0.9659635E+02  0.7546771E-02  0.1288059E+00
          4   -1    0    0  502    0 -0.00000000000E+00  0.00000000000E+00  0.45369185451E+03  0.45369185451E+03  0.00000000000E+00 0. -1.
         21   -1    0    0  501  502  0.00000000000E+00 -0.00000000000E+00 -0.49444216097E+02  0.49444216097E+02  0.00000000000E+00 0.  1.
         23    2    1    2    0    0 -0.11195579227E+02 -0.24435246373E+02  0.29474596438E+03  0.30903829108E+03  0.88921648524E+02 0.  0.
         23    2    1    2    0    0  0.12928172717E+02  0.65163281812E+02  0.10464033207E+03  0.15304406597E+03  0.89774696254E+02 0.  0.
        -11    1    4    4    0    0  0.44842712163E+02  0.84550603545E+01  0.33346309085E+02  0.56518432474E+02  0.00000000000E+00 0.  1.
         11    1    4    4    0    0 -0.31914539447E+02  0.56708221457E+02  0.71294022981E+02  0.96525633496E+02  0.00000000000E+00 0. -1.
        -11    1    3    3    0    0  0.31426585303E+02  0.97083869572E+01  0.64478896446E+02  0.72383776691E+02  0.00000000000E+00 0.  1.
         11    1    3    3    0    0 -0.42622164530E+02 -0.34143633330E+02  0.23026706793E+03  0.23665451439E+03  0.00000000000E+00 0. -1.
          4    1    1    2  501    0 -0.17325934894E+01 -0.40728035438E+02  0.48613419647E+01  0.41053713554E+02  0.00000000000E+00 0. -1.
<scales pt_clust_5="13000.00000" pt_clust_6="13000.00000" pt_clust_7="13000.00000" pt_clust_8="13000.00000" pt_clust_9="40.76487"></scales>
<clustering>
<clus scale="   40.765">  2  9  1 -1</clus>
<clus scale="   88.922">  7  8 -1 -1</clus>
<clus scale="   89.775">  5  6 -1 -1</clus>
<clus scale="   95.804">  1  7  2 -1</clus>
<clus scale="   40.765">  2  5  1 -1</clus>
</clustering>
</event>
<event>
 9    1  0.1881049E-005  0.1633975E+03  0.7546771E-02  0.1186223E+00
          2   -1    0    0  502    0 -0.00000000000E+00  0.00000000000E+00  0.64779365955E+03  0.64779365955E+03  0.00000000000E+00 0. -1.
         21   -1    0    0  501  502  0.00000000000E+00 -0.00000000000E+00 -0.64270350093E+02  0.64270350093E+02  0.00000000000E+00 0.  1.
         23    2    1    2    0    0  0.10560727244E+03 -0.63196636899E+02  0.26312048027E+03  0.30446095871E+03  0.91199656436E+02 0.  0.
         23    2    1    2    0    0 -0.14608456037E+03  0.39954831577E+02  0.31691014165E+03  0.36079716221E+03  0.82495254650E+02 0.  0.
        -11    1    3    3    0    0  0.88239982798E+02 -0.86859761824E+02  0.21135983812E+03  0.24495692266E+03  0.00000000000E+00 0.  1.
         11    1    3    3    0    0  0.17367289639E+02  0.23663124925E+02  0.51760642143E+02  0.59504036045E+02  0.00000000000E+00 0. -1.
        -13    1    4    4    0    0 -0.99886127022E+02 -0.14616922113E+02  0.18364588043E+03  0.20956312219E+03  0.00000000000E+00 0.  1.
         13    1    4    4    0    0 -0.46198433344E+02  0.54571753689E+02  0.13326426122E+03  0.15123404003E+03  0.00000000000E+00 0. -1.
          2    1    1    2  501    0  0.40477287928E+02  0.23241805323E+02  0.34926875424E+01  0.46805888721E+02  0.00000000000E+00 0. -1.
<scales pt_clust_5="13000.00000" pt_clust_6="13000.00000" pt_clust_7="13000.00000" pt_clust_8="13000.00000" pt_clust_9="46.67539"></scales>
<clustering>
<clus scale="   46.675">  2  9  1 -1</clus>
<clus scale="   82.495">  7  8 -1 -1</clus>
<clus scale="   91.200">  5  6 -1 -1</clus>
<clus scale="  158.704">  2  7  1 -1</clus>
<clus scale="   46.675">  2  5  1 -1</clus>
</clustering>
</event>
<event>
 9    1  0.1881049E-005  0.9596372E+02  0.7546771E-02  0.1289243E+00
          1   -1    0    0  502    0 -0.00000000000E+00  0.00000000000E+00  0.40052452787E+02  0.40052452787E+02  0.00000000000E+00 0. -1.
         21   -1    0    0  501  502  0.00000000000E+00 -0.00000000000E+00 -0.32500003107E+03  0.32500003107E+03  0.00000000000E+00 0.  1.
         23    2    1    2    0    0  0.50199938433E+01 -0.16970578376E+02 -0.99735137623E+02  0.13691965906E+03  0.92123257062E+02 0.  0.
         23    2    1    2    0    0 -0.35959516286E+02  0.21849746628E+02 -0.12888467109E+03  0.16368223941E+03  0.91706699958E+02 0.  0.
        -11    1    3    3    0    0  0.24141007235E+02 -0.47274265338E+02 -0.80010985448E+02  0.96017718083E+02  0.00000000000E+00 0. -1.
         11    1    3    3    0    0 -0.19121013392E+02  0.30303686962E+02 -0.19724152176E+02  0.40901940977E+02  0.00000000000E+00 0.  1.
        -13    1    4    4    0    0 -0.35461267978E+02 -0.28683244881E+02 -0.86240400697E+02  0.97558376247E+02  0.00000000000E+00 0. -1.
         13    1    4    4    0    0 -0.49824830776E+00  0.50532991509E+02 -0.42644270390E+02  0.66123863161E+02  0.00000000000E+00 0.  1.
          1    1    1    2  501    0  0.30939522443E+02 -0.48791682517E+01 -0.56327769570E+02  0.64450585385E+02  0.00000000000E+00 0. -1.
<scales pt_clust_5="13000.00000" pt_clust_6="13000.00000" pt_clust_7="13000.00000" pt_clust_8="13000.00000" pt_clust_9="31.32188"></scales>
<clustering>
<clus scale="   31.322">  2  9  1 -1</clus>
<clus scale="   91.707">  7  8 -1 -1</clus>
<clus scale="   92.123">  5  6 -1 -1</clus>
<clus scale="   95.564">  2  7  1 -1</clus>
<clus scale="   31.322">  2  5  1 -1</clus>
</clustering>
</event>
<event>
 9    1  0.1881049E-005  0.1083864E+03  0.7546771E-02  0.1266316E+00
         21   -1    0    0  501  502  0.00000000000E+00  0.00000000000E+00  0.30592025807E+02  0.30592025807E+02  0.00000000000E+00 0.  1.
          1   -1    0    0  502    0 -0.00000000000E+00 -0.00000000000E+00 -0.68260959986E+03  0.68260959986E+03  0.00000000000E+00 0. -1.
         23    2    1    2    0    0  0.12095497154E+02 -0.18094128256E+02 -0.28209223540E+03  0.29789159370E+03  0.93218419852E+02 0.  0.
         23    2    1    2    0    0 -0.45426733397E+02  0.64638661364E+02 -0.29384168986E+03  0.32009403286E+03  0.99375583116E+02 0.  0.
        -13    1    4    4    0    0 -0.21637334773E+02  0.16741977001E+02 -0.69048874665E+01  0.28216050767E+02  0.00000000000E+00 0. -1.
         13    1    4    4    0    0 -0.23789398625E+02  0.47896684363E+02 -0.28693680240E+03  0.29187798209E+03  0.00000000000E+00 0.  1.
        -13    1    3    3    0    0 -0.38452125452E+02 -0.21342728910E+02 -0.10891118243E+03  0.11745519864E+03  0.00000000000E+00 0.  1.
         13    1    3    3    0    0  0.50547622606E+02  0.32486006541E+01 -0.17318105297E+03  0.18043639506E+03  0.00000000000E+00 0. -1.
          1    1    1    2  501    0  0.33331236243E+02 -0.46544533108E+02 -0.76083648792E+02  0.95215999103E+02  0.00000000000E+00 0. -1.
<scales pt_clust_5="13000.00000" pt_clust_6="13000.00000" pt_clust_7="13000.00000" pt_clust_8="13000.00000" pt_clust_9="57.24827"></scales>
<clustering>
<clus scale="   57.248">  1  9  2 -1</clus>
<clus scale="   93.218">  7  8 -1 -1</clus>
<clus scale="   99.376">  5  6 -1 -1</clus>
<clus scale="  102.771">  2  7  1 -1</clus>
<clus scale="   57.248">  1  5  2 -1</clus>
</clustering>
</event>
<event>
 9    1  0.1881049E-005  0.1016238E+03  0.7546771E-02  0.1279428E+00
          3   -1    0    0  502    0 -0.00000000000E+00  0.00000000000E+00  0.66771807758E+03  0.66771807758E+03  0.00000000000E+00 0. -1.
         21   -1    0    0  501  502  0.00000000000E+00 -0.00000000000E+00 -0.25560354760E+02  0.25560354760E+02  0.00000000000E+00 0. -1.
         23    2    1    2    0    0 -0.40246078086E+02 -0.31696091625E+02  0.35237542207E+03  0.36782319586E+03  0.92201281480E+02 0.  0.
         23    2    1    2    0    0  0.41774876419E+02 -0.11085465288E+02  0.24484785808E+03  0.26339314681E+03  0.86933585806E+02 0.  0.
        -11    1    4    4    0    0  0.20563751250E+02  0.38081006596E+02  0.99939514104E+02  0.10890793088E+03  0.00000000000E+00 0.  1.
         11    1    4    4    0    0  0.21211125169E+02 -0.49166471884E+02  0.14490834397E+03  0.15448521593E+03  0.00000000000E+00 0. -1.
        -13    1    3    3    0    0 -0.27741971127E+02 -0.64277291927E+02  0.21650358919E+03  0.22754118605E+03  0.00000000000E+00 0. -1.
         13    1    3    3    0    0 -0.12504106959E+02  0.32581200302E+02  0.13587183288E+03  0.14028200981E+03  0.00000000000E+00 0.  1.
          3    1    1    2  501    0 -0.15287983334E+01  0.42781556914E+02  0.44934442675E+02  0.62062089675E+02  0.00000000000E+00 0. -1.
<scales pt_clust_5="13000.00000" pt_clust_6="13000.00000" pt_clust_7="13000.00000" pt_clust_8="13000.00000" pt_clust_9="42.80886"></scales>
<clustering>
<clus scale="   42.809">  2  9  1 -1</clus>
<clus scale="   86.934">  5  6 -1 -1</clus>
<clus scale="   92.201">  7  8 -1 -1</clus>
<clus scale="   96.870">  2  5  1 -1</clus>
<clus scale="   42.809">  2  5  1 -1</clus>
</clustering>
</event>
<event>
 9    1  0.1881049E-005  0.1001321E+03  0.7546771E-02  0.1283182E+00
         21   -1    0    0  501  502  0.00000000000E+00  0.00000000000E+00  0.32300144991E+03  0.32300144991E+03  0.00000000000E+00 0. -1.
          2   -1    0    0  502    0 -0.00000000000E+00 -0.00000000000E+00 -0.63133906351E+02  0.63133906351E+02  0.00000000000E+00 0. -1.
         23    2    1    2    0    0  0.23964602057E+01  0.36386884599E+02  0.29295148695E+02  0.10065255798E+03  0.89123416103E+02 0.  0.
         23    2    1    2    0    0  0.46984554785E+02 -0.93714261518E+01  0.11443743856E+03  0.15642603670E+03  0.95277518835E+02 0.  0.
        -11    1    3    3    0    0 -0.34728442394E+02  0.14839330816E+02  0.41415501659E+02  0.56049212553E+02  0.00000000000E+00 0.  1.
         11    1    3    3    0    0  0.37124902599E+02  0.21547553782E+02 -0.12120352963E+02  0.44603345424E+02  0.00000000000E+00 0. -1.
        -11    1    4    4    0    0 -0.23341048264E+02 -0.15970261579E+02  0.62970331817E+02  0.69029823106E+02  0.00000000000E+00 0.  1.
         11    1    4    4    0    0  0.70325603049E+02  0.65988354276E+01  0.51467106746E+02  0.87396213591E+02  0.00000000000E+00 0. -1.
          2    1    1    2  501    0 -0.49381014991E+02 -0.27015458447E+02  0.11613495630E+03  0.12905676159E+03  0.00000000000E+00 0. -1.
<scales pt_clust_5="13000.00000" pt_clust_6="13000.00000" pt_clust_7="13000.00000" pt_clust_8="13000.00000" pt_clust_9="56.28783"></scales>
<clustering>
<clus scale="   56.288">  1  9  2 -1</clus>
<clus scale="   89.123">  5  6 -1 -1</clus>
<clus scale="   94.295">  2  5  1 -1</clus>
<clus scale="   95.278">  7  8 -1 -1</clus>
<clus scale="   56.288">  1  5  2 -1</clus>
</clustering>
</event>
<event>
 9    1  0.1881049E-005  0.1354792E+03  0.7546771E-02  0.1220347E+00
         -4   -1    0    0    0  501 -0.00000000000E+00  0.00000000000E+00  0.10103240441E+04  0.10103240441E+04  0.00000000000E+00 0.  1.
         21   -1    0    0  501  502  0.00000000000E+00 -0.00000000000E+00 -0.47194461935E+02  0.47194461935E+02  0.00000000000E+00 0.  1.
         23    2    1    2    0    0 -0.12615787989E+02 -0.89697388116E+02  0.47476848511E+03  0.49242876670E+03  0.94213567369E+02 0.  0.
         23    2    1    2    0    0  0.29387899937E+02  0.10074441879E+03  0.51405452718E+03  0.53247849929E+03  0.90929691059E+02 0.  0.
        -13    1    4    4    0    0  0.60884484292E+02  0.81766525546E+02  0.36697220024E+03  0.38086911253E+03  0.00000000000E+00 0.  1.
         13    1    4    4    0    0 -0.31496584356E+02  0.18977893243E+02  0.14708232694E+03  0.15160938677E+03  0.00000000000E+00 0. -1.
        -13    1    3    3    0    0  0.33407902661E+02 -0.71023571374E+02  0.24161802305E+03  0.25404665854E+03  0.00000000000E+00 0.  1.
         13    1    3    3    0    0 -0.46023690649E+02 -0.18673816742E+02  0.23315046206E+03  0.23838210816E+03  0.00000000000E+00 0. -1.
         -4    1    1    2    0  502 -0.16772111948E+02 -0.11047030673E+02 -0.25693430123E+02  0.32611240046E+02  0.00000000000E+00 0.  1.
<scales pt_clust_5="13000.00000" pt_clust_6="13000.00000" pt_clust_7="13000.00000" pt_clust_8="13000.00000" pt_clust_9="20.08334"></scales>
<clustering>
<clus scale="   20.083">  2  9  1 -1</clus>
<clus scale="   90.930">  5  6 -1 -1</clus>
<clus scale="   94.214">  7  8 -1 -1</clus>
<clus scale="  133.216">  2  5  1 -1</clus>
<clus scale="   20.083">  2  5  1 -1</clus>
</clustering>
</event>
<event>
 9    1  0.1881049E-005  0.1625203E+03  0.7546771E-02  0.1185917E+00
         21   -1    0    0  501  502  0.00000000000E+00  0.00000000000E+00  0.43573800484E+03  0.43573800484E+03  0.00000000000E+00 0. -1.
          1   -1    0    0  502    0 -0.00000000000E+00 -0.00000000000E+00 -0.94486619755E+02  0.94486619755E+02  0.00000000000E+00 0. -1.
         23    2    1    2    0    0  0.13832332275E+03  0.55536519094E+01  0.65338458354E+02  0.17872260045E+03  0.92241363308E+02 0.  0.
         23    2    1    2    0    0 -0.12611824941E+03  0.32866658738E+02  0.14882619588E+03  0.21817490295E+03  0.92005552052E+02 0.  0.
        -13    1    3    3    0    0  0.11936735540E+03  0.28178498238E+02  0.19479012874E+02  0.12418544697E+03  0.00000000000E+00 0. -1.
         13    1    3    3    0    0  0.18955967357E+02 -0.22624846328E+02  0.45859445480E+02  0.54537153478E+02  0.00000000000E+00 0.  1.
        -13    1    4    4    0    0 -0.17162726227E+02 -0.10694954660E+02  0.79180012612E+02  0.81721573798E+02  0.00000000000E+00 0.  1.
         13    1    4    4    0    0 -0.10895552319E+03  0.43561613398E+02  0.69646183265E+02  0.13645332916E+03  0.00000000000E+00 0. -1.
          1    1    1    2  501    0 -0.12205073339E+02 -0.38420310647E+02  0.12708673086E+03  0.13332712119E+03  0.00000000000E+00 0. -1.
<scales pt_clust_5="13000.00000" pt_clust_6="13000.00000" pt_clust_7="13000.00000" pt_clust_8="13000.00000" pt_clust_9="40.31233"></scales>
<clustering>
<clus scale="   40.312">  1  9  2 -1</clus>
<clus scale="   92.006">  7  8 -1 -1</clus>
<clus scale="   92.241">  5  6 -1 -1</clus>
<clus scale="  162.387">  1  7  2 -1</clus>
<clus scale="   40.312">  1  5  2 -1</clus>
</clustering>
</event>
<event>
 9    1  0.1881049E-005  0.1011016E+03  0.7546771E-02  0.1283507E+00
         -1   -1    0    0    0  501 -0.00000000000E+00  0.00000000000E+00  0.59511949646E+03  0.59511949646E+03  0.00000000000E+00 0.  1.
         21   -1    0    0  501  502  0.00000000000E+00 -0.00000000000E+00 -0.33673414422E+02  0.33673414422E+02  0.00000000000E+00 0. -1.
         23    2    1    2    0    0  0.19691441566E+01 -0.76165482642E+00  0.41173857331E+03  0.42163119684E+03  0.90773100351E+02 0.  0.
         23    2    1    2    0    0  0.52215566079E+01  0.28980190652E+02  0.14270652872E+03  0.17721166125E+03  0.10085486324E+03 0.  0.
        -11    1    4    4    0    0 -0.35388574048E+02 -0.18215628517E+02  0.77077351928E+02  0.86747210190E+02  0.00000000000E+00 0.  1.
         11    1    4    4    0    0  0.40610130656E+02  0.47195819169E+02  0.65629176794E+02  0.90464451060E+02  0.00000000000E+00 0. -1.
        -11    1    3    3    0    0  0.27441346531E+02  0.35986580813E+02  0.23550965234E+03  0.23981838512E+03  0.00000000000E+00 0. -1.
         11    1    3    3    0    0 -0.25472202375E+02 -0.36748235640E+02  0.17622892097E+03  0.18181281171E+03  0.00000000000E+00 0.  1.
         -1    1    1    2    0  502 -0.71907007646E+01 -0.28218535826E+02  0.70009800098E+01  0.29950052800E+02  0.00000000000E+00 0.  1.
<scales pt_clust_5="13000.00000" pt_clust_6="13000.00000" pt_clust_7="13000.00000" pt_clust_8="13000.00000" pt_clust_9="29.12030"></scales>
<clustering>
<clus scale="   29.120">  2  9  1 -1</clus>
<clus scale="   90.773">  7  8 -1 -1</clus>
<clus scale="   91.047">  1  7  2 -1</clus>
<clus scale="  100.855">  5  6 -1 -1</clus>
<clus scale="   29.120">  2  5  1 -1</clus>
</clustering>
</event>
<event>
 9    1  0.1881049E-005  0.1030356E+03  0.7546771E-02  0.1274423E+00
         21   -1    0    0  501  502  0.00000000000E+00  0.00000000000E+00  0.75926744693E+03  0.75926744693E+03  0.00000000000E+00 0. -1.
         -3   -1    0    0    0  501 -0.00000000000E+00 -0.00000000000E+00 -0.17935916743E+02  0.17935916743E+02  0.00000000000E+00 0.  1.
         23    2    1    2    0    0  0.42630515437E+02  0.38277465141E+02  0.28459154154E+03  0.30418663909E+03  0.90855053249E+02 0.  0.
         23    2    1    2    0    0 -0.34253428384E+02 -0.19623304146E+02  0.31981600556E+03  0.33457420780E+03  0.89995842613E+02 0.  0.
        -11    1    3    3    0    0  0.43116245373E+02 -0.10496003407E+02  0.21290226963E+03  0.21747770717E+03  0.00000000000E+00 0.  1.
         11    1    3    3    0    0 -0.48572993532E+00  0.48773468548E+02  0.71689271913E+02  0.86708931923E+02  0.00000000000E+00 0. -1.
        -11    1    4    4    0    0  0.26803329745E+02 -0.23718514156E+02  0.93032710053E+02  0.99679845200E+02  0.00000000000E+00 0.  1.
         11    1    4    4    0    0 -0.61056758128E+02  0.40952100102E+01  0.22678329551E+03  0.23489436260E+03  0.00000000000E+00 0. -1.
         -3    1    1    2    0  502 -0.83770870538E+01 -0.18654160996E+02  0.13692398308E+03  0.13844251678E+03  0.00000000000E+00 0.  1.
<scales pt_clust_5="13000.00000" pt_clust_6="13000.00000" pt_clust_7="13000.00000" pt_clust_8="13000.00000" pt_clust_9="20.44880"></scales>
<clustering>
<clus scale="   20.449">  1  9  2 -1</clus>
<clus scale="   89.996">  7  8 -1 -1</clus>
<clus scale="   90.855">  5  6 -1 -1</clus>
<clus scale="  102.279">  1  7  2 -1</clus>
<clus scale="   20.449">  1  5  2 -1</clus>
</clustering>
</event>
<event>
 9    1  0.1881049E-005  0.1043405E+03  0.7546771E-02  0.1272382E+00
         -4   -1    0    0    0  501 -0.00000000000E+00  0.00000000000E+00  0.21373139845E+03  0.21373139845E+03  0.00000000000E+00 0.  1.
         21   -1    0    0  501  502  0.00000000000E+00 -0.00000000000E+00 -0.17734238627E+03  0.17734238627E+03  0.00000000000E+00 0. -1.
         23    2    1    2    0    0  0.20497104071E+02  0.69590577657E+02  0.10560894755E+03  0.15629987307E+03  0.89517711908E+02 0.  0.
         23    2    1    2    0    0  0.52276682510E+02 -0.13812777911E+02  0.18307526340E+02  0.10801333610E+03  0.91695533631E+02 0.  0.
        -11    1    3    3    0    0 -0.24549944007E+02  0.25662055745E+02  0.26186282608E+01  0.35610364639E+02  0.00000000000E+00 0.  1.
         11    1    3    3    0    0  0.45047048078E+02  0.43928521912E+02  0.10299031929E+03  0.12068950843E+03  0.00000000000E+00 0. -1.
        -13    1    4    4    0    0  0.30057655268E+02 -0.53055674138E+02  0.14997088299E+02  0.62795540096E+02  0.00000000000E+00 0.  1.
         13    1    4    4    0    0  0.22219027242E+02  0.39242896227E+02  0.33104380403E+01  0.45217796009E+02  0.00000000000E+00 0. -1.
         -4    1    1    2    0  502 -0.72773786581E+02 -0.55777799746E+02 -0.87527461718E+02  0.12676057555E+03  0.00000000000E+00 0.  1.
<scales pt_clust_5="13000.00000" pt_clust_6="13000.00000" pt_clust_7="13000.00000" pt_clust_8="13000.00000" pt_clust_9="91.69071"></scales>
<clustering>
<clus scale="   89.518">  5  6 -1 -1</clus>
<clus scale="   91.691">  2  9  1 -1</clus>
<clus scale="   91.696">  7  8 -1 -1</clus>
<clus scale="  102.432">  1  5  2 -1</clus>
<clus scale="   91.691">  2  5  1 -1</clus>
</clustering>
</event>
<event>
 9    1  0.1881049E-005  0.1268313E+03  0.7546771E-02  0.1240749E+00
         -1   -1    0    0    0  501 -0.00000000000E+00  0.00000000000E+00  0.33210690695E+03  0.33210690695E+03  0.00000000000E+00 0.  1.
         21   -1    0    0  501  502  0.00000000000E+00 -0.00000000000E+00 -0.52235576451E+02  0.52235576451E+02  0.00000000000E+00 0. -1.
         23    2    1    2    0    0 -0.89012357340E+01  0.39399103238E+02  0.15013905699E+03  0.19390962876E+03  0.11587789418E+03 0.  0.
         23    2    1    2    0    0  0.13700457778E+02 -0.61069368661E+02  0.12438717463E+03  0.16760298347E+03  0.93281405022E+02 0.  0.
        -11    1    4    4    0    0  0.27626515645E+02 -0.21535415923E+02  0.12052311208E+03  0.12551023485E+03  0.00000000000E+00 0.  1.
         11    1    4    4    0    0 -0.13926057867E+02 -0.39533952739E+02  0.38640625452E+01  0.42092748618E+02  0.00000000000E+00 0. -1.
        -13    1    3    3    0    0  0.45440603125E+02 -0.78302859763E+01  0.85555277991E+02  0.97189852263E+02  0.00000000000E+00 0.  1.
         13    1    3    3    0    0 -0.54341838859E+02  0.47229389215E+02  0.64583779002E+02  0.96719776501E+02  0.00000000000E+00 0. -1.
         -1    1    1    2    0  502 -0.47992220441E+01  0.21670265423E+02  0.53450988815E+01  0.22829871173E+02  0.00000000000E+00 0.  1.
<scales pt_clust_5="13000.00000" pt_clust_6="13000.00000" pt_clust_7="13000.00000" pt_clust_8="13000.00000" pt_clust_9="22.19534"></scales>
<clustering>
<clus scale="   22.195">  2  9  1 -1</clus>
<clus scale="   93.281">  5  6 -1 -1</clus>
<clus scale="  106.583">  2  5  1 -1</clus>
<clus scale="  115.878">  7  8 -1 -1</clus>
<clus scale="   22.195">  2  5  1 -1</clus>
</clustering>
</event>
<event>
 9    1  0.1881049E-005  0.1078661E+03  0.7546771E-02  0.1266244E+00
         21   -1    0    0  501  502  0.00000000000E+00  0.00000000000E+00  0.27178984269E+03  0.27178984269E+03  0.00000000000E+00 0.  1.
         -3   -1    0    0    0  501 -0.00000000000E+00 -0.00000000000E+00 -0.14213806353E+03  0.14213806353E+03  0.00000000000E+00 0.  1.
         23    2    1    2    0    0 -0.75256798112E+02 -0.12671342111E+02 -0.79518868774E+02  0.14309899915E+03  0.91268420018E+02 0.  0.
         23    2    1    2    0    0 -0.37042281526E+00  0.15087563555E+02  0.71514401717E+02  0.11374753710E+03  0.87157448081E+02 0.  0.
        -11    1    3    3    0    0 -0.85441693756E+02 -0.36076966975E+02 -0.68483221981E+02  0.11528999207E+03  0.00000000000E+00 0.  1.
         11    1    3    3    0    0  0.10184895644E+02  0.23405624864E+02 -0.11035646792E+02  0.27809007078E+02  0.00000000000E+00 0. -1.
        -13    1    4    4    0    0  0.37140489353E+02  0.15422787153E+02  0.95833568421E+01  0.41341492974E+02  0.00000000000E+00 0. -1.
         13    1    4    4    0    0 -0.37510912168E+02 -0.33522359823E+00  0.61931044875E+02  0.72406044125E+02  0.00000000000E+00 0.  1.
         -3    1    1    2    0  502  0.75627220928E+02 -0.24162214438E+01  0.13765624621E+03  0.15708136997E+03  0.00000000000E+00 0.  1.
<scales pt_clust_5="13000.00000" pt_clust_6="13000.00000" pt_clust_7="13000.00000" pt_clust_8="13000.00000" pt_clust_9="75.66581"></scales>
<clustering>
<clus scale="   75.666">  1  9  2 -1</clus>
<clus scale="   87.157">  7  8 -1 -1</clus>
<clus scale="   91.268">  5  6 -1 -1</clus>
<clus scale="  104.411">  1  7  2 -1</clus>
<clus scale="   75.666">  1  5  2 -1</clus>
</clustering>
</event>
<event>
 9    1  0.1881049E-005  0.1247830E+03  0.7546771E-02  0.1236123E+00
         -1   -1    0    0    0  501 -0.00000000000E+00  0.00000000000E+00  0.20980336789E+03  0.20980336789E+03  0.00000000000E+00 0.  1.
         21   -1    0    0  501  502  0.00000000000E+00 -0.00000000000E+00 -0.15961289014E+03  0.15961289014E+03  0.00000000000E+00 0. -1.
         23    2    1    2    0    0 -0.48948481908E+02 -0.52503693714E+02  0.65207091199E+02  0.13078116928E+03  0.87744844647E+02 0.  0.
         23    2    1    2    0    0  0.92093856027E+02  0.57589893420E+02  0.58803383800E+02  0.15298005546E+03  0.90261759780E+02 0.  0.
        -11    1    4    4    0    0  0.12318845323E+02  0.56035399028E+02  0.68839724659E+01  0.57785023763E+02  0.00000000000E+00 0.  1.
         11    1    4    4    0    0  0.79775010704E+02  0.15544943923E+01  0.51919411335E+02  0.95195031693E+02  0.00000000000E+00 0. -1.
        -13    1    3    3    0    0 -0.45258801300E+02 -0.72283926989E+02  0.69725300214E+02  0.11015871589E+03  0.00000000000E+00 0.  1.
         13    1    3    3    0    0 -0.36896806084E+01  0.19780233275E+02 -0.45182090153E+01  0.20622453397E+02  0.00000000000E+00 0. -1.
         -1    1    1    2    0  502 -0.43145374118E+02 -0.50861997065E+01 -0.73819997247E+02  0.85655033295E+02  0.00000000000E+00 0.  1.
<scales pt_clust_5="13000.00000" pt_clust_6="13000.00000" pt_clust_7="13000.00000" pt_clust_8="13000.00000" pt_clust_9="43.44413"></scales>
<clustering>
<clus scale="   43.444">  2  9  1 -1</clus>
<clus scale="   87.745">  7  8 -1 -1</clus>
<clus scale="   90.262">  5  6 -1 -1</clus>
<clus scale="  122.975">  1  7  2 -1</clus>
<clus scale="   43.444">  2  5  1 -1</clus>
</clustering>
</event>
<event>
 9    1  0.1881049E-005  0.1505280E+03  0.7546771E-02  0.1222522E+00
         21   -1    0    0  501  502  0.00000000000E+00  0.00000000000E+00  0.74630555452E+02  0.74630555452E+02  0.00000000000E+00 0. -1.
          3   -1    0    0  502    0 -0.00000000000E+00 -0.00000000000E+00 -0.55293452881E+03  0.55293452881E+03  0.00000000000E+00 0. -1.
         23    2    1    2    0    0  0.24354059200E+02  0.30739005212E+01 -0.23123760425E+03  0.24916304774E+03  0.89492042521E+02 0.  0.
         23    2    1    2    0    0  0.70465370183E+02  0.79745472717E+02 -0.19983222569E+03  0.24393703335E+03  0.90816567895E+02 0.  0.
        -13    1    4    4    0    0  0.30914067483E+02  0.31398937778E+02 -0.16828684346E+03  0.17395986475E+03  0.00000000000E+00 0.  1.
         13    1    4    4    0    0  0.39551302700E+02  0.48346534938E+02 -0.31545382225E+02  0.69977168602E+02  0.00000000000E+00 0. -1.
        -13    1    3    3    0    0  0.48725278960E+02 -0.24648794390E+02 -0.15760425405E+03  0.16679573367E+03  0.00000000000E+00 0. -1.
         13    1    3    3    0    0 -0.24371219759E+02  0.27722694911E+02 -0.73633350203E+02  0.82367314074E+02  0.00000000000E+00 0.  1.
          3    1    1    2  501    0 -0.94819429384E+02 -0.82819373238E+02 -0.47234143414E+02  0.13446500317E+03  0.00000000000E+00 0. -1.
<scales pt_clust_5="13000.00000" pt_clust_6="13000.00000" pt_clust_7="13000.00000" pt_clust_8="13000.00000" pt_clust_9="120.04600"></scales>
<clustering>
<clus scale="   89.492">  7  8 -1 -1</clus>
<clus scale="   90.817">  5  6 -1 -1</clus>
<clus scale="   92.798">  2  7  1 -1</clus>
<clus scale="  120.046">  1  9  2 -1</clus>
<clus scale="  120.046">  1  5  2 -1</clus>
</clustering>
</event>
<event>
 9    1  0.1881049E-005  0.1067470E+03  0.7546771E-02  0.1269248E+00
         21   -1    0    0  501  502  0.00000000000E+00  0.00000000000E+00  0.81238076845E+02  0.81238076845E+02  0.00000000000E+00 0. -1.
         -2   -1    0    0    0  501 -0.00000000000E+00 -0.00000000000E+00 -0.43050593331E+03  0.43050593331E+03  0.00000000000E+00 0.  1.
         23    2    1    2    0    0 -0.71651626744E+02 -0.28874743111E+02 -0.23529798612E+03  0.26430368578E+03  0.92323288729E+02 0.  0.
         23    2    1    2    0    0  0.49130987594E+01  0.23061589707E+01 -0.14008588666E+03  0.17100756249E+03  0.97928922593E+02 0.  0.
        -11    1    4    4    0    0  0.42038798383E+02 -0.22892366594E+02 -0.44247324911E+02  0.65185479821E+02  0.00000000000E+00 0.  1.
         11    1    4    4    0    0 -0.37125699623E+02  0.25198525565E+02 -0.95838561749E+02  0.10582208267E+03  0.00000000000E+00 0. -1.
        -11    1    3    3    0    0 -0.51532718976E+02 -0.20150822921E+02 -0.23596388251E+03  0.24236466458E+03  0.00000000000E+00 0.  1.
         11    1    3    3    0    0 -0.20118907767E+02 -0.87239201901E+01  0.66589638919E+00  0.21939021201E+02  0.00000000000E+00 0. -1.
         -2    1    1    2    0  502  0.66738527984E+02  0.26568584140E+02  0.26116016312E+02  0.76432761881E+02  0.00000000000E+00 0.  1.
<scales pt_clust_5="13000.00000" pt_clust_6="13000.00000" pt_clust_7="13000.00000" pt_clust_8="13000.00000" pt_clust_9="71.83259"></scales>
<clustering>
<clus scale="   71.833">  1  9  2 -1</clus>
<clus scale="   92.323">  7  8 -1 -1</clus>
<clus scale="   97.929">  5  6 -1 -1</clus>
<clus scale="  101.629">  2  7  1 -1</clus>
<clus scale="   71.833">  1  5  2 -1</clus>
</clustering>
</event>
<event>
 9    1  0.1881049E-005  0.1082603E+03  0.7546771E-02  0.1271308E+00
         -4   -1    0    0    0  501 -0.00000000000E+00  0.00000000000E+00  0.64405637618E+03  0.64405637618E+03  0.00000000000E+00 0.  1.
         21   -1    0    0  501  502  0.00000000000E+00 -0.00000000000E+00 -0.36388119299E+02  0.36388119299E+02  0.00000000000E+00 0.  1.
         23    2    1    2    0    0  0.53583244805E+01 -0.31846637090E+02  0.46784762908E+03  0.48037145118E+03  0.10407885058E+03 0.  0.
         23    2    1    2    0    0  0.27016075048E+02  0.23865329151E+02  0.13622699433E+03  0.16653624029E+03  0.88753045574E+02 0.  0.
        -11    1    4    4    0    0  0.54634088218E+02 -0.61707420496E+01  0.79340025312E+02  0.96528758768E+02  0.00000000000E+00 0.  1.
         11    1    4    4    0    0 -0.27618013170E+02  0.30036071201E+02  0.56886969019E+02  0.70007481521E+02  0.00000000000E+00 0. -1.
        -13    1    3    3    0    0 -0.41457807991E+02 -0.39688497249E+02  0.31951555765E+03  0.32462920115E+03  0.00000000000E+00 0. -1.
         13    1    3    3    0    0  0.46816132472E+02  0.78418601586E+01  0.14833207143E+03  0.15574225003E+03  0.00000000000E+00 0.  1.
         -4    1    1    2    0  502 -0.32374399528E+02  0.79813079389E+01  0.35936334621E+01  0.33536804002E+02  0.00000000000E+00 0.  1.
<scales pt_clust_5="13000.00000" pt_clust_6="13000.00000" pt_clust_7="13000.00000" pt_clust_8="13000.00000" pt_clust_9="33.34371"></scales>
<clustering>
<clus scale="   33.344">  2  9  1 -1</clus>
<clus scale="   88.753">  5  6 -1 -1</clus>
<clus scale="   93.622">  2  5  1 -1</clus>
<clus scale="  104.079">  7  8 -1 -1</clus>
<clus scale="   33.344">  2  5  1 -1</clus>
</clustering>
</event>
<event>
 9    1  0.1881049E-005  0.9270536E+02  0.7546771E-02  0.1296904E+00
         -3   -1    0    0    0  501 -0.00000000000E+00  0.00000000000E+00  0.51630505514E+03  0.51630505514E+03  0.00000000000E+00 0.  1.
         21   -1    0    0  501  502  0.00000000000E+00 -0.00000000000E+00 -0.29337578372E+02  0.29337578372E+02  0.00000000000E+00 0. -1.
         23    2    1    2    0    0  0.71733676473E+01 -0.20619994302E+01  0.26104195638E+03  0.27646337066E+03  0.90737992484E+02 0.  0.
         23    2    1    2    0    0 -0.17773851604E+02 -0.21834712879E+02  0.22321005667E+03  0.24289624813E+03  0.91559780860E+02 0.  0.
        -11    1    4    4    0    0 -0.10661287414E+02  0.35620512155E+02  0.73191731258E+02  0.82094539770E+02  0.00000000000E+00 0. -1.
         11    1    4    4    0    0 -0.71125641896E+01 -0.57455225034E+02  0.15001832541E+03  0.16080170836E+03  0.00000000000E+00 0.  1.
        -13    1    3    3    0    0 -0.90482220118E+01  0.41695610404E+02  0.15153727675E+03  0.15742916023E+03  0.00000000000E+00 0. -1.
         13    1    3    3    0    0  0.16221589659E+02 -0.43757609835E+02  0.10950467964E+03  0.11903421043E+03  0.00000000000E+00 0.  1.
         -3    1    1    2    0  502  0.10600483956E+02  0.23896712309E+02  0.27154637114E+01  0.26283014714E+02  0.00000000000E+00 0.  1.
<scales pt_clust_5="13000.00000" pt_clust_6="13000.00000" pt_clust_7="13000.00000" pt_clust_8="13000.00000" pt_clust_9="26.14236"></scales>
<clustering>
<clus scale="   26.142">  2  9  1 -1</clus>
<clus scale="   90.738">  7  8 -1 -1</clus>
<clus scale="   91.560">  5  6 -1 -1</clus>
<clus scale="   91.894">  1  7  2 -1</clus>
<clus scale="   26.142">  2  5  1 -1</clus>
</clustering>
</event>
<event>
 9    1  0.1881049E-005  0.1309260E+03  0.7546771E-02  0.1226602E+00
         21   -1    0    0  501  502  0.00000000000E+00  0.00000000000E+00  0.39550514579E+03  0.39550514579E+03  0.00000000000E+00 0. -1.
          2   -1    0    0  502    0 -0.00000000000E+00 -0.00000000000E+00 -0.11720027634E+03  0.11720027634E+03  0.00000000000E+00 0. -1.
         23    2    1    2    0    0  0.43559422104E+02  0.46964078850E+02  0.24332908945E+02  0.11521932727E+03  0.92630205461E+02 0.  0.
         23    2    1    2    0    0 -0.67155760962E+02 -0.15295219138E+03  0.11892301035E+03  0.22419880119E+03  0.90654018048E+02 0.  0.
        -11    1    3    3    0    0 -0.40793244705E+00  0.49672672391E+02 -0.19229583853E+02  0.53266478075E+02  0.00000000000E+00 0.  1.
         11    1    3    3    0    0  0.43967354551E+02 -0.27085935408E+01  0.43562492798E+02  0.61952849200E+02  0.00000000000E+00 0. -1.
        -11    1    4    4    0    0 -0.74197546453E+02 -0.69754955023E+02  0.89784828156E+02  0.13576577263E+03  0.00000000000E+00 0. -1.
         11    1    4    4    0    0  0.70417854908E+01 -0.83197236355E+02  0.29138182195E+02  0.88433028568E+02  0.00000000000E+00 0.  1.
          2    1    1    2  501    0  0.23596338859E+02  0.10598811253E+03  0.13504895016E+03  0.17328729366E+03  0.00000000000E+00 0. -1.
<scales pt_clust_5="13000.00000" pt_clust_6="13000.00000" pt_clust_7="13000.00000" pt_clust_8="13000.00000" pt_clust_9="108.58300"></scales>
<clustering>
<clus scale="   90.654">  7  8 -1 -1</clus>
<clus scale="   92.630">  5  6 -1 -1</clus>
<clus scale="  108.583">  1  9  2 -1</clus>
<clus scale="  129.535">  1  7  2 -1</clus>
<clus scale="  108.583">  1  5  2 -1</clus>
</clustering>
</event>
<event>
 9    1  0.1881049E-005  0.1156670E+03  0.7546771E-02  0.1250632E+00
         21   -1    0    0  501  502  0.00000000000E+00  0.00000000000E+00  0.75840902095E+02  0.75840902095E+02  0.00000000000E+00 0. -1.
          2   -1    0    0  502    0 -0.00000000000E+00 -0.00000000000E+00 -0.39529775910E+03  0.39529775910E+03  0.00000000000E+00 0. -1.
         23    2    1    2    0    0  0.44498296888E+02  0.56660476465E+02 -0.15608745336E+03  0.19551074076E+03  0.93116317779E+02 0.  0.
         23    2    1    2    0    0 -0.85118393057E+02  0.12532933470E+02 -0.14578368694E+03  0.19348793246E+03  0.93714894084E+02 0.  0.
        -11    1    3    3    0    0 -0.23320880660E+02  0.39513199201E+01 -0.92527014613E+01  0.25398600122E+02  0.00000000000E+00 0.  1.
         11    1    3    3    0    0  0.67819177548E+02  0.52709156545E+02 -0.14683475190E+03  0.17011214064E+03  0.00000000000E+00 0. -1.
        -13    1    4    4    0    0  0.12415925838E+02  0.17610123559E+02 -0.59086539628E+02  0.62892692988E+02  0.00000000000E+00 0.  1.
         13    1    4    4    0    0 -0.97534318895E+02 -0.50771900883E+01 -0.86697147314E+02  0.13059523948E+03  0.00000000000E+00 0. -1.
          2    1    1    2  501    0  0.40620096169E+02 -0.69193409935E+02 -0.17585716698E+02  0.82139987966E+02  0.00000000000E+00 0. -1.
<scales pt_clust_5="13000.00000" pt_clust_6="13000.00000" pt_clust_7="13000.00000" pt_clust_8="13000.00000" pt_clust_9="80.23540"></scales>
<clustering>
<clus scale="   80.235">  1  9  2 -1</clus>
<clus scale="   93.116">  5  6 -1 -1</clus>
<clus scale="   93.715">  7  8 -1 -1</clus>
<clus scale="  115.183">  2  5  1 -1</clus>
<clus scale="   80.235">  1  5  2 -1</clus>
</clustering>
</event>
<event>
 9    1  0.1881049E-005  0.1246063E+03  0.7546771E-02  0.1236515E+00
         -4   -1    0    0    0  501 -0.00000000000E+00  0.00000000000E+00  0.18511953174E+03  0.18511953174E+03  0.00000000000E+00 0.  1.
         21   -1    0    0  501  502  0.00000000000E+00 -0.00000000000E+00 -0.26486204251E+03  0.26486204251E+03  0.00000000000E+00 0.  1.
         23    2    1    2    0    0 -0.92799988713E+02  0.49449264326E+02  0.86170501005E+02  0.16446593557E+03  0.92556042877E+02 0.  0.
         23    2    1    2    0    0  0.55539792819E+02 -0.12260025876E+02  0.53328590585E+01  0.10636065010E+03  0.89717176082E+02 0.  0.
        -11    1    3    3    0    0  0.17912577162E+02  0.16259797224E+02  0.10879461982E+02  0.26525537117E+02  0.00000000000E+00 0. -1.
         11    1    3    3    0    0 -0.11071256587E+03  0.33189467103E+02  0.75291039024E+02  0.13794039846E+03  0.00000000000E+00 0.  1.
        -11    1    4    4    0    0 -0.24338942535E+02 -0.99663648978E+01  0.20868706710E+01  0.26383092734E+02  0.00000000000E+00 0.  1.
         11    1    4    4    0    0  0.79878735354E+02 -0.22936609781E+01  0.32459883875E+01  0.79977557371E+02  0.00000000000E+00 0. -1.
         -4    1    1    2    0  502  0.37260195894E+02 -0.37189238450E+02 -0.17124587083E+03  0.17915498858E+03  0.00000000000E+00 0.  1.
<scales pt_clust_5="13000.00000" pt_clust_6="13000.00000" pt_clust_7="13000.00000" pt_clust_8="13000.00000" pt_clust_9="52.64372"></scales>
<clustering>
<clus scale="   52.644">  2  9  1 -1</clus>
<clus scale="   89.717">  7  8 -1 -1</clus>
<clus scale="   92.556">  5  6 -1 -1</clus>
<clus scale="  122.512">  2  7  1 -1</clus>
<clus scale="   52.644">  2  5  1 -1</clus>
</clustering>
</event>
<event>
 9    1  0.1881049E-005  0.2028771E+03  0.7546771E-02  0.1147362E+00
         21   -1    0    0  501  502  0.00000000000E+00  0.00000000000E+00  0.43915291602E+03  0.43915291602E+03  0.00000000000E+00 0.  1.
          1   -1    0    0  502    0 -0.00000000000E+00 -0.00000000000E+00 -0.20266787566E+03  0.20266787566E+03  0.00000000000E+00 0. -1.
         23    2    1    2    0    0 -0.52659206354E+02  0.16981850325E+03 -0.10364065519E+03  0.22517591300E+03  0.91386488757E+02 0.  0.
         23    2    1    2    0    0  0.62327049866E+02 -0.18844059461E+03  0.29821431038E+03  0.36977469955E+03  0.91689883129E+02 0.  0.
        -11    1    4    4    0    0  0.51097758851E+02 -0.30957280455E+02  0.66634825636E+02  0.89496000806E+02  0.00000000000E+00 0. -1.
         11    1    4    4    0    0  0.11229291015E+02 -0.15748331415E+03  0.23157948474E+03  0.28027869874E+03  0.00000000000E+00 0.  1.
        -13    1    3    3    0    0 -0.74354322070E+02  0.14627055998E+03 -0.10181371190E+03  0.19310534394E+03  0.00000000000E+00 0. -1.
         13    1    3    3    0    0  0.21695115716E+02  0.23547943269E+02 -0.18269432952E+01  0.32070569062E+02  0.00000000000E+00 0.  1.
          1    1    1    2  501    0 -0.96678435119E+01  0.18622091359E+02  0.41911385176E+02  0.46870179135E+02  0.00000000000E+00 0. -1.
<scales pt_clust_5="13000.00000" pt_clust_6="13000.00000" pt_clust_7="13000.00000" pt_clust_8="13000.00000" pt_clust_9="20.98212"></scales>
<clustering>
<clus scale="   20.982">  1  9  2 -1</clus>
<clus scale="   91.386">  7  8 -1 -1</clus>
<clus scale="   91.690">  5  6 -1 -1</clus>
<clus scale="  202.740">  2  7  1 -1</clus>
<clus scale="   20.982">  1  5  2 -1</clus>
</clustering>
</event>
<event>
 9    1  0.1881049E-005  0.1067262E+03  0.7546771E-02  0.1266836E+00
          4   -1    0    0  502    0 -0.00000000000E+00  0.00000000000E+00  0.47448089179E+03  0.47448089179E+03  0.00000000000E+00 0. -1.
         21   -1    0    0  501  502  0.00000000000E+00 -0.00000000000E+00 -0.13199813088E+03  0.13199813088E+03  0.00000000000E+00 0.  1.
         23    2    1    2    0    0  0.60382759197E+02 -0.87244655270E+01  0.41585202095E+03  0.42990286938E+03  0.90340355665E+02 0.  0.
         23    2    1    2    0    0 -0.75919715837E+01 -0.25029101816E+02 -0.63055582306E+02  0.11307385008E+03  0.90142083075E+02 0.  0.
        -11    1    4    4    0    0 -0.37508324959E+02 -0.11153696323E+02  0.29974778799E+01  0.39246200536E+02  0.00000000000E+00 0. -1.
         11    1    4    4    0    0  0.29916353375E+02 -0.13875405493E+02 -0.66053060186E+02  0.73827649541E+02  0.00000000000E+00 0.  1.
        -13    1    3    3    0    0 -0.32380379691E+00 -0.32669446002E+02  0.61977288209E+02  0.70061271789E+02  0.00000000000E+00 0.  1.
         13    1    3    3    0    0  0.60706562993E+02  0.23944980475E+02  0.35387473275E+03  0.35984159759E+03  0.00000000000E+00 0. -1.
          4    1    1    2  501    0 -0.52790787613E+02  0.33753567343E+02 -0.10313677730E+02  0.63502303214E+02  0.00000000000E+00 0. -1.
<scales pt_clust_5="13000.00000" pt_clust_6="13000.00000" pt_clust_7="13000.00000" pt_clust_8="13000.00000" pt_clust_9="62.65916"></scales>
<clustering>
<clus scale="   62.659">  2  9  1 -1</clus>
<clus scale="   90.142">  5  6 -1 -1</clus>
<clus scale="   90.340">  7  8 -1 -1</clus>
<clus scale="  106.558">  2  5  1 -1</clus>
<clus scale="   62.659">  2  5  1 -1</clus>
</clustering>
</event>
<event>
 9    1  0.1881049E-005  0.9823852E+02  0.7546771E-02  0.1287296E+00
          3   -1    0    0  502    0 -0.00000000000E+00  0.00000000000E+00  0.51208971463E+03  0.51208971463E+03  0.00000000000E+00 0. -1.
         21   -1    0    0  501  502  0.00000000000E+00 -0.00000000000E+00 -0.44317084576E+02  0.44317084576E+02  0.00000000000E+00 0. -1.
         23    2    1    2    0    0 -0.12702876233E+02 -0.19551595210E+02  0.31860664612E+03  0.33099165487E+03  0.86612081715E+02 0.  0.
         23    2    1    2    0    0  0.57611573695E+02  0.32535622067E+02  0.13474775040E+03  0.17649417215E+03  0.92820129498E+02 0.  0.
        -13    1    4    4    0    0  0.35610018689E+02 -0.29312760890E+02  0.38984538859E+02  0.60391271324E+02  0.00000000000E+00 0.  1.
         13    1    4    4    0    0  0.22001555006E+02  0.61848382957E+02  0.95763211537E+02  0.11610290083E+03  0.00000000000E+00 0. -1.
        -13    1    3    3    0    0 -0.47993504000E+02 -0.11564663843E+02  0.13244756197E+03  0.14134876918E+03  0.00000000000E+00 0.  1.
         13    1    3    3    0    0  0.35290627767E+02 -0.79869313676E+01  0.18615908415E+03  0.18964288569E+03  0.00000000000E+00 0. -1.
          3    1    1    2  501    0 -0.44908697462E+02 -0.12984026856E+02  0.14418233534E+02  0.48920972184E+02  0.00000000000E+00 0. -1.
<scales pt_clust_5="13000.00000" pt_clust_6="13000.00000" pt_clust_7="13000.00000" pt_clust_8="13000.00000" pt_clust_9="46.74801"></scales>
<clustering>
<clus scale="   46.748">  2  9  1 -1</clus>
<clus scale="   86.612">  7  8 -1 -1</clus>
<clus scale="   92.395">  1  7  2 -1</clus>
<clus scale="   92.820">  5  6 -1 -1</clus>
<clus scale="   46.748">  2  5  1 -1</clus>
</clustering>
</event>
<event>
 9    1  0.1881049E-005  0.9197287E+02  0.7546771E-02  0.1299885E+00
          1   -1    0    0  502    0 -0.00000000000E+00  0.00000000000E+00  0.29452064258E+03  0.29452064258E+03  0.00000000000E+00 0. -1.
         21   -1    0    0  501  502  0.00000000000E+00 -0.00000000000E+00 -0.62772678864E+02  0.62772678864E+02  0.00000000000E+00 0.  1.
         23    2    1    2    0    0 -0.89593263970E+01 -0.19204064313E+01  0.15302635890E+03  0.17684537253E+03  0.88166103338E+02 0.  0.
         23    2    1    2    0    0  0.14151735444E+02 -0.17663262102E+02  0.10910347240E+03  0.14393029478E+03  0.91104882530E+02 0.  0.
        -13    1    3    3    0    0 -0.13280825345E+02 -0.25922815868E+02  0.14937135705E+03  0.15218467403E+03  0.00000000000E+00 0.  1.
         13    1    3    3    0    0  0.43214989477E+01  0.24002409436E+02  0.36550018509E+01  0.24660698499E+02  0.00000000000E+00 0. -1.
        -13    1    4    4    0    0 -0.36098122344E+02 -0.22409660632E+02  0.59928515465E+02  0.73462196347E+02  0.00000000000E+00 0.  1.
         13    1    4    4    0    0  0.50249857788E+02  0.47463985302E+01  0.49174956939E+02  0.70468098433E+02  0.00000000000E+00 0. -1.
          1    1    1    2  501    0 -0.51924090473E+01  0.19583668534E+02 -0.30381867589E+02  0.36517654129E+02  0.00000000000E+00 0. -1.
<scales pt_clust_5="13000.00000" pt_clust_6="13000.00000" pt_clust_7="13000.00000" pt_clust_8="13000.00000" pt_clust_9="20.26034"></scales>
<clustering>
<clus scale="   20.260">  2  9  1 -1</clus>
<clus scale="   88.166">  5  6 -1 -1</clus>
<clus scale="   89.063">  1  5  2 -1</clus>
<clus scale="   91.105">  7  8 -1 -1</clus>
<clus scale="   20.260">  2  5  1 -1</clus>
</clustering>
</event>
<event>
 9    1  0.1881049E-005  0.1473874E+03  0.7546771E-02  0.1227366E+00
         -2   -1    0    0    0  501 -0.00000000000E+00  0.00000000000E+00  0.30944954377E+03  0.30944954377E+03  0.00000000000E+00 0.  1.
         21   -1    0    0  501  502  0.00000000000E+00 -0.00000000000E+00 -0.24915851096E+03  0.24915851096E+03  0.00000000000E+00 0. -1.
         23    2    1    2    0    0  0.23553867858E+02  0.65922821094E+01  0.22822990795E+03  0.24510420906E+03  0.85958941018E+02 0.  0.
         23    2    1    2    0    0  0.17874370512E+02 -0.11533848694E+03 -0.10166855823E+03  0.17958674108E+03  0.91062847234E+02 0.  0.
        -13    1    3    3    0    0 -0.24070621549E+02 -0.18545285024E+02  0.12537371028E+03  0.12900344820E+03  0.00000000000E+00 0.  1.
         13    1    3    3    0    0  0.47624489407E+02  0.25137567133E+02  0.10285619767E+03  0.11610076086E+03  0.00000000000E+00 0. -1.
        -13    1    4    4    0    0 -0.31536446996E+02 -0.36077713271E+02 -0.10475386391E+02  0.49049797187E+02  0.00000000000E+00 0.  1.
         13    1    4    4    0    0  0.49410817508E+02 -0.79260773672E+02 -0.91193171841E+02  0.13053694389E+03  0.00000000000E+00 0. -1.
         -2    1    1    2    0  502 -0.41428238370E+02  0.10874620483E+03 -0.66270316906E+02  0.13391710459E+03  0.00000000000E+00 0.  1.
<scales pt_clust_5="13000.00000" pt_clust_6="13000.00000" pt_clust_7="13000.00000" pt_clust_8="13000.00000" pt_clust_9="115.89050"></scales>
<clustering>
<clus scale="   85.959">  5  6 -1 -1</clus>
<clus scale="   89.371">  1  5  2 -1</clus>
<clus scale="   91.063">  7  8 -1 -1</clus>
<clus scale="  115.890">  2  9  1 -1</clus>
<clus scale="  115.890">  2  5  1 -1</clus>
</clustering>
</event>
<event>
 9    1  0.1881049E-005  0.9840762E+02  0.7546771E-02  0.1286229E+00
          4   -1    0    0  502    0 -0.00000000000E+00  0.00000000000E+00  0.95866613682E+02  0.95866613682E+02  0.00000000000E+00 0. -1.
         21   -1    0    0  501  502  0.00000000000E+00 -0.00000000000E+00 -0.25409955632E+03  0.25409955632E+03  0.00000000000E+00 0. -1.
         23    2    1    2    0    0  0.54160345956E+01  0.25526016400E+02 -0.71955962857E+01  0.99751369826E+02  0.96008584159E+02 0.  0.
         23    2    1    2    0    0  0.56437864018E+02  0.16504187663E+02 -0.38692592262E+02  0.11525633768E+03  0.91264921926E+02 0.  0.
        -13    1    3    3    0    0 -0.43188903310E+02  0.19400490119E+02 -0.16000975849E+02  0.49976910810E+02  0.00000000000E+00 0.  1.
         13    1    3    3    0    0  0.48604937906E+02  0.61255262811E+01  0.88053795636E+01  0.49774459016E+02  0.00000000000E+00 0. -1.
        -13    1    4    4    0    0  0.60664621699E+01  0.48077947975E+02 -0.11090706973E+02  0.49712119507E+02  0.00000000000E+00 0. -1.
         13    1    4    4    0    0  0.50371401849E+02 -0.31573760312E+02 -0.27601885289E+02  0.65544218173E+02  0.00000000000E+00 0.  1.
          4    1    1    2  501    0 -0.61853898614E+02 -0.42030204063E+02 -0.11234475409E+03  0.13495846249E+03  0.00000000000E+00 0. -1.
<scales pt_clust_5="13000.00000" pt_clust_6="13000.00000" pt_clust_7="13000.00000" pt_clust_8="13000.00000" pt_clust_9="74.78264"></scales>
<clustering>
<clus scale="   74.783">  2  9  1 -1</clus>
<clus scale="   91.265">  7  8 -1 -1</clus>
<clus scale="   93.785">  2  7  1 -1</clus>
<clus scale="   96.009">  5  6 -1 -1</clus>
<clus scale="   74.783">  2  5  1 -1</clus>
</clustering>
</event>
<event>
 9    1  0.1881049E-005  0.9800404E+02  0.7546771E-02  0.1285210E+00
         -1   -1    0    0    0  501 -0.00000000000E+00  0.00000000000E+00  0.41886511680E+03  0.41886511680E+03  0.00000000000E+00 0.  1.
         21   -1    0    0  501  502  0.00000000000E+00 -0.00000000000E+00 -0.67364594669E+02  0.67364594669E+02  0.00000000000E+00 0. -1.
         23    2    1    2    0    0 -0.11754311109E+02 -0.31319124367E+02  0.32385053389E+03  0.33813406473E+03  0.91304030861E+02 0.  0.
         23    2    1    2    0    0 -0.21035698000E+02  0.32828117995E+02  0.45994548228E+02  0.11049265961E+03  0.92590190842E+02 0.  0.
        -11    1    4    4    0    0  0.36229041088E+02  0.17961840294E+02  0.25852317908E+02  0.47994931672E+02  0.00000000000E+00 0.  1.
         11    1    4    4    0    0 -0.57264739088E+02  0.14866277701E+02  0.20142230319E+02  0.62497727941E+02  0.00000000000E+00 0. -1.
        -13    1    3    3    0    0  0.36862029651E+02 -0.31627976291E+02  0.15637325441E+03  0.16374288628E+03  0.00000000000E+00 0.  1.
         13    1    3    3    0    0 -0.48616340760E+02  0.30885192380E+00  0.16747727948E+03  0.17439117845E+03  0.00000000000E+00 0. -1.
         -1    1    1    2    0  502  0.32790009109E+02 -0.15089936274E+01 -0.18344559989E+02  0.37602987120E+02  0.00000000000E+00 0.  1.
<scales pt_clust_5="13000.00000" pt_clust_6="13000.00000" pt_clust_7="13000.00000" pt_clust_8="13000.00000" pt_clust_9="32.82471"></scales>
<clustering>
<clus scale="   32.825">  2  9  1 -1</clus>
<clus scale="   91.304">  7  8 -1 -1</clus>
<clus scale="   92.590">  5  6 -1 -1</clus>
<clus scale="   96.790">  1  7  2 -1</clus>
<clus scale="   32.825">  2  5  1 -1</clus>
</clustering>
</event>
<event>
 9    1  0.1881049E-005  0.9775573E+02  0.7546771E-02  0.1285273E+00
         21   -1    0    0  501  502  0.00000000000E+00  0.00000000000E+00  0.58314313958E+03  0.58314313958E+03  0.00000000000E+00 0. -1.
          1   -1    0    0  502    0 -0.00000000000E+00 -0.00000000000E+00 -0.47156543884E+02  0.47156543884E+02  0.00000000000E+00 0. -1.
         23    2    1    2    0    0 -0.16349947211E+02 -0.34738388741E+02  0.30626243982E+02  0.10369183550E+03  0.91323345884E+02 0.  0.
         23    2    1    2    0    0 -0.23608041789E+02  0.25306583024E+02  0.26040375674E+03  0.27823447325E+03  0.91687200845E+02 0.  0.
        -11    1    3    3    0    0  0.14649285390E+02 -0.23633633921E+02  0.55732821280E+02  0.62284007438E+02  0.00000000000E+00 0.  1.
         11    1    3    3    0    0 -0.30999232601E+02 -0.11104754820E+02 -0.25106577298E+02  0.41407828065E+02  0.00000000000E+00 0. -1.
        -11    1    4    4    0    0 -0.32515707427E+02 -0.23106809948E+02  0.61302892192E+02  0.73138502080E+02  0.00000000000E+00 0. -1.
         11    1    4    4    0    0  0.89076656381E+01  0.48413392972E+02  0.19910086455E+03  0.20509597117E+03  0.00000000000E+00 0.  1.
          1    1    1    2  501    0  0.39957989000E+02  0.94318057170E+01  0.24495659497E+03  0.24837337471E+03  0.00000000000E+00 0. -1.
<scales pt_clust_5="13000.00000" pt_clust_6="13000.00000" pt_clust_7="13000.00000" pt_clust_8="13000.00000" pt_clust_9="41.05606"></scales>
<clustering>
<clus scale="   41.056">  1  9  2 -1</clus>
<clus scale="   91.323">  5  6 -1 -1</clus>
<clus scale="   91.687">  7  8 -1 -1</clus>
<clus scale="   97.415">  2  5  1 -1</clus>
<clus scale="   41.056">  1  5  2 -1</clus>
</clustering>
</event>
<event>
 9    1  0.1881049E-005  0.1294578E+03  0.7546771E-02  0.1228971E+00
          1   -1    0    0  502    0 -0.00000000000E+00  0.00000000000E+00  0.45908375243E+03  0.45908375243E+03  0.00000000000E+00 0. -1.
         21   -1    0    0  501  502  0.00000000000E+00 -0.00000000000E+00 -0.66098127194E+02  0.66098127194E+02  0.00000000000E+00 0. -1.
         23    2    1    2    0    0 -0.19636339936E+02  0.84033479576E+02  0.30610496708E+03  0.33027748884E+03  0.89082867200E+02 0.  0.
         23    2    1    2    0    0  0.67426855734E+01 -0.11117146183E+03  0.69183964798E+02  0.16003478569E+03  0.91761396621E+02 0.  0.
        -11    1    4    4    0    0  0.29758768084E+02 -0.17503204117E+01  0.26650505239E+01  0.29929089423E+02  0.00000000000E+00 0.  1.
         11    1    4    4    0    0 -0.23016082510E+02 -0.10942114142E+03  0.66518914274E+02  0.13010569626E+03  0.00000000000E+00 0. -1.
        -13    1    3    3    0    0 -0.48460949562E+02  0.71740571954E+02  0.17199460013E+03  0.19255470851E+03  0.00000000000E+00 0. -1.
         13    1    3    3    0    0  0.28824609626E+02  0.12292907622E+02  0.13411036695E+03  0.13772278033E+03  0.00000000000E+00 0.  1.
          1    1    1    2  501    0  0.12893654363E+02  0.27137982257E+02  0.17696693360E+02  0.34869605098E+02  0.00000000000E+00 0. -1.
<scales pt_clust_5="13000.00000" pt_clust_6="13000.00000" pt_clust_7="13000.00000" pt_clust_8="13000.00000" pt_clust_9="30.04524"></scales>
<clustering>
<clus scale="   30.045">  2  9  1 -1</clus>
<clus scale="   89.083">  7  8 -1 -1</clus>
<clus scale="   91.761">  5  6 -1 -1</clus>
<clus scale="  127.573">  1  7  2 -1</clus>
<clus scale="   30.045">  2  5  1 -1</clus>
</clustering>
</event>
<event>
 9    1  0.1881049E-005  0.1134153E+03  0.7546771E-02  0.1254500E+00
         21   -1    0    0  501  502  0.00000000000E+00  0.00000000000E+00  0.24338426284E+03  0.24338426284E+03  0.00000000000E+00 0.  1.
          1   -1    0    0  502    0 -0.00000000000E+00 -0.00000000000E+00 -0.14067311768E+03  0.14067311768E+03  0.00000000000E+00 0. -1.
         23    2    1    2    0    0 -0.51107904846E+02 -0.17427344130E+02 -0.79655032103E+02  0.13692927714E+03  0.97411357340E+02 0.  0.
         23    2    1    2    0    0  0.70303030428E+02  0.27494200522E+02  0.90358270393E+02  0.15260165538E+03  0.97078324283E+02 0.  0.
        -11    1    3    3    0    0 -0.50246447707E+01  0.27325170324E+02  0.73882956574E+01  0.28748893910E+02  0.00000000000E+00 0.  1.
         11    1    3    3    0    0 -0.46083260075E+02 -0.44752514454E+02 -0.87043327761E+02  0.10818038323E+03  0.00000000000E+00 0. -1.
        -13    1    4    4    0    0  0.46902329187E+02 -0.30938109545E+02  0.23876787926E+02  0.61049947641E+02  0.00000000000E+00 0.  1.
         13    1    4    4    0    0  0.23400701241E+02  0.58432310067E+02  0.66481482467E+02  0.91551707735E+02  0.00000000000E+00 0. -1.
          1    1    1    2  501    0 -0.19195125582E+02 -0.10066856392E+02  0.92007906870E+02  0.94526447993E+02  0.00000000000E+00 0. -1.
<scales pt_clust_5="13000.00000" pt_clust_6="13000.00000" pt_clust_7="13000.00000" pt_clust_8="13000.00000" pt_clust_9="21.67474"></scales>
<clustering>
<clus scale="   21.675">  1  9  2 -1</clus>
<clus scale="   97.078">  7  8 -1 -1</clus>
<clus scale="   97.411">  5  6 -1 -1</clus>
<clus scale="  113.129">  1  7  2 -1</clus>
<clus scale="   21.675">  1  5  2 -1</clus>
</clustering>
</event>
<event>
 9    1  0.1881049E-005  0.1060707E+03  0.7546771E-02  0.1271258E+00
         -3   -1    0    0    0  501 -0.00000000000E+00  0.00000000000E+00  0.34366094618E+03  0.34366094618E+03  0.00000000000E+00 0.  1.
         21   -1    0    0  501  502  0.00000000000E+00 -0.00000000000E+00 -0.16768359608E+03  0.16768359608E+03  0.00000000000E+00 0.  1.
         23    2    1    2    0    0  0.48361045251E+01 -0.33170200591E+02  0.30225905128E+03  0.31823781347E+03  0.93760981874E+02 0.  0.
         23    2    1    2    0    0  0.18187990927E+02  0.38383547028E+02 -0.64110964286E+02  0.12660493575E+03  0.10057084228E+03 0.  0.
        -11    1    4    4    0    0  0.37607099016E+02 -0.12747111981E+00  0.11698850092E+02  0.39384936699E+02  0.00000000000E+00 0.  1.
         11    1    4    4    0    0 -0.19419108089E+02  0.38511018148E+02 -0.75809814377E+02  0.87219999047E+02  0.00000000000E+00 0. -1.
        -13    1    3    3    0    0  0.45137389188E+02  0.19015399499E+01  0.11664684484E+03  0.12508991233E+03  0.00000000000E+00 0.  1.
         13    1    3    3    0    0 -0.40301284663E+02 -0.35071740541E+02  0.18561220645E+03  0.19314790113E+03  0.00000000000E+00 0. -1.
         -3    1    1    2    0  502 -0.23024095452E+02 -0.52133464370E+01 -0.62170736900E+02  0.66501793052E+02  0.00000000000E+00 0.  1.
<scales pt_clust_5="13000.00000" pt_clust_6="13000.00000" pt_clust_7="13000.00000" pt_clust_8="13000.00000" pt_clust_9="23.60695"></scales>
<clustering>
<clus scale="   23.607">  2  9  1 -1</clus>
<clus scale="   93.761">  7  8 -1 -1</clus>
<clus scale="   99.637">  1  7  2 -1</clus>
<clus scale="  100.571">  5  6 -1 -1</clus>
<clus scale="   23.607">  2  5  1 -1</clus>
</clustering>
</event>
<event>
 9    1  0.1881049E-005  0.1018033E+03  0.7546771E-02  0.1278131E+00
          1   -1    0    0  502    0 -0.00000000000E+00  0.00000000000E+00  0.23704978825E+03  0.23704978825E+03  0.00000000000E+00 0. -1.
         21   -1    0    0  501  502  0.00000000000E+00 -0.00000000000E+00 -0.19450339290E+03  0.19450339290E+03  0.00000000000E+00 0. -1.
         23    2    1    2    0    0 -0.20329123242E+01 -0.46007479388E+02  0.98962717043E+02  0.14122259457E+03  0.89606813142E+02 0.  0.
         23    2    1    2    0    0  0.21170725924E+02  0.33646173553E+02  0.94097541258E+02  0.13810220310E+03  0.92938724979E+02 0.  0.
        -13    1    3    3    0    0 -0.41363667836E+02 -0.32210533296E+02  0.79480783963E+02  0.95213793598E+02  0.00000000000E+00 0.  1.
         13    1    3    3    0    0  0.39330755512E+02 -0.13796946092E+02  0.19481933081E+02  0.46008800975E+02  0.00000000000E+00 0. -1.
        -13    1    4    4    0    0 -0.26265496687E+02 -0.16622183364E+02  0.21060643059E+02  0.37546291189E+02  0.00000000000E+00 0.  1.
         13    1    4    4    0    0  0.47436222610E+02  0.50268356917E+02  0.73036898199E+02  0.10055591192E+03  0.00000000000E+00 0. -1.
          1    1    1    2  501    0 -0.19137813599E+02  0.12361305835E+02 -0.15051386295E+03  0.15222838346E+03  0.00000000000E+00 0. -1.
<scales pt_clust_5="13000.00000" pt_clust_6="13000.00000" pt_clust_7="13000.00000" pt_clust_8="13000.00000" pt_clust_9="22.78284"></scales>
<clustering>
<clus scale="   22.783">  2  9  1 -1</clus>
<clus scale="   89.607">  5  6 -1 -1</clus>
<clus scale="   92.939">  7  8 -1 -1</clus>
<clus scale="   98.771">  1  5  2 -1</clus>
<clus scale="   22.783">  2  5  1 -1</clus>
</clustering>
</event>
<event>
 9    1  0.1881049E-005  0.1582090E+03  0.7546771E-02  0.1191534E+00
         -2   -1    0    0    0  501 -0.00000000000E+00  0.00000000000E+00  0.13773441453E+03  0.13773441453E+03  0.00000000000E+00 0.  1.
         21   -1    0    0  501  502  0.00000000000E+00 -0.00000000000E+00 -0.33624279518E+03  0.33624279518E+03  0.00000000000E+00 0. -1.
         23    2    1    2    0    0 -0.10369337436E+03  0.55112601788E+02  0.96785276049E+01  0.14728440561E+03  0.88370286170E+02 0.  0.
         23    2    1    2    0    0  0.13705515770E+03 -0.57698189837E+02 -0.77559623652E+02  0.19184777698E+03  0.93149755495E+02 0.  0.
        -11    1    3    3    0    0 -0.89503490119E+02  0.69742115029E+02  0.31165048707E+02  0.11766944214E+03  0.00000000000E+00 0.  1.
         11    1    3    3    0    0 -0.14189884243E+02 -0.14629513242E+02 -0.21486521102E+02  0.29614963474E+02  0.00000000000E+00 0. -1.
        -13    1    4    4    0    0  0.13687479569E+03 -0.32779310986E+02 -0.86698588501E+02  0.16530528780E+03  0.00000000000E+00 0. -1.
         13    1    4    4    0    0  0.18036200575E+00 -0.24918878851E+02  0.91389648493E+01  0.26542489185E+02  0.00000000000E+00 0.  1.
         -2    1    1    2    0  502 -0.33361783338E+02  0.25855880495E+01 -0.13062728461E+03  0.13484502712E+03  0.00000000000E+00 0.  1.
<scales pt_clust_5="13000.00000" pt_clust_6="13000.00000" pt_clust_7="13000.00000" pt_clust_8="13000.00000" pt_clust_9="33.46183"></scales>
<clustering>
<clus scale="   33.462">  2  9  1 -1</clus>
<clus scale="   88.370">  5  6 -1 -1</clus>
<clus scale="   93.150">  7  8 -1 -1</clus>
<clus scale="  155.443">  1  5  2 -1</clus>
<clus scale="   33.462">  2  5  1 -1</clus>
</clustering>
</event>
<event>
 9    1  0.1881049E-005  0.1498757E+03  0.7546771E-02  0.1200634E+00
          2   -1    0    0  502    0 -0.00000000000E+00  0.00000000000E+00  0.40021243780E+03  0.40021243780E+03  0.00000000000E+00 0. -1.
         21   -1    0    0  501  502  0.00000000000E+00 -0.00000000000E+00 -0.18164838104E+03  0.18164838104E+03  0.00000000000E+00 0.  1.
         23    2    1    2    0    0  0.94571646364E+02 -0.91298684124E+02  0.31310848454E+03  0.35161457890E+03  0.91195630313E+02 0.  0.
         23    2    1    2    0    0 -0.39414054272E+02  0.70628350721E+02 -0.37082192392E+01  0.12198341423E+03  0.91237990213E+02 0.  0.
        -11    1    3    3    0    0  0.36982788585E+02 -0.59029611991E+02  0.66429328967E+02  0.96255272533E+02  0.00000000000E+00 0.  1.
         11    1    3    3    0    0  0.57588857780E+02 -0.32269072134E+02  0.24667915557E+03  0.25535930637E+03  0.00000000000E+00 0. -1.
        -13    1    4    4    0    0 -0.20309782932E+02  0.87523971676E+02 -0.19561244772E+02  0.91954201631E+02  0.00000000000E+00 0.  1.
         13    1    4    4    0    0 -0.19104271340E+02 -0.16895620955E+02  0.15853025533E+02  0.30029212601E+02  0.00000000000E+00 0. -1.
          2    1    1    2  501    0 -0.55157592092E+02  0.20670333403E+02 -0.90836208536E+02  0.10826282571E+03  0.00000000000E+00 0. -1.
<scales pt_clust_5="13000.00000" pt_clust_6="13000.00000" pt_clust_7="13000.00000" pt_clust_8="13000.00000" pt_clust_9="58.90350"></scales>
<clustering>
<clus scale="   58.904">  2  9  1 -1</clus>
<clus scale="   91.196">  5  6 -1 -1</clus>
<clus scale="   91.238">  7  8 -1 -1</clus>
<clus scale="  149.850">  1  5  2 -1</clus>
<clus scale="   58.904">  2  5  1 -1</clus>
</clustering>
</event>
<event>
 9    1  0.1881049E-005  0.1070989E+03  0.7546771E-02  0.1266120E+00
          2   -1    0    0  502    0 -0.00000000000E+00  0.00000000000E+00  0.23571808535E+03  0.23571808535E+03  0.00000000000E+00 0. -1.
         21   -1    0    0  501  502  0.00000000000E+00 -0.00000000000E+00 -0.77030942083E+02  0.77030942083E+02  0.00000000000E+00 0.  1.
         23    2    1    2    0    0  0.74923481850E+02  0.22713470838E+02  0.99626611097E+02  0.15527981460E+03  0.89760399354E+02 0.  0.
         23    2    1    2    0    0 -0.38735942461E+02  0.81498844590E+01  0.45773063891E+02  0.10808660942E+03  0.89558070004E+02 0.  0.
        -11    1    3    3    0    0  0.26464095324E+01  0.34931301771E+02  0.47001342571E+01  0.35345305047E+02  0.00000000000E+00 0.  1.
         11    1    3    3    0    0  0.72277072318E+02 -0.12217830933E+02  0.94926476839E+02  0.11993450955E+03  0.00000000000E+00 0. -1.
        -11    1    4    4    0    0 -0.49883935469E+02 -0.16398259270E+02  0.58210705596E+02  0.78395128490E+02  0.00000000000E+00 0. -1.
         11    1    4    4    0    0  0.11147993008E+02  0.24548143729E+02 -0.12437641705E+02  0.29691480930E+02  0.00000000000E+00 0.  1.
          2    1    1    2  501    0 -0.36187539389E+02 -0.30863355297E+02  0.13287468281E+02  0.49382603420E+02  0.00000000000E+00 0. -1.
<scales pt_clust_5="13000.00000" pt_clust_6="13000.00000" pt_clust_7="13000.00000" pt_clust_8="13000.00000" pt_clust_9="47.56138"></scales>
<clustering>
<clus scale="   47.561">  2  9  1 -1</clus>
<clus scale="   89.558">  7  8 -1 -1</clus>
<clus scale="   89.760">  5  6 -1 -1</clus>
<clus scale="  106.929">  2  7  1 -1</clus>
<clus scale="   47.561">  2  5  1 -1</clus>
</clustering>
</event>
<event>
 9    1  0.1881049E-005  0.1597276E+03  0.7546771E-02  0.1189273E+00
         21   -1    0    0  501  502  0.00000000000E+00  0.00000000000E+00  0.13447924265E+03  0.13447924265E+03  0.00000000000E+00 0.  1.
          2   -1    0    0  502    0 -0.00000000000E+00 -0.00000000000E+00 -0.26679512624E+03  0.26679512624E+03  0.00000000000E+00 0. -1.
         23    2    1    2    0    0  0.11652109353E+03  0.68761525336E+02 -0.12529298472E+03  0.20478191105E+03  0.89061700338E+02 0.  0.
         23    2    1    2    0    0 -0.12119260687E+03 -0.45718538365E+02 -0.34839792806E+02  0.16007018617E+03  0.87354568431E+02 0.  0.
        -11    1    3    3    0    0  0.80156737980E+02  0.75666223854E+01 -0.30185959431E+02  0.85985746288E+02  0.00000000000E+00 0.  1.
         11    1    3    3    0    0  0.36364355551E+02  0.61194902950E+02 -0.95107025289E+02  0.11879616476E+03  0.00000000000E+00 0. -1.
        -13    1    4    4    0    0 -0.26634812267E+02  0.25326135730E+02 -0.16867775907E+02  0.40439439159E+02  0.00000000000E+00 0.  1.
         13    1    4    4    0    0 -0.94557794607E+02 -0.71044674095E+02 -0.17972016899E+02  0.11963074701E+03  0.00000000000E+00 0. -1.
          2    1    1    2  501    0  0.46715133420E+01 -0.23042986970E+02  0.27816893934E+02  0.36422271669E+02  0.00000000000E+00 0. -1.
<scales pt_clust_5="13000.00000" pt_clust_6="13000.00000" pt_clust_7="13000.00000" pt_clust_8="13000.00000" pt_clust_9="23.51175"></scales>
<clustering>
<clus scale="   23.512">  1  9  2 -1</clus>
<clus scale="   87.355">  7  8 -1 -1</clus>
<clus scale="   89.062">  5  6 -1 -1</clus>
<clus scale="  158.782">  1  7  2 -1</clus>
<clus scale="   23.512">  1  5  2 -1</clus>
</clustering>
</event>
<event>
 9    1  0.1881049E-005  0.1348226E+03  0.7546771E-02  0.1221078E+00
         21   -1    0    0  501  502  0.00000000000E+00  0.00000000000E+00  0.13304223362E+03  0.13304223362E+03  0.00000000000E+00 0.  1.
          2   -1    0    0  502    0 -0.00000000000E+00 -0.00000000000E+00 -0.22827773274E+03  0.22827773274E+03  0.00000000000E+00 0. -1.
         23    2    1    2    0    0 -0.91759080614E+02  0.38797362119E+02 -0.95281758968E+02  0.16709129145E+03  0.94424159537E+02 0.  0.
         23    2    1    2    0    0  0.65346607021E+02 -0.66006982783E+02  0.42364393102E+02  0.13740608591E+03  0.91970592128E+02 0.  0.
        -11    1    3    3    0    0  0.37669140353E+01  0.21003226084E+02  0.10220600083E+02  0.23659793180E+02  0.00000000000E+00 0.  1.
         11    1    3    3    0    0 -0.95525994649E+02  0.17794136035E+02 -0.10550235905E+03  0.14343149827E+03  0.00000000000E+00 0. -1.
        -13    1    4    4    0    0  0.78172568963E+02 -0.17577759415E+02  0.31807763808E+02  0.86207087892E+02  0.00000000000E+00 0.  1.
         13    1    4    4    0    0 -0.12825961942E+02 -0.48429223368E+02  0.10556629294E+02  0.51198998015E+02  0.00000000000E+00 0. -1.
          2    1    1    2  501    0  0.26412473593E+02  0.27209620664E+02 -0.42318133259E+02  0.56822588998E+02  0.00000000000E+00 0. -1.
<scales pt_clust_5="13000.00000" pt_clust_6="13000.00000" pt_clust_7="13000.00000" pt_clust_8="13000.00000" pt_clust_9="37.92075"></scales>
<clustering>
<clus scale="   37.921">  1  9  2 -1</clus>
<clus scale="   91.971">  7  8 -1 -1</clus>
<clus scale="   94.424">  5  6 -1 -1</clus>
<clus scale="  133.116">  1  7  2 -1</clus>
<clus scale="   37.921">  1  5  2 -1</clus>
</clustering>
</event>
<event>
 9    1  0.1881049E-005  0.9254225E+02  0.7546771E-02  0.1297094E+00
          2   -1    0    0  502    0 -0.00000000000E+00  0.00000000000E+00  0.32449894123E+03  0.32449894123E+03  0.00000000000E+00 0. -1.
         21   -1    0    0  501  502  0.00000000000E+00 -0.00000000000E+00 -0.46760210098E+02  0.46760210098E+02  0.00000000000E+00 0.  1.
         23    2    1    2    0    0  0.26616251467E+01 -0.23763547431E+01  0.18612830787E+03  0.20721810553E+03  0.91010246443E+02 0.  0.
         23    2    1    2    0    0 -0.32803357740E+02  0.22575951985E+02  0.66870796531E+02  0.12012525248E+03  0.91502125475E+02 0.  0.
        -11    1    4    4    0    0 -0.14438515561E+02 -0.32932666400E+02  0.45227355199E+02  0.57780142836E+02  0.00000000000E+00 0. -1.
         11    1    4    4    0    0 -0.18364842179E+02  0.55508618385E+02  0.21643441332E+02  0.62345109639E+02  0.00000000000E+00 0.  1.
        -13    1    3    3    0    0  0.36204297723E+02  0.15891360475E+02  0.14822760946E+03  0.15341026927E+03  0.00000000000E+00 0. -1.
         13    1    3    3    0    0 -0.33542672576E+02 -0.18267715218E+02  0.37900698415E+02  0.53807836262E+02  0.00000000000E+00 0.  1.
          2    1    1    2  501    0  0.30141732593E+02 -0.20199597242E+02  0.24739626724E+02  0.43915793320E+02  0.00000000000E+00 0. -1.
<scales pt_clust_5="13000.00000" pt_clust_6="13000.00000" pt_clust_7="13000.00000" pt_clust_8="13000.00000" pt_clust_9="36.28426"></scales>
<clustering>
<clus scale="   36.284">  2  9  1 -1</clus>
<clus scale="   91.010">  7  8 -1 -1</clus>
<clus scale="   91.502">  5  6 -1 -1</clus>
<clus scale="   92.056">  1  7  2 -1</clus>
<clus scale="   36.284">  2  5  1 -1</clus>
</clustering>
</event>
<event>
 9    1  0.1881049E-005  0.9205238E+02  0.7546771E-02  0.1299928E+00
         -1   -1    0    0    0  501 -0.00000000000E+00  0.00000000000E+00  0.56043870200E+02  0.56043870200E+02  0.00000000000E+00 0.  1.
         21   -1    0    0  501  502  0.00000000000E+00 -0.00000000000E+00 -0.22313507480E+03  0.22313507480E+03  0.00000000000E+00 0. -1.
         23    2    1    2    0    0  0.13342266221E+02  0.15719763729E+02 -0.22999371818E+02  0.92179743645E+02  0.86850486440E+02 0.  0.
         23    2    1    2    0    0 -0.22085025497E+02  0.61273842467E+01 -0.97455125863E+02  0.13476208671E+03  0.90211004141E+02 0.  0.
        -11    1    4    4    0    0  0.16200929613E+01  0.40374981017E+02 -0.16355530801E+02  0.43592054105E+02  0.00000000000E+00 0.  1.
         11    1    4    4    0    0 -0.23705118459E+02 -0.34247596770E+02 -0.81099595062E+02  0.91170032603E+02  0.00000000000E+00 0. -1.
        -13    1    3    3    0    0  0.46799804148E+02  0.13743398424E+01 -0.29304284846E+02  0.55234514469E+02  0.00000000000E+00 0. -1.
         13    1    3    3    0    0 -0.33457537926E+02  0.14345423887E+02  0.63049130283E+01  0.36945229176E+02  0.00000000000E+00 0.  1.
         -1    1    1    2    0  502  0.87427592761E+01 -0.21847147976E+02 -0.46636706921E+02  0.52237114649E+02  0.00000000000E+00 0.  1.
<scales pt_clust_5="13000.00000" pt_clust_6="13000.00000" pt_clust_7="13000.00000" pt_clust_8="13000.00000" pt_clust_9="23.53155"></scales>
<clustering>
<clus scale="   23.532">  2  9  1 -1</clus>
<clus scale="   86.850">  7  8 -1 -1</clus>
<clus scale="   88.762">  1  7  2 -1</clus>
<clus scale="   90.211">  5  6 -1 -1</clus>
<clus scale="   23.532">  2  5  1 -1</clus>
</clustering>
</event>
<event>
 9    1  0.1881049E-005  0.1666152E+03  0.7546771E-02  0.1207039E+00
          2   -1    0    0  502    0 -0.00000000000E+00  0.00000000000E+00  0.44110286689E+03  0.44110286689E+03  0.00000000000E+00 0. -1.
         21   -1    0    0  501  502  0.00000000000E+00 -0.00000000000E+00 -0.16561806696E+03  0.16561806696E+03  0.00000000000E+00 0. -1.
         23    2    1    2    0    0  0.25037020782E+02  0.31403499866E+02  0.11965891799E+03  0.15277912270E+03  0.86082352813E+02 0.  0.
         23    2    1    2    0    0 -0.60501344999E+02  0.11290914269E+03  0.23931750569E+03  0.28348739399E+03  0.81751738634E+02 0.  0.
        -11    1    3    3    0    0 -0.12247524794E+02  0.34304440550E+02  0.10742373909E+03  0.11343128416E+03  0.00000000000E+00 0.  1.
         11    1    3    3    0    0  0.37284545576E+02 -0.29009406843E+01  0.12235178901E+02  0.39347838548E+02  0.00000000000E+00 0. -1.
        -13    1    4    4    0    0  0.19228430757E+01  0.65548510203E+02  0.64827456091E+02  0.92211190094E+02  0.00000000000E+00 0.  1.
         13    1    4    4    0    0 -0.62424188075E+02  0.47360632487E+02  0.17449004960E+03  0.19127620389E+03  0.00000000000E+00 0. -1.
          2    1    1    2  501    0  0.35464324217E+02 -0.14431264256E+03 -0.83491623750E+02  0.17045441716E+03  0.00000000000E+00 0. -1.
<scales pt_clust_5="13000.00000" pt_clust_6="13000.00000" pt_clust_7="13000.00000" pt_clust_8="13000.00000" pt_clust_9="145.18016"></scales>
<clustering>
<clus scale="   81.752">  7  8 -1 -1</clus>
<clus scale="   86.082">  5  6 -1 -1</clus>
<clus scale="   94.991">  1  5  2 -1</clus>
<clus scale="  145.180">  2  9  1 -1</clus>
<clus scale="  145.180">  2  5  1 -1</clus>
</clustering>
</event>
<event>
 9    1  0.1881049E-005  0.9272300E+02  0.7546771E-02  0.1296592E+00
          1   -1    0    0  502    0 -0.00000000000E+00  0.00000000000E+00  0.71752396579E+03  0.71752396579E+03  0.00000000000E+00 0. -1.
         21   -1    0    0  501  502  0.00000000000E+00 -0.00000000000E+00 -0.34908822848E+02  0.34908822848E+02  0.00000000000E+00 0. -1.
         23    2    1    2    0    0  0.39915055184E+01  0.96490460522E+01  0.44928551907E+03  0.45867748453E+03  0.91752498407E+02 0.  0.
         23    2    1    2    0    0  0.22060045114E+02 -0.17751808498E+02  0.24579295502E+03  0.26376076005E+03  0.91399067335E+02 0.  0.
        -11    1    4    4    0    0  0.34970691515E+02  0.17150371342E+02  0.20448824537E+03  0.20816466318E+03  0.00000000000E+00 0. -1.
         11    1    4    4    0    0 -0.12910646401E+02 -0.34902179839E+02  0.41304709651E+02  0.55596096872E+02  0.00000000000E+00 0.  1.
        -13    1    3    3    0    0  0.11198861507E+02  0.49623149158E+02  0.28029589880E+03  0.28487481868E+03  0.00000000000E+00 0. -1.
         13    1    3    3    0    0 -0.72073559888E+01 -0.39974103106E+02  0.16898962027E+03  0.17380266585E+03  0.00000000000E+00 0.  1.
          1    1    1    2  501    0 -0.26051550632E+02  0.81027624457E+01 -0.12463331151E+02  0.29994544053E+02  0.00000000000E+00 0. -1.
<scales pt_clust_5="13000.00000" pt_clust_6="13000.00000" pt_clust_7="13000.00000" pt_clust_8="13000.00000" pt_clust_9="27.28256"></scales>
<clustering>
<clus scale="   27.283">  2  9  1 -1</clus>
<clus scale="   91.399">  5  6 -1 -1</clus>
<clus scale="   91.752">  7  8 -1 -1</clus>
<clus scale="   92.373">  2  5  1 -1</clus>
<clus scale="   27.283">  2  5  1 -1</clus>
</clustering>
</event>
<event>
 9    1  0.1881049E-005  0.1066315E+03  0.7546771E-02  0.1267931E+00
         21   -1    0    0  501  502  0.00000000000E+00  0.00000000000E+00  0.30391082851E+03  0.30391082851E+03  0.00000000000E+00 0.  1.
         -1   -1    0    0    0  501 -0.00000000000E+00 -0.00000000000E+00 -0.10819381862E+03  0.10819381862E+03  0.00000000000E+00 0.  1.
         23    2    1    2    0    0 -0.14318456380E+02  0.46783046425E+02 -0.21621012033E+02  0.10422434629E+03  0.89451520798E+02 0.  0.
         23    2    1    2    0    0  0.73196868769E+02 -0.52974169222E+02  0.58585251371E+02  0.13844760150E+03  0.87014151028E+02 0.  0.
        -11    1    3    3    0    0  0.21821403708E+02  0.51240251276E+02  0.92864417722E+01  0.56462155568E+02  0.00000000000E+00 0.  1.
         11    1    3    3    0    0 -0.36139860088E+02 -0.44572048502E+01 -0.30907453805E+02  0.47762190726E+02  0.00000000000E+00 0. -1.
        -11    1    4    4    0    0  0.48996656322E+02 -0.41346991971E+02  0.81119693231E+02  0.10339560293E+03  0.00000000000E+00 0.  1.
         11    1    4    4    0    0  0.24200212447E+02 -0.11627177251E+02 -0.22534441860E+02  0.35051998563E+02  0.00000000000E+00 0. -1.
         -1    1    1    2    0  502 -0.58878412389E+02  0.61911227970E+01  0.15875277055E+03  0.16943269934E+03  0.00000000000E+00 0.  1.
<scales pt_clust_5="13000.00000" pt_clust_6="13000.00000" pt_clust_7="13000.00000" pt_clust_8="13000.00000" pt_clust_9="59.20302"></scales>
<clustering>
<clus scale="   59.203">  1  9  2 -1</clus>
<clus scale="   87.014">  7  8 -1 -1</clus>
<clus scale="   89.452">  5  6 -1 -1</clus>
<clus scale="  104.595">  1  7  2 -1</clus>
<clus scale="   59.203">  1  5  2 -1</clus>
</clustering>
</event>
<event>
 9    1  0.1881049E-005  0.2020747E+03  0.7546771E-02  0.1166594E+00
          1   -1    0    0  502    0 -0.00000000000E+00  0.00000000000E+00  0.39936708241E+02  0.39936708241E+02  0.00000000000E+00 0. -1.
         21   -1    0    0  501  502  0.00000000000E+00 -0.00000000000E+00 -0.18780720906E+04  0.18780720906E+04  0.00000000000E+00 0. -1.
         23    2    1    2    0    0 -0.64226851929E+02 -0.66944231588E+02 -0.40455761159E+03  0.42517833987E+03  0.92212477196E+02 0.  0.
         23    2    1    2    0    0  0.18741698983E+03  0.15825388302E+03 -0.81629518567E+03  0.85678718026E+03  0.87046094328E+02 0.  0.
        -11    1    4    4    0    0  0.47591619613E+02  0.73899860321E+01 -0.24250460820E+03  0.24724089295E+03  0.00000000000E+00 0.  1.
         11    1    4    4    0    0  0.13982537022E+03  0.15086389699E+03 -0.57379057747E+03  0.60954628730E+03  0.00000000000E+00 0. -1.
        -13    1    3    3    0    0 -0.87209893498E+02 -0.50019592329E+02 -0.28340619142E+03  0.30071015027E+03  0.00000000000E+00 0. -1.
         13    1    3    3    0    0  0.22983041569E+02 -0.16924639258E+02 -0.12115142017E+03  0.12446818960E+03  0.00000000000E+00 0.  1.
          1    1    1    2  501    0 -0.12319013790E+03 -0.91309651436E+02 -0.61728258509E+03  0.63604327870E+03  0.00000000000E+00 0. -1.
<scales pt_clust_5="13000.00000" pt_clust_6="13000.00000" pt_clust_7="13000.00000" pt_clust_8="13000.00000" pt_clust_9="182.36547"></scales>
<clustering>
<clus scale="   87.046">  5  6 -1 -1</clus>
<clus scale="   92.212">  7  8 -1 -1</clus>
<clus scale="  130.804">  1  7  2 -1</clus>
<clus scale="  182.365">  2  9  1 -1</clus>
<clus scale="  182.365">  2  5  1 -1</clus>
</clustering>
</event>
<event>
 9    1  0.1881049E-005  0.1365167E+03  0.7546771E-02  0.1218190E+00
         -3   -1    0    0    0  501 -0.00000000000E+00  0.00000000000E+00  0.17542756769E+03  0.17542756769E+03  0.00000000000E+00 0.  1.
         21   -1    0    0  501  502  0.00000000000E+00 -0.00000000000E+00 -0.18091243488E+03  0.18091243488E+03  0.00000000000E+00 0. -1.
         23    2    1    2    0    0  0.94327469271E+02  0.52619259701E+02  0.61263852198E+02  0.15337578105E+03  0.90024511529E+02 0.  0.
         23    2    1    2    0    0 -0.62563672394E+02 -0.74753929141E+02 -0.87880236338E+01  0.13326253836E+03  0.90439547470E+02 0.  0.
        -11    1    4    4    0    0  0.20173023559E+02 -0.13847533154E+02 -0.17610873926E+02  0.30147104909E+02  0.00000000000E+00 0. -1.
         11    1    4    4    0    0 -0.82736695953E+02 -0.60906395987E+02  0.88228502922E+01  0.10311543345E+03  0.00000000000E+00 0.  1.
        -13    1    3    3    0    0  0.16689111333E+02  0.26007833001E+02  0.64200827010E+02  0.71250824579E+02  0.00000000000E+00 0.  1.
         13    1    3    3    0    0  0.77638357938E+02  0.26611426700E+02 -0.29369748111E+01  0.82124956471E+02  0.00000000000E+00 0. -1.
         -3    1    1    2    0  502 -0.31763796877E+02  0.22134669440E+02 -0.57960695754E+02  0.69701683162E+02  0.00000000000E+00 0.  1.
<scales pt_clust_5="13000.00000" pt_clust_6="13000.00000" pt_clust_7="13000.00000" pt_clust_8="13000.00000" pt_clust_9="38.71540"></scales>
<clustering>
<clus scale="   38.715">  2  9  1 -1</clus>
<clus scale="   90.025">  7  8 -1 -1</clus>
<clus scale="   90.440">  5  6 -1 -1</clus>
<clus scale="  136.242">  1  7  2 -1</clus>
<clus scale="   38.715">  2  5  1 -1</clus>
</clustering>
</event>
<event>
 9    1  0.1881049E-005  0.1600391E+03  0.7546771E-02  0.1189403E+00
         21   -1    0    0  501  502  0.00000000000E+00  0.00000000000E+00  0.10485492935E+03  0.10485492935E+03  0.00000000000E+00 0.  1.
          2   -1    0    0  502    0 -0.00000000000E+00 -0.00000000000E+00 -0.44558558955E+03  0.44558558955E+03  0.00000000000E+00 0. -1.
         23    2    1    2    0    0  0.13318758694E+03 -0.32892280220E+02 -0.30237724883E+03  0.34346527248E+03  0.87838245530E+02 0.  0.
         23    2    1    2    0    0 -0.93791117647E+02  0.65986845385E+02 -0.86722437684E+01  0.14757571994E+03  0.92478904572E+02 0.  0.
        -11    1    4    4    0    0 -0.69890018074E+01  0.54765695268E+02  0.14408823329E+02  0.57059107197E+02  0.00000000000E+00 0.  1.
         11    1    4    4    0    0 -0.86802115840E+02  0.11221150117E+02 -0.23081067098E+02  0.90516612744E+02  0.00000000000E+00 0. -1.
        -11    1    3    3    0    0  0.10058729825E+03 -0.58998738925E+02 -0.25441560271E+03  0.27986774496E+03  0.00000000000E+00 0. -1.
         11    1    3    3    0    0  0.32600288694E+02  0.26106458705E+02 -0.47961646116E+02  0.63597527524E+02  0.00000000000E+00 0.  1.
          2    1    1    2  501    0 -0.39396469292E+02 -0.33094565165E+02 -0.29681167595E+02  0.59399526479E+02  0.00000000000E+00 0. -1.
<scales pt_clust_5="13000.00000" pt_clust_6="13000.00000" pt_clust_7="13000.00000" pt_clust_8="13000.00000" pt_clust_9="51.45223"></scales>
<clustering>
<clus scale="   51.452">  1  9  2 -1</clus>
<clus scale="   87.838">  7  8 -1 -1</clus>
<clus scale="   92.479">  5  6 -1 -1</clus>
<clus scale="  157.403">  2  7  1 -1</clus>
<clus scale="   51.452">  1  5  2 -1</clus>
</clustering>
</event>
<event>
 9    1  0.1881049E-005  0.1064264E+03  0.7546771E-02  0.1267597E+00
          3   -1    0    0  502    0 -0.00000000000E+00  0.00000000000E+00  0.87865315449E+02  0.87865315449E+02  0.00000000000E+00 0. -1.
         21   -1    0    0  501  502  0.00000000000E+00 -0.00000000000E+00 -0.38144869434E+03  0.38144869434E+03  0.00000000000E+00 0. -1.
         23    2    1    2    0    0 -0.12491813562E+02  0.77807057558E+02  0.16130330293E+01  0.12129924846E+03  0.92200445713E+02 0.  0.
         23    2    1    2    0    0  0.13267595905E+02  0.11967517018E+02 -0.13027348842E+03  0.16023923903E+03  0.91576096089E+02 0.  0.
        -11    1    4    4    0    0 -0.18460561486E+02 -0.30442048949E+02 -0.28868894617E+02  0.45835834791E+02  0.00000000000E+00 0.  1.
         11    1    4    4    0    0  0.31728157390E+02  0.42409565968E+02 -0.10140459380E+03  0.11440340424E+03  0.00000000000E+00 0. -1.
        -11    1    3    3    0    0 -0.45625933631E+02  0.64919691245E+02  0.19193997701E+02  0.81637624162E+02  0.00000000000E+00 0. -1.
         11    1    3    3    0    0  0.33134120069E+02  0.12887366313E+02 -0.17580964671E+02  0.39661624298E+02  0.00000000000E+00 0.  1.
          3    1    1    2  501    0 -0.77578234261E+00 -0.89774574577E+02 -0.16492292350E+03  0.18777552230E+03  0.00000000000E+00 0. -1.
<scales pt_clust_5="13000.00000" pt_clust_6="13000.00000" pt_clust_7="13000.00000" pt_clust_8="13000.00000" pt_clust_9="89.77793"></scales>
<clustering>
<clus scale="   89.778">  2  9  1 -1</clus>
<clus scale="   91.576">  5  6 -1 -1</clus>
<clus scale="   92.200">  7  8 -1 -1</clus>
<clus scale="  105.886">  2  5  1 -1</clus>
<clus scale="   89.778">  2  5  1 -1</clus>
</clustering>
</event>
<event>
 9    1  0.1881049E-005  0.1019792E+03  0.7546771E-02  0.1277898E+00
         21   -1    0    0  501  502  0.00000000000E+00  0.00000000000E+00  0.57202729315E+02  0.57202729315E+02  0.00000000000E+00 0. -1.
          1   -1    0    0  502    0 -0.00000000000E+00 -0.00000000000E+00 -0.50126154747E+03  0.50126154747E+03  0.00000000000E+00 0. -1.
         23    2    1    2    0    0 -0.29847234838E+02  0.60758707298E+02 -0.33857135951E+03  0.35622634684E+03  0.87659379230E+02 0.  0.
         23    2    1    2    0    0 -0.11231561610E+02  0.17275021202E+01 -0.83548637404E+02  0.12430651290E+03  0.91337845914E+02 0.  0.
        -11    1    3    3    0    0  0.23680515983E+02 -0.22747813787E+00 -0.37008103899E+02  0.43936526236E+02  0.00000000000E+00 0.  1.
         11    1    3    3    0    0 -0.53527750821E+02  0.60986185436E+02 -0.30156325561E+03  0.31228982061E+03  0.00000000000E+00 0. -1.
        -13    1    4    4    0    0 -0.39477808613E+02  0.23060522372E+02 -0.75088908534E+02  0.87912622813E+02  0.00000000000E+00 0. -1.
         13    1    4    4    0    0  0.28246247003E+02 -0.21333020252E+02 -0.84597288702E+01  0.36393890083E+02  0.00000000000E+00 0.  1.
          1    1    1    2  501    0  0.41078796448E+02 -0.62486209419E+02 -0.21938821243E+02  0.77931417045E+02  0.00000000000E+00 0. -1.
<scales pt_clust_5="13000.00000" pt_clust_6="13000.00000" pt_clust_7="13000.00000" pt_clust_8="13000.00000" pt_clust_9="74.77964"></scales>
<clustering>
<clus scale="   74.780">  1  9  2 -1</clus>
<clus scale="   87.659">  5  6 -1 -1</clus>
<clus scale="   91.338">  7  8 -1 -1</clus>
<clus scale="   98.698">  2  5  1 -1</clus>
<clus scale="   74.780">  1  5  2 -1</clus>
</clustering>
</event>
<event>
 9    1  0.1881049E-005  0.1035778E+03  0.7546771E-02  0.1273106E+00
         21   -1    0    0  501  502  0.00000000000E+00  0.00000000000E+00  0.34289623439E+03  0.34289623439E+03  0.00000000000E+00 0. -1.
         -1   -1    0    0    0  501 -0.00000000000E+00 -0.00000000000E+00 -0.64490763082E+02  0.64490763082E+02  0.00000000000E+00 0.  1.
         23    2    1    2    0    0 -0.24903134554E+02 -0.10035707689E+01  0.10148243709E+03  0.13874442786E+03  0.91269699026E+02 0.  0.
         23    2    1    2    0    0  0.75239886887E+02 -0.42294276846E+02  0.15286258639E+03  0.19802106161E+03  0.91627092544E+02 0.  0.
        -11    1    4    4    0    0  0.13287010443E+02 -0.20857589565E+02  0.12391314427E+03  0.12635683998E+03  0.00000000000E+00 0. -1.
         11    1    4    4    0    0  0.61952876443E+02 -0.21436687281E+02  0.28949442128E+02  0.71664221622E+02  0.00000000000E+00 0.  1.
        -13    1    3    3    0    0 -0.54797267988E+02 -0.10685675121E+02  0.88728891654E+02  0.10483196290E+03  0.00000000000E+00 0. -1.
         13    1    3    3    0    0  0.29894133434E+02  0.96821043517E+01  0.12753545433E+02  0.33912464958E+02  0.00000000000E+00 0.  1.
         -1    1    1    2    0  502 -0.50336752333E+02  0.43297847615E+02  0.24060447831E+02  0.70621508008E+02  0.00000000000E+00 0.  1.
<scales pt_clust_5="13000.00000" pt_clust_6="13000.00000" pt_clust_7="13000.00000" pt_clust_8="13000.00000" pt_clust_9="66.39651"></scales>
<clustering>
<clus scale="   66.397">  1  9  2 -1</clus>
<clus scale="   91.270">  7  8 -1 -1</clus>
<clus scale="   91.627">  5  6 -1 -1</clus>
<clus scale="  103.262">  2  7  1 -1</clus>
<clus scale="   66.397">  1  5  2 -1</clus>
</clustering>
</event>
<event>
 9    1  0.1881049E-005  0.2091712E+03  0.7546771E-02  0.1142230E+00
          3   -1    0    0  502    0 -0.00000000000E+00  0.00000000000E+00  0.13606473531E+04  0.13606473531E+04  0.00000000000E+00 0. -1.
         21   -1    0    0  501  502  0.00000000000E+00 -0.00000000000E+00 -0.41059937609E+02  0.41059937609E+02  0.00000000000E+00 0. -1.
         23    2    1    2    0    0  0.98842586468E+02  0.16460489602E+03  0.88819519893E+03  0.91330334709E+03  0.91474934880E+02 0.  0.
         23    2    1    2    0    0 -0.72879345457E+02 -0.16593451144E+03  0.38045773396E+03  0.43121846225E+03  0.91409046462E+02 0.  0.
        -13    1    4    4    0    0  0.74532428010E+01 -0.77075155169E+02  0.10179504138E+03  0.12789980775E+03  0.00000000000E+00 0.  1.
         13    1    4    4    0    0 -0.80332588258E+02 -0.88859356267E+02  0.27866269258E+03  0.30331865450E+03  0.00000000000E+00 0. -1.
        -13    1    3    3    0    0  0.78977293120E+02  0.17083335885E+03  0.83961172404E+03  0.86044714914E+03  0.00000000000E+00 0. -1.
         13    1    3    3    0    0  0.19865293348E+02 -0.62284628284E+01  0.48583474888E+02  0.52856197945E+02  0.00000000000E+00 0.  1.
          3    1    1    2  501    0 -0.25963241010E+02  0.13296154115E+01  0.50934482557E+02  0.57185481324E+02  0.00000000000E+00 0. -1.
<scales pt_clust_5="13000.00000" pt_clust_6="13000.00000" pt_clust_7="13000.00000" pt_clust_8="13000.00000" pt_clust_9="25.99726"></scales>
<clustering>
<clus scale="   25.997">  2  9  1 -1</clus>
<clus scale="   91.409">  5  6 -1 -1</clus>
<clus scale="   91.475">  7  8 -1 -1</clus>
<clus scale="  209.142">  2  5  1 -1</clus>
<clus scale="   25.997">  2  5  1 -1</clus>
</clustering>
</event>
<event>
 9    1  0.1881049E-005  0.3151464E+03  0.7546771E-02  0.1077939E+00
         21   -1    0    0  501  502  0.00000000000E+00  0.00000000000E+00  0.51099247720E+03  0.51099247720E+03  0.00000000000E+00 0. -1.
          2   -1    0    0  502    0 -0.00000000000E+00 -0.00000000000E+00 -0.65168663182E+03  0.65168663182E+03  0.00000000000E+00 0. -1.
         23    2    1    2    0    0 -0.32437041552E+03 -0.12810744747E+03 -0.48394114729E+03  0.60340218599E+03  0.90925680955E+02 0.  0.
         23    2    1    2    0    0  0.17406126546E+03  0.93079679143E+02  0.43371818627E+02  0.22201603714E+03  0.91917654973E+02 0.  0.
        -13    1    4    4    0    0  0.75393858170E+02  0.79612291937E+00  0.43241638886E+02  0.86917817477E+02  0.00000000000E+00 0.  1.
         13    1    4    4    0    0  0.98667407288E+02  0.92283556224E+02  0.13017974085E+00  0.13509821967E+03  0.00000000000E+00 0. -1.
        -13    1    3    3    0    0 -0.58982583036E+02  0.10775438896E+02 -0.97626590050E+02  0.11456878401E+03  0.00000000000E+00 0.  1.
         13    1    3    3    0    0 -0.26538783249E+03 -0.13888288637E+03 -0.38631455724E+03  0.48883340198E+03  0.00000000000E+00 0. -1.
          2    1    1    2  501    0  0.15030915007E+03  0.35027768331E+02  0.29987517403E+03  0.33726088589E+03  0.00000000000E+00 0. -1.
<scales pt_clust_5="13000.00000" pt_clust_6="13000.00000" pt_clust_7="13000.00000" pt_clust_8="13000.00000" pt_clust_9="154.33660"></scales>
<clustering>
<clus scale="   90.926">  7  8 -1 -1</clus>
<clus scale="   91.918">  5  6 -1 -1</clus>
<clus scale="  154.337">  1  9  2 -1</clus>
<clus scale="  314.858">  2  7  1 -1</clus>
<clus scale="  154.337">  1  5  2 -1</clus>
</clustering>
</event>
<event>
 9    1  0.1881049E-005  0.1480498E+03  0.7546771E-02  0.1203251E+00
         -1   -1    0    0    0  501 -0.00000000000E+00  0.00000000000E+00  0.99202975949E+03  0.99202975949E+03  0.00000000000E+00 0.  1.
         21   -1    0    0  501  502  0.00000000000E+00 -0.00000000000E+00 -0.29275520315E+02  0.29275520315E+02  0.00000000000E+00 0. -1.
         23    2    1    2    0    0 -0.15462376343E+02 -0.12259716770E+03  0.55867914212E+03  0.57909064211E+03  0.89187652313E+02 0.  0.
         23    2    1    2    0    0  0.42856432686E+02  0.99723913254E+02  0.29134362658E+03  0.32396911124E+03  0.91067796684E+02 0.  0.
        -11    1    4    4    0    0  0.24589782272E+02  0.26510947507E+01  0.14698573881E+03  0.14905198123E+03  0.00000000000E+00 0.  1.
         11    1    4    4    0    0  0.18266650414E+02  0.97072818504E+02  0.14435788777E+03  0.17491713001E+03  0.00000000000E+00 0. -1.
        -13    1    3    3    0    0 -0.52090937462E+02 -0.83546804147E+02  0.34150621493E+03  0.35541529101E+03  0.00000000000E+00 0.  1.
         13    1    3    3    0    0  0.36628561119E+02 -0.39050363550E+02  0.21717292719E+03  0.22367535110E+03  0.00000000000E+00 0. -1.
         -1    1    1    2    0  502 -0.27394056343E+02  0.22873254442E+02  0.11273147047E+03  0.11824552645E+03  0.00000000000E+00 0.  1.
<scales pt_clust_5="13000.00000" pt_clust_6="13000.00000" pt_clust_7="13000.00000" pt_clust_8="13000.00000" pt_clust_9="35.68783"></scales>
<clustering>
<clus scale="   35.688">  2  9  1 -1</clus>
<clus scale="   89.188">  7  8 -1 -1</clus>
<clus scale="   91.068">  5  6 -1 -1</clus>
<clus scale="  146.901">  1  7  2 -1</clus>
<clus scale="   35.688">  2  5  1 -1</clus>
</clustering>
</event>
<event>
 9    1  0.1881049E-005  0.1247676E+03  0.7546771E-02  0.1236199E+00
         21   -1    0    0  501  502  0.00000000000E+00  0.00000000000E+00  0.17411865283E+03  0.17411865283E+03  0.00000000000E+00 0.  1.
          2   -1    0    0  502    0 -0.00000000000E+00 -0.00000000000E+00 -0.15608568943E+03  0.15608568943E+03  0.00000000000E+00 0. -1.
         23    2    1    2    0    0  0.79095454786E+02 -0.38848399146E+01 -0.20921847904E+02  0.12023879948E+03  0.88025349932E+02 0.  0.
         23    2    1    2    0    0 -0.89547299566E+02  0.27443189427E+02 -0.32185727443E+02  0.13430040455E+03  0.90712899337E+02 0.  0.
        -11    1    4    4    0    0 -0.14529769206E+02 -0.16605235060E+02 -0.41306157665E+02  0.46829976357E+02  0.00000000000E+00 0. -1.
         11    1    4    4    0    0 -0.75017530360E+02  0.44048424487E+02  0.91204302216E+01  0.87470428195E+02  0.00000000000E+00 0.  1.
        -13    1    3    3    0    0  0.53432950033E+02  0.30480105361E+02  0.16092964992E+02  0.63585379564E+02  0.00000000000E+00 0. -1.
         13    1    3    3    0    0  0.25662504753E+02 -0.34364945276E+02 -0.37014812896E+02  0.56653419912E+02  0.00000000000E+00 0.  1.
          2    1    1    2  501    0  0.10451844780E+02 -0.23558349513E+02  0.71140538747E+02  0.75665138236E+02  0.00000000000E+00 0. -1.
<scales pt_clust_5="13000.00000" pt_clust_6="13000.00000" pt_clust_7="13000.00000" pt_clust_8="13000.00000" pt_clust_9="25.77279"></scales>
<clustering>
<clus scale="   25.773">  1  9  2 -1</clus>
<clus scale="   88.025">  7  8 -1 -1</clus>
<clus scale="   90.713">  5  6 -1 -1</clus>
<clus scale="  122.827">  2  7  1 -1</clus>
<clus scale="   25.773">  1  5  2 -1</clus>
</clustering>
</event>
<event>
 9    1  0.1881049E-005  0.1446384E+03  0.7546771E-02  0.1207709E+00
         -1   -1    0    0    0  501 -0.00000000000E+00  0.00000000000E+00  0.15288102163E+03  0.15288102163E+03  0.00000000000E+00 0.  1.
         21   -1    0    0  501  502  0.00000000000E+00 -0.00000000000E+00 -0.26012603752E+03  0.26012603752E+03  0.00000000000E+00 0.  1.
         23    2    1    2    0    0 -0.25872909049E+02  0.12179712632E+03  0.49098969366E+02  0.16301494102E+03  0.93054902066E+02 0.  0.
         23    2    1    2    0    0 -0.16615568398E+02 -0.82860698970E+02 -0.67768863751E+02  0.14431871447E+03  0.95358795633E+02 0.  0.
        -11    1    3    3    0    0 -0.14755394482E+02  0.67333393655E+02  0.74848570634E+02  0.10175370309E+03  0.00000000000E+00 0.  1.
         11    1    3    3    0    0 -0.11117514567E+02  0.54463732667E+02 -0.25749601268E+02  0.61261237921E+02  0.00000000000E+00 0. -1.
        -13    1    4    4    0    0  0.24385581880E+02 -0.72536659358E+02 -0.67492923520E+02  0.10203684766E+03  0.00000000000E+00 0.  1.
         13    1    4    4    0    0 -0.41001150278E+02 -0.10324039612E+02 -0.27594023128E+00  0.42281866811E+02  0.00000000000E+00 0. -1.
         -1    1    1    2    0  502  0.42488477447E+02 -0.38936427352E+02 -0.88575121506E+02  0.10567340366E+03  0.00000000000E+00 0.  1.
<scales pt_clust_5="13000.00000" pt_clust_6="13000.00000" pt_clust_7="13000.00000" pt_clust_8="13000.00000" pt_clust_9="57.63086"></scales>
<clustering>
<clus scale="   57.631">  2  9  1 -1</clus>
<clus scale="   93.055">  5  6 -1 -1</clus>
<clus scale="   95.359">  7  8 -1 -1</clus>
<clus scale="  143.130">  1  5  2 -1</clus>
<clus scale="   57.631">  2  5  1 -1</clus>
</clustering>
</event>
<event>
 9    1  0.1881049E-005  0.1043231E+03  0.7546771E-02  0.1276827E+00
         21   -1    0    0  501  502  0.00000000000E+00  0.00000000000E+00  0.23557047168E+02  0.23557047168E+02  0.00000000000E+00 0. -1.
         -3   -1    0    0    0  501 -0.00000000000E+00 -0.00000000000E+00 -0.55504990556E+03  0.55504990556E+03  0.00000000000E+00 0.  1.
         23    2    1    2    0    0 -0.14894931381E+02 -0.42794717710E+02 -0.28552895682E+03  0.30093791415E+03  0.83567913370E+02 0.  0.
         23    2    1    2    0    0  0.33374819050E+02  0.28396487382E+02 -0.21237197834E+03  0.23671500836E+03  0.94931022093E+02 0.  0.
        -13    1    4    4    0    0  0.13153683397E+02 -0.34138454606E+02 -0.53781393146E+02  0.65045305123E+02  0.00000000000E+00 0.  1.
         13    1    4    4    0    0  0.20221135653E+02  0.62534941988E+02 -0.15859058520E+03  0.17166970324E+03  0.00000000000E+00 0. -1.
        -13    1    3    3    0    0  0.34867108066E+02 -0.14029318835E+02 -0.11344413888E+03  0.11950778074E+03  0.00000000000E+00 0. -1.
         13    1    3    3    0    0 -0.49762039447E+02 -0.28765398875E+02 -0.17208481794E+03  0.18143013341E+03  0.00000000000E+00 0.  1.
         -3    1    1    2    0  502 -0.18479887670E+02  0.14398230328E+02 -0.33591923226E+02  0.40954030216E+02  0.00000000000E+00 0.  1.
<scales pt_clust_5="13000.00000" pt_clust_6="13000.00000" pt_clust_7="13000.00000" pt_clust_8="13000.00000" pt_clust_9="23.42681"></scales>
<clustering>
<clus scale="   23.427">  1  9  2 -1</clus>
<clus scale="   83.568">  7  8 -1 -1</clus>
<clus scale="   94.101">  2  7  1 -1</clus>
<clus scale="   94.931">  5  6 -1 -1</clus>
<clus scale="   23.427">  1  5  2 -1</clus>
</clustering>
</event>
<event>
 9    1  0.1881049E-005  0.1151628E+03  0.7546771E-02  0.1253587E+00
         -1   -1    0    0    0  501 -0.00000000000E+00  0.00000000000E+00  0.77086549313E+02  0.77086549313E+02  0.00000000000E+00 0.  1.
         21   -1    0    0  501  502  0.00000000000E+00 -0.00000000000E+00 -0.29885982081E+03  0.29885982081E+03  0.00000000000E+00 0. -1.
         23    2    1    2    0    0 -0.29221628023E+02  0.44774212529E+02 -0.39250255927E+02  0.11227580605E+03  0.90590509332E+02 0.  0.
         23    2    1    2    0    0  0.61227009340E+02 -0.88088269023E+02 -0.12539253475E+03  0.18515722915E+03  0.83973935968E+02 0.  0.
        -11    1    4    4    0    0  0.39537345958E+02  0.35885938293E+01 -0.22424395712E+02  0.45595320529E+02  0.00000000000E+00 0.  1.
         11    1    4    4    0    0  0.21689663382E+02 -0.91676862852E+02 -0.10296813904E+03  0.13956190862E+03  0.00000000000E+00 0. -1.
        -13    1    3    3    0    0 -0.45594495908E+02 -0.64676514254E+01 -0.35875780115E+02  0.58376023938E+02  0.00000000000E+00 0. -1.
         13    1    3    3    0    0  0.16372867884E+02  0.51241863955E+02 -0.33744758125E+01  0.53899782108E+02  0.00000000000E+00 0.  1.
         -1    1    1    2    0  502 -0.32005381316E+02  0.43314056494E+02 -0.57130480817E+02  0.78513334928E+02  0.00000000000E+00 0.  1.
<scales pt_clust_5="13000.00000" pt_clust_6="13000.00000" pt_clust_7="13000.00000" pt_clust_8="13000.00000" pt_clust_9="53.85584"></scales>
<clustering>
<clus scale="   53.856">  2  9  1 -1</clus>
<clus scale="   83.974">  5  6 -1 -1</clus>
<clus scale="   90.591">  7  8 -1 -1</clus>
<clus scale="  110.034">  2  5  1 -1</clus>
<clus scale="   53.856">  2  5  1 -1</clus>
</clustering>
</event>
<event>
 9    1  0.1881049E-005  0.1005208E+03  0.7546771E-02  0.1280764E+00
         -1   -1    0    0    0  501 -0.00000000000E+00  0.00000000000E+00  0.19820583757E+03  0.19820583757E+03  0.00000000000E+00 0.  1.
         21   -1    0    0  501  502  0.00000000000E+00 -0.00000000000E+00 -0.63988835499E+02  0.63988835499E+02  0.00000000000E+00 0. -1.
         23    2    1    2    0    0  0.36561602569E+02 -0.29382307557E+02  0.71226663634E+02  0.12365311696E+03  0.89536500613E+02 0.  0.
         23    2    1    2    0    0 -0.31496387153E+02  0.73167289930E+01  0.61453997376E+02  0.11585000463E+03  0.92731185972E+02 0.  0.
        -11    1    4    4    0    0 -0.40557441964E+02 -0.30424108738E+02  0.10465002688E+02  0.51769187481E+02  0.00000000000E+00 0. -1.
         11    1    4    4    0    0  0.90610548112E+01  0.37740837731E+02  0.50988994688E+02  0.64080817147E+02  0.00000000000E+00 0.  1.
        -13    1    3    3    0    0  0.31783991655E+02  0.28338389253E+02  0.36765218693E+02  0.56258045972E+02  0.00000000000E+00 0.  1.
         13    1    3    3    0    0  0.47776109132E+01 -0.57720696810E+02  0.34461444941E+02  0.67395070990E+02  0.00000000000E+00 0. -1.
         -1    1    1    2    0  502 -0.50652154160E+01  0.22065578564E+02  0.15363410584E+01  0.22691551477E+02  0.00000000000E+00 0.  1.
<scales pt_clust_5="13000.00000" pt_clust_6="13000.00000" pt_clust_7="13000.00000" pt_clust_8="13000.00000" pt_clust_9="22.63948"></scales>
<clustering>
<clus scale="   22.639">  2  9  1 -1</clus>
<clus scale="   89.537">  7  8 -1 -1</clus>
<clus scale="   92.731">  5  6 -1 -1</clus>
<clus scale="   97.581">  1  7  2 -1</clus>
<clus scale="   22.639">  2  5  1 -1</clus>
</clustering>
</event>
<event>
 9    1  0.1881049E-005  0.1129465E+03  0.7546771E-02  0.1256103E+00
          2   -1    0    0  502    0 -0.00000000000E+00  0.00000000000E+00  0.18264152753E+03  0.18264152753E+03  0.00000000000E+00 0. -1.
         21   -1    0    0  501  502  0.00000000000E+00 -0.00000000000E+00 -0.95487710014E+02  0.95487710014E+02  0.00000000000E+00 0.  1.
         23    2    1    2    0    0 -0.68653684601E+02 -0.28058220149E+02  0.53841271309E+02  0.12837293095E+03  0.89889569901E+02 0.  0.
         23    2    1    2    0    0  0.42832556156E+02  0.31063501590E+02 -0.13609840549E+01  0.10642022358E+03  0.92324659276E+02 0.  0.
        -13    1    3    3    0    0 -0.48248053970E+02  0.28087200497E+02  0.34283599368E+02  0.65514355139E+02  0.00000000000E+00 0. -1.
         13    1    3    3    0    0 -0.20405630631E+02 -0.56145420647E+02  0.19557671941E+02  0.62858575810E+02  0.00000000000E+00 0.  1.
        -13    1    4    4    0    0  0.10332282659E+02  0.23583967790E+02 -0.44790123697E+02  0.51663476290E+02  0.00000000000E+00 0.  1.
         13    1    4    4    0    0  0.32500273498E+02  0.74795338002E+01  0.43429139642E+02  0.54756747286E+02  0.00000000000E+00 0. -1.
          2    1    1    2  501    0  0.25821128445E+02 -0.30052814409E+01  0.34673530266E+02  0.43336083024E+02  0.00000000000E+00 0. -1.
<scales pt_clust_5="13000.00000" pt_clust_6="13000.00000" pt_clust_7="13000.00000" pt_clust_8="13000.00000" pt_clust_9="25.99544"></scales>
<clustering>
<clus scale="   25.995">  2  9  1 -1</clus>
<clus scale="   89.890">  5  6 -1 -1</clus>
<clus scale="   92.325">  7  8 -1 -1</clus>
<clus scale="  110.965">  1  5  2 -1</clus>
<clus scale="   25.995">  2  5  1 -1</clus>
</clustering>
</event>
<event>
 9    1  0.1881049E-005  0.1358051E+03  0.7546771E-02  0.1219272E+00
         -1   -1    0    0    0  501 -0.00000000000E+00  0.00000000000E+00  0.46369551007E+03  0.46369551007E+03  0.00000000000E+00 0.  1.
         21   -1    0    0  501  502  0.00000000000E+00 -0.00000000000E+00 -0.60446758935E+02  0.60446758935E+02  0.00000000000E+00 0.  1.
         23    2    1    2    0    0  0.88869618322E+02 -0.52070029580E+01  0.20865889025E+03  0.24492024536E+03  0.92317236555E+02 0.  0.
         23    2    1    2    0    0 -0.11293008078E+03  0.46344837155E+02  0.14943681006E+03  0.21357124105E+03  0.91543802238E+02 0.  0.
        -11    1    3    3    0    0  0.91379136273E+01 -0.35145016321E+02  0.10297725665E+03  0.10919244033E+03  0.00000000000E+00 0.  1.
         11    1    3    3    0    0  0.79731704695E+02  0.29938013363E+02  0.10568163360E+03  0.13572780503E+03  0.00000000000E+00 0. -1.
        -13    1    4    4    0    0 -0.82554303557E+02  0.31017618120E+02  0.36193540807E+02  0.95327215766E+02  0.00000000000E+00 0.  1.
         13    1    4    4    0    0 -0.30375777225E+02  0.15327219035E+02  0.11324326925E+03  0.11824402528E+03  0.00000000000E+00 0. -1.
         -1    1    1    2    0  502  0.24060462460E+02 -0.41137834197E+02  0.45153050830E+02  0.65650782596E+02  0.00000000000E+00 0.  1.
<scales pt_clust_5="13000.00000" pt_clust_6="13000.00000" pt_clust_7="13000.00000" pt_clust_8="13000.00000" pt_clust_9="47.65739"></scales>
<clustering>
<clus scale="   47.657">  2  9  1 -1</clus>
<clus scale="   91.544">  7  8 -1 -1</clus>
<clus scale="   92.317">  5  6 -1 -1</clus>
<clus scale="  135.281">  2  7  1 -1</clus>
<clus scale="   47.657">  2  5  1 -1</clus>
</clustering>
</event>
<event>
 9    1  0.1881049E-005  0.1004837E+03  0.7546771E-02  0.1282434E+00
          1   -1    0    0  502    0 -0.00000000000E+00  0.00000000000E+00  0.36438734055E+03  0.36438734055E+03  0.00000000000E+00 0. -1.
         21   -1    0    0  501  502  0.00000000000E+00 -0.00000000000E+00 -0.38596149542E+02  0.38596149542E+02  0.00000000000E+00 0.  1.
         23    2    1    2    0    0  0.23225135191E+02 -0.29394172279E+02  0.22998314799E+03  0.25188392593E+03  0.95654793472E+02 0.  0.
         23    2    1    2    0    0 -0.20598034258E+02  0.61946403428E+01  0.85309370211E+02  0.12549991432E+03  0.89497973520E+02 0.  0.
        -11    1    3    3    0    0 -0.74854322489E+01  0.31889425839E+02  0.95077477547E+02  0.10056189096E+03  0.00000000000E+00 0. -1.
         11    1    3    3    0    0  0.30710567439E+02 -0.61283598117E+02  0.13490567044E+03  0.15132203497E+03  0.00000000000E+00 0.  1.
        -11    1    4    4    0    0 -0.22341282940E+01  0.47090243019E+02  0.41216278621E+02  0.62619996329E+02  0.00000000000E+00 0. -1.
         11    1    4    4    0    0 -0.18363905964E+02 -0.40895602677E+02  0.44093091591E+02  0.62879917991E+02  0.00000000000E+00 0.  1.
          1    1    1    2  501    0 -0.26271009323E+01  0.23199531936E+02  0.10498672809E+02  0.25599649844E+02  0.00000000000E+00 0. -1.
<scales pt_clust_5="13000.00000" pt_clust_6="13000.00000" pt_clust_7="13000.00000" pt_clust_8="13000.00000" pt_clust_9="23.34780"></scales>
<clustering>
<clus scale="   23.348">  2  9  1 -1</clus>
<clus scale="   89.498">  7  8 -1 -1</clus>
<clus scale="   94.642">  2  7  1 -1</clus>
<clus scale="   95.655">  5  6 -1 -1</clus>
<clus scale="   23.348">  2  5  1 -1</clus>
</clustering>
</event>
<event>
 9    1  0.1881049E-005  0.1079238E+03  0.7546771E-02  0.1265056E+00
          1   -1    0    0  502    0 -0.00000000000E+00  0.00000000000E+00  0.38112028869E+03  0.38112028869E+03  0.00000000000E+00 0. -1.
         21   -1    0    0  501  502  0.00000000000E+00 -0.00000000000E+00 -0.50290801375E+02  0.50290801375E+02  0.00000000000E+00 0.  1.
         23    2    1    2    0    0 -0.33623029222E+02  0.55007798275E+02  0.26332705243E+03  0.28538504690E+03  0.89146634745E+02 0.  0.
         23    2    1    2    0    0  0.19896808409E+02 -0.34583945117E+02  0.34500031515E+02  0.10485929027E+03  0.90627183213E+02 0.  0.
        -11    1    4    4    0    0  0.28641341226E+02  0.22127577574E+02 -0.29892209136E+01  0.36316546617E+02  0.00000000000E+00 0.  1.
         11    1    4    4    0    0 -0.87445328172E+01 -0.56711522691E+02  0.37489252428E+02  0.68542743655E+02  0.00000000000E+00 0. -1.
        -11    1    3    3    0    0 -0.47830242249E+02  0.10984597981E+02  0.20577735356E+03  0.21154836965E+03  0.00000000000E+00 0. -1.
         11    1    3    3    0    0  0.14207213027E+02  0.44023200293E+02  0.57549698875E+02  0.73836677245E+02  0.00000000000E+00 0.  1.
          1    1    1    2  501    0  0.13726220813E+02 -0.20423853157E+02  0.33002403368E+02  0.41166752892E+02  0.00000000000E+00 0. -1.
<scales pt_clust_5="13000.00000" pt_clust_6="13000.00000" pt_clust_7="13000.00000" pt_clust_8="13000.00000" pt_clust_9="24.60779"></scales>
<clustering>
<clus scale="   24.608">  2  9  1 -1</clus>
<clus scale="   89.147">  7  8 -1 -1</clus>
<clus scale="   90.627">  5  6 -1 -1</clus>
<clus scale="  106.684">  1  7  2 -1</clus>
<clus scale="   24.608">  2  5  1 -1</clus>
</clustering>
</event>
<event>
 9    1  0.1881049E-005  0.1815502E+03  0.7546771E-02  0.1167196E+00
         21   -1    0    0  501  502  0.00000000000E+00  0.00000000000E+00  0.91712156516E+03  0.91712156516E+03  0.00000000000E+00 0. -1.
          1   -1    0    0  502    0 -0.00000000000E+00 -0.00000000000E+00 -0.12931876798E+03  0.12931876798E+03  0.00000000000E+00 0. -1.
         23    2    1    2    0    0 -0.13256302641E+03  0.48025814282E+02  0.29996237292E+02  0.17219563138E+03  0.94191965730E+02 0.  0.
         23    2    1    2    0    0  0.10356027292E+03 -0.19282869363E+03  0.25796703867E+03  0.35304552625E+03  0.10092826834E+03 0.  0.
        -13    1    3    3    0    0 -0.43319250547E+02  0.29311530794E+02 -0.32564425069E+02  0.61613026914E+02  0.00000000000E+00 0. -1.
         13    1    3    3    0    0 -0.89243775858E+02  0.18714283488E+02  0.62560662361E+02  0.11058260447E+03  0.00000000000E+00 0.  1.
        -13    1    4    4    0    0  0.36344719614E+02 -0.11476982298E+02  0.86697366937E+02  0.94705296580E+02  0.00000000000E+00 0.  1.
         13    1    4    4    0    0  0.67215553306E+02 -0.18135171133E+03  0.17126967173E+03  0.25834022967E+03  0.00000000000E+00 0. -1.
          1    1    1    2  501    0  0.29002753486E+02  0.14480287935E+03  0.49983952122E+03  0.52119917551E+03  0.00000000000E+00 0. -1.
<scales pt_clust_5="13000.00000" pt_clust_6="13000.00000" pt_clust_7="13000.00000" pt_clust_8="13000.00000" pt_clust_9="147.67882"></scales>
<clustering>
<clus scale="   94.192">  5  6 -1 -1</clus>
<clus scale="  100.928">  7  8 -1 -1</clus>
<clus scale="  147.679">  1  9  2 -1</clus>
<clus scale="  177.894">  2  5  1 -1</clus>
<clus scale="  147.679">  1  5  2 -1</clus>
</clustering>
</event>
<event>
 9    1  0.1881049E-005  0.3024776E+03  0.7546771E-02  0.1084229E+00
         21   -1    0    0  501  502  0.00000000000E+00  0.00000000000E+00  0.52435656886E+03  0.52435656886E+03  0.00000000000E+00 0. -1.
         -1   -1    0    0    0  501 -0.00000000000E+00 -0.00000000000E+00 -0.26615358604E+03  0.26615358604E+03  0.00000000000E+00 0.  1.
         23    2    1    2    0    0  0.11264364872E+03  0.25704429048E+03  0.20513503179E+02  0.29605478700E+03  0.92017792982E+02 0.  0.
         23    2    1    2    0    0 -0.14762494428E+03 -0.25888034731E+03  0.63277653187E+02  0.31656060307E+03  0.85990671742E+02 0.  0.
        -11    1    4    4    0    0 -0.10322746936E+03 -0.12342138105E+03  0.75190388392E+00  0.16090156335E+03  0.00000000000E+00 0.  1.
         11    1    4    4    0    0 -0.44397474924E+02 -0.13545896626E+03  0.62525749303E+02  0.15565903972E+03  0.00000000000E+00 0. -1.
        -11    1    3    3    0    0  0.26249417963E+02  0.84330347095E+01 -0.13451900108E+02  0.30677379848E+02  0.00000000000E+00 0. -1.
         11    1    3    3    0    0  0.86394230752E+02  0.24861125577E+03  0.33965403287E+02  0.26537740715E+03  0.00000000000E+00 0.  1.
         -1    1    1    2    0  502  0.34981295567E+02  0.18360568303E+01  0.17441182645E+03  0.17789476482E+03  0.00000000000E+00 0.  1.
<scales pt_clust_5="13000.00000" pt_clust_6="13000.00000" pt_clust_7="13000.00000" pt_clust_8="13000.00000" pt_clust_9="35.02945"></scales>
<clustering>
<clus scale="   35.029">  1  9  2 -1</clus>
<clus scale="   85.991">  5  6 -1 -1</clus>
<clus scale="   92.018">  7  8 -1 -1</clus>
<clus scale="  300.699">  1  5  2 -1</clus>
<clus scale="   35.029">  1  5  2 -1</clus>
</clustering>
</event>
<event>
 9    1  0.1881049E-005  0.1851552E+03  0.7546771E-02  0.1163781E+00
          1   -1    0    0  502    0 -0.00000000000E+00  0.00000000000E+00  0.59742164192E+03  0.59742164192E+03  0.00000000000E+00 0. -1.
         21   -1    0    0  501  502  0.00000000000E+00 -0.00000000000E+00 -0.42516734852E+03  0.42516734852E+03  0.00000000000E+00 0. -1.
         23    2    1    2    0    0 -0.81164136586E+02  0.13902757084E+03  0.53052098549E+03  0.56171753439E+03  0.90320484239E+02 0.  0.
         23    2    1    2    0    0  0.22134260351E+02 -0.13056295589E+03 -0.92949197986E+02  0.18893479308E+03  0.97571469690E+02 0.  0.
        -11    1    4    4    0    0  0.60788400499E+02 -0.72191919333E+02 -0.50037959835E+02  0.10682087940E+03  0.00000000000E+00 0.  1.
         11    1    4    4    0    0 -0.38654140148E+02 -0.58371036552E+02 -0.42911238152E+02  0.82113913672E+02  0.00000000000E+00 0. -1.
        -13    1    3    3    0    0 -0.37809582470E+02  0.14874849893E+02  0.23176715203E+03  0.23530159041E+03  0.00000000000E+00 0. -1.
         13    1    3    3    0    0 -0.43354554116E+02  0.12415272095E+03  0.29875383346E+03  0.32641594398E+03  0.00000000000E+00 0.  1.
          1    1    1    2  501    0  0.59029876235E+02 -0.84646149555E+01 -0.26531749410E+03  0.27193666298E+03  0.00000000000E+00 0. -1.
<scales pt_clust_5="13000.00000" pt_clust_6="13000.00000" pt_clust_7="13000.00000" pt_clust_8="13000.00000" pt_clust_9="59.63368"></scales>
<clustering>
<clus scale="   59.634">  2  9  1 -1</clus>
<clus scale="   90.320">  7  8 -1 -1</clus>
<clus scale="   97.571">  5  6 -1 -1</clus>
<clus scale="  181.439">  1  7  2 -1</clus>
<clus scale="   59.634">  2  5  1 -1</clus>
</clustering>
</event>
<event>
 9    1  0.1881049E-005  0.1382152E+03  0.7546771E-02  0.1216058E+00
         21   -1    0    0  501  502  0.00000000000E+00  0.00000000000E+00  0.11175308700E+03  0.11175308700E+03  0.00000000000E+00 0. -1.
         -2   -1    0    0    0  501 -0.00000000000E+00 -0.00000000000E+00 -0.25113772409E+03  0.25113772409E+03  0.00000000000E+00 0.  1.
         23    2    1    2    0    0  0.98363073647E+02  0.23567251445E+02 -0.90438158471E+02  0.16346614069E+03  0.91166929574E+02 0.  0.
         23    2    1    2    0    0 -0.11167374206E+03  0.22047717739E+02 -0.44664767617E+02  0.15171479347E+03  0.89807074150E+02 0.  0.
        -13    1    3    3    0    0  0.36069685041E+02  0.49305921064E+02 -0.16214635106E+02  0.63206094821E+02  0.00000000000E+00 0.  1.
         13    1    3    3    0    0  0.62293388606E+02 -0.25738669619E+02 -0.74223523365E+02  0.10026004587E+03  0.00000000000E+00 0. -1.
        -13    1    4    4    0    0 -0.17547599249E+02 -0.25049499485E+02 -0.34298340937E+02  0.45954018919E+02  0.00000000000E+00 0.  1.
         13    1    4    4    0    0 -0.94126142815E+02  0.47097217224E+02 -0.10366426680E+02  0.10576077455E+03  0.00000000000E+00 0. -1.
         -2    1    1    2    0  502  0.13310668416E+02 -0.45614969184E+02 -0.42817109981E+01  0.47709876928E+02  0.00000000000E+00 0.  1.
<scales pt_clust_5="13000.00000" pt_clust_6="13000.00000" pt_clust_7="13000.00000" pt_clust_8="13000.00000" pt_clust_9="47.51736"></scales>
<clustering>
<clus scale="   47.517">  1  9  2 -1</clus>
<clus scale="   89.807">  7  8 -1 -1</clus>
<clus scale="   91.167">  5  6 -1 -1</clus>
<clus scale="  137.322">  1  7  2 -1</clus>
<clus scale="   47.517">  1  5  2 -1</clus>
</clustering>
</event>
<event>
 9    1  0.1881049E-005  0.1010071E+03  0.7546771E-02  0.1280115E+00
         21   -1    0    0  501  502  0.00000000000E+00  0.00000000000E+00  0.14581507141E+03  0.14581507141E+03  0.00000000000E+00 0.  1.
          1   -1    0    0  502    0 -0.00000000000E+00 -0.00000000000E+00 -0.27370180158E+03  0.27370180158E+03  0.00000000000E+00 0. -1.
         23    2    1    2    0    0  0.22468687085E+02  0.23575277051E+02 -0.19940082522E+03  0.22170141785E+03  0.91269896415E+02 0.  0.
         23    2    1    2    0    0 -0.62069282499E+02 -0.53784300214E+01  0.95114437336E+02  0.14825429540E+03  0.95137041025E+02 0.  0.
        -11    1    4    4    0    0 -0.48809763928E+02  0.19549549915E+02  0.38477380038E+01  0.52719854366E+02  0.00000000000E+00 0.  1.
         11    1    4    4    0    0 -0.13259518571E+02 -0.24927979937E+02  0.91266699332E+02  0.95534441033E+02  0.00000000000E+00 0. -1.
        -13    1    3    3    0    0  0.15517313779E+02  0.52155121339E+02 -0.17568293785E+03  0.18391693332E+03  0.00000000000E+00 0. -1.
         13    1    3    3    0    0  0.69513733061E+01 -0.28579844288E+02 -0.23717887373E+02  0.37784484538E+02  0.00000000000E+00 0.  1.
          1    1    1    2  501    0  0.39600595414E+02 -0.18196847029E+02 -0.23600342282E+02  0.49561159740E+02  0.00000000000E+00 0. -1.
<scales pt_clust_5="13000.00000" pt_clust_6="13000.00000" pt_clust_7="13000.00000" pt_clust_8="13000.00000" pt_clust_9="43.58135"></scales>
<clustering>
<clus scale="   43.581">  1  9  2 -1</clus>
<clus scale="   91.270">  7  8 -1 -1</clus>
<clus scale="   95.137">  5  6 -1 -1</clus>
<clus scale="   97.373">  2  7  1 -1</clus>
<clus scale="   43.581">  1  5  2 -1</clus>
</clustering>
</event>
<event>
 9    1  0.1881049E-005  0.1774845E+03  0.7546771E-02  0.1170402E+00
         21   -1    0    0  501  502  0.00000000000E+00  0.00000000000E+00  0.99029718126E+03  0.99029718126E+03  0.00000000000E+00 0. -1.
          2   -1    0    0  502    0 -0.00000000000E+00 -0.00000000000E+00 -0.54178258005E+02  0.54178258005E+02  0.00000000000E+00 0. -1.
         23    2    1    2    0    0 -0.29851741831E+01 -0.14051297188E+03  0.20151301459E+03  0.26354967312E+03  0.95384110956E+02 0.  0.
         23    2    1    2    0    0  0.57150596791E+02  0.16500593622E+03  0.47875630983E+03  0.51826093117E+03  0.94306091352E+02 0.  0.
        -11    1    3    3    0    0  0.20045189883E+02 -0.10344669522E+02  0.83005740327E+02  0.86016130768E+02  0.00000000000E+00 0.  1.
         11    1    3    3    0    0 -0.23030364066E+02 -0.13016830236E+03  0.11850727426E+03  0.17753354235E+03  0.00000000000E+00 0. -1.
        -13    1    4    4    0    0  0.57023370776E+02  0.69276940378E+02  0.14039516569E+03  0.16661861190E+03  0.00000000000E+00 0.  1.
         13    1    4    4    0    0  0.12722601504E+00  0.95728995846E+02  0.33836114415E+03  0.35164231927E+03  0.00000000000E+00 0. -1.
          2    1    1    2  501    0 -0.54165422608E+02 -0.24492964341E+02  0.25584959883E+03  0.26266483497E+03  0.00000000000E+00 0. -1.
<scales pt_clust_5="13000.00000" pt_clust_6="13000.00000" pt_clust_7="13000.00000" pt_clust_8="13000.00000" pt_clust_9="59.44576"></scales>
<clustering>
<clus scale="   59.446">  1  9  2 -1</clus>
<clus scale="   94.306">  7  8 -1 -1</clus>
<clus scale="   95.384">  5  6 -1 -1</clus>
<clus scale="  176.907">  1  7  2 -1</clus>
<clus scale="   59.446">  1  5  2 -1</clus>
</clustering>
</event>
<event>
 9    1  0.1881049E-005  0.3937110E+03  0.7546771E-02  0.1046088E+00
         21   -1    0    0  501  502  0.00000000000E+00  0.00000000000E+00  0.14819154283E+03  0.14819154283E+03  0.00000000000E+00 0. -1.
          1   -1    0    0  502    0 -0.00000000000E+00 -0.00000000000E+00 -0.14271157512E+04  0.14271157512E+04  0.00000000000E+00 0. -1.
         23    2    1    2    0    0 -0.34185959831E+03  0.21080916702E+03 -0.90015144170E+03  0.98950743723E+03  0.86855399873E+02 0.  0.
         23    2    1    2    0    0  0.27195835729E+03 -0.22460353831E+03 -0.35943736822E+03  0.51197353486E+03  0.92269069585E+02 0.  0.
        -11    1    3    3    0    0 -0.13288362804E+03  0.90000810653E+02 -0.26223879313E+03  0.30745306819E+03  0.00000000000E+00 0.  1.
         11    1    3    3    0    0 -0.20897597027E+03  0.12080835637E+03 -0.63791264857E+03  0.68205436904E+03  0.00000000000E+00 0. -1.
        -13    1    4    4    0    0  0.29222536497E+02  0.40385870935E+01 -0.43860871120E+02  0.52858706382E+02  0.00000000000E+00 0.  1.
         13    1    4    4    0    0  0.24273582080E+03 -0.22864212541E+03 -0.31557649710E+03  0.45911482848E+03  0.00000000000E+00 0. -1.
          1    1    1    2  501    0  0.69901241021E+02  0.13794371296E+02 -0.19335398433E+02  0.73826321921E+02  0.00000000000E+00 0. -1.
<scales pt_clust_5="13000.00000" pt_clust_6="13000.00000" pt_clust_7="13000.00000" pt_clust_8="13000.00000" pt_clust_9="71.24934"></scales>
<clustering>
<clus scale="   71.249">  1  9  2 -1</clus>
<clus scale="   86.855">  5  6 -1 -1</clus>
<clus scale="   92.269">  7  8 -1 -1</clus>
<clus scale="  392.478">  2  5  1 -1</clus>
<clus scale="   71.249">  1  5  2 -1</clus>
</clustering>
</event>
<event>
 9    1  0.1881049E-005  0.1248001E+03  0.7546771E-02  0.1235471E+00
         21   -1    0    0  501  502  0.00000000000E+00  0.00000000000E+00  0.17144138883E+03  0.17144138883E+03  0.00000000000E+00 0.  1.
         -3   -1    0    0    0  501 -0.00000000000E+00 -0.00000000000E+00 -0.20381074050E+03  0.20381074050E+03  0.00000000000E+00 0.  1.
         23    2    1    2    0    0  0.92186881862E+02 -0.65068180643E+02 -0.85503709428E+02  0.16833380595E+03  0.91066440472E+02 0.  0.
         23    2    1    2    0    0 -0.24044907180E+02  0.53836457724E+02 -0.15150580396E+02  0.10979822716E+03  0.91376084719E+02 0.  0.
        -11    1    3    3    0    0  0.55442349087E+02 -0.60009062935E+02 -0.99451184907E+02  0.12870695353E+03  0.00000000000E+00 0.  1.
         11    1    3    3    0    0  0.36744532775E+02 -0.50591177073E+01  0.13947475479E+02  0.39626852425E+02  0.00000000000E+00 0. -1.
        -13    1    4    4    0    0 -0.40736340049E+02 -0.63042030368E+01  0.10147879201E+02  0.42451994403E+02  0.00000000000E+00 0. -1.
         13    1    4    4    0    0  0.16691432869E+02  0.60140660760E+02 -0.25298459597E+02  0.67346232752E+02  0.00000000000E+00 0.  1.
         -3    1    1    2    0  502 -0.68141974682E+02  0.11231722919E+02  0.68284938151E+02  0.97120096229E+02  0.00000000000E+00 0.  1.
<scales pt_clust_5="13000.00000" pt_clust_6="13000.00000" pt_clust_7="13000.00000" pt_clust_8="13000.00000" pt_clust_9="69.06142"></scales>
<clustering>
<clus scale="   69.061">  1  9  2 -1</clus>
<clus scale="   91.066">  5  6 -1 -1</clus>
<clus scale="   91.376">  7  8 -1 -1</clus>
<clus scale="  124.574">  2  5  1 -1</clus>
<clus scale="   69.061">  1  5  2 -1</clus>
</clustering>
</event>
<event>
 9    1  0.1881049E-005  0.1500505E+03  0.7546771E-02  0.1201036E+00
         -3   -1    0    0    0  501 -0.00000000000E+00  0.00000000000E+00  0.22718873103E+03  0.22718873103E+03  0.00000000000E+00 0.  1.
         21   -1    0    0  501  502  0.00000000000E+00 -0.00000000000E+00 -0.13926721472E+03  0.13926721472E+03  0.00000000000E+00 0. -1.
         23    2    1    2    0    0  0.83186721540E+02 -0.10773033408E+03  0.82868076007E+02  0.18309906100E+03  0.90179224862E+02 0.  0.
         23    2    1    2    0    0 -0.75217986521E+02  0.59588805554E+02  0.99093175430E+01  0.13431927622E+03  0.93460698412E+02 0.  0.
        -13    1    3    3    0    0  0.38009257361E+02 -0.11162984683E+03  0.60453349495E+02  0.13251616435E+03  0.00000000000E+00 0. -1.
         13    1    3    3    0    0  0.45177464179E+02  0.38995127484E+01  0.22414726511E+02  0.50582896654E+02  0.00000000000E+00 0.  1.
        -13    1    4    4    0    0 -0.15834968682E+02  0.49139488020E+02  0.41509017751E+02  0.66245256967E+02  0.00000000000E+00 0.  1.
         13    1    4    4    0    0 -0.59383017839E+02  0.10449317534E+02 -0.31599700208E+02  0.68074019257E+02  0.00000000000E+00 0. -1.
         -3    1    1    2    0  502 -0.79687350190E+01  0.48141528525E+02 -0.48558772343E+01  0.49037608529E+02  0.00000000000E+00 0.  1.
<scales pt_clust_5="13000.00000" pt_clust_6="13000.00000" pt_clust_7="13000.00000" pt_clust_8="13000.00000" pt_clust_9="48.79659"></scales>
<clustering>
<clus scale="   48.797">  2  9  1 -1</clus>
<clus scale="   90.179">  5  6 -1 -1</clus>
<clus scale="   93.461">  7  8 -1 -1</clus>
<clus scale="  148.029">  1  5  2 -1</clus>
<clus scale="   48.797">  2  5  1 -1</clus>
</clustering>
</event>
<event>
 9    1  0.1881049E-005  0.9642633E+02  0.7546771E-02  0.1289460E+00
          1   -1    0    0  502    0 -0.00000000000E+00  0.00000000000E+00  0.43803211329E+03  0.43803211329E+03  0.00000000000E+00 0. -1.
         21   -1    0    0  501  502  0.00000000000E+00 -0.00000000000E+00 -0.45199099276E+02  0.45199099276E+02  0.00000000000E+00 0.  1.
         23    2    1    2    0    0 -0.13445491963E+02 -0.17627886652E+02  0.29476845439E+03  0.30894856049E+03  0.89828991347E+02 0.  0.
         23    2    1    2    0    0  0.32236269621E+02  0.25841635133E+02  0.11078050112E+03  0.15015270890E+03  0.92555655560E+02 0.  0.
        -11    1    3    3    0    0 -0.31293600947E+02 -0.47743358079E+02  0.16790661649E+03  0.17734528345E+03  0.00000000000E+00 0.  1.
         11    1    3    3    0    0  0.17848108984E+02  0.30115471427E+02  0.12686183790E+03  0.13160327704E+03  0.00000000000E+00 0. -1.
        -13    1    4    4    0    0  0.54121762270E+01 -0.24870668350E+02  0.61057755622E-01  0.25452809742E+02  0.00000000000E+00 0.  1.
         13    1    4    4    0    0  0.26824093394E+02  0.50712303483E+02  0.11071944337E+03  0.12469989916E+03  0.00000000000E+00 0. -1.
          1    1    1    2  501    0 -0.18790777658E+02 -0.82137484806E+01 -0.12715941500E+02  0.24129943169E+02  0.00000000000E+00 0. -1.
<scales pt_clust_5="13000.00000" pt_clust_6="13000.00000" pt_clust_7="13000.00000" pt_clust_8="13000.00000" pt_clust_9="20.50753"></scales>
<clustering>
<clus scale="   20.508">  2  9  1 -1</clus>
<clus scale="   89.829">  5  6 -1 -1</clus>
<clus scale="   92.556">  7  8 -1 -1</clus>
<clus scale="   93.812">  1  5  2 -1</clus>
<clus scale="   20.508">  2  5  1 -1</clus>
</clustering>
</event>
<event>
 9    1  0.1881049E-005  0.4573649E+03  0.7546771E-02  0.1025579E+00
         21   -1    0    0  501  502  0.00000000000E+00  0.00000000000E+00  0.18861629950E+03  0.18861629950E+03  0.00000000000E+00 0. -1.
          3   -1    0    0  502    0 -0.00000000000E+00 -0.00000000000E+00 -0.13065194448E+04  0.13065194448E+04  0.00000000000E+00 0. -1.
         23    2    1    2    0    0  0.36430993456E+02  0.46401188149E+03 -0.77463198846E+03  0.90842752799E+03  0.92474929654E+02 0.  0.
         23    2    1    2    0    0 -0.24998342491E+02 -0.41844216128E+03 -0.30852106430E+03  0.52827129445E+03  0.90368987791E+02 0.  0.
        -11    1    4    4    0    0 -0.25533409407E+02 -0.82693946285E+02 -0.28625777785E+02  0.91157440189E+02  0.00000000000E+00 0.  1.
         11    1    4    4    0    0  0.53506691541E+00 -0.33574821499E+03 -0.27989528652E+03  0.43711385426E+03  0.00000000000E+00 0. -1.
        -11    1    3    3    0    0  0.13312443045E+02  0.40945896560E+03 -0.62298219195E+03  0.74561429516E+03  0.00000000000E+00 0. -1.
         11    1    3    3    0    0  0.23118550411E+02  0.54552915894E+02 -0.15164979651E+03  0.16281323283E+03  0.00000000000E+00 0.  1.
          3    1    1    2  501    0 -0.11432650965E+02 -0.45569720216E+02 -0.34750092581E+02  0.58436921916E+02  0.00000000000E+00 0. -1.
<scales pt_clust_5="13000.00000" pt_clust_6="13000.00000" pt_clust_7="13000.00000" pt_clust_8="13000.00000" pt_clust_9="46.98196"></scales>
<clustering>
<clus scale="   46.982">  1  9  2 -1</clus>
<clus scale="   90.369">  5  6 -1 -1</clus>
<clus scale="   92.475">  7  8 -1 -1</clus>
<clus scale="  456.944">  1  5  2 -1</clus>
<clus scale="   46.982">  1  5  2 -1</clus>
</clustering>
</event>
<event>
 9    1  0.1881049E-005  0.1598484E+03  0.7546771E-02  0.1212675E+00
         21   -1    0    0  501  502  0.00000000000E+00  0.00000000000E+00  0.24068304194E+03  0.24068304194E+03  0.00000000000E+00 0. -1.
          3   -1    0    0  502    0 -0.00000000000E+00 -0.00000000000E+00 -0.48744293219E+03  0.48744293219E+03  0.00000000000E+00 0. -1.
         23    2    1    2    0    0 -0.51480404206E+02  0.21892227887E+00  0.10842893583E+03  0.14440475964E+03  0.80284622053E+02 0.  0.
         23    2    1    2    0    0 -0.26866299581E+02 -0.11164693822E+03 -0.41159661306E+03  0.43628903631E+03  0.88031326538E+02 0.  0.
        -13    1    3    3    0    0 -0.35070565414E+02 -0.36360432937E+02  0.82243038111E+02  0.96519132609E+02  0.00000000000E+00 0. -1.
         13    1    3    3    0    0 -0.16409838792E+02  0.36579355215E+02  0.26185897721E+02  0.47885627036E+02  0.00000000000E+00 0.  1.
        -13    1    4    4    0    0  0.78014403406E+01 -0.10589854946E+03 -0.34525347778E+03  0.36121368906E+03  0.00000000000E+00 0. -1.
         13    1    4    4    0    0 -0.34667739922E+02 -0.57483887579E+01 -0.66343135287E+02  0.75075347247E+02  0.00000000000E+00 0.  1.
          3    1    1    2  501    0  0.78346703787E+02  0.11142801594E+03  0.56407786982E+02  0.14743217818E+03  0.00000000000E+00 0. -1.
<scales pt_clust_5="13000.00000" pt_clust_6="13000.00000" pt_clust_7="13000.00000" pt_clust_8="13000.00000" pt_clust_9="133.42418"></scales>
<clustering>
<clus scale="   80.285">  5  6 -1 -1</clus>
<clus scale="   88.031">  7  8 -1 -1</clus>
<clus scale="   95.372">  2  5  1 -1</clus>
<clus scale="  133.424">  1  9  2 -1</clus>
<clus scale="  133.424">  1  5  2 -1</clus>
</clustering>
</event>
<event>
 9    1  0.1881049E-005  0.1049660E+03  0.7546771E-02  0.1272441E+00
          3   -1    0    0  502    0 -0.00000000000E+00  0.00000000000E+00  0.27240773848E+03  0.27240773848E+03  0.00000000000E+00 0. -1.
         21   -1    0    0  501  502  0.00000000000E+00 -0.00000000000E+00 -0.50957541614E+02  0.50957541614E+02  0.00000000000E+00 0.  1.
         23    2    1    2    0    0 -0.12458640081E+01  0.42990194963E+02  0.11891441661E+03  0.15609793014E+03  0.91521671082E+02 0.  0.
         23    2    1    2    0    0 -0.22777707000E+02 -0.37220958475E+02  0.92668116754E+02  0.14066308645E+03  0.96407988986E+02 0.  0.
        -11    1    4    4    0    0  0.20663759894E+02  0.17797853240E+02  0.54262845888E+02  0.60730642980E+02  0.00000000000E+00 0. -1.
         11    1    4    4    0    0 -0.43441466894E+02 -0.55018811715E+02  0.38405270866E+02  0.79932443468E+02  0.00000000000E+00 0.  1.
        -11    1    3    3    0    0  0.29951670672E+02 -0.44308581626E+01  0.77095488527E+01  0.31243754954E+02  0.00000000000E+00 0.  1.
         11    1    3    3    0    0 -0.31197534680E+02  0.47421053125E+02  0.11120486776E+03  0.12485417519E+03  0.00000000000E+00 0. -1.
          3    1    1    2  501    0  0.24023571008E+02 -0.57692364871E+01  0.98676635068E+01  0.26604263506E+02  0.00000000000E+00 0. -1.
<scales pt_clust_5="13000.00000" pt_clust_6="13000.00000" pt_clust_7="13000.00000" pt_clust_8="13000.00000" pt_clust_9="24.70660"></scales>
<clustering>
<clus scale="   24.707">  2  9  1 -1</clus>
<clus scale="   91.522">  7  8 -1 -1</clus>
<clus scale="   96.408">  5  6 -1 -1</clus>
<clus scale="  100.497">  1  7  2 -1</clus>
<clus scale="   24.707">  2  5  1 -1</clus>
</clustering>
</event>
<event>
 9    1  0.1881049E-005  0.9640524E+02  0.7546771E-02  0.1289090E+00
         21   -1    0    0  501  502  0.00000000000E+00  0.00000000000E+00  0.63590446963E+02  0.63590446963E+02  0.00000000000E+00 0.  1.
          2   -1    0    0  502    0 -0.00000000000E+00 -0.00000000000E+00 -0.48410365132E+03  0.48410365132E+03  0.00000000000E+00 0. -1.
         23    2    1    2    0    0 -0.17338267578E+02  0.27435435897E+01 -0.27284935798E+03  0.28876673855E+03  0.92904868485E+02 0.  0.
         23    2    1    2    0    0  0.33705068414E+02 -0.20987687914E+02 -0.18750596551E+03  0.21215006366E+03  0.90954096809E+02 0.  0.
        -13    1    4    4    0    0  0.39071428703E+02  0.29135827537E+02 -0.96794690896E+02  0.10837289870E+03  0.00000000000E+00 0. -1.
         13    1    4    4    0    0 -0.53663602888E+01 -0.50123515451E+02 -0.90711274615E+02  0.10377716495E+03  0.00000000000E+00 0.  1.
        -13    1    3    3    0    0 -0.50347231457E+02  0.61476558068E+01 -0.22427856351E+03  0.22994240896E+03  0.00000000000E+00 0. -1.
         13    1    3    3    0    0  0.33008963879E+02 -0.34041122171E+01 -0.48570794469E+02  0.58824329590E+02  0.00000000000E+00 0.  1.
          2    1    1    2  501    0 -0.16366800836E+02  0.18244144324E+02  0.39842119132E+02  0.46777296081E+02  0.00000000000E+00 0. -1.
<scales pt_clust_5="13000.00000" pt_clust_6="13000.00000" pt_clust_7="13000.00000" pt_clust_8="13000.00000" pt_clust_9="24.50961"></scales>
<clustering>
<clus scale="   24.510">  1  9  2 -1</clus>
<clus scale="   90.954">  5  6 -1 -1</clus>
<clus scale="   92.905">  7  8 -1 -1</clus>
<clus scale="   94.527">  1  5  2 -1</clus>
<clus scale="   24.510">  1  5  2 -1</clus>
</clustering>
</event>
<event>
 9    1  0.1881049E-005  0.1034770E+03  0.7546771E-02  0.1274057E+00
          1   -1    0    0  502    0 -0.00000000000E+00  0.00000000000E+00  0.61685305129E+03  0.61685305129E+03  0.00000000000E+00 0. -1.
         21   -1    0    0  501  502  0.00000000000E+00 -0.00000000000E+00 -0.51129533009E+02  0.51129533009E+02  0.00000000000E+00 0.  1.
         23    2    1    2    0    0 -0.43705281291E+02 -0.96608653766E+01  0.48273594029E+03  0.49362897893E+03  0.92909078446E+02 0.  0.
         23    2    1    2    0    0  0.38594763714E+02  0.43294629487E+02  0.88982747015E+02  0.13980958230E+03  0.90910996625E+02 0.  0.
        -11    1    4    4    0    0 -0.24900403936E+02  0.47371162198E+01  0.20042490869E+01  0.25426116508E+02  0.00000000000E+00 0. -1.
         11    1    4    4    0    0  0.63495167650E+02  0.38557513267E+02  0.86978497928E+02  0.11438346579E+03  0.00000000000E+00 0.  1.
        -13    1    3    3    0    0 -0.96820155187E+01 -0.49638579111E+02  0.22851044082E+03  0.23404006393E+03  0.00000000000E+00 0. -1.
         13    1    3    3    0    0 -0.34023265772E+02  0.39977713734E+02  0.25422549947E+03  0.25958891500E+03  0.00000000000E+00 0.  1.
          1    1    1    2  501    0  0.51105175765E+01 -0.33633764110E+02 -0.59951690273E+01  0.34544023069E+02  0.00000000000E+00 0. -1.
<scales pt_clust_5="13000.00000" pt_clust_6="13000.00000" pt_clust_7="13000.00000" pt_clust_8="13000.00000" pt_clust_9="34.01981"></scales>
<clustering>
<clus scale="   34.020">  2  9  1 -1</clus>
<clus scale="   90.911">  5  6 -1 -1</clus>
<clus scale="   92.909">  7  8 -1 -1</clus>
<clus scale="  101.687">  2  5  1 -1</clus>
<clus scale="   34.020">  2  5  1 -1</clus>
</clustering>
</event>
<event>
 9    1  0.1881049E-005  0.1196266E+03  0.7546771E-02  0.1243726E+00
         -1   -1    0    0    0  501 -0.00000000000E+00  0.00000000000E+00  0.68852783080E+02  0.68852783080E+02  0.00000000000E+00 0.  1.
         21   -1    0    0  501  502  0.00000000000E+00 -0.00000000000E+00 -0.26653413139E+03  0.26653413139E+03  0.00000000000E+00 0. -1.
         23    2    1    2    0    0 -0.68583901077E+02 -0.61987275639E+01 -0.67865612952E+02  0.13141453788E+03  0.89004851742E+02 0.  0.
         23    2    1    2    0    0  0.93363718276E+02  0.10134049441E+02 -0.92599721398E+02  0.15908855107E+03  0.88966149909E+02 0.  0.
        -13    1    3    3    0    0 -0.41624583478E+02 -0.16239376250E+02  0.12217828803E+02  0.46320606983E+02  0.00000000000E+00 0.  1.
         13    1    3    3    0    0 -0.26959317599E+02  0.10040648686E+02 -0.80083441755E+02  0.85093930893E+02  0.00000000000E+00 0. -1.
        -13    1    4    4    0    0  0.30136130581E+02  0.34711404413E+02 -0.21386172716E+01  0.46017840525E+02  0.00000000000E+00 0. -1.
         13    1    4    4    0    0  0.63227587694E+02 -0.24577354971E+02 -0.90461104126E+02  0.11307071054E+03  0.00000000000E+00 0.  1.
         -1    1    1    2    0  502 -0.24779817199E+02 -0.39353218776E+01 -0.37216013956E+02  0.44883825522E+02  0.00000000000E+00 0.  1.
<scales pt_clust_5="13000.00000" pt_clust_6="13000.00000" pt_clust_7="13000.00000" pt_clust_8="13000.00000" pt_clust_9="25.09036"></scales>
<clustering>
<clus scale="   25.090">  2  9  1 -1</clus>
<clus scale="   88.966">  7  8 -1 -1</clus>
<clus scale="   89.005">  5  6 -1 -1</clus>
<clus scale="  119.598">  2  7  1 -1</clus>
<clus scale="   25.090">  2  5  1 -1</clus>
</clustering>
</event>
<event>
 9    1  0.1881049E-005  0.9832451E+02  0.7546771E-02  0.1286847E+00
          2   -1    0    0  502    0 -0.00000000000E+00  0.00000000000E+00  0.30692015356E+03  0.30692015356E+03  0.00000000000E+00 0. -1.
         21   -1    0    0  501  502  0.00000000000E+00 -0.00000000000E+00 -0.45990275605E+02  0.45990275605E+02  0.00000000000E+00 0.  1.
         23    2    1    2    0    0  0.17195485440E+02 -0.12523213268E+02  0.18678608593E+03  0.20873757411E+03  0.90718340804E+02 0.  0.
         23    2    1    2    0    0 -0.24068475728E+02 -0.91965186845E+01  0.67866623646E+02  0.12054262877E+03  0.96232942724E+02 0.  0.
        -11    1    4    4    0    0 -0.29561649139E+01  0.42997040168E+02  0.25458846767E+02  0.50056340786E+02  0.00000000000E+00 0.  1.
         11    1    4    4    0    0 -0.21112310814E+02 -0.52193558852E+02  0.42407776879E+02  0.70486287982E+02  0.00000000000E+00 0. -1.
        -11    1    3    3    0    0  0.44897219918E+02 -0.41563176821E+01  0.43828647895E+02  0.62880726056E+02  0.00000000000E+00 0.  1.
         11    1    3    3    0    0 -0.27701734478E+02 -0.83668955863E+01  0.14295743803E+03  0.14585684805E+03  0.00000000000E+00 0. -1.
          2    1    1    2  501    0  0.68729902882E+01  0.21719731953E+02  0.62771683810E+01  0.23630226289E+02  0.00000000000E+00 0. -1.
<scales pt_clust_5="13000.00000" pt_clust_6="13000.00000" pt_clust_7="13000.00000" pt_clust_8="13000.00000" pt_clust_9="22.78124"></scales>
<clustering>
<clus scale="   22.781">  2  9  1 -1</clus>
<clus scale="   90.718">  7  8 -1 -1</clus>
<clus scale="   92.934">  1  7  2 -1</clus>
<clus scale="   96.233">  5  6 -1 -1</clus>
<clus scale="   22.781">  2  5  1 -1</clus>
</clustering>
</event>
<event>
 9    1  0.1881049E-005  0.9282612E+02  0.7546771E-02  0.1296705E+00
          1   -1    0    0  502    0 -0.00000000000E+00  0.00000000000E+00  0.61290639225E+03  0.61290639225E+03  0.00000000000E+00 0. -1.
         21   -1    0    0  501  502  0.00000000000E+00 -0.00000000000E+00 -0.35557840423E+02  0.35557840423E+02  0.00000000000E+00 0.  1.
         23    2    1    2    0    0 -0.14508119963E+02  0.67916232563E+01  0.47289740484E+03  0.48173556925E+03  0.90446622347E+02 0.  0.
         23    2    1    2    0    0  0.23107427995E+02  0.21686817936E+02  0.94800538370E+02  0.13545400981E+03  0.91413212382E+02 0.  0.
        -11    1    3    3    0    0 -0.26592428252E+02  0.44327161137E+02  0.29778087288E+03  0.30223418521E+03  0.00000000000E+00 0.  1.
         11    1    3    3    0    0  0.12084308289E+02 -0.37535537881E+02  0.17511653196E+03  0.17950138405E+03  0.00000000000E+00 0. -1.
        -11    1    4    4    0    0  0.22150404260E+02 -0.17124850961E+02  0.92408543498E+02  0.96556925390E+02  0.00000000000E+00 0. -1.
         11    1    4    4    0    0  0.95702373478E+00  0.38811668897E+02  0.23919948718E+01  0.38897084421E+02  0.00000000000E+00 0.  1.
          1    1    1    2  501    0 -0.85993080319E+01 -0.28478441193E+02  0.96506086196E+01  0.31274653605E+02  0.00000000000E+00 0. -1.
<scales pt_clust_5="13000.00000" pt_clust_6="13000.00000" pt_clust_7="13000.00000" pt_clust_8="13000.00000" pt_clust_9="29.74844"></scales>
<clustering>
<clus scale="   29.748">  2  9  1 -1</clus>
<clus scale="   90.447">  5  6 -1 -1</clus>
<clus scale="   91.413">  7  8 -1 -1</clus>
<clus scale="   91.874">  1  5  2 -1</clus>
<clus scale="   29.748">  2  5  1 -1</clus>
</clustering>
</event>
<event>
 9    1  0.1881049E-005  0.1016300E+03  0.7546771E-02  0.1282065E+00
         21   -1    0    0  501  502  0.00000000000E+00  0.00000000000E+00  0.12662834302E+03  0.12662834302E+03  0.00000000000E+00 0. -1.
         -3   -1    0    0    0  501 -0.00000000000E+00 -0.00000000000E+00 -0.17601063600E+03  0.17601063600E+03  0.00000000000E+00 0.  1.
         23    2    1    2    0    0  0.12055194166E+02 -0.11392297156E+02 -0.11985127774E+03  0.15150637800E+03  0.91185205261E+02 0.  0.
         23    2    1    2    0    0 -0.53552215418E+01 -0.10296465337E+02  0.31846641830E+02  0.10633329940E+03  0.10078624098E+03 0.  0.
        -13    1    4    4    0    0  0.47304042349E+02 -0.10363706886E+02  0.19775188848E+02  0.52308096285E+02  0.00000000000E+00 0.  1.
         13    1    4    4    0    0 -0.52659263891E+02  0.67241548445E-01  0.12071452982E+02  0.54025203119E+02  0.00000000000E+00 0. -1.
        -13    1    3    3    0    0 -0.13497526864E+01 -0.31292792359E+02 -0.12334443453E+03  0.12725922448E+03  0.00000000000E+00 0.  1.
         13    1    3    3    0    0  0.13404946852E+02  0.19900495203E+02  0.34931567917E+01  0.24247153520E+02  0.00000000000E+00 0. -1.
         -3    1    1    2    0  502 -0.66999726237E+01  0.21688762493E+02  0.38622342929E+02  0.44799301612E+02  0.00000000000E+00 0.  1.
<scales pt_clust_5="13000.00000" pt_clust_6="13000.00000" pt_clust_7="13000.00000" pt_clust_8="13000.00000" pt_clust_9="22.70005"></scales>
<clustering>
<clus scale="   22.700">  1  9  2 -1</clus>
<clus scale="   91.185">  7  8 -1 -1</clus>
<clus scale="   92.117">  2  7  1 -1</clus>
<clus scale="  100.786">  5  6 -1 -1</clus>
<clus scale="   22.700">  1  5  2 -1</clus>
</clustering>
</event>
<event>
 9    1  0.1881049E-005  0.1175308E+03  0.7546771E-02  0.1248046E+00
          1   -1    0    0  502    0 -0.00000000000E+00  0.00000000000E+00  0.24991369047E+03  0.24991369047E+03  0.00000000000E+00 0. -1.
         21   -1    0    0  501  502  0.00000000000E+00 -0.00000000000E+00 -0.91905710869E+02  0.91905710869E+02  0.00000000000E+00 0. -1.
         23    2    1    2    0    0  0.78184754133E+02 -0.28367733158E+02  0.13562651990E+03  0.18328586067E+03  0.91003130482E+02 0.  0.
         23    2    1    2    0    0 -0.52001393295E+02  0.35301233298E+02  0.50288885909E+02  0.11964310166E+03  0.88516539427E+02 0.  0.
        -13    1    4    4    0    0 -0.49074814241E+02 -0.76688524613E+01 -0.45893640996E+01  0.49881970226E+02  0.00000000000E+00 0.  1.
         13    1    4    4    0    0 -0.29265790549E+01  0.42970085759E+02  0.54878250009E+02  0.69761131435E+02  0.00000000000E+00 0. -1.
        -13    1    3    3    0    0  0.50150091343E+02  0.26884623344E+02  0.40819432182E+02  0.70028856036E+02  0.00000000000E+00 0. -1.
         13    1    3    3    0    0  0.28034662790E+02 -0.55252356502E+02  0.94807087720E+02  0.11325700463E+03  0.00000000000E+00 0.  1.
          1    1    1    2  501    0 -0.26183360837E+02 -0.69335001395E+01 -0.27907426207E+02  0.38890439011E+02  0.00000000000E+00 0. -1.
<scales pt_clust_5="13000.00000" pt_clust_6="13000.00000" pt_clust_7="13000.00000" pt_clust_8="13000.00000" pt_clust_9="27.08582"></scales>
<clustering>
<clus scale="   27.086">  2  9  1 -1</clus>
<clus scale="   88.517">  5  6 -1 -1</clus>
<clus scale="   91.003">  7  8 -1 -1</clus>
<clus scale="  115.616">  2  5  1 -1</clus>
<clus scale="   27.086">  2  5  1 -1</clus>
</clustering>
</event>
<event>
 9    1  0.1881049E-005  0.1181199E+03  0.7546771E-02  0.1246285E+00
         21   -1    0    0  501  502  0.00000000000E+00  0.00000000000E+00  0.17276136679E+03  0.17276136679E+03  0.00000000000E+00 0.  1.
          3   -1    0    0  502    0 -0.00000000000E+00 -0.00000000000E+00 -0.10768539789E+03  0.10768539789E+03  0.00000000000E+00 0. -1.
         23    2    1    2    0    0 -0.28148898810E+02  0.58925298068E+02  0.86214521932E+01  0.11154607621E+03  0.90020255623E+02 0.  0.
         23    2    1    2    0    0  0.32017403177E+02 -0.88036996064E+02  0.45145065226E+02  0.13743070311E+03  0.89852626341E+02 0.  0.
        -11    1    3    3    0    0 -0.33268552034E+02  0.33685808130E+01 -0.28993784039E+02  0.44258145058E+02  0.00000000000E+00 0. -1.
         11    1    3    3    0    0  0.51196532236E+01  0.55556717255E+02  0.37615236232E+02  0.67287931148E+02  0.00000000000E+00 0.  1.
        -13    1    4    4    0    0  0.36220458140E+02 -0.91593682483E+00  0.33661505661E+02  0.49455611325E+02  0.00000000000E+00 0.  1.
         13    1    4    4    0    0 -0.42030549631E+01 -0.87121059240E+02  0.11483559565E+02  0.87975091784E+02  0.00000000000E+00 0. -1.
          3    1    1    2  501    0 -0.38685043667E+01  0.29111697996E+02  0.11309451473E+02  0.31469985365E+02  0.00000000000E+00 0. -1.
<scales pt_clust_5="13000.00000" pt_clust_6="13000.00000" pt_clust_7="13000.00000" pt_clust_8="13000.00000" pt_clust_9="29.36761"></scales>
<clustering>
<clus scale="   29.368">  1  9  2 -1</clus>
<clus scale="   89.853">  7  8 -1 -1</clus>
<clus scale="   90.020">  5  6 -1 -1</clus>
<clus scale="  117.992">  1  7  2 -1</clus>
<clus scale="   29.368">  1  5  2 -1</clus>
</clustering>
</event>
<event>
 9    1  0.1881049E-005  0.1213064E+03  0.7546771E-02  0.1242916E+00
          1   -1    0    0  502    0 -0.00000000000E+00  0.00000000000E+00  0.58718761259E+03  0.58718761259E+03  0.00000000000E+00 0. -1.
         21   -1    0    0  501  502  0.00000000000E+00 -0.00000000000E+00 -0.10795595611E+03  0.10795595611E+03  0.00000000000E+00 0.  1.
         23    2    1    2    0    0  0.74731101981E+01  0.94993908330E+02  0.44615486206E+03  0.46418549570E+03  0.85640664874E+02 0.  0.
         23    2    1    2    0    0  0.56702116022E+02 -0.22736373950E+02  0.66283931635E+02  0.12877037855E+03  0.91957480051E+02 0.  0.
        -13    1    3    3    0    0 -0.36112975940E+02  0.56550776049E+02  0.18936306086E+03  0.20089924370E+03  0.00000000000E+00 0.  1.
         13    1    3    3    0    0  0.43586086139E+02  0.38443132281E+02  0.25679180121E+03  0.26328625200E+03  0.00000000000E+00 0. -1.
        -13    1    4    4    0    0  0.15420106469E+02 -0.25151357104E+02 -0.18231327361E+02  0.34680711427E+02  0.00000000000E+00 0.  1.
         13    1    4    4    0    0  0.41282009553E+02  0.24149831543E+01  0.84515258996E+02  0.94089667125E+02  0.00000000000E+00 0. -1.
          1    1    1    2  501    0 -0.64175226221E+02 -0.72257534380E+02 -0.33207137217E+02  0.10218769445E+03  0.00000000000E+00 0. -1.
<scales pt_clust_5="13000.00000" pt_clust_6="13000.00000" pt_clust_7="13000.00000" pt_clust_8="13000.00000" pt_clust_9="96.64166"></scales>
<clustering>
<clus scale="   85.641">  5  6 -1 -1</clus>
<clus scale="   91.957">  7  8 -1 -1</clus>
<clus scale="   96.642">  2  9  1 -1</clus>
<clus scale="  116.591">  1  5  2 -1</clus>
<clus scale="   96.642">  2  5  1 -1</clus>
</clustering>
</event>
<event>
 9    1  0.1881049E-005  0.9299403E+02  0.7546771E-02  0.1296505E+00
         -4   -1    0    0    0  501 -0.00000000000E+00  0.00000000000E+00  0.14106632506E+03  0.14106632506E+03  0.00000000000E+00 0.  1.
         21   -1    0    0  501  502  0.00000000000E+00 -0.00000000000E+00 -0.10780098729E+03  0.10780098729E+03  0.00000000000E+00 0. -1.
         23    2    1    2    0    0  0.18457308195E+02 -0.98169840428E+01  0.75337275818E+02  0.12050151191E+03  0.91694404640E+02 0.  0.
         23    2    1    2    0    0 -0.69805000314E+01 -0.12621971018E+02 -0.17563642493E+02  0.93210710041E+02  0.90397529810E+02 0.  0.
        -13    1    3    3    0    0  0.33615741828E+02 -0.30547823049E+02  0.82203314143E+02  0.93917902701E+02  0.00000000000E+00 0. -1.
         13    1    3    3    0    0 -0.15158433633E+02  0.20730839006E+02 -0.68660383243E+01  0.26583609205E+02  0.00000000000E+00 0.  1.
        -13    1    4    4    0    0 -0.61275543553E+01 -0.43937905514E+02  0.16128947329E+02  0.47204124876E+02  0.00000000000E+00 0.  1.
         13    1    4    4    0    0 -0.85294567603E+00  0.31315934496E+02 -0.33692589822E+02  0.46006585166E+02  0.00000000000E+00 0. -1.
         -4    1    1    2    0  502 -0.11476808164E+02  0.22438955061E+02 -0.24508295564E+02  0.35155090404E+02  0.00000000000E+00 0.  1.
<scales pt_clust_5="13000.00000" pt_clust_6="13000.00000" pt_clust_7="13000.00000" pt_clust_8="13000.00000" pt_clust_9="25.20365"></scales>
<clustering>
<clus scale="   25.204">  2  9  1 -1</clus>
<clus scale="   90.398">  7  8 -1 -1</clus>
<clus scale="   91.694">  5  6 -1 -1</clus>
<clus scale="   91.716">  2  7  1 -1</clus>
<clus scale="   25.204">  2  5  1 -1</clus>
</clustering>
</event>
<event>
 9    1  0.1881049E-005  0.1652239E+03  0.7546771E-02  0.1190265E+00
          1   -1    0    0  502    0 -0.00000000000E+00  0.00000000000E+00  0.80223445236E+03  0.80223445236E+03  0.00000000000E+00 0. -1.
         21   -1    0    0  501  502  0.00000000000E+00 -0.00000000000E+00 -0.10949801022E+03  0.10949801022E+03  0.00000000000E+00 0. -1.
         23    2    1    2    0    0 -0.85556345402E+02 -0.89580189075E+02  0.56649037070E+03  0.58720693429E+03  0.92499432813E+02 0.  0.
         23    2    1    2    0    0 -0.40958905752E+02  0.81079053093E+02  0.12100735243E+03  0.19761681202E+03  0.12711483091E+03 0.  0.
        -11    1    3    3    0    0 -0.10511065813E+03 -0.82895722526E+02  0.49646708444E+03  0.51419793582E+03  0.00000000000E+00 0. -1.
         11    1    3    3    0    0  0.19554312733E+02 -0.66844665495E+01  0.70023286255E+02  0.73008998469E+02  0.00000000000E+00 0.  1.
        -11    1    4    4    0    0 -0.17051715946E+02 -0.32883222217E+02  0.14396238184E+02  0.39740646622E+02  0.00000000000E+00 0.  1.
         11    1    4    4    0    0 -0.23907189806E+02  0.11396227531E+03  0.10661111425E+03  0.15787616540E+03  0.00000000000E+00 0. -1.
          1    1    1    2  501    0  0.12651525115E+03  0.85011359822E+01  0.52387190080E+01  0.12690871627E+03  0.00000000000E+00 0. -1.
<scales pt_clust_5="13000.00000" pt_clust_6="13000.00000" pt_clust_7="13000.00000" pt_clust_8="13000.00000" pt_clust_9="126.80054"></scales>
<clustering>
<clus scale="   92.499">  5  6 -1 -1</clus>
<clus scale="  126.801">  2  9  1 -1</clus>
<clus scale="  127.115">  7  8 -1 -1</clus>
<clus scale="  140.346">  1  5  2 -1</clus>
<clus scale="  126.801">  2  5  1 -1</clus>
</clustering>
</event>
<event>
 9    1  0.1881049E-005  0.1030440E+03  0.7546771E-02  0.1275554E+00
         21   -1    0    0  501  502  0.00000000000E+00  0.00000000000E+00  0.41850904710E+02  0.41850904710E+02  0.00000000000E+00 0.  1.
          3   -1    0    0  502    0 -0.00000000000E+00 -0.00000000000E+00 -0.64811156440E+03  0.64811156440E+03  0.00000000000E+00 0. -1.
         23    2    1    2    0    0 -0.37370435989E+02 -0.14386035469E+02 -0.42012472469E+03  0.43158457940E+03  0.90315875554E+02 0.  0.
         23    2    1    2    0    0  0.86880834346E+02  0.56460505278E+01 -0.15968365904E+03  0.20156776926E+03  0.86893828186E+02 0.  0.
        -11    1    4    4    0    0  0.25235482546E+02  0.40656145634E+02 -0.91239010900E+02  0.10302576798E+03  0.00000000000E+00 0. -1.
         11    1    4    4    0    0  0.61645351800E+02 -0.35010095106E+02 -0.68444648141E+02  0.98542001284E+02  0.00000000000E+00 0.  1.
        -13    1    3    3    0    0  0.20218403307E+02 -0.30537859422E+02 -0.11636735154E+03  0.12199469330E+03  0.00000000000E+00 0.  1.
         13    1    3    3    0    0 -0.57588839296E+02  0.16151823952E+02 -0.30375737315E+03  0.30958988609E+03  0.00000000000E+00 0. -1.
          3    1    1    2  501    0 -0.49510398357E+02  0.87399849416E+01 -0.26452275961E+02  0.56810120452E+02  0.00000000000E+00 0. -1.
<scales pt_clust_5="13000.00000" pt_clust_6="13000.00000" pt_clust_7="13000.00000" pt_clust_8="13000.00000" pt_clust_9="50.27591"></scales>
<clustering>
<clus scale="   50.276">  1  9  2 -1</clus>
<clus scale="   86.894">  5  6 -1 -1</clus>
<clus scale="   90.316">  7  8 -1 -1</clus>
<clus scale="  100.058">  1  5  2 -1</clus>
<clus scale="   50.276">  1  5  2 -1</clus>
</clustering>
</event>
<event>
 9    1  0.1881049E-005  0.9695068E+02  0.7546771E-02  0.1287206E+00
         -3   -1    0    0    0  501 -0.00000000000E+00  0.00000000000E+00  0.58132173604E+02  0.58132173604E+02  0.00000000000E+00 0.  1.
         21   -1    0    0  501  502  0.00000000000E+00 -0.00000000000E+00 -0.26111081140E+03  0.26111081140E+03  0.00000000000E+00 0. -1.
         23    2    1    2    0    0  0.63668817797E+01 -0.27393062419E+02 -0.17473370952E+02  0.96261601714E+02  0.90388385426E+02 0.  0.
         23    2    1    2    0    0 -0.16353345377E+02  0.45221458946E+02 -0.14887300441E+03  0.18103494328E+03  0.91093726428E+02 0.  0.
        -13    1    3    3    0    0  0.98885757249E+00 -0.60372508461E+02 -0.17431737681E+02  0.62846504244E+02  0.00000000000E+00 0.  1.
         13    1    3    3    0    0  0.53780242072E+01  0.32979446042E+02 -0.41633271522E-01  0.33415097470E+02  0.00000000000E+00 0. -1.
        -13    1    4    4    0    0  0.25180891345E+02  0.50299001849E+02 -0.56998776011E+02  0.80080755133E+02  0.00000000000E+00 0.  1.
         13    1    4    4    0    0 -0.41534236722E+02 -0.50775429027E+01 -0.91874228394E+02  0.10095418815E+03  0.00000000000E+00 0. -1.
         -3    1    1    2    0  502  0.99864635969E+01 -0.17828396527E+02 -0.36632262437E+02  0.41946440006E+02  0.00000000000E+00 0.  1.
<scales pt_clust_5="13000.00000" pt_clust_6="13000.00000" pt_clust_7="13000.00000" pt_clust_8="13000.00000" pt_clust_9="20.43480"></scales>
<clustering>
<clus scale="   20.435">  2  9  1 -1</clus>
<clus scale="   90.388">  5  6 -1 -1</clus>
<clus scale="   91.094">  7  8 -1 -1</clus>
<clus scale="   96.288">  1  5  2 -1</clus>
<clus scale="   20.435">  2  5  1 -1</clus>
</clustering>
</event>
<event>
 9    1  0.1881049E-005  0.1126389E+03  0.7546771E-02  0.1256171E+00
         21   -1    0    0  501  502  0.00000000000E+00  0.00000000000E+00  0.56398415594E+03  0.56398415594E+03  0.00000000000E+00 0. -1.
         -4   -1    0    0    0  501 -0.00000000000E+00 -0.00000000000E+00 -0.51929930716E+02  0.51929930716E+02  0.00000000000E+00 0.  1.
         23    2    1    2    0    0  0.32509682780E+02  0.58434245603E+02  0.33750298647E+02  0.11718611000E+03  0.90122478795E+02 0.  0.
         23    2    1    2    0    0 -0.48393125895E+02 -0.42374735408E+02  0.44272353780E+03  0.45658351441E+03  0.91251640370E+02 0.  0.
        -13    1    4    4    0    0 -0.31927982049E+02 -0.71139077273E+02  0.28957992855E+03  0.29989448039E+03  0.00000000000E+00 0. -1.
         13    1    4    4    0    0 -0.16465143846E+02  0.28764341865E+02  0.15314360926E+03  0.15668903402E+03  0.00000000000E+00 0.  1.
        -13    1    3    3    0    0  0.27091488315E+02  0.10607488577E+01  0.50374717072E+02  0.57207395041E+02  0.00000000000E+00 0. -1.
         13    1    3    3    0    0  0.54181944652E+01  0.57373496746E+02 -0.16624418424E+02  0.59978714958E+02  0.00000000000E+00 0.  1.
         -4    1    1    2    0  502  0.15883443114E+02 -0.16059510195E+02  0.35580388767E+02  0.42144462243E+02  0.00000000000E+00 0.  1.
<scales pt_clust_5="13000.00000" pt_clust_6="13000.00000" pt_clust_7="13000.00000" pt_clust_8="13000.00000" pt_clust_9="22.58742"></scales>
<clustering>
<clus scale="   22.587">  1  9  2 -1</clus>
<clus scale="   90.122">  7  8 -1 -1</clus>
<clus scale="   91.252">  5  6 -1 -1</clus>
<clus scale="  111.726">  2  7  1 -1</clus>
<clus scale="   22.587">  1  5  2 -1</clus>
</clustering>
</event>
<event>
 9    1  0.1881049E-005  0.9791082E+02  0.7546771E-02  0.1284976E+00
          1   -1    0    0  502    0 -0.00000000000E+00  0.00000000000E+00  0.22695454841E+03  0.22695454841E+03  0.00000000000E+00 0. -1.
         21   -1    0    0  501  502  0.00000000000E+00 -0.00000000000E+00 -0.13786998406E+03  0.13786998406E+03  0.00000000000E+00 0.  1.
         23    2    1    2    0    0 -0.22436060582E+02 -0.27711582989E+02  0.17684734928E+03  0.20196817005E+03  0.90801146032E+02 0.  0.
         23    2    1    2    0    0  0.47034860901E+02  0.36303775052E+01 -0.63973528742E+02  0.12101219742E+03  0.91246269869E+02 0.  0.
        -11    1    4    4    0    0 -0.25261805871E+02  0.12639822610E+02 -0.27944937658E+02  0.39734663610E+02  0.00000000000E+00 0. -1.
         11    1    4    4    0    0  0.72296666772E+02 -0.90094451045E+01 -0.36028591084E+02  0.81277533814E+02  0.00000000000E+00 0.  1.
        -13    1    3    3    0    0 -0.56719402522E+02 -0.25024441413E+02  0.98204995713E+02  0.11613584491E+03  0.00000000000E+00 0. -1.
         13    1    3    3    0    0  0.34283341940E+02 -0.26871415755E+01  0.78642353562E+02  0.85832325136E+02  0.00000000000E+00 0.  1.
          1    1    1    2  501    0 -0.24598800319E+02  0.24081205484E+02 -0.23789256179E+02  0.41844164996E+02  0.00000000000E+00 0. -1.
<scales pt_clust_5="13000.00000" pt_clust_6="13000.00000" pt_clust_7="13000.00000" pt_clust_8="13000.00000" pt_clust_9="34.42391"></scales>
<clustering>
<clus scale="   34.424">  2  9  1 -1</clus>
<clus scale="   90.801">  7  8 -1 -1</clus>
<clus scale="   91.246">  5  6 -1 -1</clus>
<clus scale="   97.496">  1  7  2 -1</clus>
<clus scale="   34.424">  2  5  1 -1</clus>
</clustering>
</event>
<event>
 9    1  0.1881049E-005  0.1109414E+03  0.7546771E-02  0.1259365E+00
         -4   -1    0    0    0  501 -0.00000000000E+00  0.00000000000E+00  0.53750275197E+03  0.53750275197E+03  0.00000000000E+00 0.  1.
         21   -1    0    0  501  502  0.00000000000E+00 -0.00000000000E+00 -0.54332427565E+02  0.54332427565E+02  0.00000000000E+00 0.  1.
         23    2    1    2    0    0  0.15262676183E+02  0.84769878216E+02  0.27439335448E+03  0.30137261512E+03  0.90082510106E+02 0.  0.
         23    2    1    2    0    0 -0.56593521112E+02 -0.14293765601E+02  0.16578122063E+03  0.19813837663E+03  0.91478220434E+02 0.  0.
        -11    1    4    4    0    0 -0.35196623906E+02  0.27469484029E+02  0.13456496727E+03  0.14177836684E+03  0.00000000000E+00 0.  1.
         11    1    4    4    0    0 -0.21396897206E+02 -0.41763249630E+02  0.31216253353E+02  0.56360009786E+02  0.00000000000E+00 0. -1.
        -13    1    3    3    0    0  0.48242433589E+02  0.20690141588E+02  0.12078115958E+03  0.13169473364E+03  0.00000000000E+00 0. -1.
         13    1    3    3    0    0 -0.32979757406E+02  0.64079736628E+02  0.15361219490E+03  0.16967788149E+03  0.00000000000E+00 0.  1.
         -4    1    1    2    0  502  0.41330844929E+02 -0.70476112615E+02  0.42995749298E+02  0.92324187782E+02  0.00000000000E+00 0.  1.
<scales pt_clust_5="13000.00000" pt_clust_6="13000.00000" pt_clust_7="13000.00000" pt_clust_8="13000.00000" pt_clust_9="81.70141"></scales>
<clustering>
<clus scale="   81.701">  2  9  1 -1</clus>
<clus scale="   90.083">  7  8 -1 -1</clus>
<clus scale="   91.478">  5  6 -1 -1</clus>
<clus scale="  109.793">  1  7  2 -1</clus>
<clus scale="   81.701">  2  5  1 -1</clus>
</clustering>
</event>
<event>
 9    1  0.1881049E-005  0.1038398E+03  0.7546771E-02  0.1273057E+00
         21   -1    0    0  501  502  0.00000000000E+00  0.00000000000E+00  0.85511767214E+02  0.85511767214E+02  0.00000000000E+00 0.  1.
          1   -1    0    0  502    0 -0.00000000000E+00 -0.00000000000E+00 -0.24626979059E+03  0.24626979059E+03  0.00000000000E+00 0. -1.
         23    2    1    2    0    0 -0.36395639491E+02  0.28600105950E+02 -0.12579981634E+03  0.16317164004E+03  0.93041827625E+02 0.  0.
         23    2    1    2    0    0  0.56362609846E+02  0.41496031803E+01  0.11605903246E+02  0.10828214870E+03  0.91631674341E+02 0.  0.
        -13    1    3    3    0    0  0.27250710906E+02  0.18978088632E+02 -0.71964475224E+02  0.79256891103E+02  0.00000000000E+00 0.  1.
         13    1    3    3    0    0 -0.63646350396E+02  0.96220173180E+01 -0.53835341113E+02  0.83914748935E+02  0.00000000000E+00 0. -1.
        -13    1    4    4    0    0  0.76269037434E+02 -0.98846777648E-01 -0.11895800354E+02  0.77191229475E+02  0.00000000000E+00 0. -1.
         13    1    4    4    0    0 -0.19906427588E+02  0.42484499580E+01  0.23501703600E+02  0.31090919229E+02  0.00000000000E+00 0.  1.
          1    1    1    2  501    0 -0.19966970355E+02 -0.32749709130E+02 -0.46564110280E+02  0.60327769058E+02  0.00000000000E+00 0. -1.
<scales pt_clust_5="13000.00000" pt_clust_6="13000.00000" pt_clust_7="13000.00000" pt_clust_8="13000.00000" pt_clust_9="38.35655"></scales>
<clustering>
<clus scale="   38.357">  1  9  2 -1</clus>
<clus scale="   91.632">  7  8 -1 -1</clus>
<clus scale="   93.042">  5  6 -1 -1</clus>
<clus scale="  102.578">  1  7  2 -1</clus>
<clus scale="   38.357">  1  5  2 -1</clus>
</clustering>
</event>
<event>
 9    1  0.1881049E-005  0.1098106E+03  0.7546771E-02  0.1262043E+00
          3   -1    0    0  502    0 -0.00000000000E+00  0.00000000000E+00  0.33764432944E+03  0.33764432944E+03  0.00000000000E+00 0. -1.
         21   -1    0    0  501  502  0.00000000000E+00 -0.00000000000E+00 -0.51693007466E+02  0.51693007466E+02  0.00000000000E+00 0.  1.
         23    2    1    2    0    0  0.35070491918E+02  0.42710690547E+02  0.20944608693E+03  0.23516481941E+03  0.91546089307E+02 0.  0.
         23    2    1    2    0    0 -0.52686738969E+02 -0.31253646419E+02  0.60227957663E+02  0.12759158863E+03  0.94337287047E+02 0.  0.
        -11    1    3    3    0    0  0.24541030190E+02 -0.15021830451E+02  0.15809312042E+02  0.32830654885E+02  0.00000000000E+00 0.  1.
         11    1    3    3    0    0  0.10529461728E+02  0.57732520998E+02  0.19363677489E+03  0.20233416453E+03  0.00000000000E+00 0. -1.
        -13    1    4    4    0    0  0.14301452596E+01  0.22558729558E+02 -0.92134584123E+01  0.24409617175E+02  0.00000000000E+00 0. -1.
         13    1    4    4    0    0 -0.54116884228E+02 -0.53812375977E+02  0.69441416076E+02  0.10318197146E+03  0.00000000000E+00 0.  1.
          3    1    1    2  501    0  0.17616247051E+02 -0.11457044128E+02  0.16277277373E+02  0.26580928859E+02  0.00000000000E+00 0. -1.
<scales pt_clust_5="13000.00000" pt_clust_6="13000.00000" pt_clust_7="13000.00000" pt_clust_8="13000.00000" pt_clust_9="21.01419"></scales>
<clustering>
<clus scale="   21.014">  2  9  1 -1</clus>
<clus scale="   91.546">  5  6 -1 -1</clus>
<clus scale="   94.337">  7  8 -1 -1</clus>
<clus scale="  107.422">  1  5  2 -1</clus>
<clus scale="   21.014">  2  5  1 -1</clus>
</clustering>
</event>
<event>
 9    1  0.1881049E-005  0.9959399E+02  0.7546771E-02  0.1281651E+00
         21   -1    0    0  501  502  0.00000000000E+00  0.00000000000E+00  0.31688565469E+03  0.31688565469E+03  0.00000000000E+00 0. -1.
         -2   -1    0    0    0  501 -0.00000000000E+00 -0.00000000000E+00 -0.82452008440E+02  0.82452008440E+02  0.00000000000E+00 0.  1.
         23    2    1    2    0    0  0.73541182726E+02  0.22372159806E+02  0.70060331685E+02  0.13747997370E+03  0.89908142017E+02 0.  0.
         23    2    1    2    0    0  0.25151323025E+02 -0.35610521810E+02  0.10655652787E+03  0.14671323345E+03  0.90938335838E+02 0.  0.
        -11    1    4    4    0    0 -0.23696975254E+02  0.16711461074E+02  0.35718643315E+02  0.46006967382E+02  0.00000000000E+00 0.  1.
         11    1    4    4    0    0  0.48848298279E+02 -0.52321982884E+02  0.70837884550E+02  0.10070626607E+03  0.00000000000E+00 0. -1.
        -13    1    3    3    0    0  0.20514682263E+02  0.16904664504E+02 -0.19698018006E+02  0.33085220019E+02  0.00000000000E+00 0.  1.
         13    1    3    3    0    0  0.53026500463E+02  0.54674953018E+01  0.89758349691E+02  0.10439475368E+03  0.00000000000E+00 0. -1.
         -2    1    1    2    0  502 -0.98692505751E+02  0.13238362004E+02  0.57816786703E+02  0.11514445599E+03  0.00000000000E+00 0.  1.
<scales pt_clust_5="13000.00000" pt_clust_6="13000.00000" pt_clust_7="13000.00000" pt_clust_8="13000.00000" pt_clust_9="99.57648"></scales>
<clustering>
<clus scale="   89.908">  7  8 -1 -1</clus>
<clus scale="   90.938">  5  6 -1 -1</clus>
<clus scale="   99.576">  1  9  2 -1</clus>
<clus scale="   98.654">  2  7  1 -1</clus>
<clus scale="   99.576">  1  5  2 -1</clus>
</clustering>
</event>
<event>
 9    1  0.1881049E-005  0.1530869E+03  0.7546771E-02  0.1211521E+00
          1   -1    0    0  502    0 -0.00000000000E+00  0.00000000000E+00  0.72194825365E+03  0.72194825365E+03  0.00000000000E+00 0. -1.
         21   -1    0    0  501  502  0.00000000000E+00 -0.00000000000E+00 -0.64672731378E+02  0.64672731378E+02  0.00000000000E+00 0.  1.
         23    2    1    2    0    0 -0.51798462519E+02  0.35541088874E+02  0.35752381978E+03  0.37444024957E+03  0.91847531659E+02 0.  0.
         23    2    1    2    0    0  0.13872141403E+03  0.35675668260E+02  0.17671847804E+03  0.24555360587E+03  0.92470367459E+02 0.  0.
        -11    1    3    3    0    0  0.28739569980E+01  0.41799652635E+02  0.25170181621E+03  0.25516519134E+03  0.00000000000E+00 0. -1.
         11    1    3    3    0    0 -0.54672419517E+02 -0.62585637611E+01  0.10582200357E+03  0.11927505823E+03  0.00000000000E+00 0.  1.
        -11    1    4    4    0    0  0.79258525595E+02 -0.21613215045E+02  0.56484329041E+02  0.99697163306E+02  0.00000000000E+00 0. -1.
         11    1    4    4    0    0  0.59462888434E+02  0.57288883306E+02  0.12023414900E+03  0.14585644256E+03  0.00000000000E+00 0.  1.
          1    1    1    2  501    0 -0.86922951509E+02 -0.71216757135E+02  0.12303322446E+03  0.16662712959E+03  0.00000000000E+00 0. -1.
<scales pt_clust_5="13000.00000" pt_clust_6="13000.00000" pt_clust_7="13000.00000" pt_clust_8="13000.00000" pt_clust_9="122.00342"></scales>
<clustering>
<clus scale="   91.848">  5  6 -1 -1</clus>
<clus scale="   92.470">  7  8 -1 -1</clus>
<clus scale="  111.275">  1  5  2 -1</clus>
<clus scale="  122.003">  2  9  1 -1</clus>
<clus scale="  122.003">  2  5  1 -1</clus>
</clustering>
</event>
<event>
 9    1  0.1881049E-005  0.1251252E+03  0.7546771E-02  0.1238807E+00
         -1   -1    0    0    0  501 -0.00000000000E+00  0.00000000000E+00  0.35427648872E+03  0.35427648872E+03  0.00000000000E+00 0.  1.
         21   -1    0    0  501  502  0.00000000000E+00 -0.00000000000E+00 -0.70353776106E+02  0.70353776106E+02  0.00000000000E+00 0.  1.
         23    2    1    2    0    0 -0.54199392524E+02 -0.58393918307E+02  0.25365525555E+03  0.28519869848E+03  0.10319828052E+03 0.  0.
         23    2    1    2    0    0  0.37898971887E+02  0.30816349397E+02  0.28461650491E+02  0.10734594718E+03  0.91252985523E+02 0.  0.
        -13    1    3    3    0    0 -0.22177369912E+02 -0.70701468732E+02  0.23445477629E+03  0.24588528940E+03  0.00000000000E+00 0.  1.
         13    1    3    3    0    0 -0.32022022612E+02  0.12307550425E+02  0.19200479254E+02  0.39313409076E+02  0.00000000000E+00 0. -1.
        -13    1    4    4    0    0  0.30813239953E+02 -0.12673779537E+02 -0.22326906532E+02  0.40106996889E+02  0.00000000000E+00 0.  1.
         13    1    4    4    0    0  0.70857319341E+01  0.43490128934E+02  0.50788557023E+02  0.67238950290E+02  0.00000000000E+00 0. -1.
         -1    1    1    2    0  502  0.16300420637E+02  0.27577568910E+02  0.18058065725E+01  0.32085619167E+02  0.00000000000E+00 0.  1.
<scales pt_clust_5="13000.00000" pt_clust_6="13000.00000" pt_clust_7="13000.00000" pt_clust_8="13000.00000" pt_clust_9="32.03476"></scales>
<clustering>
<clus scale="   32.035">  2  9  1 -1</clus>
<clus scale="   91.253">  7  8 -1 -1</clus>
<clus scale="  103.198">  5  6 -1 -1</clus>
<clus scale="  115.471">  2  7  1 -1</clus>
<clus scale="   32.035">  2  5  1 -1</clus>
</clustering>
</event>
<event>
 9    1  0.1881049E-005  0.1354906E+03  0.7546771E-02  0.1220895E+00
         21   -1    0    0  501  502  0.00000000000E+00  0.00000000000E+00  0.65495177296E+02  0.65495177296E+02  0.00000000000E+00 0. -1.
         -1   -1    0    0    0  501 -0.00000000000E+00 -0.00000000000E+00 -0.33546270272E+03  0.33546270272E+03  0.00000000000E+00 0.  1.
         23    2    1    2    0    0  0.27593811935E+02 -0.97749381347E+02 -0.16008025949E+03  0.21174745148E+03  0.94312956248E+02 0.  0.
         23    2    1    2    0    0 -0.78554761922E+01  0.92941078839E+02 -0.10932297172E+03  0.16888704057E+03  0.88721855729E+02 0.  0.
        -11    1    4    4    0    0  0.15251972866E+02  0.63229195861E+02 -0.11370424601E+03  0.13099316565E+03  0.00000000000E+00 0. -1.
         11    1    4    4    0    0 -0.23107449058E+02  0.29711882979E+02  0.43812742893E+01  0.37893874921E+02  0.00000000000E+00 0.  1.
        -13    1    3    3    0    0  0.48605725635E+02 -0.94296064575E+02 -0.15805625711E+03  0.19035767589E+03  0.00000000000E+00 0.  1.
         13    1    3    3    0    0 -0.21011913700E+02 -0.34533167714E+01 -0.20240023882E+01  0.21389775589E+02  0.00000000000E+00 0. -1.
         -1    1    1    2    0  502 -0.19738335743E+02  0.48083025073E+01 -0.56429421373E+00  0.20323387977E+02  0.00000000000E+00 0.  1.
<scales pt_clust_5="13000.00000" pt_clust_6="13000.00000" pt_clust_7="13000.00000" pt_clust_8="13000.00000" pt_clust_9="20.31555"></scales>
<clustering>
<clus scale="   20.316">  1  9  2 -1</clus>
<clus scale="   88.722">  5  6 -1 -1</clus>
<clus scale="   94.313">  7  8 -1 -1</clus>
<clus scale="  131.660">  1  5  2 -1</clus>
<clus scale="   20.316">  1  5  2 -1</clus>
</clustering>
</event>
<event>
 9    1  0.1881049E-005  0.2265291E+03  0.7546771E-02  0.1139563E+00
         21   -1    0    0  501  502  0.00000000000E+00  0.00000000000E+00  0.19297858391E+04  0.19297858391E+04  0.00000000000E+00 0.  1.
         -1   -1    0    0    0  501 -0.00000000000E+00 -0.00000000000E+00 -0.11548533800E+03  0.11548533800E+03  0.00000000000E+00 0.  1.
         23    2    1    2    0    0 -0.21987478629E+02 -0.14384475787E+03  0.29625900818E+03  0.34437872453E+03  0.98247353126E+02 0.  0.
         23    2    1    2    0    0  0.15496925965E+03 -0.28586233716E+02  0.13092569418E+02  0.18027157171E+03  0.86566621734E+02 0.  0.
        -11    1    3    3    0    0 -0.38905283846E+02 -0.28935039484E+02  0.14981883547E+03  0.15746917502E+03  0.00000000000E+00 0. -1.
         11    1    3    3    0    0  0.16917805217E+02 -0.11490971838E+03  0.14644017272E+03  0.18690954951E+03  0.00000000000E+00 0.  1.
        -11    1    4    4    0    0  0.12331818664E+03 -0.36965735903E+02 -0.23826384452E+02  0.13092569412E+03  0.00000000000E+00 0.  1.
         11    1    4    4    0    0  0.31651073016E+02  0.83795021867E+01  0.36918953871E+02  0.49345877587E+02  0.00000000000E+00 0. -1.
         -1    1    1    2    0  502 -0.13298178102E+03  0.17243099158E+03  0.15049489235E+04  0.15206208808E+04  0.00000000000E+00 0.  1.
<scales pt_clust_5="13000.00000" pt_clust_6="13000.00000" pt_clust_7="13000.00000" pt_clust_8="13000.00000" pt_clust_9="209.33619"></scales>
<clustering>
<clus scale="   86.567">  7  8 -1 -1</clus>
<clus scale="   98.247">  5  6 -1 -1</clus>
<clus scale="  175.577">  2  5  1 -1</clus>
<clus scale="  209.336">  1  9  2 -1</clus>
<clus scale="  209.336">  1  5  2 -1</clus>
</clustering>
</event>
<event>
 9    1  0.1881049E-005  0.1073443E+03  0.7546771E-02  0.1265648E+00
         21   -1    0    0  501  502  0.00000000000E+00  0.00000000000E+00  0.21317826110E+03  0.21317826110E+03  0.00000000000E+00 0.  1.
         -3   -1    0    0    0  501 -0.00000000000E+00 -0.00000000000E+00 -0.12351260989E+03  0.12351260989E+03  0.00000000000E+00 0.  1.
         23    2    1    2    0    0  0.36902107663E+02  0.51728890689E+02 -0.34475643987E+02  0.11586819474E+03  0.90549571192E+02 0.  0.
         23    2    1    2    0    0 -0.42348726279E+02 -0.27992446095E+02  0.10394388439E+02  0.10449794434E+03  0.90745718381E+02 0.  0.
        -11    1    4    4    0    0 -0.61124725510E+02  0.88148606429E+01 -0.52694334401E+00  0.61759302992E+02  0.00000000000E+00 0.  1.
         11    1    4    4    0    0  0.18775999231E+02 -0.36807306738E+02  0.10921331783E+02  0.42738641348E+02  0.00000000000E+00 0. -1.
        -13    1    3    3    0    0  0.38383221582E+02  0.76131972910E+02 -0.20434869899E+02  0.87675155580E+02  0.00000000000E+00 0.  1.
         13    1    3    3    0    0 -0.14811139196E+01 -0.24403082221E+02 -0.14040774088E+02  0.28193039164E+02  0.00000000000E+00 0. -1.
         -3    1    1    2    0  502  0.54466186166E+01 -0.23736444594E+02  0.11374690676E+03  0.11632473191E+03  0.00000000000E+00 0.  1.
<scales pt_clust_5="13000.00000" pt_clust_6="13000.00000" pt_clust_7="13000.00000" pt_clust_8="13000.00000" pt_clust_9="24.35333"></scales>
<clustering>
<clus scale="   24.353">  1  9  2 -1</clus>
<clus scale="   90.550">  7  8 -1 -1</clus>
<clus scale="   90.746">  5  6 -1 -1</clus>
<clus scale="  107.179">  2  7  1 -1</clus>
<clus scale="   24.353">  1  5  2 -1</clus>
</clustering>
</event>
<event>
 9    1  0.1881049E-005  0.1322237E+03  0.7546771E-02  0.1225189E+00
         -3   -1    0    0    0  501 -0.00000000000E+00  0.00000000000E+00  0.33174498703E+02  0.33174498703E+02  0.00000000000E+00 0.  1.
         21   -1    0    0  501  502  0.00000000000E+00 -0.00000000000E+00 -0.63271819897E+03  0.63271819897E+03  0.00000000000E+00 0. -1.
         23    2    1    2    0    0 -0.75562086494E+02 -0.38301317833E+02 -0.23916042736E+03  0.27056873779E+03  0.93984636978E+02 0.  0.
         23    2    1    2    0    0  0.86539337560E+02  0.58531719804E+02 -0.32544356080E+03  0.35348435321E+03  0.90125787262E+02 0.  0.
        -11    1    3    3    0    0 -0.28010186244E+02 -0.60336051113E+02 -0.86224873189E+02  0.10890242584E+03  0.00000000000E+00 0.  1.
         11    1    3    3    0    0 -0.47551900249E+02  0.22034733280E+02 -0.15293555417E+03  0.16166631195E+03  0.00000000000E+00 0. -1.
        -11    1    4    4    0    0  0.44550893727E+02 -0.20018835432E+02 -0.11005468648E+03  0.12040585500E+03  0.00000000000E+00 0.  1.
         11    1    4    4    0    0  0.41988443833E+02  0.78550555236E+02 -0.21538887433E+03  0.23307849821E+03  0.00000000000E+00 0. -1.
         -3    1    1    2    0  502 -0.10977251066E+02 -0.20230401971E+02 -0.34939712100E+02  0.41839606672E+02  0.00000000000E+00 0.  1.
<scales pt_clust_5="13000.00000" pt_clust_6="13000.00000" pt_clust_7="13000.00000" pt_clust_8="13000.00000" pt_clust_9="23.01673"></scales>
<clustering>
<clus scale="   23.017">  2  9  1 -1</clus>
<clus scale="   90.126">  7  8 -1 -1</clus>
<clus scale="   93.985">  5  6 -1 -1</clus>
<clus scale="  129.509">  2  7  1 -1</clus>
<clus scale="   23.017">  2  5  1 -1</clus>
</clustering>
</event>
<event>
 9    1  0.1881049E-005  0.9958341E+02  0.7546771E-02  0.1283276E+00
          2   -1    0    0  502    0 -0.00000000000E+00  0.00000000000E+00  0.25428136932E+03  0.25428136932E+03  0.00000000000E+00 0. -1.
         21   -1    0    0  501  502  0.00000000000E+00 -0.00000000000E+00 -0.66404664833E+02  0.66404664833E+02  0.00000000000E+00 0.  1.
         23    2    1    2    0    0  0.20090740559E+02  0.12769418170E+02  0.11954555320E+03  0.15440045698E+03  0.94771651515E+02 0.  0.
         23    2    1    2    0    0 -0.10923755133E+02 -0.44097302284E+02  0.82465427035E+02  0.13071525674E+03  0.90675416693E+02 0.  0.
        -11    1    4    4    0    0  0.70783908291E+01 -0.57081482738E+02  0.14643218718E+02  0.59353375158E+02  0.00000000000E+00 0.  1.
         11    1    4    4    0    0 -0.18002145962E+02  0.12984180453E+02  0.67822208316E+02  0.71361881577E+02  0.00000000000E+00 0. -1.
        -13    1    3    3    0    0 -0.29568582898E+02  0.23254116274E+02  0.19859574218E+02  0.42537720983E+02  0.00000000000E+00 0. -1.
         13    1    3    3    0    0  0.49659323457E+02 -0.10484698104E+02  0.99685978978E+02  0.11186273600E+03  0.00000000000E+00 0.  1.
          2    1    1    2  501    0 -0.91669854264E+01  0.31327884115E+02 -0.14134275745E+02  0.35570320434E+02  0.00000000000E+00 0. -1.
<scales pt_clust_5="13000.00000" pt_clust_6="13000.00000" pt_clust_7="13000.00000" pt_clust_8="13000.00000" pt_clust_9="32.64154"></scales>
<clustering>
<clus scale="   32.642">  2  9  1 -1</clus>
<clus scale="   90.675">  5  6 -1 -1</clus>
<clus scale="   94.772">  7  8 -1 -1</clus>
<clus scale="   95.693">  2  5  1 -1</clus>
<clus scale="   32.642">  2  5  1 -1</clus>
</clustering>
</event>
<event>
 9    1  0.1881049E-005  0.2040200E+03  0.7546771E-02  0.1146435E+00
         21   -1    0    0  501  502  0.00000000000E+00  0.00000000000E+00  0.19147755694E+03  0.19147755694E+03  0.00000000000E+00 0. -1.
          1   -1    0    0  502    0 -0.00000000000E+00 -0.00000000000E+00 -0.37329754369E+03  0.37329754369E+03  0.00000000000E+00 0. -1.
         23    2    1    2    0    0  0.16819454698E+03 -0.52405111640E+02 -0.18098459343E+03  0.26840996442E+03  0.90844837947E+02 0.  0.
         23    2    1    2    0    0 -0.16542671341E+03  0.12297130236E+03 -0.62408275150E+01  0.22553811528E+03  0.91326637978E+02 0.  0.
        -11    1    3    3    0    0  0.14277060328E+03 -0.51883996033E+02 -0.18831411920E+03  0.24194545190E+03  0.00000000000E+00 0. -1.
         11    1    3    3    0    0  0.25423943703E+02 -0.52111560630E+00  0.73295257724E+01  0.26464512520E+02  0.00000000000E+00 0.  1.
        -11    1    4    4    0    0 -0.10700499589E+03  0.11724736576E+03  0.22250766356E+02  0.16028758693E+03  0.00000000000E+00 0. -1.
         11    1    4    4    0    0 -0.58421717523E+02  0.57239366014E+01 -0.28491593871E+02  0.65250528349E+02  0.00000000000E+00 0.  1.
          1    1    1    2  501    0 -0.27678335742E+01 -0.70566190721E+02  0.54054341922E+01  0.70827020934E+02  0.00000000000E+00 0. -1.
<scales pt_clust_5="13000.00000" pt_clust_6="13000.00000" pt_clust_7="13000.00000" pt_clust_8="13000.00000" pt_clust_9="70.62045"></scales>
<clustering>
<clus scale="   70.620">  1  9  2 -1</clus>
<clus scale="   90.845">  5  6 -1 -1</clus>
<clus scale="   91.327">  7  8 -1 -1</clus>
<clus scale="  203.805">  2  5  1 -1</clus>
<clus scale="   70.620">  1  5  2 -1</clus>
</clustering>
</event>
<event>
 9    1  0.1881049E-005  0.3927036E+03  0.7546771E-02  0.1046338E+00
         21   -1    0    0  501  502  0.00000000000E+00  0.00000000000E+00  0.62298501104E+03  0.62298501104E+03  0.00000000000E+00 0.  1.
         -1   -1    0    0    0  501 -0.00000000000E+00 -0.00000000000E+00 -0.40575157435E+03  0.40575157435E+03  0.00000000000E+00 0.  1.
         23    2    1    2    0    0  0.11569189037E+03 -0.39645141791E+03 -0.12706167056E+03  0.44170046516E+03  0.91631285801E+02 0.  0.
         23    2    1    2    0    0 -0.93260915405E+02  0.28528378137E+03  0.35419080369E+03  0.47319712490E+03  0.91542117826E+02 0.  0.
        -11    1    3    3    0    0  0.73681526843E+02 -0.35983759182E+03 -0.11027101016E+03  0.38349935536E+03  0.00000000000E+00 0.  1.
         11    1    3    3    0    0  0.42010363529E+02 -0.36613826093E+02 -0.16790660404E+02  0.58201109799E+02  0.00000000000E+00 0. -1.
        -13    1    4    4    0    0 -0.35193663473E+02  0.12480960943E+03  0.87001650485E+02  0.15615799608E+03  0.00000000000E+00 0. -1.
         13    1    4    4    0    0 -0.58067251932E+02  0.16047417195E+03  0.26718915320E+03  0.31703912881E+03  0.00000000000E+00 0.  1.
         -1    1    1    2    0  502 -0.22430974967E+02  0.11116763653E+03 -0.98956964412E+01  0.11383899533E+03  0.00000000000E+00 0.  1.
<scales pt_clust_5="13000.00000" pt_clust_6="13000.00000" pt_clust_7="13000.00000" pt_clust_8="13000.00000" pt_clust_9="113.40813"></scales>
<clustering>
<clus scale="   91.542">  7  8 -1 -1</clus>
<clus scale="   91.631">  5  6 -1 -1</clus>
<clus scale="  113.408">  1  9  2 -1</clus>
<clus scale="  392.683">  1  7  2 -1</clus>
<clus scale="  113.408">  1  5  2 -1</clus>
</clustering>
</event>
<event>
 9    1  0.1881049E-005  0.1054773E+03  0.7546771E-02  0.1275030E+00
          1   -1    0    0  502    0 -0.00000000000E+00  0.00000000000E+00  0.23288801363E+03  0.23288801363E+03  0.00000000000E+00 0. -1.
         21   -1    0    0  501  502  0.00000000000E+00 -0.00000000000E+00 -0.16245086724E+03  0.16245086724E+03  0.00000000000E+00 0.  1.
         23    2    1    2    0    0  0.70844279362E+00 -0.31154760355E+02  0.17640888175E+03  0.20584003279E+03  0.10138493257E+03 0.  0.
         23    2    1    2    0    0 -0.27780336956E+02  0.17677966547E+02 -0.18920591285E+02  0.97344558390E+02  0.89631002733E+02 0.  0.
        -11    1    3    3    0    0  0.33431385368E+02  0.24526986652E+02  0.67163884525E+02  0.78931729908E+02  0.00000000000E+00 0.  1.
         11    1    3    3    0    0 -0.32722942574E+02 -0.55681747006E+02  0.10924499723E+03  0.12690830288E+03  0.00000000000E+00 0. -1.
        -11    1    4    4    0    0 -0.52088395877E+02  0.35365523524E+02 -0.23176483176E+01  0.63002323234E+02  0.00000000000E+00 0. -1.
         11    1    4    4    0    0  0.24308058921E+02 -0.17687556977E+02 -0.16602942967E+02  0.34342235156E+02  0.00000000000E+00 0.  1.
          1    1    1    2  501    0  0.27071894163E+02  0.13476793808E+02 -0.87051144078E+02  0.92154289700E+02  0.00000000000E+00 0. -1.
<scales pt_clust_5="13000.00000" pt_clust_6="13000.00000" pt_clust_7="13000.00000" pt_clust_8="13000.00000" pt_clust_9="30.24089"></scales>
<clustering>
<clus scale="   30.241">  2  9  1 -1</clus>
<clus scale="   89.631">  7  8 -1 -1</clus>
<clus scale="   94.235">  2  7  1 -1</clus>
<clus scale="  101.385">  5  6 -1 -1</clus>
<clus scale="   30.241">  2  5  1 -1</clus>
</clustering>
</event>
<event>
 9    1  0.1881049E-005  0.9555796E+02  0.7546771E-02  0.1291616E+00
         21   -1    0    0  501  502  0.00000000000E+00  0.00000000000E+00  0.27158898594E+02  0.27158898594E+02  0.00000000000E+00 0.  1.
          2   -1    0    0  502    0 -0.00000000000E+00 -0.00000000000E+00 -0.59787710101E+03  0.59787710101E+03  0.00000000000E+00 0. -1.
         23    2    1    2    0    0 -0.24100786950E+02 -0.68422773366E+00 -0.24914336560E+03  0.26725367094E+03  0.93652506167E+02 0.  0.
         23    2    1    2    0    0 -0.68179772398E+01 -0.38854064226E+02 -0.15513950682E+03  0.18394342168E+03  0.90613424401E+02 0.  0.
        -11    1    3    3    0    0 -0.59094319724E+02 -0.52056616860E+01 -0.12804628862E+03  0.14112083321E+03  0.00000000000E+00 0.  1.
         11    1    3    3    0    0  0.34993532774E+02  0.45214339523E+01 -0.12109707698E+03  0.12613283773E+03  0.00000000000E+00 0. -1.
        -11    1    4    4    0    0 -0.12078194714E+02 -0.58719629232E+02 -0.15168897081E+03  0.16310555328E+03  0.00000000000E+00 0.  1.
         11    1    4    4    0    0  0.52602174744E+01  0.19865565006E+02 -0.34505360162E+01  0.20837868405E+02  0.00000000000E+00 0. -1.
          2    1    1    2  501    0  0.30918764190E+02  0.39538291960E+02 -0.16643532999E+03  0.17383890698E+03  0.00000000000E+00 0. -1.
<scales pt_clust_5="13000.00000" pt_clust_6="13000.00000" pt_clust_7="13000.00000" pt_clust_8="13000.00000" pt_clust_9="50.19212"></scales>
<clustering>
<clus scale="   50.192">  1  9  2 -1</clus>
<clus scale="   90.613">  7  8 -1 -1</clus>
<clus scale="   92.581">  1  7  2 -1</clus>
<clus scale="   93.653">  5  6 -1 -1</clus>
<clus scale="   50.192">  1  5  2 -1</clus>
</clustering>
</event>
<event>
 9    1  0.1881049E-005  0.1693233E+03  0.7546771E-02  0.1178710E+00
         21   -1    0    0  501  502  0.00000000000E+00  0.00000000000E+00  0.60623335081E+02  0.60623335081E+02  0.00000000000E+00 0.  1.
          1   -1    0    0  502    0 -0.00000000000E+00 -0.00000000000E+00 -0.54045505402E+03  0.54045505402E+03  0.00000000000E+00 0. -1.
         23    2    1    2    0    0 -0.98560615711E+02 -0.10093230441E+03 -0.22531129417E+03  0.28049407347E+03  0.89499837599E+02 0.  0.
         23    2    1    2    0    0  0.11791612284E+03  0.88508827889E+02 -0.22288280601E+03  0.28147015776E+03  0.88378050745E+02 0.  0.
        -11    1    3    3    0    0 -0.90444356543E+02 -0.31357179431E+02 -0.11261434856E+03  0.14780204949E+03  0.00000000000E+00 0.  1.
         11    1    3    3    0    0 -0.81162591678E+01 -0.69575124975E+02 -0.11269694561E+03  0.13269202398E+03  0.00000000000E+00 0. -1.
        -11    1    4    4    0    0  0.58106322208E+02 -0.70232719527E+01 -0.88124449855E+02  0.10579031001E+03  0.00000000000E+00 0. -1.
         11    1    4    4    0    0  0.59809800636E+02  0.95532099841E+02 -0.13475835615E+03  0.17567984775E+03  0.00000000000E+00 0.  1.
          1    1    1    2  501    0 -0.19355507133E+02  0.12423476517E+02 -0.31637618757E+02  0.39114157868E+02  0.00000000000E+00 0. -1.
<scales pt_clust_5="13000.00000" pt_clust_6="13000.00000" pt_clust_7="13000.00000" pt_clust_8="13000.00000" pt_clust_9="22.99954"></scales>
<clustering>
<clus scale="   23.000">  1  9  2 -1</clus>
<clus scale="   88.378">  7  8 -1 -1</clus>
<clus scale="   89.500">  5  6 -1 -1</clus>
<clus scale="  168.733">  1  7  2 -1</clus>
<clus scale="   23.000">  1  5  2 -1</clus>
</clustering>
</event>
<event>
 9    1  0.1881049E-005  0.1043840E+03  0.7546771E-02  0.1274951E+00
          1   -1    0    0  502    0 -0.00000000000E+00  0.00000000000E+00  0.38978316941E+03  0.38978316941E+03  0.00000000000E+00 0. -1.
         21   -1    0    0  501  502  0.00000000000E+00 -0.00000000000E+00 -0.79462530892E+02  0.79462530892E+02  0.00000000000E+00 0. -1.
         23    2    1    2    0    0  0.65946502926E+02  0.96760783151E+01  0.17905745248E+03  0.20798023183E+03  0.82168350366E+02 0.  0.
         23    2    1    2    0    0 -0.23173172509E+02  0.62523458477E+02  0.13700423282E+03  0.17715072229E+03  0.90366143079E+02 0.  0.
        -11    1    4    4    0    0 -0.16923782337E+02  0.13051543116E+02 -0.87567101935E+01  0.23096258565E+02  0.00000000000E+00 0.  1.
         11    1    4    4    0    0 -0.62493901720E+01  0.49471915361E+02  0.14576094301E+03  0.15405446373E+03  0.00000000000E+00 0. -1.
        -11    1    3    3    0    0  0.64827069271E+02  0.36696108417E+02  0.15418979351E+03  0.17124148360E+03  0.00000000000E+00 0. -1.
         11    1    3    3    0    0  0.11194336546E+01 -0.27020030102E+02  0.24867658969E+02  0.36738748223E+02  0.00000000000E+00 0.  1.
          1    1    1    2  501    0 -0.42773330416E+02 -0.72199536792E+02 -0.57410467763E+01  0.84114746186E+02  0.00000000000E+00 0. -1.
<scales pt_clust_5="13000.00000" pt_clust_6="13000.00000" pt_clust_7="13000.00000" pt_clust_8="13000.00000" pt_clust_9="83.91860"></scales>
<clustering>
<clus scale="   82.168">  7  8 -1 -1</clus>
<clus scale="   83.919">  2  9  1 -1</clus>
<clus scale="   90.366">  5  6 -1 -1</clus>
<clus scale="   97.374">  1  7  2 -1</clus>
<clus scale="   83.919">  2  5  1 -1</clus>
</clustering>
</event>
<event>
 9    1  0.1881049E-005  0.1910921E+03  0.7546771E-02  0.1157580E+00
          1   -1    0    0  502    0 -0.00000000000E+00  0.00000000000E+00  0.15065108031E+03  0.15065108031E+03  0.00000000000E+00 0. -1.
         21   -1    0    0  501  502  0.00000000000E+00 -0.00000000000E+00 -0.57920336513E+03  0.57920336513E+03  0.00000000000E+00 0. -1.
         23    2    1    2    0    0 -0.11137413164E+02  0.17680584767E+03  0.50854381775E+02  0.20546321190E+03  0.90799854398E+02 0.  0.
         23    2    1    2    0    0  0.18046092105E+02 -0.12002384983E+03 -0.39039123839E+03  0.41858163291E+03  0.89854763014E+02 0.  0.
        -11    1    4    4    0    0 -0.27331148400E+02 -0.11307771791E+02 -0.46877831207E+02  0.55429129836E+02  0.00000000000E+00 0.  1.
         11    1    4    4    0    0  0.45377240505E+02 -0.10871607803E+03 -0.34351340718E+03  0.36315250308E+03  0.00000000000E+00 0. -1.
        -11    1    3    3    0    0 -0.26384712489E+01  0.83739980167E+02 -0.22396318564E+02  0.86723358411E+02  0.00000000000E+00 0.  1.
         11    1    3    3    0    0 -0.84989419148E+01  0.93065867500E+02  0.73250700338E+02  0.11873985349E+03  0.00000000000E+00 0. -1.
          1    1    1    2  501    0 -0.69086789409E+01 -0.56781997841E+02 -0.89015428213E+02  0.10580960062E+03  0.00000000000E+00 0. -1.
<scales pt_clust_5="13000.00000" pt_clust_6="13000.00000" pt_clust_7="13000.00000" pt_clust_8="13000.00000" pt_clust_9="57.20074"></scales>
<clustering>
<clus scale="   57.201">  2  9  1 -1</clus>
<clus scale="   89.855">  5  6 -1 -1</clus>
<clus scale="   90.800">  7  8 -1 -1</clus>
<clus scale="  190.645">  2  5  1 -1</clus>
<clus scale="   57.201">  2  5  1 -1</clus>
</clustering>
</event>
<event>
 9    1  0.1881049E-005  0.1348430E+03  0.7546771E-02  0.1221839E+00
          1   -1    0    0  502    0 -0.00000000000E+00  0.00000000000E+00  0.58251556464E+02  0.58251556464E+02  0.00000000000E+00 0. -1.
         21   -1    0    0  501  502  0.00000000000E+00 -0.00000000000E+00 -0.77954584354E+03  0.77954584354E+03  0.00000000000E+00 0.  1.
         23    2    1    2    0    0 -0.67988962761E+02  0.61614266706E+02 -0.53878963866E+02  0.14309620550E+03  0.95680532832E+02 0.  0.
         23    2    1    2    0    0  0.10730361380E+03 -0.44286252856E+02 -0.46076256856E+03  0.48362949375E+03  0.90111069904E+02 0.  0.
        -13    1    3    3    0    0  0.24045763175E+02  0.18435202952E+02 -0.18261096177E+02  0.35376871938E+02  0.00000000000E+00 0.  1.
         13    1    3    3    0    0 -0.92034725937E+02  0.43179063754E+02 -0.35617867689E+02  0.10771933356E+03  0.00000000000E+00 0. -1.
        -13    1    4    4    0    0  0.70783720181E+02  0.16982450959E+02 -0.18537551935E+03  0.19915527073E+03  0.00000000000E+00 0. -1.
         13    1    4    4    0    0  0.36519893617E+02 -0.61268703815E+02 -0.27538704921E+03  0.28447422303E+03  0.00000000000E+00 0.  1.
          1    1    1    2  501    0 -0.39314651037E+02 -0.17328013850E+02 -0.20665275466E+03  0.21107170075E+03  0.00000000000E+00 0. -1.
<scales pt_clust_5="13000.00000" pt_clust_6="13000.00000" pt_clust_7="13000.00000" pt_clust_8="13000.00000" pt_clust_9="42.96396"></scales>
<clustering>
<clus scale="   42.964">  2  9  1 -1</clus>
<clus scale="   90.111">  7  8 -1 -1</clus>
<clus scale="   95.681">  5  6 -1 -1</clus>
<clus scale="  130.950">  2  7  1 -1</clus>
<clus scale="   42.964">  2  5  1 -1</clus>
</clustering>
</event>
<event>
 9    1  0.1881049E-005  0.9428552E+02  0.7546771E-02  0.1295005E+00
         21   -1    0    0  501  502  0.00000000000E+00  0.00000000000E+00  0.40816717672E+03  0.40816717672E+03  0.00000000000E+00 0.  1.
         -1   -1    0    0    0  501 -0.00000000000E+00 -0.00000000000E+00 -0.74528123411E+02  0.74528123411E+02  0.00000000000E+00 0.  1.
         23    2    1    2    0    0 -0.23462559518E+02  0.16946471183E+02 -0.20915749577E+02  0.94668321506E+02  0.87675241270E+02 0.  0.
         23    2    1    2    0    0 -0.32294736760E+00  0.19123090833E+01  0.11729696218E+03  0.14883524193E+03  0.91594708802E+02 0.  0.
        -11    1    3    3    0    0 -0.48482112572E+02  0.35939423767E+02 -0.87432443221E+01  0.60980338974E+02  0.00000000000E+00 0.  1.
         11    1    3    3    0    0  0.25019553054E+02 -0.18992952584E+02 -0.12172505255E+02  0.33687982532E+02  0.00000000000E+00 0. -1.
        -11    1    4    4    0    0  0.10397206001E+02  0.41551823320E+02  0.29793665234E+02  0.52175841171E+02  0.00000000000E+00 0. -1.
         11    1    4    4    0    0 -0.10720153368E+02 -0.39639514236E+02  0.87503296951E+02  0.96659400755E+02  0.00000000000E+00 0.  1.
         -1    1    1    2    0  502  0.23785506886E+02 -0.18858780266E+02  0.23725784070E+03  0.23919173670E+03  0.00000000000E+00 0.  1.
<scales pt_clust_5="13000.00000" pt_clust_6="13000.00000" pt_clust_7="13000.00000" pt_clust_8="13000.00000" pt_clust_9="30.35464"></scales>
<clustering>
<clus scale="   30.355">  1  9  2 -1</clus>
<clus scale="   87.675">  5  6 -1 -1</clus>
<clus scale="   90.483">  2  5  1 -1</clus>
<clus scale="   91.595">  7  8 -1 -1</clus>
<clus scale="   30.355">  1  5  2 -1</clus>
</clustering>
</event>
<event>
 9    1  0.1969052E-005  0.9208884E+02  0.7546771E-02  0.1298151E+00
          2   -1    0    0  502    0 -0.00000000000E+00  0.00000000000E+00  0.18663234883E+03  0.18663234883E+03  0.00000000000E+00 0. -1.
         21   -1    0    0  501  502  0.00000000000E+00 -0.00000000000E+00 -0.33062179212E+03  0.33062179212E+03  0.00000000000E+00 0. -1.
         23    2    1    2    0    0  0.22623463575E+02  0.19493863407E+02  0.10972739526E+03  0.14572779499E+03  0.91129891622E+02 0.  0.
         23    2    1    2    0    0  0.33902735135E+02  0.37580714032E+02  0.76969705003E+00  0.10466286901E+03  0.91607959259E+02 0.  0.
        -11    1    3    3    0    0 -0.18949272053E+02  0.14113905963E+02 -0.44989800094E+01  0.24052402665E+02  0.00000000000E+00 0.  1.
         11    1    3    3    0    0  0.41572735627E+02  0.53799574439E+01  0.11422637527E+03  0.12167539232E+03  0.00000000000E+00 0. -1.
        -13    1    4    4    0    0  0.17283863085E+02 -0.29802815617E+02 -0.58504238651E+01  0.34945202836E+02  0.00000000000E+00 0. -1.
         13    1    4    4    0    0  0.16618872050E+02  0.67383529649E+02  0.66201209151E+01  0.69717666177E+02  0.00000000000E+00 0.  1.
          2    1    1    2  501    0 -0.56526198710E+02 -0.57074577439E+02 -0.25448653560E+03  0.26686347695E+03  0.00000000000E+00 0. -1.
<scales pt_clust_5="13000.00000" pt_clust_6="13000.00000" pt_clust_7="13000.00000" pt_clust_8="13000.00000" pt_clust_9="80.32882"></scales>
<clustering>
<clus scale="   80.329">  2  9  1 -1</clus>
<clus scale="   91.130">  5  6 -1 -1</clus>
<clus scale="   91.608">  7  8 -1 -1</clus>
<clus scale="   91.613">  1  5  2 -1</clus>
<clus scale="   80.329">  2  5  1 -1</clus>
</clustering>
</event>
<event>
 9    1  0.1881049E-005  0.1016964E+03  0.7546771E-02  0.1278286E+00
          1   -1    0    0  502    0 -0.00000000000E+00  0.00000000000E+00  0.28732234034E+02  0.28732234034E+02  0.00000000000E+00 0. -1.
         21   -1    0    0  501  502  0.00000000000E+00 -0.00000000000E+00 -0.62191999753E+03  0.62191999753E+03  0.00000000000E+00 0.  1.
         23    2    1    2    0    0 -0.28458186159E+02 -0.28543407311E+02 -0.20310425923E+03  0.22506447316E+03  0.88193437971E+02 0.  0.
         23    2    1    2    0    0  0.62794598675E+02 -0.50033194781E+01 -0.33288374406E+03  0.35091390307E+03  0.91437330886E+02 0.  0.
        -13    1    4    4    0    0  0.83612959210E+02 -0.39002720634E+01 -0.30386447646E+03  0.31518242198E+03  0.00000000000E+00 0. -1.
         13    1    4    4    0    0 -0.20818360535E+02 -0.11030474147E+01 -0.29019267604E+02  0.35731481095E+02  0.00000000000E+00 0.  1.
        -13    1    3    3    0    0 -0.39735405913E+02 -0.54863146969E+02 -0.15362192835E+03  0.16789450333E+03  0.00000000000E+00 0.  1.
         13    1    3    3    0    0  0.11277219754E+02  0.26319739658E+02 -0.49482330883E+02  0.57169969833E+02  0.00000000000E+00 0. -1.
          1    1    1    2  501    0 -0.34336412516E+02  0.33546726789E+02 -0.57199760202E+02  0.74673855330E+02  0.00000000000E+00 0. -1.
<scales pt_clust_5="13000.00000" pt_clust_6="13000.00000" pt_clust_7="13000.00000" pt_clust_8="13000.00000" pt_clust_9="48.00390"></scales>
<clustering>
<clus scale="   48.004">  2  9  1 -1</clus>
<clus scale="   88.193">  7  8 -1 -1</clus>
<clus scale="   91.437">  5  6 -1 -1</clus>
<clus scale="   98.790">  1  7  2 -1</clus>
<clus scale="   48.004">  2  5  1 -1</clus>
</clustering>
</event>
<event>
 9    1  0.1881049E-005  0.1831013E+03  0.7546771E-02  0.1186951E+00
         21   -1    0    0  501  502  0.00000000000E+00  0.00000000000E+00  0.37865307963E+03  0.37865307963E+03  0.00000000000E+00 0. -1.
          2   -1    0    0  502    0 -0.00000000000E+00 -0.00000000000E+00 -0.28568917778E+03  0.28568917778E+03  0.00000000000E+00 0. -1.
         23    2    1    2    0    0  0.64000261909E+02  0.17580860021E+02 -0.11786522305E+03  0.16188621612E+03  0.88937146362E+02 0.  0.
         23    2    1    2    0    0  0.58115898642E+02  0.95144064445E+02 -0.81021180993E+02  0.16660508281E+03  0.93610742840E+02 0.  0.
        -11    1    4    4    0    0 -0.15437817452E+02  0.54605487467E+02 -0.54121851105E+02  0.78417219003E+02  0.00000000000E+00 0.  1.
         11    1    4    4    0    0  0.73553716094E+02  0.40538576978E+02 -0.26899329888E+02  0.88187863808E+02  0.00000000000E+00 0. -1.
        -13    1    3    3    0    0  0.46207484508E+02  0.50810281799E+02 -0.96852428059E+02  0.11873166882E+03  0.00000000000E+00 0. -1.
         13    1    3    3    0    0  0.17792777401E+02 -0.33229421777E+02 -0.21012794990E+02  0.43154547299E+02  0.00000000000E+00 0.  1.
          2    1    1    2  501    0 -0.12211616055E+03 -0.11272492447E+03  0.29185030589E+03  0.33585095848E+03  0.00000000000E+00 0. -1.
<scales pt_clust_5="13000.00000" pt_clust_6="13000.00000" pt_clust_7="13000.00000" pt_clust_8="13000.00000" pt_clust_9="157.36303"></scales>
<clustering>
<clus scale="   88.937">  7  8 -1 -1</clus>
<clus scale="   93.611">  5  6 -1 -1</clus>
<clus scale="  110.973">  2  7  1 -1</clus>
<clus scale="  157.363">  1  9  2 -1</clus>
<clus scale="  157.363">  1  5  2 -1</clus>
</clustering>
</event>
<event>
 9    1  0.1881049E-005  0.1351977E+03  0.7546771E-02  0.1220054E+00
          2   -1    0    0  502    0 -0.00000000000E+00  0.00000000000E+00  0.16377141981E+03  0.16377141981E+03  0.00000000000E+00 0. -1.
         21   -1    0    0  501  502  0.00000000000E+00 -0.00000000000E+00 -0.33715190130E+03  0.33715190130E+03  0.00000000000E+00 0. -1.
         23    2    1    2    0    0 -0.30188772931E+02 -0.79555257354E+02 -0.12238064431E+02  0.12554370543E+03  0.91493446580E+02 0.  0.
         23    2    1    2    0    0  0.10528493454E+03  0.11534438691E+03 -0.21119182950E+03  0.27829594575E+03  0.91964120949E+02 0.  0.
        -11    1    3    3    0    0  0.31553025552E+02 -0.33258613027E+02  0.60301533881E+01  0.46239501639E+02  0.00000000000E+00 0. -1.
         11    1    3    3    0    0 -0.61741798483E+02 -0.46296644328E+02 -0.18268217819E+02  0.79304203787E+02  0.00000000000E+00 0.  1.
        -13    1    4    4    0    0  0.47742434720E+02 -0.88123187247E+00 -0.33586081876E+02  0.58379290321E+02  0.00000000000E+00 0.  1.
         13    1    4    4    0    0  0.57542499817E+02  0.11622561878E+03 -0.17760574763E+03  0.21991665543E+03  0.00000000000E+00 0. -1.
          2    1    1    2  501    0 -0.75096161606E+02 -0.35789129555E+02  0.50049412439E+02  0.97083669933E+02  0.00000000000E+00 0. -1.
<scales pt_clust_5="13000.00000" pt_clust_6="13000.00000" pt_clust_7="13000.00000" pt_clust_8="13000.00000" pt_clust_9="83.18835"></scales>
<clustering>
<clus scale="   83.188">  2  9  1 -1</clus>
<clus scale="   91.493">  5  6 -1 -1</clus>
<clus scale="   91.964">  7  8 -1 -1</clus>
<clus scale="  134.878">  1  5  2 -1</clus>
<clus scale="   83.188">  2  5  1 -1</clus>
</clustering>
</event>
<event>
 9    1  0.1881049E-005  0.1120218E+03  0.7546771E-02  0.1258344E+00
         21   -1    0    0  501  502  0.00000000000E+00  0.00000000000E+00  0.26166168184E+03  0.26166168184E+03  0.00000000000E+00 0. -1.
          1   -1    0    0  502    0 -0.00000000000E+00 -0.00000000000E+00 -0.98879451188E+02  0.98879451188E+02  0.00000000000E+00 0. -1.
         23    2    1    2    0    0  0.68407705986E+02  0.11742857611E+02 -0.25898345197E+02  0.11583874307E+03  0.89052687600E+02 0.  0.
         23    2    1    2    0    0 -0.45811933841E+02 -0.11249179534E+02  0.74034811085E+02  0.12785007284E+03  0.92947353652E+02 0.  0.
        -11    1    4    4    0    0 -0.38422512442E+02 -0.31939063918E+02  0.88440721975E+02  0.10157831742E+03  0.00000000000E+00 0.  1.
         11    1    4    4    0    0 -0.73894213988E+01  0.20689884384E+02 -0.14405910890E+02  0.26271755423E+02  0.00000000000E+00 0. -1.
        -11    1    3    3    0    0 -0.50737198231E+01 -0.22836198110E+02  0.11918742278E+02  0.26254351915E+02  0.00000000000E+00 0.  1.
         11    1    3    3    0    0  0.73481425809E+02  0.34579055721E+02 -0.37817087475E+02  0.89584391155E+02  0.00000000000E+00 0. -1.
          1    1    1    2  501    0 -0.22595772145E+02 -0.49367807725E+00  0.11464576476E+03  0.11685231711E+03  0.00000000000E+00 0. -1.
<scales pt_clust_5="13000.00000" pt_clust_6="13000.00000" pt_clust_7="13000.00000" pt_clust_8="13000.00000" pt_clust_9="22.60116"></scales>
<clustering>
<clus scale="   22.601">  1  9  2 -1</clus>
<clus scale="   89.053">  7  8 -1 -1</clus>
<clus scale="   92.947">  5  6 -1 -1</clus>
<clus scale="  108.812">  2  7  1 -1</clus>
<clus scale="   22.601">  1  5  2 -1</clus>
</clustering>
</event>
<event>
 9    1  0.1881049E-005  0.9529461E+02  0.7546771E-02  0.1291078E+00
         21   -1    0    0  501  502  0.00000000000E+00  0.00000000000E+00  0.11859746707E+03  0.11859746707E+03  0.00000000000E+00 0. -1.
          2   -1    0    0  502    0 -0.00000000000E+00 -0.00000000000E+00 -0.19331876985E+03  0.19331876985E+03  0.00000000000E+00 0. -1.
         23    2    1    2    0    0  0.19002653871E+02 -0.52129578565E+01 -0.11598885396E+03  0.14907288197E+03  0.91547988028E+02 0.  0.
         23    2    1    2    0    0 -0.40532423643E+02  0.18969747896E+02 -0.14022419830E+02  0.10193554633E+03  0.90506898330E+02 0.  0.
        -11    1    4    4    0    0  0.39734012261E+01 -0.25242169433E+02  0.18237460555E+02  0.31393629967E+02  0.00000000000E+00 0.  1.
         11    1    4    4    0    0 -0.44505824869E+02  0.44211917329E+02 -0.32259880385E+02  0.70541916359E+02  0.00000000000E+00 0. -1.
        -13    1    3    3    0    0  0.40294959692E+02 -0.37441698349E+02 -0.66944382639E+02  0.86643608644E+02  0.00000000000E+00 0.  1.
         13    1    3    3    0    0 -0.21292305821E+02  0.32228740492E+02 -0.49044471318E+02  0.62429273323E+02  0.00000000000E+00 0. -1.
          2    1    1    2  501    0  0.21529769772E+02 -0.13756790039E+02  0.55289971003E+02  0.60907808630E+02  0.00000000000E+00 0. -1.
<scales pt_clust_5="13000.00000" pt_clust_6="13000.00000" pt_clust_7="13000.00000" pt_clust_8="13000.00000" pt_clust_9="25.54956"></scales>
<clustering>
<clus scale="   25.550">  1  9  2 -1</clus>
<clus scale="   90.507">  5  6 -1 -1</clus>
<clus scale="   91.548">  7  8 -1 -1</clus>
<clus scale="   94.295">  1  5  2 -1</clus>
<clus scale="   25.550">  1  5  2 -1</clus>
</clustering>
</event>
<event>
 9    1  0.1881049E-005  0.1004572E+03  0.7546771E-02  0.1280384E+00
          2   -1    0    0  502    0 -0.00000000000E+00  0.00000000000E+00  0.42028117026E+03  0.42028117026E+03  0.00000000000E+00 0. -1.
         21   -1    0    0  501  502  0.00000000000E+00 -0.00000000000E+00 -0.54412303265E+02  0.54412303265E+02  0.00000000000E+00 0. -1.
         23    2    1    2    0    0  0.39415494522E+02 -0.37741511841E+01  0.29348652540E+03  0.30909772666E+03  0.88539474877E+02 0.  0.
         23    2    1    2    0    0 -0.52014064438E+02  0.19773994585E+02  0.89440860631E+02  0.13903050595E+03  0.90737755493E+02 0.  0.
        -11    1    3    3    0    0  0.39456792025E+02  0.38167529792E+02  0.17488579738E+03  0.18329932049E+03  0.00000000000E+00 0. -1.
         11    1    3    3    0    0 -0.41297502391E-01 -0.41941680976E+02  0.11860072802E+03  0.12579840617E+03  0.00000000000E+00 0.  1.
        -11    1    4    4    0    0 -0.40913086685E+02 -0.62591150113E+01 -0.38248000476E+01  0.41565445724E+02  0.00000000000E+00 0. -1.
         11    1    4    4    0    0 -0.11100977753E+02  0.26033109596E+02  0.93265660679E+02  0.97465060222E+02  0.00000000000E+00 0.  1.
          2    1    1    2  501    0  0.12598569916E+02 -0.15999843401E+02 -0.17058519042E+02  0.26565240911E+02  0.00000000000E+00 0. -1.
<scales pt_clust_5="13000.00000" pt_clust_6="13000.00000" pt_clust_7="13000.00000" pt_clust_8="13000.00000" pt_clust_9="20.36465"></scales>
<clustering>
<clus scale="   20.365">  2  9  1 -1</clus>
<clus scale="   88.539">  5  6 -1 -1</clus>
<clus scale="   90.738">  7  8 -1 -1</clus>
<clus scale="   98.476">  1  5  2 -1</clus>
<clus scale="   20.365">  2  5  1 -1</clus>
</clustering>
</event>
<event>
 9    1  0.1881049E-005  0.1078473E+03  0.7546771E-02  0.1267127E+00
         21   -1    0    0  501  502  0.00000000000E+00  0.00000000000E+00  0.16359462031E+03  0.16359462031E+03  0.00000000000E+00 0. -1.
          1   -1    0    0  502    0 -0.00000000000E+00 -0.00000000000E+00 -0.27094294712E+03  0.27094294712E+03  0.00000000000E+00 0. -1.
         23    2    1    2    0    0  0.36260890136E+02 -0.60151102804E+02 -0.11144089074E+03  0.15693881325E+03  0.85309505069E+02 0.  0.
         23    2    1    2    0    0 -0.64124482549E+02 -0.62055061802E+01 -0.10067167220E+03  0.15049594339E+03  0.91453735975E+02 0.  0.
        -11    1    4    4    0    0 -0.13735278929E+02 -0.26744014857E+02 -0.90206220827E+02  0.95084501859E+02  0.00000000000E+00 0. -1.
         11    1    4    4    0    0 -0.50389203620E+02  0.20538508677E+02 -0.10465451376E+02  0.55411441532E+02  0.00000000000E+00 0.  1.
        -13    1    3    3    0    0  0.57890776044E+02 -0.44728942612E+02 -0.46270112304E+02  0.86561790363E+02  0.00000000000E+00 0.  1.
         13    1    3    3    0    0 -0.21629885909E+02 -0.15422160192E+02 -0.65170778431E+02  0.70377022889E+02  0.00000000000E+00 0. -1.
          1    1    1    2  501    0  0.27863592413E+02  0.66356608985E+02  0.10476423613E+03  0.12710281079E+03  0.00000000000E+00 0. -1.
<scales pt_clust_5="13000.00000" pt_clust_6="13000.00000" pt_clust_7="13000.00000" pt_clust_8="13000.00000" pt_clust_9="71.96929"></scales>
<clustering>
<clus scale="   71.969">  1  9  2 -1</clus>
<clus scale="   85.310">  7  8 -1 -1</clus>
<clus scale="   91.454">  5  6 -1 -1</clus>
<clus scale="  102.689">  2  7  1 -1</clus>
<clus scale="   71.969">  1  5  2 -1</clus>
</clustering>
</event>
<event>
 9    1  0.1881049E-005  0.1164274E+03  0.7546771E-02  0.1249927E+00
          4   -1    0    0  502    0 -0.00000000000E+00  0.00000000000E+00  0.41674085215E+03  0.41674085215E+03  0.00000000000E+00 0. -1.
         21   -1    0    0  501  502  0.00000000000E+00 -0.00000000000E+00 -0.63292061171E+02  0.63292061171E+02  0.00000000000E+00 0. -1.
         23    2    1    2    0    0  0.56751188342E+02 -0.61285079026E+01  0.17766023100E+03  0.20673903110E+03  0.88992209288E+02 0.  0.
         23    2    1    2    0    0 -0.91825008668E+02  0.11944460906E+02  0.19380877600E+03  0.23343505174E+03  0.91408858236E+02 0.  0.
        -13    1    3    3    0    0  0.27489727248E+02  0.38065726421E+02  0.50403758662E+02  0.68885582812E+02  0.00000000000E+00 0.  1.
         13    1    3    3    0    0  0.29261461094E+02 -0.44194234324E+02  0.12725647234E+03  0.13785344829E+03  0.00000000000E+00 0. -1.
        -13    1    4    4    0    0 -0.99617186235E+01 -0.25129784468E+02  0.99800958248E+01  0.28815693953E+02  0.00000000000E+00 0.  1.
         13    1    4    4    0    0 -0.81863290044E+02  0.37074245374E+02  0.18382868018E+03  0.20461935779E+03  0.00000000000E+00 0. -1.
          4    1    1    2  501    0  0.35073820326E+02 -0.58159530034E+01 -0.18020216023E+02  0.39858830478E+02  0.00000000000E+00 0. -1.
<scales pt_clust_5="13000.00000" pt_clust_6="13000.00000" pt_clust_7="13000.00000" pt_clust_8="13000.00000" pt_clust_9="35.55275"></scales>
<clustering>
<clus scale="   35.553">  2  9  1 -1</clus>
<clus scale="   88.992">  5  6 -1 -1</clus>
<clus scale="   91.409">  7  8 -1 -1</clus>
<clus scale="  114.540">  1  5  2 -1</clus>
<clus scale="   35.553">  2  5  1 -1</clus>
</clustering>
</event>
<event>
 9    1  0.1881049E-005  0.1270761E+03  0.7546771E-02  0.1232746E+00
         21   -1    0    0  501  502  0.00000000000E+00  0.00000000000E+00  0.54793977104E+03  0.54793977104E+03  0.00000000000E+00 0.  1.
          1   -1    0    0  502    0 -0.00000000000E+00 -0.00000000000E+00 -0.42303258769E+02  0.42303258769E+02  0.00000000000E+00 0. -1.
         23    2    1    2    0    0 -0.64049309354E+02  0.48341222862E+02  0.11616586328E+03  0.16736203948E+03  0.89868551835E+02 0.  0.
         23    2    1    2    0    0  0.83425449364E+02 -0.54914304268E+02  0.27978146015E+03  0.31129981653E+03  0.93029693697E+02 0.  0.
        -13    1    4    4    0    0  0.62108968884E+02 -0.77352112032E+02  0.24720046876E+03  0.26636243167E+03  0.00000000000E+00 0.  1.
         13    1    4    4    0    0  0.21316480480E+02  0.22437807764E+02  0.32580991393E+02  0.44937384854E+02  0.00000000000E+00 0. -1.
        -13    1    3    3    0    0 -0.65244368615E+02 -0.21307365395E+00  0.92863513915E+02  0.11349231363E+03  0.00000000000E+00 0. -1.
         13    1    3    3    0    0  0.11950592612E+01  0.48554296516E+02  0.23302349370E+02  0.53869725848E+02  0.00000000000E+00 0.  1.
          1    1    1    2  501    0 -0.19376140010E+02  0.65730814054E+01  0.10968918883E+03  0.11158117380E+03  0.00000000000E+00 0. -1.
<scales pt_clust_5="13000.00000" pt_clust_6="13000.00000" pt_clust_7="13000.00000" pt_clust_8="13000.00000" pt_clust_9="20.46070"></scales>
<clustering>
<clus scale="   20.461">  1  9  2 -1</clus>
<clus scale="   89.869">  7  8 -1 -1</clus>
<clus scale="   93.030">  5  6 -1 -1</clus>
<clus scale="  124.781">  2  7  1 -1</clus>
<clus scale="   20.461">  1  5  2 -1</clus>
</clustering>
</event>
<event>
 9    1  0.1881049E-005  0.9300268E+02  0.7546771E-02  0.1297078E+00
         21   -1    0    0  501  502  0.00000000000E+00  0.00000000000E+00  0.50083935311E+03  0.50083935311E+03  0.00000000000E+00 0. -1.
          1   -1    0    0  502    0 -0.00000000000E+00 -0.00000000000E+00 -0.25930732108E+02  0.25930732108E+02  0.00000000000E+00 0. -1.
         23    2    1    2    0    0  0.33550892659E+02  0.99174910897E+01  0.16199822131E+03  0.18775904192E+03  0.88238399173E+02 0.  0.
         23    2    1    2    0    0 -0.24390577801E+02  0.19175310951E+02  0.17070387123E+03  0.19357033635E+03  0.85831641176E+02 0.  0.
        -11    1    3    3    0    0 -0.28183202738E+02  0.47620753727E+01  0.80260923279E+02  0.85198509870E+02  0.00000000000E+00 0.  1.
         11    1    3    3    0    0  0.61734095397E+02  0.51554157170E+01  0.81737298028E+02  0.10256053205E+03  0.00000000000E+00 0. -1.
        -13    1    4    4    0    0 -0.34561676548E+01 -0.28970025269E+02  0.24074774028E+02  0.37825946167E+02  0.00000000000E+00 0.  1.
         13    1    4    4    0    0 -0.20934410146E+02  0.48145336220E+02  0.14662909720E+03  0.15574439018E+03  0.00000000000E+00 0. -1.
          1    1    1    2  501    0 -0.91603148580E+01 -0.29092802041E+02  0.14220652847E+03  0.14544070695E+03  0.00000000000E+00 0. -1.
<scales pt_clust_5="13000.00000" pt_clust_6="13000.00000" pt_clust_7="13000.00000" pt_clust_8="13000.00000" pt_clust_9="30.50086"></scales>
<clustering>
<clus scale="   30.501">  1  9  2 -1</clus>
<clus scale="   85.832">  7  8 -1 -1</clus>
<clus scale="   88.238">  5  6 -1 -1</clus>
<clus scale="   90.722">  1  7  2 -1</clus>
<clus scale="   30.501">  1  5  2 -1</clus>
</clustering>
</event>
<event>
 9    1  0.1881049E-005  0.1271928E+03  0.7546771E-02  0.1233295E+00
         21   -1    0    0  501  502  0.00000000000E+00  0.00000000000E+00  0.22564613064E+03  0.22564613064E+03  0.00000000000E+00 0. -1.
          1   -1    0    0  502    0 -0.00000000000E+00 -0.00000000000E+00 -0.19911472976E+03  0.19911472976E+03  0.00000000000E+00 0. -1.
         23    2    1    2    0    0 -0.56412100447E+02  0.47467410361E+02 -0.45824458279E+02  0.12228356006E+03  0.86127277679E+02 0.  0.
         23    2    1    2    0    0  0.71272402813E+02 -0.75591404782E+02 -0.70845242722E+02  0.15578598081E+03  0.91958727266E+02 0.  0.
        -11    1    3    3    0    0 -0.50579274982E+02  0.71070060313E+02 -0.44522464194E+02  0.97936031922E+02  0.00000000000E+00 0. -1.
         11    1    3    3    0    0 -0.58328254650E+01 -0.23602649953E+02 -0.13019940844E+01  0.24347528135E+02  0.00000000000E+00 0.  1.
        -13    1    4    4    0    0 -0.25202286118E+01 -0.63932258716E+02 -0.34876514313E+02  0.72870134536E+02  0.00000000000E+00 0.  1.
         13    1    4    4    0    0  0.73792631425E+02 -0.11659146066E+02 -0.35968728409E+02  0.82915846272E+02  0.00000000000E+00 0. -1.
          1    1    1    2  501    0 -0.14860302365E+02  0.28123994421E+02  0.14320110188E+03  0.14669131954E+03  0.00000000000E+00 0. -1.
<scales pt_clust_5="13000.00000" pt_clust_6="13000.00000" pt_clust_7="13000.00000" pt_clust_8="13000.00000" pt_clust_9="31.80861"></scales>
<clustering>
<clus scale="   31.809">  1  9  2 -1</clus>
<clus scale="   86.127">  5  6 -1 -1</clus>
<clus scale="   91.959">  7  8 -1 -1</clus>
<clus scale="  123.043">  2  5  1 -1</clus>
<clus scale="   31.809">  1  5  2 -1</clus>
</clustering>
</event>
<event>
 9    1  0.1881049E-005  0.9518174E+02  0.7546771E-02  0.1299594E+00
         21   -1    0    0  501  502  0.00000000000E+00  0.00000000000E+00  0.78495273291E+02  0.78495273291E+02  0.00000000000E+00 0.  1.
          3   -1    0    0  502    0 -0.00000000000E+00 -0.00000000000E+00 -0.13456102819E+03  0.13456102819E+03  0.00000000000E+00 0. -1.
         23    2    1    2    0    0 -0.10912695631E+02 -0.21497608883E+02 -0.36349363411E+02  0.87178334013E+02  0.75482127602E+02 0.  0.
         23    2    1    2    0    0  0.35752757337E+02  0.18937631330E+02 -0.14914350307E+02  0.10044881589E+03  0.90722837425E+02 0.  0.
        -11    1    4    4    0    0  0.31454580987E+02 -0.32989588210E+02  0.21174866394E+01  0.45630991059E+02  0.00000000000E+00 0.  1.
         11    1    4    4    0    0  0.42981763497E+01  0.51927219541E+02 -0.17031836946E+02  0.54817824828E+02  0.00000000000E+00 0. -1.
        -11    1    3    3    0    0  0.14519397333E+02 -0.15826851032E+02  0.17271965900E+02  0.27561257565E+02  0.00000000000E+00 0.  1.
         11    1    3    3    0    0 -0.25432092964E+02 -0.56707578520E+01 -0.53621329311E+02  0.59617076449E+02  0.00000000000E+00 0. -1.
          3    1    1    2  501    0 -0.24840061705E+02  0.25599775532E+01 -0.48020411817E+01  0.25429151581E+02  0.00000000000E+00 0. -1.
<scales pt_clust_5="13000.00000" pt_clust_6="13000.00000" pt_clust_7="13000.00000" pt_clust_8="13000.00000" pt_clust_9="24.97163"></scales>
<clustering>
<clus scale="   24.972">  1  9  2 -1</clus>
<clus scale="   75.482">  7  8 -1 -1</clus>
<clus scale="   80.787">  2  7  1 -1</clus>
<clus scale="   90.723">  5  6 -1 -1</clus>
<clus scale="   24.972">  1  5  2 -1</clus>
</clustering>
</event>
<event>
 9    1  0.1881049E-005  0.9812316E+02  0.7546771E-02  0.1287081E+00
          1   -1    0    0  502    0 -0.00000000000E+00  0.00000000000E+00  0.26617106335E+03  0.26617106335E+03  0.00000000000E+00 0. -1.
         21   -1    0    0  501  502  0.00000000000E+00 -0.00000000000E+00 -0.14661545862E+03  0.14661545862E+03  0.00000000000E+00 0. -1.
         23    2    1    2    0    0  0.15173096249E+02  0.59788062280E+01  0.10451320599E+03  0.13884686462E+03  0.89941495502E+02 0.  0.
         23    2    1    2    0    0 -0.28520182961E+02  0.29122444475E+02  0.12234754486E+03  0.16025308422E+03  0.95134702721E+02 0.  0.
        -13    1    4    4    0    0  0.84326590164E+01  0.36682007205E+02  0.11606481381E+03  0.12201524657E+03  0.00000000000E+00 0. -1.
         13    1    4    4    0    0 -0.36952841978E+02 -0.75595627298E+01  0.62827310465E+01  0.38237837652E+02  0.00000000000E+00 0.  1.
        -13    1    3    3    0    0  0.19822024772E+02 -0.30941714402E+02  0.92838614466E+02  0.99846435551E+02  0.00000000000E+00 0.  1.
         13    1    3    3    0    0 -0.46489285229E+01  0.36920520630E+02  0.11674591528E+02  0.39000429066E+02  0.00000000000E+00 0. -1.
          1    1    1    2  501    0  0.13347086713E+02 -0.35101250703E+02 -0.10730514612E+03  0.11368657313E+03  0.00000000000E+00 0. -1.
<scales pt_clust_5="13000.00000" pt_clust_6="13000.00000" pt_clust_7="13000.00000" pt_clust_8="13000.00000" pt_clust_9="37.55320"></scales>
<clustering>
<clus scale="   37.553">  2  9  1 -1</clus>
<clus scale="   89.941">  7  8 -1 -1</clus>
<clus scale="   93.097">  1  7  2 -1</clus>
<clus scale="   95.135">  5  6 -1 -1</clus>
<clus scale="   37.553">  2  5  1 -1</clus>
</clustering>
</event>
<event>
 9    1  0.1881049E-005  0.1013611E+03  0.7546771E-02  0.1277844E+00
          1   -1    0    0  502    0 -0.00000000000E+00  0.00000000000E+00  0.34421426970E+02  0.34421426970E+02  0.00000000000E+00 0. -1.
         21   -1    0    0  501  502  0.00000000000E+00 -0.00000000000E+00 -0.55902875784E+03  0.55902875784E+03  0.00000000000E+00 0. -1.
         23    2    1    2    0    0 -0.62422347037E+01  0.53833721905E+02 -0.11008234950E+03  0.15213051669E+03  0.89936284823E+02 0.  0.
         23    2    1    2    0    0  0.39185407004E+02 -0.18069022644E+02 -0.24113048732E+03  0.26123630720E+03  0.90766241427E+02 0.  0.
        -11    1    3    3    0    0  0.29462857910E+02 -0.76235085249E+01 -0.52385438123E+02  0.60583925308E+02  0.00000000000E+00 0.  1.
         11    1    3    3    0    0 -0.35705092613E+02  0.61457230430E+02 -0.57696911377E+02  0.91546591378E+02  0.00000000000E+00 0. -1.
        -11    1    4    4    0    0 -0.19659175098E+02 -0.29058627541E+02 -0.50980458351E+02  0.61886138462E+02  0.00000000000E+00 0.  1.
         11    1    4    4    0    0  0.58844582102E+02  0.10989604897E+02 -0.19015002897E+03  0.19935016874E+03  0.00000000000E+00 0. -1.
          1    1    1    2  501    0 -0.32943172301E+02 -0.35764699260E+02 -0.17339449405E+03  0.18008336092E+03  0.00000000000E+00 0. -1.
<scales pt_clust_5="13000.00000" pt_clust_6="13000.00000" pt_clust_7="13000.00000" pt_clust_8="13000.00000" pt_clust_9="48.62475"></scales>
<clustering>
<clus scale="   48.625">  2  9  1 -1</clus>
<clus scale="   89.936">  5  6 -1 -1</clus>
<clus scale="   90.766">  7  8 -1 -1</clus>
<clus scale="  100.619">  1  5  2 -1</clus>
<clus scale="   48.625">  2  5  1 -1</clus>
</clustering>
</event>
<event>
 9    1  0.1881049E-005  0.9360796E+02  0.7546771E-02  0.1295043E+00
         21   -1    0    0  501  502  0.00000000000E+00  0.00000000000E+00  0.16720553711E+03  0.16720553711E+03  0.00000000000E+00 0. -1.
          1   -1    0    0  502    0 -0.00000000000E+00 -0.00000000000E+00 -0.25767679357E+03  0.25767679357E+03  0.00000000000E+00 0. -1.
         23    2    1    2    0    0  0.19342772317E+01  0.32683331159E+01 -0.17789766472E+03  0.20033380412E+03  0.92041460935E+02 0.  0.
         23    2    1    2    0    0 -0.72310028776E+02  0.24953762963E+02  0.87007596748E+02  0.14872367235E+03  0.93257590991E+02 0.  0.
        -11    1    3    3    0    0 -0.28475301232E+02 -0.31031482722E+02 -0.11526860162E+03  0.12272182455E+03  0.00000000000E+00 0.  1.
         11    1    3    3    0    0  0.30409578464E+02  0.34299815838E+02 -0.62629063096E+02  0.77611979573E+02  0.00000000000E+00 0. -1.
        -13    1    4    4    0    0 -0.67304194084E+02 -0.18241308110E+02  0.77421461460E+02  0.10419540564E+03  0.00000000000E+00 0. -1.
         13    1    4    4    0    0 -0.50058346916E+01  0.43195071072E+02  0.95861352881E+01  0.44528266704E+02  0.00000000000E+00 0.  1.
          1    1    1    2  501    0  0.70375751544E+02 -0.28222096079E+02  0.41881150537E+00  0.75824854207E+02  0.00000000000E+00 0. -1.
<scales pt_clust_5="13000.00000" pt_clust_6="13000.00000" pt_clust_7="13000.00000" pt_clust_8="13000.00000" pt_clust_9="75.82370"></scales>
<clustering>
<clus scale="   75.824">  1  9  2 -1</clus>
<clus scale="   92.041">  5  6 -1 -1</clus>
<clus scale="   92.396">  2  5  1 -1</clus>
<clus scale="   93.258">  7  8 -1 -1</clus>
<clus scale="   75.824">  1  5  2 -1</clus>
</clustering>
</event>
<event>
 9    1  0.1881049E-005  0.9828546E+02  0.7546771E-02  0.1284098E+00
         21   -1    0    0  501  502  0.00000000000E+00  0.00000000000E+00  0.68717006509E+02  0.68717006509E+02  0.00000000000E+00 0.  1.
         -1   -1    0    0    0  501 -0.00000000000E+00 -0.00000000000E+00 -0.34869393426E+03  0.34869393426E+03  0.00000000000E+00 0.  1.
         23    2    1    2    0    0 -0.19229303756E+02  0.21551781024E+02 -0.18745062574E+03  0.21049246340E+03  0.91296739645E+02 0.  0.
         23    2    1    2    0    0 -0.18601055097E+02 -0.72405489698E+02 -0.79856708678E+02  0.14228292730E+03  0.90987819467E+02 0.  0.
        -11    1    3    3    0    0  0.36695022196E+02  0.64806581325E+01 -0.62390014145E+02  0.72670746858E+02  0.00000000000E+00 0.  1.
         11    1    3    3    0    0 -0.55924325952E+02  0.15071122892E+02 -0.12506061160E+03  0.13782171655E+03  0.00000000000E+00 0. -1.
        -13    1    4    4    0    0 -0.14847430998E+02 -0.18130601591E+02 -0.84491701664E+02  0.87681312555E+02  0.00000000000E+00 0. -1.
         13    1    4    4    0    0 -0.37536240987E+01 -0.54274888106E+02  0.46349929867E+01  0.54601614745E+02  0.00000000000E+00 0.  1.
         -1    1    1    2    0  502  0.37830358853E+02  0.50853708673E+02 -0.12669593328E+02  0.64635550062E+02  0.00000000000E+00 0.  1.
<scales pt_clust_5="13000.00000" pt_clust_6="13000.00000" pt_clust_7="13000.00000" pt_clust_8="13000.00000" pt_clust_9="63.38167"></scales>
<clustering>
<clus scale="   63.382">  1  9  2 -1</clus>
<clus scale="   90.988">  7  8 -1 -1</clus>
<clus scale="   91.297">  5  6 -1 -1</clus>
<clus scale="   97.999">  1  7  2 -1</clus>
<clus scale="   63.382">  1  5  2 -1</clus>
</clustering>
</event>
<event>
 9    1  0.1881049E-005  0.9869365E+02  0.7546771E-02  0.1286192E+00
          3   -1    0    0  502    0 -0.00000000000E+00  0.00000000000E+00  0.73992384093E+02  0.73992384093E+02  0.00000000000E+00 0. -1.
         21   -1    0    0  501  502  0.00000000000E+00 -0.00000000000E+00 -0.23524758747E+03  0.23524758747E+03  0.00000000000E+00 0. -1.
         23    2    1    2    0    0  0.10191567688E+02  0.15540351534E+02 -0.32953487144E+02  0.93483491170E+02  0.85486023586E+02 0.  0.
         23    2    1    2    0    0 -0.59496284463E+00 -0.71399479668E+02 -0.77388244182E+02  0.13956908867E+03  0.91609772941E+02 0.  0.
        -11    1    4    4    0    0 -0.37247243840E+02 -0.25207189886E+02 -0.65437878495E+02  0.79403246392E+02  0.00000000000E+00 0.  1.
         11    1    4    4    0    0  0.36652280996E+02 -0.46192289782E+02 -0.11950365687E+02  0.60165842283E+02  0.00000000000E+00 0. -1.
        -13    1    3    3    0    0 -0.18464960745E+02  0.40515569674E+02 -0.21842472564E+01  0.44578437584E+02  0.00000000000E+00 0. -1.
         13    1    3    3    0    0  0.28656528434E+02 -0.24975218140E+02 -0.30769239887E+02  0.48905053586E+02  0.00000000000E+00 0.  1.
          3    1    1    2  501    0 -0.95966048438E+01  0.55859128134E+02 -0.50913472051E+02  0.76187391718E+02  0.00000000000E+00 0. -1.
<scales pt_clust_5="13000.00000" pt_clust_6="13000.00000" pt_clust_7="13000.00000" pt_clust_8="13000.00000" pt_clust_9="56.67748"></scales>
<clustering>
<clus scale="   56.677">  2  9  1 -1</clus>
<clus scale="   85.486">  7  8 -1 -1</clus>
<clus scale="   91.610">  5  6 -1 -1</clus>
<clus scale="   93.037">  1  7  2 -1</clus>
<clus scale="   56.677">  2  5  1 -1</clus>
</clustering>
</event>
<event>
 9    1  0.1881049E-005  0.1263333E+03  0.7546771E-02  0.1235459E+00
         21   -1    0    0  501  502  0.00000000000E+00  0.00000000000E+00  0.12396830303E+03  0.12396830303E+03  0.00000000000E+00 0.  1.
          1   -1    0    0  502    0 -0.00000000000E+00 -0.00000000000E+00 -0.23408892929E+03  0.23408892929E+03  0.00000000000E+00 0. -1.
         23    2    1    2    0    0 -0.72372757524E+02 -0.26572677357E+02 -0.15360221134E+03  0.19463860212E+03  0.91359853845E+02 0.  0.
         23    2    1    2    0    0  0.68874147866E+02  0.46519171149E+02  0.17893265863E+02  0.13078636144E+03  0.99384213265E+02 0.  0.
        -13    1    3    3    0    0 -0.60746257360E+02  0.16225574607E+02 -0.44970799489E+02  0.77302974466E+02  0.00000000000E+00 0. -1.
         13    1    3    3    0    0 -0.11626500163E+02 -0.42798251964E+02 -0.10863141185E+03  0.11733562765E+03  0.00000000000E+00 0.  1.
        -13    1    4    4    0    0  0.62440584718E+02  0.22015165245E+02  0.54851954244E+02  0.85978084447E+02  0.00000000000E+00 0.  1.
         13    1    4    4    0    0  0.64335631475E+01  0.24504005904E+02 -0.36958688381E+02  0.44808276991E+02  0.00000000000E+00 0. -1.
          1    1    1    2  501    0  0.34986096577E+01 -0.19946493792E+02  0.25588319211E+02  0.32632268756E+02  0.00000000000E+00 0. -1.
<scales pt_clust_5="13000.00000" pt_clust_6="13000.00000" pt_clust_7="13000.00000" pt_clust_8="13000.00000" pt_clust_9="20.25100"></scales>
<clustering>
<clus scale="   20.251">  1  9  2 -1</clus>
<clus scale="   91.360">  5  6 -1 -1</clus>
<clus scale="   99.384">  7  8 -1 -1</clus>
<clus scale="  120.123">  2  5  1 -1</clus>
<clus scale="   20.251">  1  5  2 -1</clus>
</clustering>
</event>
<event>
 9    1  0.1881049E-005  0.1677489E+03  0.7546771E-02  0.1181184E+00
         21   -1    0    0  501  502  0.00000000000E+00  0.00000000000E+00  0.42035543302E+03  0.42035543302E+03  0.00000000000E+00 0.  1.
         -4   -1    0    0    0  501 -0.00000000000E+00 -0.00000000000E+00 -0.18979839728E+03  0.18979839728E+03  0.00000000000E+00 0. -1.
         23    2    1    2    0    0  0.16074522479E+02 -0.11602930796E+03 -0.13876903707E+01  0.14358597452E+03  0.83029005873E+02 0.  0.
         23    2    1    2    0    0 -0.20559236236E+02  0.16782538342E+03 -0.34930361052E+02  0.19467585840E+03  0.89947307941E+02 0.  0.
        -11    1    4    4    0    0 -0.37805155389E+02  0.12711838540E+03  0.82503949412E+01  0.13287732198E+03  0.00000000000E+00 0.  1.
         11    1    4    4    0    0  0.17245919154E+02  0.40706998024E+02 -0.43180755993E+02  0.61798536421E+02  0.00000000000E+00 0. -1.
        -11    1    3    3    0    0 -0.28312226995E+02 -0.42030627779E+02  0.20333287964E+02  0.54604015130E+02  0.00000000000E+00 0.  1.
         11    1    3    3    0    0  0.44386749474E+02 -0.73998680177E+02 -0.21720978334E+02  0.88981959388E+02  0.00000000000E+00 0. -1.
         -4    1    1    2    0  502  0.44847137569E+01 -0.51796075465E+02  0.26687508716E+03  0.27189199738E+03  0.00000000000E+00 0. -1.
<scales pt_clust_5="13000.00000" pt_clust_6="13000.00000" pt_clust_7="13000.00000" pt_clust_8="13000.00000" pt_clust_9="51.98987"></scales>
<clustering>
<clus scale="   51.990">  1  9  2 -1</clus>
<clus scale="   83.029">  7  8 -1 -1</clus>
<clus scale="   89.947">  5  6 -1 -1</clus>
<clus scale="  164.143">  2  7  1 -1</clus>
<clus scale="   51.990">  1  5  2 -1</clus>
</clustering>
</event>
<event>
 9    1  0.1881049E-005  0.1022274E+03  0.7546771E-02  0.1277161E+00
         21   -1    0    0  501  502  0.00000000000E+00  0.00000000000E+00  0.17344786614E+03  0.17344786614E+03  0.00000000000E+00 0. -1.
         -1   -1    0    0    0  501 -0.00000000000E+00 -0.00000000000E+00 -0.90789681793E+02  0.90789681793E+02  0.00000000000E+00 0.  1.
         23    2    1    2    0    0  0.27425051481E+01  0.36837984817E+02 -0.15740355364E+02  0.99035695093E+02  0.90530390785E+02 0.  0.
         23    2    1    2    0    0 -0.18092594399E+02 -0.50757167074E+02  0.95638763671E+02  0.14429766095E+03  0.93655805250E+02 0.  0.
        -13    1    4    4    0    0 -0.20764984975E+02 -0.77345896728E+02  0.61672610374E+02  0.10107958850E+03  0.00000000000E+00 0. -1.
         13    1    4    4    0    0  0.26723905766E+01  0.26588729654E+02  0.33966153296E+02  0.43218072444E+02  0.00000000000E+00 0.  1.
        -13    1    3    3    0    0 -0.26339889245E+02  0.42374706192E+02 -0.37398634767E+02  0.62354337241E+02  0.00000000000E+00 0. -1.
         13    1    3    3    0    0  0.29082394393E+02 -0.55367213743E+01  0.21658279403E+02  0.36681357853E+02  0.00000000000E+00 0.  1.
         -1    1    1    2    0  502  0.15350089251E+02  0.13919182257E+02  0.27597760363E+01  0.20904191888E+02  0.00000000000E+00 0.  1.
<scales pt_clust_5="13000.00000" pt_clust_6="13000.00000" pt_clust_7="13000.00000" pt_clust_8="13000.00000" pt_clust_9="20.72123"></scales>
<clustering>
<clus scale="   20.721">  1  9  2 -1</clus>
<clus scale="   90.530">  7  8 -1 -1</clus>
<clus scale="   93.656">  5  6 -1 -1</clus>
<clus scale="   99.372">  2  7  1 -1</clus>
<clus scale="   20.721">  1  5  2 -1</clus>
</clustering>
</event>
<event>
 9    1  0.1881049E-005  0.1631958E+03  0.7546771E-02  0.1200074E+00
          2   -1    0    0  502    0 -0.00000000000E+00  0.00000000000E+00  0.17303213029E+03  0.17303213029E+03  0.00000000000E+00 0.  1.
         21   -1    0    0  501  502  0.00000000000E+00 -0.00000000000E+00 -0.10646101821E+04  0.10646101821E+04  0.00000000000E+00 0.  1.
         23    2    1    2    0    0  0.70372173876E+02 -0.16041766676E+02 -0.15085629620E+03  0.19121088868E+03  0.92705990705E+02 0.  0.
         23    2    1    2    0    0 -0.11714253275E+03 -0.11673632369E+03  0.88959107637E+02  0.20489246289E+03  0.81960089482E+02 0.  0.
        -11    1    4    4    0    0 -0.11775103458E+03 -0.92387788943E+02  0.98015183612E+02  0.17890719916E+03  0.00000000000E+00 0.  1.
         11    1    4    4    0    0  0.60850183741E+00 -0.24348534752E+02 -0.90560759749E+01  0.25985263730E+02  0.00000000000E+00 0. -1.
        -13    1    3    3    0    0  0.87887836760E+02 -0.31074134241E+02 -0.13088500739E+03  0.16068839046E+03  0.00000000000E+00 0.  1.
         13    1    3    3    0    0 -0.17515662884E+02  0.15032367565E+02 -0.19971288808E+02  0.30522498219E+02  0.00000000000E+00 0. -1.
          2    1    1    2  501    0  0.46770358871E+02  0.13277809037E+03 -0.82968086324E+03  0.84153896082E+03  0.00000000000E+00 0.  1.
<scales pt_clust_5="13000.00000" pt_clust_6="13000.00000" pt_clust_7="13000.00000" pt_clust_8="13000.00000" pt_clust_9="141.12200"></scales>
<clustering>
<clus scale="   81.960">  5  6 -1 -1</clus>
<clus scale="   92.706">  7  8 -1 -1</clus>
<clus scale="  117.490">  1  7  2 -1</clus>
<clus scale="  141.122">  2  9  1 -1</clus>
<clus scale="  141.122">  2  5  1 -1</clus>
</clustering>
</event>
<event>
 9    1  0.1881049E-005  0.9164434E+02  0.7546771E-02  0.1299493E+00
         21   -1    0    0  501  502  0.00000000000E+00  0.00000000000E+00  0.28131870493E+03  0.28131870493E+03  0.00000000000E+00 0. -1.
          4   -1    0    0  502    0 -0.00000000000E+00 -0.00000000000E+00 -0.84725104858E+02  0.84725104858E+02  0.00000000000E+00 0. -1.
         23    2    1    2    0    0  0.10388351912E+02  0.31272818182E+02 -0.38125512986E+01  0.96654109173E+02  0.90783116603E+02 0.  0.
         23    2    1    2    0    0  0.31232903183E+02  0.32142193183E+02  0.86281688175E+02  0.13235618047E+03  0.89805422841E+02 0.  0.
        -11    1    4    4    0    0 -0.21307950072E+02 -0.77957656595E+01  0.54645210348E+02  0.59168418201E+02  0.00000000000E+00 0.  1.
         11    1    4    4    0    0  0.52540853255E+02  0.39937958843E+02  0.31636477828E+02  0.73187762274E+02  0.00000000000E+00 0. -1.
        -11    1    3    3    0    0  0.19829487786E+02 -0.28096589168E+02  0.81925063367E+01  0.35351719460E+02  0.00000000000E+00 0.  1.
         11    1    3    3    0    0 -0.94411358731E+01  0.59369407350E+02 -0.12005057635E+02  0.61302389713E+02  0.00000000000E+00 0. -1.
          4    1    1    2  501    0 -0.41621255096E+02 -0.63415011366E+02  0.11412446319E+03  0.13703352014E+03  0.00000000000E+00 0. -1.
<scales pt_clust_5="13000.00000" pt_clust_6="13000.00000" pt_clust_7="13000.00000" pt_clust_8="13000.00000" pt_clust_9="75.85376"></scales>
<clustering>
<clus scale="   75.854">  1  9  2 -1</clus>
<clus scale="   89.805">  5  6 -1 -1</clus>
<clus scale="   90.676">  1  5  2 -1</clus>
<clus scale="   90.783">  7  8 -1 -1</clus>
<clus scale="   75.854">  1  5  2 -1</clus>
</clustering>
</event>
<event>
 9    1  0.1881049E-005  0.1750765E+03  0.7546771E-02  0.1173816E+00
         21   -1    0    0  501  502  0.00000000000E+00  0.00000000000E+00  0.17643440771E+03  0.17643440771E+03  0.00000000000E+00 0. -1.
          1   -1    0    0  502    0 -0.00000000000E+00 -0.00000000000E+00 -0.23449589855E+03  0.23449589855E+03  0.00000000000E+00 0. -1.
         23    2    1    2    0    0  0.90797563148E+02  0.11055774200E+03 -0.58231716705E+02  0.17506618390E+03  0.82401602677E+02 0.  0.
         23    2    1    2    0    0 -0.11503542758E+03 -0.10788120528E+03 -0.42057396241E+02  0.18710132928E+03  0.91469004521E+02 0.  0.
        -11    1    4    4    0    0 -0.43928911355E+02 -0.73782790937E+01  0.20466266852E+02  0.49020978510E+02  0.00000000000E+00 0.  1.
         11    1    4    4    0    0 -0.71106516222E+02 -0.10050292619E+03 -0.62523663093E+02  0.13808035077E+03  0.00000000000E+00 0. -1.
        -13    1    3    3    0    0  0.13642286312E+02  0.38275182061E+02 -0.56163508018E+02  0.69321289446E+02  0.00000000000E+00 0. -1.
         13    1    3    3    0    0  0.77155276836E+02  0.72282559944E+02 -0.20682086873E+01  0.10574489445E+03  0.00000000000E+00 0.  1.
          1    1    1    2  501    0  0.24237864429E+02 -0.26765367246E+01  0.42227622106E+02  0.48762793087E+02  0.00000000000E+00 0. -1.
<scales pt_clust_5="13000.00000" pt_clust_6="13000.00000" pt_clust_7="13000.00000" pt_clust_8="13000.00000" pt_clust_9="24.38520"></scales>
<clustering>
<clus scale="   24.385">  1  9  2 -1</clus>
<clus scale="   82.402">  7  8 -1 -1</clus>
<clus scale="   91.469">  5  6 -1 -1</clus>
<clus scale="  170.515">  2  7  1 -1</clus>
<clus scale="   24.385">  1  5  2 -1</clus>
</clustering>
</event>
<event>
 9    1  0.1881049E-005  0.1176626E+03  0.7546771E-02  0.1250957E+00
          3   -1    0    0  502    0 -0.00000000000E+00  0.00000000000E+00  0.41407044397E+03  0.41407044397E+03  0.00000000000E+00 0. -1.
         21   -1    0    0  501  502  0.00000000000E+00 -0.00000000000E+00 -0.38710860262E+02  0.38710860262E+02  0.00000000000E+00 0.  1.
         23    2    1    2    0    0  0.63592072618E+02 -0.13694105299E+01  0.17899736930E+03  0.20741289786E+03  0.83271994078E+02 0.  0.
         23    2    1    2    0    0 -0.77143737477E+02  0.18370372804E+02  0.17940664744E+03  0.21779719694E+03  0.94658581317E+02 0.  0.
        -11    1    3    3    0    0  0.18582134539E+02 -0.34586521208E+02  0.11933275626E+03  0.12562575329E+03  0.00000000000E+00 0. -1.
         11    1    3    3    0    0  0.45009938079E+02  0.33217110678E+02  0.59664613041E+02  0.81787144571E+02  0.00000000000E+00 0.  1.
        -13    1    4    4    0    0  0.18860084642E+02  0.17859158419E+02  0.53422171492E+02  0.59401858044E+02  0.00000000000E+00 0. -1.
         13    1    4    4    0    0 -0.96003822119E+02  0.51121438509E+00  0.12598447595E+03  0.15839533889E+03  0.00000000000E+00 0.  1.
          3    1    1    2  501    0  0.13551664859E+02 -0.17000962274E+02  0.16955566965E+02  0.27571209437E+02  0.00000000000E+00 0. -1.
<scales pt_clust_5="13000.00000" pt_clust_6="13000.00000" pt_clust_7="13000.00000" pt_clust_8="13000.00000" pt_clust_9="21.74121"></scales>
<clustering>
<clus scale="   21.741">  2  9  1 -1</clus>
<clus scale="   83.272">  5  6 -1 -1</clus>
<clus scale="   94.659">  7  8 -1 -1</clus>
<clus scale="  108.713">  1  5  2 -1</clus>
<clus scale="   21.741">  2  5  1 -1</clus>
</clustering>
</event>
<event>
 9    1  0.1881049E-005  0.9950917E+02  0.7546771E-02  0.1282410E+00
         21   -1    0    0  501  502  0.00000000000E+00  0.00000000000E+00  0.58234901353E+02  0.58234901353E+02  0.00000000000E+00 0. -1.
         -1   -1    0    0    0  501 -0.00000000000E+00 -0.00000000000E+00 -0.47862405923E+03  0.47862405923E+03  0.00000000000E+00 0.  1.
         23    2    1    2    0    0  0.36545401167E+02 -0.51924925784E+01 -0.30216155098E+03  0.31835081417E+03  0.93183204835E+02 0.  0.
         23    2    1    2    0    0 -0.22699984511E+02  0.32141703931E+02 -0.14660546904E+03  0.17699599621E+03  0.91027691916E+02 0.  0.
        -11    1    3    3    0    0 -0.57564292283E+00 -0.44175818646E+02 -0.17000497528E+03  0.17565171772E+03  0.00000000000E+00 0. -1.
         11    1    3    3    0    0  0.37121044090E+02  0.38983326068E+02 -0.13215657570E+03  0.14269909644E+03  0.00000000000E+00 0.  1.
        -13    1    4    4    0    0 -0.24370412667E+02 -0.29069335256E+02 -0.55621806769E+02  0.67325542360E+02  0.00000000000E+00 0. -1.
         13    1    4    4    0    0  0.16704281564E+01  0.61211039188E+02 -0.90983662267E+02  0.10967045385E+03  0.00000000000E+00 0.  1.
         -1    1    1    2    0  502 -0.13845416656E+02 -0.26949211353E+02  0.28377862140E+02  0.41512150204E+02  0.00000000000E+00 0.  1.
<scales pt_clust_5="13000.00000" pt_clust_6="13000.00000" pt_clust_7="13000.00000" pt_clust_8="13000.00000" pt_clust_9="30.29778"></scales>
<clustering>
<clus scale="   30.298">  1  9  2 -1</clus>
<clus scale="   91.028">  7  8 -1 -1</clus>
<clus scale="   93.183">  5  6 -1 -1</clus>
<clus scale="   97.494">  1  7  2 -1</clus>
<clus scale="   30.298">  1  5  2 -1</clus>
</clustering>
</event>
<event>
 9    1  0.1881049E-005  0.1062650E+03  0.7546771E-02  0.1268705E+00
          2   -1    0    0  502    0 -0.00000000000E+00  0.00000000000E+00  0.52873655186E+03  0.52873655186E+03  0.00000000000E+00 0. -1.
         21   -1    0    0  501  502  0.00000000000E+00 -0.00000000000E+00 -0.13754726383E+03  0.13754726383E+03  0.00000000000E+00 0.  1.
         23    2    1    2    0    0  0.19373973131E+02 -0.45639775949E+02  0.48474424578E+03  0.49634207935E+03  0.94446471256E+02 0.  0.
         23    2    1    2    0    0  0.33959735063E+01  0.42309871043E+02 -0.35293818742E+02  0.10730054337E+03  0.92011385936E+02 0.  0.
        -11    1    4    4    0    0  0.16370896579E+02 -0.26503358466E+02 -0.13602935019E+02  0.33992265384E+02  0.00000000000E+00 0. -1.
         11    1    4    4    0    0 -0.12974923073E+02  0.68813229509E+02 -0.21690883723E+02  0.73308277984E+02  0.00000000000E+00 0.  1.
        -13    1    3    3    0    0 -0.36490828712E+02 -0.63150496338E+01  0.13497210458E+03  0.13996045672E+03  0.00000000000E+00 0.  1.
         13    1    3    3    0    0  0.55864801843E+02 -0.39324726316E+02  0.34977214121E+03  0.35638162263E+03  0.00000000000E+00 0. -1.
          2    1    1    2  501    0 -0.22769946637E+02  0.33299049062E+01 -0.58261139012E+02  0.62641192961E+02  0.00000000000E+00 0. -1.
<scales pt_clust_5="13000.00000" pt_clust_6="13000.00000" pt_clust_7="13000.00000" pt_clust_8="13000.00000" pt_clust_9="23.01214"></scales>
<clustering>
<clus scale="   23.012">  2  9  1 -1</clus>
<clus scale="   92.011">  5  6 -1 -1</clus>
<clus scale="   94.446">  7  8 -1 -1</clus>
<clus scale="  104.107">  2  5  1 -1</clus>
<clus scale="   23.012">  2  5  1 -1</clus>
</clustering>
</event>
<event>
 9    1  0.1881049E-005  0.1060736E+03  0.7546771E-02  0.1268338E+00
         21   -1    0    0  501  502  0.00000000000E+00  0.00000000000E+00  0.36401553362E+02  0.36401553362E+02  0.00000000000E+00 0.  1.
          1   -1    0    0  502    0 -0.00000000000E+00 -0.00000000000E+00 -0.54496948019E+03  0.54496948019E+03  0.00000000000E+00 0. -1.
         23    2    1    2    0    0 -0.13467560843E+01  0.43735771622E+02 -0.24624631416E+03  0.26607492737E+03  0.90796411092E+02 0.  0.
         23    2    1    2    0    0 -0.12738933622E+02 -0.64304044893E+02 -0.26714288998E+03  0.28990505983E+03  0.91555062274E+02 0.  0.
        -11    1    3    3    0    0  0.39191813028E+01 -0.27300761805E+02 -0.94485869044E+02  0.98429015165E+02  0.00000000000E+00 0. -1.
         11    1    3    3    0    0 -0.52659373871E+01  0.71036533428E+02 -0.15176044511E+03  0.16764591221E+03  0.00000000000E+00 0.  1.
        -13    1    4    4    0    0 -0.45692028374E+02 -0.28640588239E+02 -0.19935899921E+03  0.20652374033E+03  0.00000000000E+00 0.  1.
         13    1    4    4    0    0  0.32953094752E+02 -0.35663456654E+02 -0.67783890767E+02  0.83381319502E+02  0.00000000000E+00 0. -1.
          1    1    1    2  501    0  0.14085689706E+02  0.20568273271E+02  0.48212773139E+01  0.25391046350E+02  0.00000000000E+00 0. -1.
<scales pt_clust_5="13000.00000" pt_clust_6="13000.00000" pt_clust_7="13000.00000" pt_clust_8="13000.00000" pt_clust_9="24.92911"></scales>
<clustering>
<clus scale="   24.929">  1  9  2 -1</clus>
<clus scale="   90.796">  5  6 -1 -1</clus>
<clus scale="   91.555">  7  8 -1 -1</clus>
<clus scale="  105.419">  2  5  1 -1</clus>
<clus scale="   24.929">  1  5  2 -1</clus>
</clustering>
</event>
<event>
 9    1  0.1881049E-005  0.9758962E+02  0.7546771E-02  0.1288375E+00
         -1   -1    0    0    0  501 -0.00000000000E+00  0.00000000000E+00  0.24172461424E+03  0.24172461424E+03  0.00000000000E+00 0.  1.
         21   -1    0    0  501  502  0.00000000000E+00 -0.00000000000E+00 -0.94113373300E+02  0.94113373300E+02  0.00000000000E+00 0. -1.
         23    2    1    2    0    0 -0.92889034639E+01 -0.25948729291E+02  0.17046980288E+03  0.19337698127E+03  0.87034952242E+02 0.  0.
         23    2    1    2    0    0  0.16826562869E+02  0.50149896464E+02 -0.37703160234E+02  0.11308627392E+03  0.92567984341E+02 0.  0.
        -13    1    3    3    0    0  0.12095952639E+02  0.26272157982E+02  0.28508116581E+02  0.40610972240E+02  0.00000000000E+00 0. -1.
         13    1    3    3    0    0 -0.21384856102E+02 -0.52220887274E+02  0.14196168630E+03  0.15276600903E+03  0.00000000000E+00 0.  1.
        -13    1    4    4    0    0  0.18094462143E+02 -0.23628517083E+02 -0.23550853533E+02  0.37952062947E+02  0.00000000000E+00 0.  1.
         13    1    4    4    0    0 -0.12678992737E+01  0.73778413547E+02 -0.14152306701E+02  0.75134210976E+02  0.00000000000E+00 0. -1.
         -1    1    1    2    0  502 -0.75376594055E+01 -0.24201167173E+02  0.14844598290E+02  0.29374732343E+02  0.00000000000E+00 0.  1.
<scales pt_clust_5="13000.00000" pt_clust_6="13000.00000" pt_clust_7="13000.00000" pt_clust_8="13000.00000" pt_clust_9="25.34785"></scales>
<clustering>
<clus scale="   25.348">  2  9  1 -1</clus>
<clus scale="   87.035">  5  6 -1 -1</clus>
<clus scale="   92.358">  1  5  2 -1</clus>
<clus scale="   92.568">  7  8 -1 -1</clus>
<clus scale="   25.348">  2  5  1 -1</clus>
</clustering>
</event>
<event>
 9    1  0.1881049E-005  0.1101913E+03  0.7546771E-02  0.1261644E+00
         21   -1    0    0  501  502  0.00000000000E+00  0.00000000000E+00  0.97431862940E+02  0.97431862940E+02  0.00000000000E+00 0.  1.
          2   -1    0    0  502    0 -0.00000000000E+00 -0.00000000000E+00 -0.31352860786E+03  0.31352860786E+03  0.00000000000E+00 0. -1.
         23    2    1    2    0    0 -0.50556344890E+02 -0.38490970802E+02 -0.21446886393E+03  0.24146629726E+03  0.90948228547E+02 0.  0.
         23    2    1    2    0    0 -0.86309039399E+01  0.48551987041E+02  0.13825238242E+02  0.10750100161E+03  0.94517406787E+02 0.  0.
        -11    1    4    4    0    0 -0.71524409156E+01  0.72554340145E+02  0.29659587042E+02  0.78708200262E+02  0.00000000000E+00 0.  1.
         11    1    4    4    0    0 -0.14784630243E+01 -0.24002353104E+02 -0.15834348800E+02  0.28792801346E+02  0.00000000000E+00 0. -1.
        -13    1    3    3    0    0 -0.71658815145E+02 -0.39800407408E+02 -0.19914208455E+03  0.21535233469E+03  0.00000000000E+00 0. -1.
         13    1    3    3    0    0  0.21102470255E+02  0.13094366066E+01 -0.15326779388E+02  0.26113962577E+02  0.00000000000E+00 0.  1.
          2    1    1    2  501    0  0.59187248830E+02 -0.10061016240E+02 -0.15453119229E+02  0.61993171928E+02  0.00000000000E+00 0. -1.
<scales pt_clust_5="13000.00000" pt_clust_6="13000.00000" pt_clust_7="13000.00000" pt_clust_8="13000.00000" pt_clust_9="60.03628"></scales>
<clustering>
<clus scale="   60.036">  1  9  2 -1</clus>
<clus scale="   90.948">  7  8 -1 -1</clus>
<clus scale="   94.517">  5  6 -1 -1</clus>
<clus scale="  107.146">  2  7  1 -1</clus>
<clus scale="   60.036">  1  5  2 -1</clus>
</clustering>
</event>
<event>
 9    1  0.1881049E-005  0.9235431E+02  0.7546771E-02  0.1297756E+00
          2   -1    0    0  502    0 -0.00000000000E+00  0.00000000000E+00  0.18306211731E+03  0.18306211731E+03  0.00000000000E+00 0. -1.
         21   -1    0    0  501  502  0.00000000000E+00 -0.00000000000E+00 -0.14879535229E+03  0.14879535229E+03  0.00000000000E+00 0. -1.
         23    2    1    2    0    0  0.16395338693E+02 -0.28370813027E+02  0.10694663271E+03  0.14407225263E+03  0.90804854317E+02 0.  0.
         23    2    1    2    0    0  0.13111105934E+02 -0.15619655467E+02  0.65914796586E+01  0.92445098958E+02  0.89926492100E+02 0.  0.
        -11    1    4    4    0    0  0.13282205950E+02  0.34380068092E+02 -0.12508289941E+02  0.38921246051E+02  0.00000000000E+00 0.  1.
         11    1    4    4    0    0 -0.17110001630E+00 -0.49999723559E+02  0.19099769600E+02  0.53523852907E+02  0.00000000000E+00 0. -1.
        -11    1    3    3    0    0 -0.14483436049E+02  0.24819922807E+02  0.60575100717E+02  0.67045815043E+02  0.00000000000E+00 0.  1.
         11    1    3    3    0    0  0.30878774742E+02 -0.53190735834E+02  0.46371531993E+02  0.77026437589E+02  0.00000000000E+00 0. -1.
          2    1    1    2  501    0 -0.29506444627E+02  0.43990468495E+02 -0.79271347348E+02  0.95340118015E+02  0.00000000000E+00 0. -1.
<scales pt_clust_5="13000.00000" pt_clust_6="13000.00000" pt_clust_7="13000.00000" pt_clust_8="13000.00000" pt_clust_9="52.96972"></scales>
<clustering>
<clus scale="   52.970">  2  9  1 -1</clus>
<clus scale="   89.926">  5  6 -1 -1</clus>
<clus scale="   90.805">  7  8 -1 -1</clus>
<clus scale="   91.491">  2  5  1 -1</clus>
<clus scale="   52.970">  2  5  1 -1</clus>
</clustering>
</event>
<event>
 9    1  0.1881049E-005  0.1464023E+03  0.7546771E-02  0.1207162E+00
         -1   -1    0    0    0  501 -0.00000000000E+00  0.00000000000E+00  0.13750619916E+03  0.13750619916E+03  0.00000000000E+00 0.  1.
         21   -1    0    0  501  502  0.00000000000E+00 -0.00000000000E+00 -0.31092168137E+03  0.31092168137E+03  0.00000000000E+00 0.  1.
         23    2    1    2    0    0  0.10100173174E+03  0.80822730445E+01  0.42115404844E+02  0.14337609607E+03  0.92283934935E+02 0.  0.
         23    2    1    2    0    0 -0.10971231787E+03 -0.52822596109E+02 -0.11994177822E+03  0.19915160246E+03  0.10221698122E+03 0.  0.
        -11    1    4    4    0    0 -0.37921074811E+02  0.30447313588E+02 -0.30342967453E+02  0.57321396471E+02  0.00000000000E+00 0. -1.
         11    1    4    4    0    0 -0.71791243060E+02 -0.83269909697E+02 -0.89598810765E+02  0.14183020599E+03  0.00000000000E+00 0.  1.
        -13    1    3    3    0    0  0.58013355780E+02  0.31171333952E+02  0.62219267005E+02  0.90600434303E+02  0.00000000000E+00 0.  1.
         13    1    3    3    0    0  0.42988375956E+02 -0.23089060908E+02 -0.20103862161E+02  0.52775661764E+02  0.00000000000E+00 0. -1.
         -1    1    1    2    0  502  0.87105861352E+01  0.44740323064E+02 -0.95589108840E+02  0.10590018200E+03  0.00000000000E+00 0.  1.
<scales pt_clust_5="13000.00000" pt_clust_6="13000.00000" pt_clust_7="13000.00000" pt_clust_8="13000.00000" pt_clust_9="45.58038"></scales>
<clustering>
<clus scale="   45.580">  2  9  1 -1</clus>
<clus scale="   92.284">  7  8 -1 -1</clus>
<clus scale="  102.217">  5  6 -1 -1</clus>
<clus scale="  139.648">  1  7  2 -1</clus>
<clus scale="   45.580">  2  5  1 -1</clus>
</clustering>
</event>
<event>
 9    1  0.1881049E-005  0.1107672E+03  0.7546771E-02  0.1259627E+00
         21   -1    0    0  501  502  0.00000000000E+00  0.00000000000E+00  0.32178984109E+03  0.32178984109E+03  0.00000000000E+00 0. -1.
         -4   -1    0    0    0  501 -0.00000000000E+00 -0.00000000000E+00 -0.16257650487E+03  0.16257650487E+03  0.00000000000E+00 0.  1.
         23    2    1    2    0    0  0.49098595004E+02 -0.55382818512E+02 -0.10758757363E+03  0.16049433732E+03  0.93302827908E+02 0.  0.
         23    2    1    2    0    0  0.62770142874E+01  0.14958210782E+02  0.74004098940E+02  0.11924743213E+03  0.92087971154E+02 0.  0.
        -11    1    4    4    0    0  0.46514756097E+02  0.16381476763E+02  0.23414467087E+02  0.54591323346E+02  0.00000000000E+00 0.  1.
         11    1    4    4    0    0 -0.40237741810E+02 -0.14232659809E+01  0.50589631853E+02  0.64656108783E+02  0.00000000000E+00 0. -1.
        -11    1    3    3    0    0  0.20620743354E+02 -0.68667437019E+02 -0.31765870436E+02  0.78418763621E+02  0.00000000000E+00 0. -1.
         11    1    3    3    0    0  0.28477851650E+02  0.13284618508E+02 -0.75821703191E+02  0.82075573701E+02  0.00000000000E+00 0.  1.
         -4    1    1    2    0  502 -0.55375609291E+02  0.40424607730E+02  0.19279681091E+03  0.20462457651E+03  0.00000000000E+00 0.  1.
<scales pt_clust_5="13000.00000" pt_clust_6="13000.00000" pt_clust_7="13000.00000" pt_clust_8="13000.00000" pt_clust_9="68.56097"></scales>
<clustering>
<clus scale="   68.561">  1  9  2 -1</clus>
<clus scale="   92.088">  5  6 -1 -1</clus>
<clus scale="   93.303">  7  8 -1 -1</clus>
<clus scale="  109.746">  1  5  2 -1</clus>
<clus scale="   68.561">  1  5  2 -1</clus>
</clustering>
</event>
<event>
 9    1  0.1881049E-005  0.9963578E+02  0.7546771E-02  0.1283190E+00
         21   -1    0    0  501  502  0.00000000000E+00  0.00000000000E+00  0.92934820638E+02  0.92934820638E+02  0.00000000000E+00 0.  1.
         -2   -1    0    0    0  501 -0.00000000000E+00 -0.00000000000E+00 -0.20245973809E+03  0.20245973809E+03  0.00000000000E+00 0.  1.
         23    2    1    2    0    0 -0.34494506120E+02 -0.12013053619E+02 -0.12952276280E+03  0.16500925706E+03  0.95486776161E+02 0.  0.
         23    2    1    2    0    0  0.10273560310E+02 -0.99390227538E+01  0.81755932950E+00  0.92485021392E+02  0.91370020049E+02 0.  0.
        -13    1    3    3    0    0 -0.64206699138E+02 -0.18703104686E+02 -0.11031328630E+03  0.12900126927E+03  0.00000000000E+00 0.  1.
         13    1    3    3    0    0  0.29712193018E+02  0.66900510667E+01 -0.19209476507E+02  0.36007987792E+02  0.00000000000E+00 0. -1.
        -13    1    4    4    0    0  0.77455998860E+00  0.39753551985E+02  0.10156951098E+02  0.41037890957E+02  0.00000000000E+00 0.  1.
         13    1    4    4    0    0  0.94990003210E+01 -0.49692574739E+02 -0.93393917681E+01  0.51447130434E+02  0.00000000000E+00 0. -1.
         -2    1    1    2    0  502  0.24220945811E+02  0.21952076373E+02  0.19180286023E+02  0.37900280276E+02  0.00000000000E+00 0.  1.
<scales pt_clust_5="13000.00000" pt_clust_6="13000.00000" pt_clust_7="13000.00000" pt_clust_8="13000.00000" pt_clust_9="32.68865"></scales>
<clustering>
<clus scale="   32.689">  1  9  2 -1</clus>
<clus scale="   91.370">  7  8 -1 -1</clus>
<clus scale="   95.487">  5  6 -1 -1</clus>
<clus scale="   95.698">  1  7  2 -1</clus>
<clus scale="   32.689">  1  5  2 -1</clus>
</clustering>
</event>
<event>
 9    1  0.1881049E-005  0.9715302E+02  0.7546771E-02  0.1287096E+00
          1   -1    0    0  502    0 -0.00000000000E+00  0.00000000000E+00  0.15293541807E+03  0.15293541807E+03  0.00000000000E+00 0. -1.
         21   -1    0    0  501  502  0.00000000000E+00 -0.00000000000E+00 -0.18946055672E+03  0.18946055672E+03  0.00000000000E+00 0.  1.
         23    2    1    2    0    0  0.22728803106E+02 -0.16861718068E+02  0.79606988501E+02  0.12304147228E+03  0.89448394371E+02 0.  0.
         23    2    1    2    0    0 -0.45363285759E+02  0.22010675050E+02 -0.30444952129E+01  0.10390908657E+03  0.90804910716E+02 0.  0.
        -11    1    4    4    0    0 -0.15522002947E+02 -0.35418568090E+02  0.36593849340E+01  0.38843257319E+02  0.00000000000E+00 0. -1.
         11    1    4    4    0    0 -0.29841282811E+02  0.57429243139E+02 -0.67038801469E+01  0.65065829253E+02  0.00000000000E+00 0.  1.
        -13    1    3    3    0    0 -0.27276660293E+02 -0.16657109601E+02  0.37425181317E+01  0.32178905186E+02  0.00000000000E+00 0. -1.
         13    1    3    3    0    0  0.50005463399E+02 -0.20460846736E+00  0.75864470370E+02  0.90862567093E+02  0.00000000000E+00 0.  1.
          1    1    1    2  501    0  0.22634482653E+02 -0.51489569812E+01 -0.11308763194E+03  0.11544541593E+03  0.00000000000E+00 0. -1.
<scales pt_clust_5="13000.00000" pt_clust_6="13000.00000" pt_clust_7="13000.00000" pt_clust_8="13000.00000" pt_clust_9="23.21275"></scales>
<clustering>
<clus scale="   23.213">  2  9  1 -1</clus>
<clus scale="   89.448">  7  8 -1 -1</clus>
<clus scale="   90.805">  5  6 -1 -1</clus>
<clus scale="   95.886">  1  7  2 -1</clus>
<clus scale="   23.213">  2  5  1 -1</clus>
</clustering>
</event>
<event>
 9    1  0.1881049E-005  0.1322690E+03  0.7546771E-02  0.1224623E+00
         21   -1    0    0  501  502  0.00000000000E+00  0.00000000000E+00  0.68220232628E+02  0.68220232628E+02  0.00000000000E+00 0.  1.
         -1   -1    0    0    0  501 -0.00000000000E+00 -0.00000000000E+00 -0.46875006117E+03  0.46875006117E+03  0.00000000000E+00 0.  1.
         23    2    1    2    0    0 -0.67185548018E+02 -0.74392748267E+02 -0.30298220926E+03  0.33200308209E+03  0.91540420203E+02 0.  0.
         23    2    1    2    0    0  0.46318945169E+02  0.74416782249E+02 -0.12056553407E+03  0.17389889838E+03  0.89562696987E+02 0.  0.
        -11    1    4    4    0    0  0.23686377109E+01  0.28709449719E+02 -0.10462207960E+03  0.10851554031E+03  0.00000000000E+00 0.  1.
         11    1    4    4    0    0  0.43950307458E+02  0.45707332530E+02 -0.15943454463E+02  0.65383358073E+02  0.00000000000E+00 0. -1.
        -13    1    3    3    0    0 -0.85882363774E+02 -0.58691875545E+02 -0.19200779219E+03  0.21837469845E+03  0.00000000000E+00 0.  1.
         13    1    3    3    0    0  0.18696815756E+02 -0.15700872722E+02 -0.11097441708E+03  0.11362838364E+03  0.00000000000E+00 0. -1.
         -1    1    1    2    0  502  0.20866602849E+02 -0.24033981675E-01  0.23017914784E+02  0.31068313329E+02  0.00000000000E+00 0.  1.
<scales pt_clust_5="13000.00000" pt_clust_6="13000.00000" pt_clust_7="13000.00000" pt_clust_8="13000.00000" pt_clust_9="20.86662"></scales>
<clustering>
<clus scale="   20.867">  1  9  2 -1</clus>
<clus scale="   89.563">  5  6 -1 -1</clus>
<clus scale="   91.540">  7  8 -1 -1</clus>
<clus scale="  130.908">  1  5  2 -1</clus>
<clus scale="   20.867">  1  5  2 -1</clus>
</clustering>
</event>
<event>
 9    1  0.1881049E-005  0.1082938E+03  0.7546771E-02  0.1264310E+00
         21   -1    0    0  501  502  0.00000000000E+00  0.00000000000E+00  0.32928550204E+03  0.32928550204E+03  0.00000000000E+00 0. -1.
          1   -1    0    0  502    0 -0.00000000000E+00 -0.00000000000E+00 -0.13974649295E+03  0.13974649295E+03  0.00000000000E+00 0. -1.
         23    2    1    2    0    0  0.41870769088E+02 -0.24004426339E+02 -0.44255975132E+02  0.11185505260E+03  0.90683998965E+02 0.  0.
         23    2    1    2    0    0 -0.71441126277E+02  0.17208821281E+02 -0.36181248926E+01  0.11783289995E+03  0.92040879121E+02 0.  0.
        -11    1    4    4    0    0 -0.35596395720E+02  0.31740804067E+02 -0.41848062407E+02  0.63449526068E+02  0.00000000000E+00 0. -1.
         11    1    4    4    0    0 -0.35844730557E+02 -0.14531982786E+02  0.38229937515E+02  0.54383373882E+02  0.00000000000E+00 0.  1.
        -13    1    3    3    0    0  0.54611709553E+02  0.11270518854E+02 -0.26294592980E+01  0.55824523927E+02  0.00000000000E+00 0.  1.
         13    1    3    3    0    0 -0.12740940465E+02 -0.35274945193E+02 -0.41626515834E+02  0.56030528668E+02  0.00000000000E+00 0. -1.
          1    1    1    2  501    0  0.29570357189E+02  0.67956050582E+01  0.23741310911E+03  0.23934404244E+03  0.00000000000E+00 0. -1.
<scales pt_clust_5="13000.00000" pt_clust_6="13000.00000" pt_clust_7="13000.00000" pt_clust_8="13000.00000" pt_clust_9="30.34116"></scales>
<clustering>
<clus scale="   30.341">  1  9  2 -1</clus>
<clus scale="   90.684">  7  8 -1 -1</clus>
<clus scale="   92.041">  5  6 -1 -1</clus>
<clus scale="  107.143">  2  7  1 -1</clus>
<clus scale="   30.341">  1  5  2 -1</clus>
</clustering>
</event>
<event>
 9    1  0.1881049E-005  0.1025018E+03  0.7546771E-02  0.1275244E+00
         21   -1    0    0  501  502  0.00000000000E+00  0.00000000000E+00  0.33917317318E+03  0.33917317318E+03  0.00000000000E+00 0.  1.
         -2   -1    0    0    0  501 -0.00000000000E+00 -0.00000000000E+00 -0.11745879246E+03  0.11745879246E+03  0.00000000000E+00 0.  1.
         23    2    1    2    0    0  0.20891194732E+02 -0.30017834893E+02 -0.50342182333E+02  0.11057472718E+03  0.91405265384E+02 0.  0.
         23    2    1    2    0    0 -0.42357673777E+02  0.65174920286E+02  0.68431899196E+02  0.13830778814E+03  0.91674296672E+02 0.  0.
        -11    1    4    4    0    0 -0.51115876003E+02 -0.14979094335E+01  0.41543120177E+02  0.65885562503E+02  0.00000000000E+00 0. -1.
         11    1    4    4    0    0  0.87582022264E+01  0.66672829719E+02  0.26888779019E+02  0.72422225637E+02  0.00000000000E+00 0.  1.
        -13    1    3    3    0    0  0.42796457237E+02 -0.49907946335E+02 -0.46961015662E+02  0.80794039702E+02  0.00000000000E+00 0. -1.
         13    1    3    3    0    0 -0.21905262505E+02  0.19890111442E+02 -0.33811666716E+01  0.29780687478E+02  0.00000000000E+00 0.  1.
         -2    1    1    2    0  502  0.21466479045E+02 -0.35157085393E+02  0.20362466386E+03  0.20774945032E+03  0.00000000000E+00 0.  1.
<scales pt_clust_5="13000.00000" pt_clust_6="13000.00000" pt_clust_7="13000.00000" pt_clust_8="13000.00000" pt_clust_9="41.19260"></scales>
<clustering>
<clus scale="   41.193">  1  9  2 -1</clus>
<clus scale="   91.405">  7  8 -1 -1</clus>
<clus scale="   91.674">  5  6 -1 -1</clus>
<clus scale="  102.261">  2  7  1 -1</clus>
<clus scale="   41.193">  1  5  2 -1</clus>
</clustering>
</event>
<event>
 9    1  0.1881049E-005  0.9715575E+02  0.7546771E-02  0.1287716E+00
         21   -1    0    0  501  502  0.00000000000E+00  0.00000000000E+00  0.14138390759E+03  0.14138390759E+03  0.00000000000E+00 0. -1.
          1   -1    0    0  502    0 -0.00000000000E+00 -0.00000000000E+00 -0.81178919451E+03  0.81178919451E+03  0.00000000000E+00 0. -1.
         23    2    1    2    0    0  0.11491201610E+02 -0.43609342549E+02 -0.50393026162E+03  0.51424818543E+03  0.92041649134E+02 0.  0.
         23    2    1    2    0    0 -0.30264993941E+02 -0.32511980549E+01 -0.29024436989E+03  0.30525661002E+03  0.89516833976E+02 0.  0.
        -11    1    4    4    0    0  0.91073836246E+01  0.22004348863E+02 -0.20309230447E+02  0.31298572599E+02  0.00000000000E+00 0.  1.
         11    1    4    4    0    0 -0.39372377565E+02 -0.25255546918E+02 -0.26993513944E+03  0.27395803742E+03  0.00000000000E+00 0. -1.
        -13    1    3    3    0    0 -0.30552911148E+02  0.11947108408E+02 -0.15681889459E+03  0.16021354337E+03  0.00000000000E+00 0.  1.
         13    1    3    3    0    0  0.42044112758E+02 -0.55556450957E+02 -0.34711136703E+03  0.35403464206E+03  0.00000000000E+00 0. -1.
          1    1    1    2  501    0  0.18773792331E+02  0.46860540604E+02  0.12376934458E+03  0.13366830664E+03  0.00000000000E+00 0. -1.
<scales pt_clust_5="13000.00000" pt_clust_6="13000.00000" pt_clust_7="13000.00000" pt_clust_8="13000.00000" pt_clust_9="50.48134"></scales>
<clustering>
<clus scale="   50.481">  1  9  2 -1</clus>
<clus scale="   89.517">  5  6 -1 -1</clus>
<clus scale="   92.042">  7  8 -1 -1</clus>
<clus scale="   94.767">  1  5  2 -1</clus>
<clus scale="   50.481">  1  5  2 -1</clus>
</clustering>
</event>
<event>
 9    1  0.1881049E-005  0.1080808E+03  0.7546771E-02  0.1265060E+00
         -1   -1    0    0    0  501 -0.00000000000E+00  0.00000000000E+00  0.41579239570E+02  0.41579239570E+02  0.00000000000E+00 0.  1.
         21   -1    0    0  501  502  0.00000000000E+00 -0.00000000000E+00 -0.45811471565E+03  0.45811471565E+03  0.00000000000E+00 0.  1.
         23    2    1    2    0    0 -0.26508511250E+02  0.53394381549E+02 -0.85034420412E+02  0.13811996820E+03  0.91063778804E+02 0.  0.
         23    2    1    2    0    0 -0.86361636711E+01 -0.50872822631E+02 -0.21664683953E+03  0.24143657653E+03  0.93237009841E+02 0.  0.
        -13    1    3    3    0    0 -0.89547572886E+00  0.62022585213E+02 -0.91298088484E+02  0.11037637389E+03  0.00000000000E+00 0. -1.
         13    1    3    3    0    0 -0.25613035521E+02 -0.86282036636E+01  0.62636680725E+01  0.27743594302E+02  0.00000000000E+00 0.  1.
        -13    1    4    4    0    0 -0.27978381493E+02 -0.72046490232E+02 -0.16881300431E+03  0.18566452814E+03  0.00000000000E+00 0.  1.
         13    1    4    4    0    0  0.19342217822E+02  0.21173667601E+02 -0.47833835219E+02  0.55772048391E+02  0.00000000000E+00 0. -1.
         -1    1    1    2    0  502  0.35144674921E+02 -0.25215589186E+01 -0.11485421614E+03  0.12013741049E+03  0.00000000000E+00 0.  1.
<scales pt_clust_5="13000.00000" pt_clust_6="13000.00000" pt_clust_7="13000.00000" pt_clust_8="13000.00000" pt_clust_9="35.23502"></scales>
<clustering>
<clus scale="   35.235">  2  9  1 -1</clus>
<clus scale="   91.064">  5  6 -1 -1</clus>
<clus scale="   93.237">  7  8 -1 -1</clus>
<clus scale="  106.212">  1  5  2 -1</clus>
<clus scale="   35.235">  2  5  1 -1</clus>
</clustering>
</event>
<event>
 9    1  0.1881049E-005  0.1021991E+03  0.7546771E-02  0.1279126E+00
         -1   -1    0    0    0  501 -0.00000000000E+00  0.00000000000E+00  0.35778422919E+02  0.35778422919E+02  0.00000000000E+00 0.  1.
         21   -1    0    0  501  502  0.00000000000E+00 -0.00000000000E+00 -0.48167291911E+03  0.48167291911E+03  0.00000000000E+00 0.  1.
         23    2    1    2    0    0  0.19992765601E+02 -0.25760827241E+02 -0.13300466060E+03  0.16787395293E+03  0.97098369884E+02 0.  0.
         23    2    1    2    0    0 -0.41462549864E+02 -0.81585549593E+01 -0.13875648324E+03  0.17087680005E+03  0.90331689315E+02 0.  0.
        -13    1    3    3    0    0 -0.38110842995E+02 -0.91897272640E+00 -0.62375112095E+02  0.73102226187E+02  0.00000000000E+00 0. -1.
         13    1    3    3    0    0  0.58103608596E+02 -0.24841854514E+02 -0.70629548505E+02  0.94771726742E+02  0.00000000000E+00 0.  1.
        -13    1    4    4    0    0  0.87189372230E+00  0.35057902697E+02 -0.76043242684E+02  0.83740023274E+02  0.00000000000E+00 0. -1.
         13    1    4    4    0    0 -0.42334443587E+02 -0.43216457656E+02 -0.62713240558E+02  0.87136776779E+02  0.00000000000E+00 0.  1.
         -1    1    1    2    0  502  0.21469784263E+02  0.33919382200E+02 -0.17413335235E+03  0.17870058905E+03  0.00000000000E+00 0.  1.
<scales pt_clust_5="13000.00000" pt_clust_6="13000.00000" pt_clust_7="13000.00000" pt_clust_8="13000.00000" pt_clust_9="40.14320"></scales>
<clustering>
<clus scale="   40.143">  2  9  1 -1</clus>
<clus scale="   90.332">  7  8 -1 -1</clus>
<clus scale="   95.793">  2  7  1 -1</clus>
<clus scale="   97.098">  5  6 -1 -1</clus>
<clus scale="   40.143">  2  5  1 -1</clus>
</clustering>
</event>
<event>
 9    1  0.1881049E-005  0.9843722E+02  0.7546771E-02  0.1285665E+00
         -2   -1    0    0    0  501 -0.00000000000E+00  0.00000000000E+00  0.34289920653E+03  0.34289920653E+03  0.00000000000E+00 0.  1.
         21   -1    0    0  501  502  0.00000000000E+00 -0.00000000000E+00 -0.12119346542E+03  0.12119346542E+03  0.00000000000E+00 0.  1.
         23    2    1    2    0    0  0.30873867240E+02  0.39054452862E+00  0.21531519810E+03  0.23512748215E+03  0.89280177659E+02 0.  0.
         23    2    1    2    0    0 -0.16343956956E+02 -0.64341465416E+02  0.72790429767E+02  0.13563896875E+03  0.93233760394E+02 0.  0.
        -11    1    3    3    0    0 -0.25823058782E+02  0.65649689086E+01  0.12864937075E+03  0.13137956377E+03  0.00000000000E+00 0. -1.
         11    1    3    3    0    0  0.56696926022E+02 -0.61744243800E+01  0.86665827350E+02  0.10374791837E+03  0.00000000000E+00 0.  1.
        -13    1    4    4    0    0 -0.50108573926E+02 -0.11886938646E+02  0.39691052238E+02  0.65019597962E+02  0.00000000000E+00 0. -1.
         13    1    4    4    0    0  0.33764616970E+02 -0.52454526770E+02  0.33099377529E+02  0.70619370789E+02  0.00000000000E+00 0.  1.
         -2    1    1    2    0  502 -0.14529910284E+02  0.63950920888E+02 -0.66399886756E+02  0.93326221055E+02  0.00000000000E+00 0.  1.
<scales pt_clust_5="13000.00000" pt_clust_6="13000.00000" pt_clust_7="13000.00000" pt_clust_8="13000.00000" pt_clust_9="65.58078"></scales>
<clustering>
<clus scale="   65.581">  2  9  1 -1</clus>
<clus scale="   89.280">  5  6 -1 -1</clus>
<clus scale="   93.234">  7  8 -1 -1</clus>
<clus scale="   94.701">  1  5  2 -1</clus>
<clus scale="   65.581">  2  5  1 -1</clus>
</clustering>
</event>
<event>
 9    1  0.1881049E-005  0.1111759E+03  0.7546771E-02  0.1258433E+00
          1   -1    0    0  502    0 -0.00000000000E+00  0.00000000000E+00  0.48432082613E+02  0.48432082613E+02  0.00000000000E+00 0. -1.
         21   -1    0    0  501  502  0.00000000000E+00 -0.00000000000E+00 -0.45265923517E+03  0.45265923517E+03  0.00000000000E+00 0. -1.
         23    2    1    2    0    0 -0.35050311760E+02  0.60161332869E+02 -0.85443402315E+02  0.14321948814E+03  0.91451279141E+02 0.  0.
         23    2    1    2    0    0  0.55415353180E+02 -0.24454861532E+02 -0.16118090338E+03  0.19499658798E+03  0.91517670918E+02 0.  0.
        -13    1    3    3    0    0  0.24027439550E+02 -0.46035346446E+01 -0.32960030233E+02  0.41047216416E+02  0.00000000000E+00 0.  1.
         13    1    3    3    0    0 -0.59077751310E+02  0.64764867514E+02 -0.52483372082E+02  0.10217227172E+03  0.00000000000E+00 0. -1.
        -13    1    4    4    0    0 -0.18449362622E+01 -0.34040305158E+02 -0.11749142963E+03  0.12233716607E+03  0.00000000000E+00 0.  1.
         13    1    4    4    0    0  0.57260289442E+02  0.95854436258E+01 -0.43689473748E+02  0.72659421914E+02  0.00000000000E+00 0. -1.
          1    1    1    2  501    0 -0.20365041420E+02 -0.35706471337E+02 -0.15760284686E+03  0.16287524166E+03  0.00000000000E+00 0. -1.
<scales pt_clust_5="13000.00000" pt_clust_6="13000.00000" pt_clust_7="13000.00000" pt_clust_8="13000.00000" pt_clust_9="41.10580"></scales>
<clustering>
<clus scale="   41.106">  2  9  1 -1</clus>
<clus scale="   91.451">  5  6 -1 -1</clus>
<clus scale="   91.518">  7  8 -1 -1</clus>
<clus scale="  111.121">  1  5  2 -1</clus>
<clus scale="   41.106">  2  5  1 -1</clus>
</clustering>
</event>
<event>
 9    1  0.1881049E-005  0.1240174E+03  0.7546771E-02  0.1239758E+00
         21   -1    0    0  501  502  0.00000000000E+00  0.00000000000E+00  0.24581515994E+03  0.24581515994E+03  0.00000000000E+00 0. -1.
          1   -1    0    0  502    0 -0.00000000000E+00 -0.00000000000E+00 -0.26218118419E+03  0.26218118419E+03  0.00000000000E+00 0. -1.
         23    2    1    2    0    0 -0.52864442261E+02 -0.43107249196E+02 -0.17107942775E+03  0.20592371583E+03  0.92106036473E+02 0.  0.
         23    2    1    2    0    0  0.91041187520E+02  0.12780253006E+02 -0.29006457132E+01  0.13708966225E+03  0.10165298351E+03 0.  0.
        -11    1    4    4    0    0  0.11314959751E+03  0.67547647889E+01 -0.79346929584E+01  0.11362841905E+03  0.00000000000E+00 0. -1.
         11    1    4    4    0    0 -0.22108409989E+02  0.60254882171E+01  0.50340472452E+01  0.23461243193E+02  0.00000000000E+00 0.  1.
        -13    1    3    3    0    0 -0.28059443594E+02 -0.15902697657E+02 -0.16558945667E+03  0.16870120429E+03  0.00000000000E+00 0.  1.
         13    1    3    3    0    0 -0.24804998667E+02 -0.27204551539E+02 -0.54899710783E+01  0.37222511546E+02  0.00000000000E+00 0. -1.
          1    1    1    2  501    0 -0.38176745260E+02  0.30326996190E+02  0.15761404921E+03  0.16498296605E+03  0.00000000000E+00 0. -1.
<scales pt_clust_5="13000.00000" pt_clust_6="13000.00000" pt_clust_7="13000.00000" pt_clust_8="13000.00000" pt_clust_9="48.75644"></scales>
<clustering>
<clus scale="   48.756">  1  9  2 -1</clus>
<clus scale="   92.106">  7  8 -1 -1</clus>
<clus scale="  101.653">  5  6 -1 -1</clus>
<clus scale="  116.321">  2  7  1 -1</clus>
<clus scale="   48.756">  1  5  2 -1</clus>
</clustering>
</event>
<event>
 9    1  0.1881049E-005  0.9284642E+02  0.7546771E-02  0.1297150E+00
          1   -1    0    0  502    0 -0.00000000000E+00  0.00000000000E+00  0.93324849753E+02  0.93324849753E+02  0.00000000000E+00 0. -1.
         21   -1    0    0  501  502  0.00000000000E+00 -0.00000000000E+00 -0.15863739576E+03  0.15863739576E+03  0.00000000000E+00 0.  1.
         23    2    1    2    0    0  0.33767891689E+01  0.71687105058E+01  0.22064533047E+02  0.95170272932E+02  0.92237433377E+02 0.  0.
         23    2    1    2    0    0  0.19883042104E+02 -0.13914223601E+02 -0.36603076938E+02  0.10053789727E+03  0.90438612137E+02 0.  0.
        -11    1    3    3    0    0 -0.41037145794E+02 -0.13752055730E+02  0.13480633006E+02  0.45330936875E+02  0.00000000000E+00 0.  1.
         11    1    3    3    0    0  0.44413934963E+02  0.20920766236E+02  0.85839000406E+01  0.49839336057E+02  0.00000000000E+00 0. -1.
        -13    1    4    4    0    0 -0.33730531786E+02 -0.38870157669E+01 -0.30523751297E+02  0.45656949738E+02  0.00000000000E+00 0.  1.
         13    1    4    4    0    0  0.53613573890E+02 -0.10027207834E+02 -0.60793256409E+01  0.54880947536E+02  0.00000000000E+00 0. -1.
          1    1    1    2  501    0 -0.23259831273E+02  0.67455130949E+01 -0.50774002112E+02  0.56254075304E+02  0.00000000000E+00 0. -1.
<scales pt_clust_5="13000.00000" pt_clust_6="13000.00000" pt_clust_7="13000.00000" pt_clust_8="13000.00000" pt_clust_9="24.21821"></scales>
<clustering>
<clus scale="   24.218">  2  9  1 -1</clus>
<clus scale="   90.439">  7  8 -1 -1</clus>
<clus scale="   91.060">  2  7  1 -1</clus>
<clus scale="   92.237">  5  6 -1 -1</clus>
<clus scale="   24.218">  2  5  1 -1</clus>
</clustering>
</event>
<event>
 9    1  0.1881049E-005  0.1049585E+03  0.7546771E-02  0.1270894E+00
         -1   -1    0    0    0  501 -0.00000000000E+00  0.00000000000E+00  0.11528801743E+03  0.11528801743E+03  0.00000000000E+00 0.  1.
         21   -1    0    0  501  502  0.00000000000E+00 -0.00000000000E+00 -0.14147047136E+03  0.14147047136E+03  0.00000000000E+00 0.  1.
         23    2    1    2    0    0  0.17425278704E+02  0.41241883567E+02  0.64641817357E+01  0.10172966332E+03  0.91118633964E+02 0.  0.
         23    2    1    2    0    0 -0.72731098133E+01 -0.60384300856E+02  0.84742488022E+01  0.10854844453E+03  0.89508602939E+02 0.  0.
        -11    1    3    3    0    0  0.40615205413E+02  0.83942590533E+01  0.33469265354E+02  0.53293997966E+02  0.00000000000E+00 0.  1.
         11    1    3    3    0    0 -0.23189926709E+02  0.32847624514E+02 -0.27005083618E+02  0.48435665353E+02  0.00000000000E+00 0. -1.
        -13    1    4    4    0    0  0.19954979643E+02 -0.72423801338E+02  0.18076964183E+02  0.77266971255E+02  0.00000000000E+00 0.  1.
         13    1    4    4    0    0 -0.27228089457E+02  0.12039500482E+02 -0.96027153813E+01  0.31281473271E+02  0.00000000000E+00 0. -1.
         -1    1    1    2    0  502 -0.10152168891E+02  0.19142417289E+02 -0.41120884466E+02  0.46480380938E+02  0.00000000000E+00 0.  1.
<scales pt_clust_5="13000.00000" pt_clust_6="13000.00000" pt_clust_7="13000.00000" pt_clust_8="13000.00000" pt_clust_9="21.66792"></scales>
<clustering>
<clus scale="   21.668">  2  9  1 -1</clus>
<clus scale="   89.509">  7  8 -1 -1</clus>
<clus scale="   91.119">  5  6 -1 -1</clus>
<clus scale="  103.564">  2  7  1 -1</clus>
<clus scale="   21.668">  2  5  1 -1</clus>
</clustering>
</event>
<event>
 9    1  0.1881049E-005  0.1516506E+03  0.7546771E-02  0.1198562E+00
         21   -1    0    0  501  502  0.00000000000E+00  0.00000000000E+00  0.22977807674E+03  0.22977807674E+03  0.00000000000E+00 0. -1.
         -1   -1    0    0    0  501 -0.00000000000E+00 -0.00000000000E+00 -0.15820069732E+03  0.15820069732E+03  0.00000000000E+00 0.  1.
         23    2    1    2    0    0 -0.93245218959E+02 -0.68341227737E+02 -0.57958657906E+02  0.15860088123E+03  0.91814155949E+02 0.  0.
         23    2    1    2    0    0  0.11827553561E+03  0.66346943164E+02  0.11491909611E+03  0.20032365230E+03  0.92369626106E+02 0.  0.
        -11    1    3    3    0    0 -0.38008727476E+02 -0.57986385777E+02  0.10397846198E+02  0.70108483833E+02  0.00000000000E+00 0. -1.
         11    1    3    3    0    0 -0.55236491484E+02 -0.10354841960E+02 -0.68356504103E+02  0.88492397395E+02  0.00000000000E+00 0.  1.
        -13    1    4    4    0    0 -0.12664453783E+02  0.22805101934E+02  0.18969771349E+02  0.32253887965E+02  0.00000000000E+00 0.  1.
         13    1    4    4    0    0  0.13093998939E+03  0.43541841231E+02  0.95949324765E+02  0.16806976433E+03  0.00000000000E+00 0. -1.
         -1    1    1    2    0  502 -0.25030316650E+02  0.19942845721E+01  0.14616941216E+02  0.29054240535E+02  0.00000000000E+00 0.  1.
<scales pt_clust_5="13000.00000" pt_clust_6="13000.00000" pt_clust_7="13000.00000" pt_clust_8="13000.00000" pt_clust_9="25.10964"></scales>
<clustering>
<clus scale="   25.110">  1  9  2 -1</clus>
<clus scale="   91.814">  5  6 -1 -1</clus>
<clus scale="   92.370">  7  8 -1 -1</clus>
<clus scale="  151.313">  2  5  1 -1</clus>
<clus scale="   25.110">  1  5  2 -1</clus>
</clustering>
</event>
<event>
 9    1  0.1881049E-005  0.9362375E+02  0.7546771E-02  0.1296026E+00
         21   -1    0    0  501  502  0.00000000000E+00  0.00000000000E+00  0.55995422712E+02  0.55995422712E+02  0.00000000000E+00 0.  1.
         -4   -1    0    0    0  501 -0.00000000000E+00 -0.00000000000E+00 -0.27549481988E+03  0.27549481988E+03  0.00000000000E+00 0.  1.
         23    2    1    2    0    0 -0.14855790442E+02  0.14810055608E+02 -0.15773112000E+03  0.18276455675E+03  0.89909647598E+02 0.  0.
         23    2    1    2    0    0 -0.47920378041E+00  0.63681625763E+01 -0.74880612613E+02  0.11947483433E+03  0.92878128548E+02 0.  0.
        -13    1    4    4    0    0 -0.35400900517E+02  0.20007204047E+02 -0.70952741822E+02  0.81778992065E+02  0.00000000000E+00 0.  1.
         13    1    4    4    0    0  0.34921696737E+02 -0.13639041471E+02 -0.39278707910E+01  0.37695842266E+02  0.00000000000E+00 0. -1.
        -13    1    3    3    0    0 -0.96034725436E+00  0.51022827459E+02 -0.68084732467E+02  0.85086908416E+02  0.00000000000E+00 0. -1.
         13    1    3    3    0    0 -0.13895443188E+02 -0.36212771851E+02 -0.89646387530E+02  0.97677648332E+02  0.00000000000E+00 0.  1.
         -4    1    1    2    0  502  0.15334994223E+02 -0.21178218184E+02  0.13112335443E+02  0.29250851510E+02  0.00000000000E+00 0.  1.
<scales pt_clust_5="13000.00000" pt_clust_6="13000.00000" pt_clust_7="13000.00000" pt_clust_8="13000.00000" pt_clust_9="26.14726"></scales>
<clustering>
<clus scale="   26.147">  1  9  2 -1</clus>
<clus scale="   89.910">  7  8 -1 -1</clus>
<clus scale="   90.680">  2  7  1 -1</clus>
<clus scale="   92.878">  5  6 -1 -1</clus>
<clus scale="   26.147">  1  5  2 -1</clus>
</clustering>
</event>
<event>
 9    1  0.1881049E-005  0.1156107E+03  0.7546771E-02  0.1258021E+00
         21   -1    0    0  501  502  0.00000000000E+00  0.00000000000E+00  0.69667025237E+03  0.69667025237E+03  0.00000000000E+00 0. -1.
          1   -1    0    0  502    0 -0.00000000000E+00 -0.00000000000E+00 -0.55631462104E+02  0.55631462104E+02  0.00000000000E+00 0. -1.
         23    2    1    2    0    0 -0.58060011770E+02  0.33241253846E+02  0.74634155411E+02  0.14701600483E+03  0.10755232494E+03 0.  0.
         23    2    1    2    0    0  0.21786163532E+02  0.17564237924E+02  0.11136774215E+03  0.14598671793E+03  0.90145484891E+02 0.  0.
        -13    1    4    4    0    0 -0.26691947505E+02  0.12590880325E+02  0.86254901296E+02  0.91164128507E+02  0.00000000000E+00 0. -1.
         13    1    4    4    0    0  0.48478111037E+02  0.49733575994E+01  0.25112840850E+02  0.54822589423E+02  0.00000000000E+00 0.  1.
        -13    1    3    3    0    0 -0.25533550670E+02 -0.25363708276E+02  0.71345610476E+02  0.79909173700E+02  0.00000000000E+00 0.  1.
         13    1    3    3    0    0 -0.32526461100E+02  0.58604962122E+02  0.32885449356E+01  0.67106831133E+02  0.00000000000E+00 0. -1.
          1    1    1    2  501    0  0.36273848238E+02 -0.50805491770E+02  0.45503689271E+03  0.45929899171E+03  0.00000000000E+00 0. -1.
<scales pt_clust_5="13000.00000" pt_clust_6="13000.00000" pt_clust_7="13000.00000" pt_clust_8="13000.00000" pt_clust_9="62.42588"></scales>
<clustering>
<clus scale="   62.426">  1  9  2 -1</clus>
<clus scale="   90.145">  5  6 -1 -1</clus>
<clus scale="   99.622">  1  5  2 -1</clus>
<clus scale="  107.552">  7  8 -1 -1</clus>
<clus scale="   62.426">  1  5  2 -1</clus>
</clustering>
</event>
<event>
 9    1  0.1881049E-005  0.1240271E+03  0.7546771E-02  0.1237341E+00
          3   -1    0    0  502    0 -0.00000000000E+00  0.00000000000E+00  0.13474534978E+03  0.13474534978E+03  0.00000000000E+00 0. -1.
         21   -1    0    0  501  502  0.00000000000E+00 -0.00000000000E+00 -0.17920346880E+03  0.17920346880E+03  0.00000000000E+00 0.  1.
         23    2    1    2    0    0  0.77249291062E+01 -0.78761611595E+02  0.45204867695E+02  0.12858544962E+03  0.90706514643E+02 0.  0.
         23    2    1    2    0    0  0.24465365624E+01  0.97558674700E+02 -0.50717524905E+02  0.14093885670E+03  0.88135199804E+02 0.  0.
        -13    1    3    3    0    0  0.43249389922E+02 -0.30764648458E+02  0.43867020812E+02  0.68857017350E+02  0.00000000000E+00 0.  1.
         13    1    3    3    0    0 -0.35524460816E+02 -0.47996963137E+02  0.13378468830E+01  0.59728432266E+02  0.00000000000E+00 0. -1.
        -13    1    4    4    0    0  0.25887024138E+02  0.19252772997E+02 -0.49628132606E+02  0.59192557241E+02  0.00000000000E+00 0.  1.
         13    1    4    4    0    0 -0.23440487575E+02  0.78305901703E+02 -0.10893922988E+01  0.81746299457E+02  0.00000000000E+00 0. -1.
          3    1    1    2  501    0 -0.10171465669E+02 -0.18797063104E+02 -0.38945461803E+02  0.44424512268E+02  0.00000000000E+00 0. -1.
<scales pt_clust_5="13000.00000" pt_clust_6="13000.00000" pt_clust_7="13000.00000" pt_clust_8="13000.00000" pt_clust_9="21.37261"></scales>
<clustering>
<clus scale="   21.373">  2  9  1 -1</clus>
<clus scale="   88.135">  7  8 -1 -1</clus>
<clus scale="   90.707">  5  6 -1 -1</clus>
<clus scale="  122.159">  2  7  1 -1</clus>
<clus scale="   21.373">  2  5  1 -1</clus>
</clustering>
</event>
<event>
 9    1  0.1881049E-005  0.9658937E+02  0.7546771E-02  0.1297661E+00
          3   -1    0    0  502    0 -0.00000000000E+00  0.00000000000E+00  0.27678769203E+03  0.27678769203E+03  0.00000000000E+00 0. -1.
         21   -1    0    0  501  502  0.00000000000E+00 -0.00000000000E+00 -0.87731822562E+02  0.87731822562E+02  0.00000000000E+00 0. -1.
         23    2    1    2    0    0 -0.20394967751E+02 -0.25853508920E+02  0.13787242887E+03  0.15993098798E+03  0.74059136090E+02 0.  0.
         23    2    1    2    0    0 -0.48790497970E+02  0.43743096857E+02  0.67452845474E+02  0.13129896693E+03  0.91627294724E+02 0.  0.
        -11    1    3    3    0    0  0.27505619589E+02 -0.22623311812E+01  0.49846409906E+02  0.56976677965E+02  0.00000000000E+00 0.  1.
         11    1    3    3    0    0 -0.47900587340E+02 -0.23591177738E+02  0.88026018969E+02  0.10295431001E+03  0.00000000000E+00 0. -1.
        -11    1    4    4    0    0 -0.30134848210E+02 -0.16756037275E+02 -0.52684933351E+01  0.34880236293E+02  0.00000000000E+00 0.  1.
         11    1    4    4    0    0 -0.18655649760E+02  0.60499134132E+02  0.72721338809E+02  0.96418730633E+02  0.00000000000E+00 0. -1.
          3    1    1    2  501    0  0.69185465721E+02 -0.17889587937E+02 -0.16269404884E+02  0.73289559685E+02  0.00000000000E+00 0. -1.
<scales pt_clust_5="13000.00000" pt_clust_6="13000.00000" pt_clust_7="13000.00000" pt_clust_8="13000.00000" pt_clust_9="71.46094"></scales>
<clustering>
<clus scale="   71.461">  2  9  1 -1</clus>
<clus scale="   74.059">  5  6 -1 -1</clus>
<clus scale="   80.117">  1  5  2 -1</clus>
<clus scale="   91.627">  7  8 -1 -1</clus>
<clus scale="   71.461">  2  5  1 -1</clus>
</clustering>
</event>
<event>
 9    1  0.1881049E-005  0.1492072E+03  0.7546771E-02  0.1215352E+00
          1   -1    0    0  502    0 -0.00000000000E+00  0.00000000000E+00  0.37564159677E+03  0.37564159677E+03  0.00000000000E+00 0. -1.
         21   -1    0    0  501  502  0.00000000000E+00 -0.00000000000E+00 -0.23601082047E+03  0.23601082047E+03  0.00000000000E+00 0. -1.
         23    2    1    2    0    0  0.54520822751E+02 -0.41525573097E+02  0.19983080411E+01  0.11081293691E+03  0.87055272196E+02 0.  0.
         23    2    1    2    0    0  0.66135437245E+02  0.51721991068E+02  0.28449893571E+03  0.31049332389E+03  0.91746385976E+02 0.  0.
        -11    1    4    4    0    0  0.41193274831E+02  0.86407613638E+01  0.31313154418E+02  0.52460101867E+02  0.00000000000E+00 0.  1.
         11    1    4    4    0    0  0.24942162414E+02  0.43081229705E+02  0.25318578129E+03  0.25803322202E+03  0.00000000000E+00 0. -1.
        -13    1    3    3    0    0  0.29424561323E+02  0.47028904027E+01 -0.35400162664E+02  0.46271951588E+02  0.00000000000E+00 0.  1.
         13    1    3    3    0    0  0.25096261428E+02 -0.46228463500E+02  0.37398470705E+02  0.64540985321E+02  0.00000000000E+00 0. -1.
          1    1    1    2  501    0 -0.12065626000E+03 -0.10196417971E+02 -0.14686646745E+03  0.19034615645E+03  0.00000000000E+00 0. -1.
<scales pt_clust_5="13000.00000" pt_clust_6="13000.00000" pt_clust_7="13000.00000" pt_clust_8="13000.00000" pt_clust_9="117.66645"></scales>
<clustering>
<clus scale="   87.055">  7  8 -1 -1</clus>
<clus scale="   91.746">  5  6 -1 -1</clus>
<clus scale="  110.795">  1  7  2 -1</clus>
<clus scale="  117.666">  2  9  1 -1</clus>
<clus scale="  117.666">  2  5  1 -1</clus>
</clustering>
</event>
<event>
 9    1  0.1881049E-005  0.1008308E+03  0.7546771E-02  0.1279572E+00
         21   -1    0    0  501  502  0.00000000000E+00  0.00000000000E+00  0.20240533944E+03  0.20240533944E+03  0.00000000000E+00 0.  1.
         -3   -1    0    0    0  501 -0.00000000000E+00 -0.00000000000E+00 -0.38552430547E+03  0.38552430547E+03  0.00000000000E+00 0.  1.
         23    2    1    2    0    0 -0.22570402613E-01  0.61357547836E+02 -0.22095730131E+03  0.24723009219E+03  0.92389611411E+02 0.  0.
         23    2    1    2    0    0 -0.12022302806E+01 -0.17660332374E+02 -0.13447144513E+03  0.16293114383E+03  0.90280980157E+02 0.  0.
        -11    1    3    3    0    0 -0.39264334481E+02  0.50031676344E+01 -0.56250936374E+02  0.68781447292E+02  0.00000000000E+00 0. -1.
         11    1    3    3    0    0  0.39241764078E+02  0.56354380202E+02 -0.16470636493E+03  0.17844864490E+03  0.00000000000E+00 0.  1.
        -13    1    4    4    0    0  0.33361017378E+02  0.19124572391E+02 -0.79436593821E+02  0.88254627003E+02  0.00000000000E+00 0.  1.
         13    1    4    4    0    0 -0.34563247658E+02 -0.36784904765E+02 -0.55034851309E+02  0.74676516830E+02  0.00000000000E+00 0. -1.
         -3    1    1    2    0  502  0.12248006833E+01 -0.43697215462E+02  0.17230978040E+03  0.17776840889E+03  0.00000000000E+00 0.  1.
<scales pt_clust_5="13000.00000" pt_clust_6="13000.00000" pt_clust_7="13000.00000" pt_clust_8="13000.00000" pt_clust_9="43.71438"></scales>
<clustering>
<clus scale="   43.714">  1  9  2 -1</clus>
<clus scale="   90.281">  7  8 -1 -1</clus>
<clus scale="   92.390">  5  6 -1 -1</clus>
<clus scale="   98.902">  1  7  2 -1</clus>
<clus scale="   43.714">  1  5  2 -1</clus>
</clustering>
</event>
<event>
 9    1  0.1881049E-005  0.9387484E+02  0.7546771E-02  0.1294988E+00
          3   -1    0    0  502    0 -0.00000000000E+00  0.00000000000E+00  0.20537363716E+03  0.20537363716E+03  0.00000000000E+00 0. -1.
         21   -1    0    0  501  502  0.00000000000E+00 -0.00000000000E+00 -0.66878533563E+02  0.66878533563E+02  0.00000000000E+00 0.  1.
         23    2    1    2    0    0 -0.13461000082E+02  0.40048655069E+01  0.10197006453E+03  0.13724259772E+03  0.90776644007E+02 0.  0.
         23    2    1    2    0    0 -0.76169640199E+00 -0.20277342356E+02  0.51989977614E+02  0.10843434165E+03  0.92969338393E+02 0.  0.
        -11    1    4    4    0    0 -0.29319997191E+02 -0.37109479047E+02  0.57901217042E+02  0.74761799105E+02  0.00000000000E+00 0. -1.
         11    1    4    4    0    0  0.28558300789E+02  0.16832136692E+02 -0.59112394277E+01  0.33672542540E+02  0.00000000000E+00 0.  1.
        -13    1    3    3    0    0  0.32825141197E+01  0.35539775353E+02  0.78031495260E+01  0.36534089199E+02  0.00000000000E+00 0.  1.
         13    1    3    3    0    0 -0.16743514202E+02 -0.31534909846E+02  0.94166915001E+02  0.10070850852E+03  0.00000000000E+00 0. -1.
          3    1    1    2  501    0  0.14222696484E+02  0.16272476849E+02 -0.15464938541E+02  0.26575231366E+02  0.00000000000E+00 0. -1.
<scales pt_clust_5="13000.00000" pt_clust_6="13000.00000" pt_clust_7="13000.00000" pt_clust_8="13000.00000" pt_clust_9="21.61200"></scales>
<clustering>
<clus scale="   21.612">  2  9  1 -1</clus>
<clus scale="   90.777">  7  8 -1 -1</clus>
<clus scale="   91.704">  1  7  2 -1</clus>
<clus scale="   92.969">  5  6 -1 -1</clus>
<clus scale="   21.612">  2  5  1 -1</clus>
</clustering>
</event>
<event>
 9    1  0.1881049E-005  0.2276738E+03  0.7546771E-02  0.1128491E+00
          3   -1    0    0  502    0 -0.00000000000E+00  0.00000000000E+00  0.97529571619E+03  0.97529571619E+03  0.00000000000E+00 0. -1.
         21   -1    0    0  501  502  0.00000000000E+00 -0.00000000000E+00 -0.12300026047E+03  0.12300026047E+03  0.00000000000E+00 0. -1.
         23    2    1    2    0    0 -0.42038451840E+02  0.19203368561E+03  0.58600595899E+03  0.62494583221E+03  0.92250427507E+02 0.  0.
         23    2    1    2    0    0  0.81161561233E+02 -0.22142390102E+03  0.31552351235E+03  0.40393551527E+03  0.89403974705E+02 0.  0.
        -11    1    3    3    0    0  0.28535936920E+02  0.77363060530E+02  0.21647370582E+03  0.23164673135E+03  0.00000000000E+00 0.  1.
         11    1    3    3    0    0 -0.70574388760E+02  0.11467062508E+03  0.36953225317E+03  0.39329910086E+03  0.00000000000E+00 0. -1.
        -13    1    4    4    0    0  0.87608686463E+02 -0.18129878891E+03  0.21038207952E+03  0.29121324178E+03  0.00000000000E+00 0.  1.
         13    1    4    4    0    0 -0.64471252303E+01 -0.40125112107E+02  0.10514143282E+03  0.11272227349E+03  0.00000000000E+00 0. -1.
          3    1    1    2  501    0 -0.39123109393E+02  0.29390215406E+02 -0.49234015616E+02  0.69414629178E+02  0.00000000000E+00 0. -1.
<scales pt_clust_5="13000.00000" pt_clust_6="13000.00000" pt_clust_7="13000.00000" pt_clust_8="13000.00000" pt_clust_9="48.93263"></scales>
<clustering>
<clus scale="   48.933">  2  9  1 -1</clus>
<clus scale="   89.404">  7  8 -1 -1</clus>
<clus scale="   92.250">  5  6 -1 -1</clus>
<clus scale="  226.535">  2  7  1 -1</clus>
<clus scale="   48.933">  2  5  1 -1</clus>
</clustering>
</event>
<event>
 9    1  0.1881049E-005  0.1304001E+03  0.7546771E-02  0.1227018E+00
          3   -1    0    0  502    0 -0.00000000000E+00  0.00000000000E+00  0.70392038366E+03  0.70392038366E+03  0.00000000000E+00 0. -1.
         21   -1    0    0  501  502  0.00000000000E+00 -0.00000000000E+00 -0.33446819967E+02  0.33446819967E+02  0.00000000000E+00 0. -1.
         23    2    1    2    0    0  0.43049359922E+02 -0.71759575794E+02  0.37415880650E+03  0.39421032279E+03  0.91674871191E+02 0.  0.
         23    2    1    2    0    0 -0.58559488540E+02  0.90639436023E+02  0.28053764411E+03  0.31407199628E+03  0.91077593435E+02 0.  0.
        -11    1    3    3    0    0  0.35629441338E+02 -0.93361013934E+02  0.27922534414E+03  0.29656791604E+03  0.00000000000E+00 0. -1.
         11    1    3    3    0    0  0.74199185842E+01  0.21601438140E+02  0.94933462358E+02  0.97642406755E+02  0.00000000000E+00 0.  1.
        -11    1    4    4    0    0 -0.13933431456E+02  0.50471895520E+02  0.39281030590E+02  0.65456490234E+02  0.00000000000E+00 0.  1.
         11    1    4    4    0    0 -0.44626057084E+02  0.40167540503E+02  0.24125661352E+03  0.24861550605E+03  0.00000000000E+00 0. -1.
          3    1    1    2  501    0  0.15510128618E+02 -0.18879860228E+02  0.15777113079E+02  0.29084884547E+02  0.00000000000E+00 0. -1.
<scales pt_clust_5="13000.00000" pt_clust_6="13000.00000" pt_clust_7="13000.00000" pt_clust_8="13000.00000" pt_clust_9="24.43385"></scales>
<clustering>
<clus scale="   24.434">  2  9  1 -1</clus>
<clus scale="   91.078">  7  8 -1 -1</clus>
<clus scale="   91.675">  5  6 -1 -1</clus>
<clus scale="  129.981">  2  7  1 -1</clus>
<clus scale="   24.434">  2  5  1 -1</clus>
</clustering>
</event>
<event>
 9    1  0.1881049E-005  0.9396048E+02  0.7546771E-02  0.1294000E+00
          2   -1    0    0  502    0 -0.00000000000E+00  0.00000000000E+00  0.49953628532E+03  0.49953628532E+03  0.00000000000E+00 0. -1.
         21   -1    0    0  501  502  0.00000000000E+00 -0.00000000000E+00 -0.55469193364E+02  0.55469193364E+02  0.00000000000E+00 0.  1.
         23    2    1    2    0    0 -0.18730156160E+02 -0.30298919559E+01  0.33156740351E+03  0.34453934554E+03  0.91708334204E+02 0.  0.
         23    2    1    2    0    0  0.16809375548E+02  0.23681412942E+02  0.14400795264E+03  0.17274418422E+03  0.90878481126E+02 0.  0.
        -11    1    4    4    0    0  0.36054458461E+02 -0.18930560037E+02  0.33426533654E+02  0.52684183873E+02  0.00000000000E+00 0.  1.
         11    1    4    4    0    0 -0.19245082913E+02  0.42611972979E+02  0.11058141899E+03  0.12006000034E+03  0.00000000000E+00 0. -1.
        -13    1    3    3    0    0  0.35414196226E+02  0.94624604062E+01  0.16216104371E+03  0.16625254148E+03  0.00000000000E+00 0.  1.
         13    1    3    3    0    0 -0.54144352386E+02 -0.12492352362E+02  0.16940635980E+03  0.17828680406E+03  0.00000000000E+00 0. -1.
          2    1    1    2  501    0  0.19207806114E+01 -0.20651520986E+02 -0.31508264201E+02  0.37721948917E+02  0.00000000000E+00 0. -1.
<scales pt_clust_5="13000.00000" pt_clust_6="13000.00000" pt_clust_7="13000.00000" pt_clust_8="13000.00000" pt_clust_9="20.74065"></scales>
<clustering>
<clus scale="   20.741">  2  9  1 -1</clus>
<clus scale="   90.878">  5  6 -1 -1</clus>
<clus scale="   91.708">  7  8 -1 -1</clus>
<clus scale="   93.151">  2  5  1 -1</clus>
<clus scale="   20.741">  2  5  1 -1</clus>
</clustering>
</event>
<event>
 9    1  0.1881049E-005  0.9181621E+02  0.7546771E-02  0.1300898E+00
         21   -1    0    0  501  502  0.00000000000E+00  0.00000000000E+00  0.65652174881E+02  0.65652174881E+02  0.00000000000E+00 0.  1.
          1   -1    0    0  502    0 -0.00000000000E+00 -0.00000000000E+00 -0.45748776191E+03  0.45748776191E+03  0.00000000000E+00 0. -1.
         23    2    1    2    0    0  0.31811303289E+01 -0.96709291272E+01 -0.35637378351E+03  0.36795351372E+03  0.91015758122E+02 0.  0.
         23    2    1    2    0    0 -0.48687535658E+02 -0.72035334684E+01 -0.37053650753E+02  0.10662600306E+03  0.87027377715E+02 0.  0.
        -11    1    3    3    0    0 -0.40671552143E+02  0.10883759491E+02 -0.13830514998E+03  0.14457159432E+03  0.00000000000E+00 0.  1.
         11    1    3    3    0    0  0.43852682472E+02 -0.20554688618E+02 -0.21806863353E+03  0.22338191940E+03  0.00000000000E+00 0. -1.
        -13    1    4    4    0    0 -0.73375605346E+02 -0.73177272830E+01 -0.19319536655E+02  0.76228427040E+02  0.00000000000E+00 0.  1.
         13    1    4    4    0    0  0.24688069688E+02  0.11419381463E+00 -0.17734114098E+02  0.30397576022E+02  0.00000000000E+00 0. -1.
          1    1    1    2  501    0  0.45506405329E+02  0.16874462596E+02  0.15918472318E+01  0.48560420009E+02  0.00000000000E+00 0. -1.
<scales pt_clust_5="13000.00000" pt_clust_6="13000.00000" pt_clust_7="13000.00000" pt_clust_8="13000.00000" pt_clust_9="48.53432"></scales>
<clustering>
<clus scale="   48.534">  1  9  2 -1</clus>
<clus scale="   87.027">  7  8 -1 -1</clus>
<clus scale="   87.864">  1  7  2 -1</clus>
<clus scale="   91.016">  5  6 -1 -1</clus>
<clus scale="   48.534">  1  5  2 -1</clus>
</clustering>
</event>
<event>
 9    1  0.1881049E-005  0.1141724E+03  0.7546771E-02  0.1254239E+00
         21   -1    0    0  501  502  0.00000000000E+00  0.00000000000E+00  0.17928351297E+03  0.17928351297E+03  0.00000000000E+00 0.  1.
         -1   -1    0    0    0  501 -0.00000000000E+00 -0.00000000000E+00 -0.40894427561E+03  0.40894427561E+03  0.00000000000E+00 0.  1.
         23    2    1    2    0    0  0.73507693010E+02  0.18261152429E+02 -0.24512174427E+03  0.27240235499E+03  0.91550657385E+02 0.  0.
         23    2    1    2    0    0 -0.58898190001E+02 -0.33401920294E+00 -0.13044520233E+03  0.16809786608E+03  0.88158002558E+02 0.  0.
        -11    1    4    4    0    0 -0.79504727615E+02 -0.65300381901E+01 -0.78711640182E+02  0.11206768228E+03  0.00000000000E+00 0. -1.
         11    1    4    4    0    0  0.20606537615E+02  0.61960189872E+01 -0.51733562147E+02  0.56030183795E+02  0.00000000000E+00 0.  1.
        -13    1    3    3    0    0  0.59889813523E+02 -0.29836844644E+02 -0.11558631328E+03  0.13355606643E+03  0.00000000000E+00 0.  1.
         13    1    3    3    0    0  0.13617879487E+02  0.48097997073E+02 -0.12953543099E+03  0.13884628856E+03  0.00000000000E+00 0. -1.
         -1    1    1    2    0  502 -0.14609503009E+02 -0.17927133226E+02  0.14590618397E+03  0.14772756751E+03  0.00000000000E+00 0.  1.
<scales pt_clust_5="13000.00000" pt_clust_6="13000.00000" pt_clust_7="13000.00000" pt_clust_8="13000.00000" pt_clust_9="23.12617"></scales>
<clustering>
<clus scale="   23.126">  1  9  2 -1</clus>
<clus scale="   88.158">  5  6 -1 -1</clus>
<clus scale="   91.551">  7  8 -1 -1</clus>
<clus scale="  111.470">  1  5  2 -1</clus>
<clus scale="   23.126">  1  5  2 -1</clus>
</clustering>
</event>
<event>
 9    1  0.1881049E-005  0.1015012E+03  0.7546771E-02  0.1279634E+00
          2   -1    0    0  502    0 -0.00000000000E+00  0.00000000000E+00  0.37590984697E+03  0.37590984697E+03  0.00000000000E+00 0. -1.
         21   -1    0    0  501  502  0.00000000000E+00 -0.00000000000E+00 -0.42907324040E+02  0.42907324040E+02  0.00000000000E+00 0.  1.
         23    2    1    2    0    0  0.32122872041E+02 -0.29769311058E+02  0.24705894813E+03  0.26685930669E+03  0.90871749865E+02 0.  0.
         23    2    1    2    0    0 -0.48821815256E+02  0.18704182485E+02  0.53177980686E+02  0.11355375084E+03  0.85633758607E+02 0.  0.
        -13    1    4    4    0    0 -0.71597025880E+02  0.15171432915E+02  0.25422189784E+02  0.77476410764E+02  0.00000000000E+00 0.  1.
         13    1    4    4    0    0  0.22775210624E+02  0.35327495708E+01  0.27755790902E+02  0.36077340078E+02  0.00000000000E+00 0. -1.
        -13    1    3    3    0    0  0.38365295819E+02  0.24780618422E+02  0.10207434613E+03  0.11182641509E+03  0.00000000000E+00 0.  1.
         13    1    3    3    0    0 -0.62424237774E+01 -0.54549929479E+02  0.14498460200E+03  0.15503289160E+03  0.00000000000E+00 0. -1.
          2    1    1    2  501    0  0.16698943215E+02  0.11065128572E+02  0.32765594108E+02  0.38404113478E+02  0.00000000000E+00 0. -1.
<scales pt_clust_5="13000.00000" pt_clust_6="13000.00000" pt_clust_7="13000.00000" pt_clust_8="13000.00000" pt_clust_9="20.03228"></scales>
<clustering>
<clus scale="   20.032">  2  9  1 -1</clus>
<clus scale="   85.634">  5  6 -1 -1</clus>
<clus scale="   90.872">  7  8 -1 -1</clus>
<clus scale="   96.840">  2  5  1 -1</clus>
<clus scale="   20.032">  2  5  1 -1</clus>
</clustering>
</event>
<event>
 9    1  0.1881049E-005  0.9690781E+02  0.7546771E-02  0.1288714E+00
         21   -1    0    0  501  502  0.00000000000E+00  0.00000000000E+00  0.12339371722E+03  0.12339371722E+03  0.00000000000E+00 0. -1.
         -1   -1    0    0    0  501 -0.00000000000E+00 -0.00000000000E+00 -0.99637965270E+02  0.99637965270E+02  0.00000000000E+00 0.  1.
         23    2    1    2    0    0 -0.19803405190E+02  0.60979902107E+00 -0.12270344367E+02  0.92498143234E+02  0.89514235956E+02 0.  0.
         23    2    1    2    0    0  0.39472428758E+02  0.57265037715E+01  0.17047424255E+02  0.10247629038E+03  0.92843470095E+02 0.  0.
        -13    1    3    3    0    0 -0.30735201723E+02 -0.22022491725E+02  0.26585666386E+02  0.46221644539E+02  0.00000000000E+00 0.  1.
         13    1    3    3    0    0  0.10931796533E+02  0.22632290746E+02 -0.38856010753E+02  0.46276498695E+02  0.00000000000E+00 0. -1.
        -13    1    4    4    0    0 -0.27159846152E+02 -0.11173453112E+02 -0.59970480039E+01  0.29974453827E+02  0.00000000000E+00 0.  1.
         13    1    4    4    0    0  0.66632274910E+02  0.16899956883E+02  0.23044472259E+02  0.72501836556E+02  0.00000000000E+00 0. -1.
         -1    1    1    2    0  502 -0.19669023567E+02 -0.63363027925E+01  0.18978672062E+02  0.28057248875E+02  0.00000000000E+00 0.  1.
<scales pt_clust_5="13000.00000" pt_clust_6="13000.00000" pt_clust_7="13000.00000" pt_clust_8="13000.00000" pt_clust_9="20.66444"></scales>
<clustering>
<clus scale="   20.664">  1  9  2 -1</clus>
<clus scale="   89.514">  5  6 -1 -1</clus>
<clus scale="   92.843">  7  8 -1 -1</clus>
<clus scale="   93.723">  2  5  1 -1</clus>
<clus scale="   20.664">  1  5  2 -1</clus>
</clustering>
</event>
<event>
 9    1  0.1881049E-005  0.1277710E+03  0.7546771E-02  0.1230807E+00
         21   -1    0    0  501  502  0.00000000000E+00  0.00000000000E+00  0.35106953664E+03  0.35106953664E+03  0.00000000000E+00 0.  1.
         -1   -1    0    0    0  501 -0.00000000000E+00 -0.00000000000E+00 -0.23045273947E+03  0.23045273947E+03  0.00000000000E+00 0.  1.
         23    2    1    2    0    0  0.70233799016E+02 -0.77134371076E+02 -0.17085112465E+03  0.22039502390E+03  0.92202830976E+02 0.  0.
         23    2    1    2    0    0 -0.76921830955E+01  0.37656215902E+02  0.56473063214E+02  0.11476864766E+03  0.92225133991E+02 0.  0.
        -11    1    4    4    0    0 -0.48706055637E+02  0.13325931709E+02  0.39643132267E+02  0.64198428700E+02  0.00000000000E+00 0. -1.
         11    1    4    4    0    0  0.41013872541E+02  0.24330284193E+02  0.16829930947E+02  0.50570218958E+02  0.00000000000E+00 0.  1.
        -13    1    3    3    0    0  0.64495226131E+02 -0.14546510135E+02 -0.12878934529E+03  0.14476854151E+03  0.00000000000E+00 0.  1.
         13    1    3    3    0    0  0.57385728847E+01 -0.62587860941E+02 -0.42061779367E+02  0.75626482395E+02  0.00000000000E+00 0. -1.
         -1    1    1    2    0  502 -0.62541615921E+02  0.39478155173E+02  0.23499485861E+03  0.24635860454E+03  0.00000000000E+00 0.  1.
<scales pt_clust_5="13000.00000" pt_clust_6="13000.00000" pt_clust_7="13000.00000" pt_clust_8="13000.00000" pt_clust_9="73.95930"></scales>
<clustering>
<clus scale="   73.959">  1  9  2 -1</clus>
<clus scale="   92.203">  7  8 -1 -1</clus>
<clus scale="   92.225">  5  6 -1 -1</clus>
<clus scale="  127.755">  2  7  1 -1</clus>
<clus scale="   73.959">  1  5  2 -1</clus>
</clustering>
</event>
<event>
 9    1  0.1881049E-005  0.1210206E+03  0.7546771E-02  0.1249812E+00
         21   -1    0    0  501  502  0.00000000000E+00  0.00000000000E+00  0.72945562297E+03  0.72945562297E+03  0.00000000000E+00 0. -1.
          1   -1    0    0  502    0 -0.00000000000E+00 -0.00000000000E+00 -0.32115849615E+02  0.32115849615E+02  0.00000000000E+00 0. -1.
         23    2    1    2    0    0 -0.47817721844E+02  0.23066799653E+02  0.13198144311E+03  0.17059625063E+03  0.94156081246E+02 0.  0.
         23    2    1    2    0    0  0.17893965799E+02  0.12621180997E+02  0.30421964769E+03  0.32571596261E+03  0.11428825853E+03 0.  0.
        -11    1    4    4    0    0  0.63419535748E+02 -0.45276692563E+01  0.21362162890E+03  0.22288278902E+03  0.00000000000E+00 0. -1.
         11    1    4    4    0    0 -0.45525569949E+02  0.17148850253E+02  0.90598018782E+02  0.10283317359E+03  0.00000000000E+00 0.  1.
        -13    1    3    3    0    0 -0.20476524636E+02 -0.19235936428E+02  0.11352869374E+03  0.11695329673E+03  0.00000000000E+00 0.  1.
         13    1    3    3    0    0 -0.27341197208E+02  0.42302736080E+02  0.18452749364E+02  0.53642953906E+02  0.00000000000E+00 0. -1.
          1    1    1    2  501    0  0.29923756046E+02 -0.35687980649E+02  0.26113868256E+03  0.26525925934E+03  0.00000000000E+00 0. -1.
<scales pt_clust_5="13000.00000" pt_clust_6="13000.00000" pt_clust_7="13000.00000" pt_clust_8="13000.00000" pt_clust_9="46.57320"></scales>
<clustering>
<clus scale="   46.573">  1  9  2 -1</clus>
<clus scale="   94.156">  7  8 -1 -1</clus>
<clus scale="  102.223">  2  7  1 -1</clus>
<clus scale="  114.288">  5  6 -1 -1</clus>
<clus scale="   46.573">  1  5  2 -1</clus>
</clustering>
</event>
<event>
 9    1  0.1881049E-005  0.1485091E+03  0.7546771E-02  0.1222949E+00
         21   -1    0    0  501  502  0.00000000000E+00  0.00000000000E+00  0.30393224038E+03  0.30393224038E+03  0.00000000000E+00 0. -1.
          1   -1    0    0  502    0 -0.00000000000E+00 -0.00000000000E+00 -0.14782476447E+03  0.14782476447E+03  0.00000000000E+00 0. -1.
         23    2    1    2    0    0 -0.34631790736E+02  0.67164313301E+01 -0.48851548681E+02  0.10751508911E+03  0.89042401129E+02 0.  0.
         23    2    1    2    0    0 -0.94522973837E+02 -0.51232248670E+01  0.44466736307E+02  0.13822913430E+03  0.90383421687E+02 0.  0.
        -11    1    4    4    0    0 -0.11748601154E+02  0.34513459881E+02  0.25563420423E+02  0.44527485958E+02  0.00000000000E+00 0.  1.
         11    1    4    4    0    0 -0.82774372683E+02 -0.39636684748E+02  0.18903315884E+02  0.93701648344E+02  0.00000000000E+00 0. -1.
        -11    1    3    3    0    0 -0.63855636500E+02  0.83697722778E+01 -0.22764894006E+02  0.68306923514E+02  0.00000000000E+00 0. -1.
         11    1    3    3    0    0  0.29223845764E+02 -0.16533409478E+01 -0.26086654674E+02  0.39208165598E+02  0.00000000000E+00 0.  1.
          1    1    1    2  501    0  0.12915476457E+03 -0.15932064631E+01  0.16049228828E+03  0.20601278144E+03  0.00000000000E+00 0. -1.
<scales pt_clust_5="13000.00000" pt_clust_6="13000.00000" pt_clust_7="13000.00000" pt_clust_8="13000.00000" pt_clust_9="117.83793"></scales>
<clustering>
<clus scale="   89.042">  7  8 -1 -1</clus>
<clus scale="   90.383">  5  6 -1 -1</clus>
<clus scale="   95.776">  2  7  1 -1</clus>
<clus scale="  117.838">  1  9  2 -1</clus>
<clus scale="  117.838">  1  5  2 -1</clus>
</clustering>
</event>
<event>
 9    1  0.1881049E-005  0.1508345E+03  0.7546771E-02  0.1199576E+00
          2   -1    0    0  502    0 -0.00000000000E+00  0.00000000000E+00  0.19266206813E+03  0.19266206813E+03  0.00000000000E+00 0. -1.
         21   -1    0    0  501  502  0.00000000000E+00 -0.00000000000E+00 -0.21785444998E+03  0.21785444998E+03  0.00000000000E+00 0. -1.
         23    2    1    2    0    0  0.41804690656E+01  0.10892712647E+03  0.67056612253E+02  0.15697473035E+03  0.90894892695E+02 0.  0.
         23    2    1    2    0    0  0.31735329458E+02 -0.14945002432E+03 -0.48528611092E+02  0.18394637322E+03  0.90215304820E+02 0.  0.
        -11    1    3    3    0    0  0.39598077680E+02  0.25588224335E+02  0.41692924632E+02  0.62936991864E+02  0.00000000000E+00 0.  1.
         11    1    3    3    0    0 -0.35417608614E+02  0.83338902140E+02  0.25363687621E+02  0.94037738486E+02  0.00000000000E+00 0. -1.
        -11    1    4    4    0    0  0.28110530632E+02 -0.94461533543E+02 -0.73992441800E+02  0.12323986650E+03  0.00000000000E+00 0. -1.
         11    1    4    4    0    0  0.36247988257E+01 -0.54988490775E+02  0.25463830708E+02  0.60706506723E+02  0.00000000000E+00 0.  1.
          2    1    1    2  501    0 -0.35915798523E+02  0.40522897842E+02 -0.43720383008E+02  0.69595414529E+02  0.00000000000E+00 0. -1.
<scales pt_clust_5="13000.00000" pt_clust_6="13000.00000" pt_clust_7="13000.00000" pt_clust_8="13000.00000" pt_clust_9="54.14841"></scales>
<clustering>
<clus scale="   54.148">  2  9  1 -1</clus>
<clus scale="   90.215">  7  8 -1 -1</clus>
<clus scale="   90.895">  5  6 -1 -1</clus>
<clus scale="  150.426">  2  7  1 -1</clus>
<clus scale="   54.148">  2  5  1 -1</clus>
</clustering>
</event>
<event>
 9    1  0.1881049E-005  0.1043803E+03  0.7546771E-02  0.1271659E+00
          1   -1    0    0  502    0 -0.00000000000E+00  0.00000000000E+00  0.37420174679E+03  0.37420174679E+03  0.00000000000E+00 0. -1.
         21   -1    0    0  501  502  0.00000000000E+00 -0.00000000000E+00 -0.66059055577E+02  0.66059055577E+02  0.00000000000E+00 0. -1.
         23    2    1    2    0    0 -0.34097541769E+02  0.69619008020E+01  0.14982259940E+03  0.17920988429E+03  0.91968804049E+02 0.  0.
         23    2    1    2    0    0  0.65683110941E+02  0.25024228174E+02  0.17796866016E+03  0.21199149631E+03  0.91252766808E+02 0.  0.
        -11    1    3    3    0    0 -0.41313395069E+02 -0.35981561635E+02  0.84013575324E+02  0.10029830621E+03  0.00000000000E+00 0.  1.
         11    1    3    3    0    0  0.72158532999E+01  0.42943462437E+02  0.65809024074E+02  0.78911578076E+02  0.00000000000E+00 0. -1.
        -13    1    4    4    0    0 -0.19933104997E+02 -0.88129050590E+01  0.22600916899E+02  0.31397410961E+02  0.00000000000E+00 0.  1.
         13    1    4    4    0    0  0.85616215938E+02  0.33837133233E+02  0.15536774326E+03  0.18059408535E+03  0.00000000000E+00 0. -1.
          1    1    1    2  501    0 -0.31585569171E+02 -0.31986128976E+02 -0.19648568342E+02  0.49059421772E+02  0.00000000000E+00 0. -1.
<scales pt_clust_5="13000.00000" pt_clust_6="13000.00000" pt_clust_7="13000.00000" pt_clust_8="13000.00000" pt_clust_9="44.95287"></scales>
<clustering>
<clus scale="   44.953">  2  9  1 -1</clus>
<clus scale="   91.253">  7  8 -1 -1</clus>
<clus scale="   91.969">  5  6 -1 -1</clus>
<clus scale="  103.750">  2  7  1 -1</clus>
<clus scale="   44.953">  2  5  1 -1</clus>
</clustering>
</event>
<event>
 9    1  0.1881049E-005  0.1049679E+03  0.7546771E-02  0.1273750E+00
          2   -1    0    0  502    0 -0.00000000000E+00  0.00000000000E+00  0.28258689147E+03  0.28258689147E+03  0.00000000000E+00 0. -1.
         21   -1    0    0  501  502  0.00000000000E+00 -0.00000000000E+00 -0.15285910243E+03  0.15285910243E+03  0.00000000000E+00 0. -1.
         23    2    1    2    0    0  0.12152330675E+02 -0.16309362986E+02  0.12737232425E+03  0.16428339742E+03  0.10174306474E+03 0.  0.
         23    2    1    2    0    0  0.85457762451E+02  0.76616354203E+01  0.78768071015E+02  0.14689916717E+03  0.89516626852E+02 0.  0.
        -13    1    4    4    0    0  0.79921073956E+02 -0.26914438008E+02  0.72738640121E+02  0.11136729683E+03  0.00000000000E+00 0. -1.
         13    1    4    4    0    0  0.55366884952E+01  0.34576073428E+02  0.60294308935E+01  0.35531870343E+02  0.00000000000E+00 0.  1.
        -13    1    3    3    0    0  0.55004233387E+01  0.41427962792E+02  0.32156311362E+02  0.52731007181E+02  0.00000000000E+00 0.  1.
         13    1    3    3    0    0  0.66519073366E+01 -0.57737325777E+02  0.95216012885E+02  0.11155239024E+03  0.00000000000E+00 0. -1.
          2    1    1    2  501    0 -0.97610093126E+02  0.86477275652E+01 -0.76412606221E+02  0.12426342930E+03  0.00000000000E+00 0. -1.
<scales pt_clust_5="13000.00000" pt_clust_6="13000.00000" pt_clust_7="13000.00000" pt_clust_8="13000.00000" pt_clust_9="97.99242"></scales>
<clustering>
<clus scale="   89.517">  5  6 -1 -1</clus>
<clus scale="   97.992">  2  9  1 -1</clus>
<clus scale="   97.992">  2  5  1 -1</clus>
<clus scale="  101.743">  7  8 -1 -1</clus>
<clus scale="   97.992">  2  5  1 -1</clus>
</clustering>
</event>
<event>
 9    1  0.1881049E-005  0.3944745E+03  0.7546771E-02  0.1046500E+00
         21   -1    0    0  501  502  0.00000000000E+00  0.00000000000E+00  0.14200244085E+04  0.14200244085E+04  0.00000000000E+00 0.  1.
         -1   -1    0    0    0  501 -0.00000000000E+00 -0.00000000000E+00 -0.27388174271E+03  0.27388174271E+03  0.00000000000E+00 0.  1.
         23    2    1    2    0    0 -0.53450646151E+02  0.35673148443E+03  0.13472402754E+03  0.40441489325E+03  0.12363866193E+03 0.  0.
         23    2    1    2    0    0  0.23685191599E+03 -0.34173730412E+03  0.22443509458E+03  0.48128092072E+03  0.91525940788E+02 0.  0.
        -13    1    3    3    0    0  0.34926478890E+02  0.12014866518E+03  0.71341836792E+02  0.14403200460E+03  0.00000000000E+00 0. -1.
         13    1    3    3    0    0 -0.88377125041E+02  0.23658281925E+03  0.63382190752E+02  0.26038288865E+03  0.00000000000E+00 0.  1.
        -13    1    4    4    0    0  0.10565616980E+03 -0.17069056365E+03  0.15874520462E+03  0.25592681517E+03  0.00000000000E+00 0. -1.
         13    1    4    4    0    0  0.13119574619E+03 -0.17104674048E+03  0.65689889959E+02  0.22535410555E+03  0.00000000000E+00 0.  1.
         -1    1    1    2    0  502 -0.18340126984E+03 -0.14994180311E+02  0.78698354369E+03  0.80821033726E+03  0.00000000000E+00 0.  1.
<scales pt_clust_5="13000.00000" pt_clust_6="13000.00000" pt_clust_7="13000.00000" pt_clust_8="13000.00000" pt_clust_9="184.01318"></scales>
<clustering>
<clus scale="   91.526">  7  8 -1 -1</clus>
<clus scale="  123.639">  5  6 -1 -1</clus>
<clus scale="  184.013">  1  9  2 -1</clus>
<clus scale="  385.617">  1  7  2 -1</clus>
<clus scale="  184.013">  1  5  2 -1</clus>
</clustering>
</event>
<event>
 9    1  0.1881049E-005  0.1681106E+03  0.7546771E-02  0.1180285E+00
          1   -1    0    0  502    0 -0.00000000000E+00  0.00000000000E+00  0.66627285753E+03  0.66627285753E+03  0.00000000000E+00 0. -1.
         21   -1    0    0  501  502  0.00000000000E+00 -0.00000000000E+00 -0.11829439630E+03  0.11829439630E+03  0.00000000000E+00 0.  1.
         23    2    1    2    0    0 -0.13597283536E+03  0.18846776678E+02  0.52852853543E+03  0.55426309817E+03  0.94980820588E+02 0.  0.
         23    2    1    2    0    0  0.14426766764E+03 -0.48514250812E+02 -0.21443026411E+02  0.17910653067E+03  0.91937769658E+02 0.  0.
        -11    1    4    4    0    0  0.75268577185E+02  0.19083823058E+02  0.81612355476E+01  0.78077889185E+02  0.00000000000E+00 0. -1.
         11    1    4    4    0    0  0.68999090451E+02 -0.67598073869E+02 -0.29604261958E+02  0.10102864148E+03  0.00000000000E+00 0.  1.
        -13    1    3    3    0    0 -0.93271417363E+02 -0.33660741178E+02  0.30513181876E+03  0.32083956990E+03  0.00000000000E+00 0.  1.
         13    1    3    3    0    0 -0.42701418002E+02  0.52507517855E+02  0.22339671667E+03  0.23342352827E+03  0.00000000000E+00 0. -1.
          1    1    1    2  501    0 -0.82948322713E+01  0.29667474134E+02  0.40892952207E+02  0.51197624985E+02  0.00000000000E+00 0. -1.
<scales pt_clust_5="13000.00000" pt_clust_6="13000.00000" pt_clust_7="13000.00000" pt_clust_8="13000.00000" pt_clust_9="30.80526"></scales>
<clustering>
<clus scale="   30.805">  2  9  1 -1</clus>
<clus scale="   91.938">  5  6 -1 -1</clus>
<clus scale="   94.981">  7  8 -1 -1</clus>
<clus scale="  166.410">  2  5  1 -1</clus>
<clus scale="   30.805">  2  5  1 -1</clus>
</clustering>
</event>
<event>
 9    1  0.1881049E-005  0.1164562E+03  0.7546771E-02  0.1249191E+00
         21   -1    0    0  501  502  0.00000000000E+00  0.00000000000E+00  0.36228364607E+03  0.36228364607E+03  0.00000000000E+00 0. -1.
          1   -1    0    0  502    0 -0.00000000000E+00 -0.00000000000E+00 -0.59410813629E+02  0.59410813629E+02  0.00000000000E+00 0. -1.
         23    2    1    2    0    0  0.63875181748E+02  0.36027196505E+02  0.56471990072E+02  0.13009849598E+03  0.91425025358E+02 0.  0.
         23    2    1    2    0    0 -0.44523858942E+02 -0.59059404518E+02  0.14884287810E+03  0.18950525556E+03  0.91036543470E+02 0.  0.
        -13    1    3    3    0    0 -0.14650349039E+02  0.14960194802E+02  0.42809711124E+02  0.47656180313E+02  0.00000000000E+00 0.  1.
         13    1    3    3    0    0  0.78525530787E+02  0.21067001702E+02  0.13662278948E+02  0.82442315665E+02  0.00000000000E+00 0. -1.
        -13    1    4    4    0    0 -0.13897409361E+02  0.17257553946E+02  0.33891703419E+01  0.22415343646E+02  0.00000000000E+00 0.  1.
         13    1    4    4    0    0 -0.30626449580E+02 -0.76316958464E+02  0.14545370776E+03  0.16708991191E+03  0.00000000000E+00 0. -1.
          1    1    1    2  501    0 -0.19351322806E+02  0.23032208014E+02  0.97557964272E+02  0.10209070816E+03  0.00000000000E+00 0. -1.
<scales pt_clust_5="13000.00000" pt_clust_6="13000.00000" pt_clust_7="13000.00000" pt_clust_8="13000.00000" pt_clust_9="30.08249"></scales>
<clustering>
<clus scale="   30.082">  1  9  2 -1</clus>
<clus scale="   91.037">  7  8 -1 -1</clus>
<clus scale="   91.425">  5  6 -1 -1</clus>
<clus scale="  116.151">  1  7  2 -1</clus>
<clus scale="   30.082">  1  5  2 -1</clus>
</clustering>
</event>
<event>
 9    1  0.1881049E-005  0.1228268E+03  0.7546771E-02  0.1238994E+00
          1   -1    0    0  502    0 -0.00000000000E+00  0.00000000000E+00  0.40262087557E+03  0.40262087557E+03  0.00000000000E+00 0. -1.
         21   -1    0    0  501  502  0.00000000000E+00 -0.00000000000E+00 -0.12308929869E+03  0.12308929869E+03  0.00000000000E+00 0.  1.
         23    2    1    2    0    0 -0.78380219841E+02 -0.46870635056E+02  0.11626892833E+03  0.17390443672E+03  0.91564043835E+02 0.  0.
         23    2    1    2    0    0  0.43694835586E+02  0.12504187305E+02 -0.62349274042E+02  0.12097058374E+03  0.93171115695E+02 0.  0.
        -11    1    3    3    0    0 -0.33493407083E+02  0.26573848721E+02  0.31591506020E+02  0.53160144907E+02  0.00000000000E+00 0. -1.
         11    1    3    3    0    0 -0.44886812758E+02 -0.73444483777E+02  0.84677422313E+02  0.12074429182E+03  0.00000000000E+00 0.  1.
        -11    1    4    4    0    0  0.18111547056E+02  0.52686053152E+02 -0.28876899777E+02  0.62751284243E+02  0.00000000000E+00 0. -1.
         11    1    4    4    0    0  0.25583288530E+02 -0.40181865847E+02 -0.33472374265E+02  0.58219299497E+02  0.00000000000E+00 0.  1.
          1    1    1    2  501    0  0.34685384255E+02  0.34366447751E+02  0.22561192260E+03  0.23083515380E+03  0.00000000000E+00 0. -1.
<scales pt_clust_5="13000.00000" pt_clust_6="13000.00000" pt_clust_7="13000.00000" pt_clust_8="13000.00000" pt_clust_9="48.82756"></scales>
<clustering>
<clus scale="   48.828">  2  9  1 -1</clus>
<clus scale="   91.564">  5  6 -1 -1</clus>
<clus scale="   93.171">  7  8 -1 -1</clus>
<clus scale="  121.612">  1  5  2 -1</clus>
<clus scale="   48.828">  2  5  1 -1</clus>
</clustering>
</event>
<event>
 9    1  0.1881049E-005  0.1416127E+03  0.7546771E-02  0.1211808E+00
         21   -1    0    0  501  502  0.00000000000E+00  0.00000000000E+00  0.58739346263E+03  0.58739346263E+03  0.00000000000E+00 0. -1.
          1   -1    0    0  502    0 -0.00000000000E+00 -0.00000000000E+00 -0.42150214381E+02  0.42150214381E+02  0.00000000000E+00 0. -1.
         23    2    1    2    0    0 -0.99188967581E+02  0.40018374571E+02  0.20232570369E+03  0.24677502354E+03  0.92316305567E+02 0.  0.
         23    2    1    2    0    0  0.10776826632E+03 -0.19077542249E+02  0.32325516897E+03  0.35278979694E+03  0.89380001793E+02 0.  0.
        -11    1    4    4    0    0  0.75226075763E+02  0.30848720499E+02  0.19953688161E+03  0.21546594430E+03  0.00000000000E+00 0. -1.
         11    1    4    4    0    0  0.32542190553E+02 -0.49926262747E+02  0.12371828736E+03  0.13732385264E+03  0.00000000000E+00 0.  1.
        -13    1    3    3    0    0 -0.75709300723E+02  0.69934813865E+02  0.14197624096E+03  0.17544238200E+03  0.00000000000E+00 0. -1.
         13    1    3    3    0    0 -0.23479666858E+02 -0.29916439294E+02  0.60349462734E+02  0.71332641533E+02  0.00000000000E+00 0.  1.
          1    1    1    2  501    0 -0.85792987344E+01 -0.20940832322E+02  0.19662375590E+02  0.29978856532E+02  0.00000000000E+00 0. -1.
<scales pt_clust_5="13000.00000" pt_clust_6="13000.00000" pt_clust_7="13000.00000" pt_clust_8="13000.00000" pt_clust_9="22.63014"></scales>
<clustering>
<clus scale="   22.630">  1  9  2 -1</clus>
<clus scale="   89.380">  5  6 -1 -1</clus>
<clus scale="   92.316">  7  8 -1 -1</clus>
<clus scale="  139.716">  1  5  2 -1</clus>
<clus scale="   22.630">  1  5  2 -1</clus>
</clustering>
</event>
<event>
 9    1  0.1881049E-005  0.1044929E+03  0.7546771E-02  0.1272190E+00
         21   -1    0    0  501  502  0.00000000000E+00  0.00000000000E+00  0.79854652972E+02  0.79854652972E+02  0.00000000000E+00 0. -1.
          1   -1    0    0  502    0 -0.00000000000E+00 -0.00000000000E+00 -0.23446424810E+03  0.23446424810E+03  0.00000000000E+00 0. -1.
         23    2    1    2    0    0 -0.33884969920E+02 -0.13130791774E+02 -0.95259247297E+02  0.13687157557E+03  0.91317551025E+02 0.  0.
         23    2    1    2    0    0  0.68065239683E+02 -0.19133474384E+02 -0.56726665517E+02  0.13037124430E+03  0.93700480601E+02 0.  0.
        -11    1    4    4    0    0  0.33348921498E+02 -0.70165047929E+01 -0.79930179558E+02  0.86891976090E+02  0.00000000000E+00 0. -1.
         11    1    4    4    0    0  0.34716318184E+02 -0.12116969591E+02  0.23203514041E+02  0.43479268211E+02  0.00000000000E+00 0.  1.
        -11    1    3    3    0    0 -0.19583402708E+02  0.37516106396E+02 -0.60384168451E+02  0.73737478261E+02  0.00000000000E+00 0. -1.
         11    1    3    3    0    0 -0.14301567212E+02 -0.50646898170E+02 -0.34875078846E+02  0.63134097313E+02  0.00000000000E+00 0.  1.
          1    1    1    2  501    0 -0.34180269762E+02  0.32264266159E+02 -0.26236823105E+01  0.47076081195E+02  0.00000000000E+00 0. -1.
<scales pt_clust_5="13000.00000" pt_clust_6="13000.00000" pt_clust_7="13000.00000" pt_clust_8="13000.00000" pt_clust_9="47.00291"></scales>
<clustering>
<clus scale="   47.003">  1  9  2 -1</clus>
<clus scale="   91.318">  7  8 -1 -1</clus>
<clus scale="   93.700">  5  6 -1 -1</clus>
<clus scale="  102.362">  2  7  1 -1</clus>
<clus scale="   47.003">  1  5  2 -1</clus>
</clustering>
</event>
<event>
 9    1  0.1881049E-005  0.1201933E+03  0.7546771E-02  0.1244928E+00
          1   -1    0    0  502    0 -0.00000000000E+00  0.00000000000E+00  0.61736919924E+03  0.61736919924E+03  0.00000000000E+00 0. -1.
         21   -1    0    0  501  502  0.00000000000E+00 -0.00000000000E+00 -0.67902663065E+02  0.67902663065E+02  0.00000000000E+00 0. -1.
         23    2    1    2    0    0 -0.41530611202E+02  0.51883985367E+02  0.30225231431E+03  0.32272457439E+03  0.91531141164E+02 0.  0.
         23    2    1    2    0    0  0.60760746343E+02 -0.44346673143E+02  0.28992276172E+03  0.31510649796E+03  0.97869308665E+02 0.  0.
        -11    1    4    4    0    0 -0.62179066512E+01 -0.25437996736E+02  0.12370894782E+02  0.28961924639E+02  0.00000000000E+00 0.  1.
         11    1    4    4    0    0  0.66978652995E+02 -0.18908676407E+02  0.27755186694E+03  0.28614457333E+03  0.00000000000E+00 0. -1.
        -13    1    3    3    0    0 -0.37542081812E+02 -0.10955892408E+02  0.54396332798E+02  0.66995526023E+02  0.00000000000E+00 0.  1.
         13    1    3    3    0    0 -0.39885293905E+01  0.62839877775E+02  0.24785598152E+03  0.25572904837E+03  0.00000000000E+00 0. -1.
          1    1    1    2  501    0 -0.19230135141E+02 -0.75373122237E+01 -0.42708539867E+02  0.47440789946E+02  0.00000000000E+00 0. -1.
<scales pt_clust_5="13000.00000" pt_clust_6="13000.00000" pt_clust_7="13000.00000" pt_clust_8="13000.00000" pt_clust_9="20.65452"></scales>
<clustering>
<clus scale="   20.655">  2  9  1 -1</clus>
<clus scale="   91.531">  7  8 -1 -1</clus>
<clus scale="   97.869">  5  6 -1 -1</clus>
<clus scale="  115.091">  1  7  2 -1</clus>
<clus scale="   20.655">  2  5  1 -1</clus>
</clustering>
</event>
<event>
 9    1  0.2545555E-005  0.1685652E+03  0.7546771E-02  0.1179635E+00
         21   -1    0    0  501  502  0.00000000000E+00  0.00000000000E+00  0.33464817437E+03  0.33464817437E+03  0.00000000000E+00 0.  1.
          2   -1    0    0  502    0 -0.00000000000E+00 -0.00000000000E+00 -0.41806049571E+03  0.41806049571E+03  0.00000000000E+00 0. -1.
         23    2    1    2    0    0 -0.13611664360E+03 -0.23090890583E+02 -0.23893718629E+03  0.29111343780E+03  0.92709895834E+02 0.  0.
         23    2    1    2    0    0  0.17824812996E+03 -0.28126523012E+02  0.26523988051E+03  0.33339355429E+03  0.90750045170E+02 0.  0.
        -11    1    4    4    0    0  0.69680768799E+02  0.81980702167E+01  0.17195132573E+03  0.18571450217E+03  0.00000000000E+00 0.  1.
         11    1    4    4    0    0  0.10856736116E+03 -0.36324593228E+02  0.93288554782E+02  0.14767905212E+03  0.00000000000E+00 0. -1.
        -13    1    3    3    0    0 -0.86923326851E+02 -0.59223926252E+02 -0.15557513754E+03  0.18779446641E+03  0.00000000000E+00 0. -1.
         13    1    3    3    0    0 -0.49193316753E+02  0.36133035669E+02 -0.83362048743E+02  0.10331897140E+03  0.00000000000E+00 0.  1.
          2    1    1    2  501    0 -0.42131486355E+02  0.51217413595E+02 -0.10971501556E+03  0.12820167798E+03  0.00000000000E+00 0. -1.
<scales pt_clust_5="13000.00000" pt_clust_6="13000.00000" pt_clust_7="13000.00000" pt_clust_8="13000.00000" pt_clust_9="66.31960"></scales>
<clustering>
<clus scale="   66.320">  1  9  2 -1</clus>
<clus scale="   90.750">  5  6 -1 -1</clus>
<clus scale="   92.710">  7  8 -1 -1</clus>
<clus scale="  167.495">  1  5  2 -1</clus>
<clus scale="   66.320">  1  5  2 -1</clus>
</clustering>
</event>
<event>
 9    1  0.1881049E-005  0.1124610E+03  0.7546771E-02  0.1256715E+00
         21   -1    0    0  501  502  0.00000000000E+00  0.00000000000E+00  0.35232851558E+03  0.35232851558E+03  0.00000000000E+00 0.  1.
         -1   -1    0    0    0  501 -0.00000000000E+00 -0.00000000000E+00 -0.21482917270E+03  0.21482917270E+03  0.00000000000E+00 0.  1.
         23    2    1    2    0    0  0.45047468459E+02  0.34472273443E+02 -0.91426443720E+02  0.14105562322E+03  0.91215580794E+02 0.  0.
         23    2    1    2    0    0 -0.82910840436E+02 -0.11620998244E+01 -0.56141289296E+02  0.13660864481E+03  0.92922115426E+02 0.  0.
        -11    1    3    3    0    0  0.70299196810E+02  0.29088922444E+02 -0.85721306622E+02  0.11461363309E+03  0.00000000000E+00 0. -1.
         11    1    3    3    0    0 -0.25251728351E+02  0.53833509985E+01 -0.57051370981E+01  0.26441990129E+02  0.00000000000E+00 0.  1.
        -13    1    4    4    0    0  0.46863854439E+00  0.22138065095E+02 -0.43907035297E+02  0.49174600118E+02  0.00000000000E+00 0.  1.
         13    1    4    4    0    0 -0.83379478981E+02 -0.23300164919E+02 -0.12234253999E+02  0.87434044692E+02  0.00000000000E+00 0. -1.
         -1    1    1    2    0  502  0.37863371977E+02 -0.33310173618E+02  0.28506707590E+03  0.28949342025E+03  0.00000000000E+00 0.  1.
<scales pt_clust_5="13000.00000" pt_clust_6="13000.00000" pt_clust_7="13000.00000" pt_clust_8="13000.00000" pt_clust_9="50.43018"></scales>
<clustering>
<clus scale="   50.430">  1  9  2 -1</clus>
<clus scale="   91.216">  5  6 -1 -1</clus>
<clus scale="   92.922">  7  8 -1 -1</clus>
<clus scale="  111.055">  2  5  1 -1</clus>
<clus scale="   50.430">  1  5  2 -1</clus>
</clustering>
</event>
<event>
 9    1  0.1881049E-005  0.1585902E+03  0.7546771E-02  0.1191533E+00
          2   -1    0    0  502    0 -0.00000000000E+00  0.00000000000E+00  0.78060952438E+03  0.78060952438E+03  0.00000000000E+00 0. -1.
         21   -1    0    0  501  502  0.00000000000E+00 -0.00000000000E+00 -0.42574237837E+02  0.42574237837E+02  0.00000000000E+00 0. -1.
         23    2    1    2    0    0  0.60816654734E+01  0.11206905092E+03  0.30605632110E+03  0.33817252239E+03  0.89965128744E+02 0.  0.
         23    2    1    2    0    0  0.35280519505E+01 -0.15546666398E+03  0.33700073391E+03  0.38014673700E+03  0.82217493466E+02 0.  0.
        -13    1    3    3    0    0  0.15487854128E+02  0.49182667802E+02  0.41812642353E+02  0.66386033909E+02  0.00000000000E+00 0.  1.
         13    1    3    3    0    0 -0.94061886549E+01  0.62886383113E+02  0.26424367874E+03  0.27178648848E+03  0.00000000000E+00 0. -1.
        -13    1    4    4    0    0 -0.30266693060E+02 -0.69360557163E+02  0.97633998029E+02  0.12352877062E+03  0.00000000000E+00 0.  1.
         13    1    4    4    0    0  0.33794745011E+02 -0.86106106814E+02  0.23936673589E+03  0.25661796638E+03  0.00000000000E+00 0. -1.
          2    1    1    2  501    0 -0.96097174239E+01  0.43397613062E+02  0.94978231530E+02  0.10486450283E+03  0.00000000000E+00 0. -1.
<scales pt_clust_5="13000.00000" pt_clust_6="13000.00000" pt_clust_7="13000.00000" pt_clust_8="13000.00000" pt_clust_9="44.44886"></scales>
<clustering>
<clus scale="   44.449">  2  9  1 -1</clus>
<clus scale="   82.217">  7  8 -1 -1</clus>
<clus scale="   89.965">  5  6 -1 -1</clus>
<clus scale="  154.327">  2  7  1 -1</clus>
<clus scale="   44.449">  2  5  1 -1</clus>
</clustering>
</event>
<event>
 9    1  0.1881049E-005  0.1082054E+03  0.7546771E-02  0.1264398E+00
         -4   -1    0    0    0  501 -0.00000000000E+00  0.00000000000E+00  0.72376653836E+02  0.72376653836E+02  0.00000000000E+00 0.  1.
         21   -1    0    0  501  502  0.00000000000E+00 -0.00000000000E+00 -0.22782033825E+03  0.22782033825E+03  0.00000000000E+00 0. -1.
         23    2    1    2    0    0  0.44770810338E+02 -0.35115321528E+02 -0.35210314273E+02  0.11376692839E+03  0.92008893586E+02 0.  0.
         23    2    1    2    0    0 -0.21696089576E+02  0.52530190273E+02 -0.73808165553E+02  0.13173984508E+03  0.93153638073E+02 0.  0.
        -11    1    3    3    0    0  0.16660724181E+02  0.31603593216E+02 -0.99188225356E+01  0.37077619596E+02  0.00000000000E+00 0.  1.
         11    1    3    3    0    0  0.28110086157E+02 -0.66718914744E+02 -0.25291491737E+02  0.76689308790E+02  0.00000000000E+00 0. -1.
        -13    1    4    4    0    0 -0.42438353560E+02  0.69565637796E+02 -0.48390598048E+02  0.94773634489E+02  0.00000000000E+00 0.  1.
         13    1    4    4    0    0  0.20742263984E+02 -0.17035447523E+02 -0.25417567505E+02  0.36966210590E+02  0.00000000000E+00 0. -1.
         -4    1    1    2    0  502 -0.23074720762E+02 -0.17414868745E+02 -0.46425204586E+02  0.54690218618E+02  0.00000000000E+00 0.  1.
<scales pt_clust_5="13000.00000" pt_clust_6="13000.00000" pt_clust_7="13000.00000" pt_clust_8="13000.00000" pt_clust_9="28.90883"></scales>
<clustering>
<clus scale="   28.909">  2  9  1 -1</clus>
<clus scale="   92.009">  5  6 -1 -1</clus>
<clus scale="   93.154">  7  8 -1 -1</clus>
<clus scale="  107.221">  1  5  2 -1</clus>
<clus scale="   28.909">  2  5  1 -1</clus>
</clustering>
</event>
<event>
 9    1  0.1881049E-005  0.9699727E+02  0.7546771E-02  0.1288922E+00
         21   -1    0    0  501  502  0.00000000000E+00  0.00000000000E+00  0.50738982441E+03  0.50738982441E+03  0.00000000000E+00 0. -1.
         -3   -1    0    0    0  501 -0.00000000000E+00 -0.00000000000E+00 -0.31838651999E+02  0.31838651999E+02  0.00000000000E+00 0.  1.
         23    2    1    2    0    0  0.30124298434E+00  0.17614829655E+02  0.83568089303E+02  0.12414234583E+03  0.90096190301E+02 0.  0.
         23    2    1    2    0    0  0.17437956748E+02 -0.41399972301E+02  0.33474707106E+03  0.35061618957E+03  0.94117324486E+02 0.  0.
        -13    1    3    3    0    0  0.37065367800E+02  0.14428167665E+01  0.74117807205E+02  0.82881678043E+02  0.00000000000E+00 0. -1.
         13    1    3    3    0    0 -0.36764124816E+02  0.16172012889E+02  0.94502820985E+01  0.41260667785E+02  0.00000000000E+00 0.  1.
        -13    1    4    4    0    0 -0.31569152396E+02 -0.35129346173E+02  0.98238878277E+02  0.10900256672E+03  0.00000000000E+00 0.  1.
         13    1    4    4    0    0  0.49007109144E+02 -0.62706261277E+01  0.23650819278E+03  0.24161362286E+03  0.00000000000E+00 0. -1.
         -3    1    1    2    0  502 -0.17739199732E+02  0.23785142646E+02  0.57236012055E+02  0.64469941009E+02  0.00000000000E+00 0.  1.
<scales pt_clust_5="13000.00000" pt_clust_6="13000.00000" pt_clust_7="13000.00000" pt_clust_8="13000.00000" pt_clust_9="29.67174"></scales>
<clustering>
<clus scale="   29.672">  1  9  2 -1</clus>
<clus scale="   90.096">  5  6 -1 -1</clus>
<clus scale="   93.101">  2  5  1 -1</clus>
<clus scale="   94.117">  7  8 -1 -1</clus>
<clus scale="   29.672">  1  5  2 -1</clus>
</clustering>
</event>
<event>
 9    1  0.1881049E-005  0.8819774E+02  0.7546771E-02  0.1308493E+00
          1   -1    0    0  502    0 -0.00000000000E+00  0.00000000000E+00  0.36265396711E+03  0.36265396711E+03  0.00000000000E+00 0. -1.
         21   -1    0    0  501  502  0.00000000000E+00 -0.00000000000E+00 -0.41248533032E+02  0.41248533032E+02  0.00000000000E+00 0. -1.
         23    2    1    2    0    0  0.10114440944E+02  0.15236254556E+02  0.18696442365E+03  0.20586870082E+03  0.84212712196E+02 0.  0.
         23    2    1    2    0    0 -0.33082095740E+02  0.20165291590E+02  0.12144227910E+03  0.15387782971E+03  0.86192199647E+02 0.  0.
        -13    1    4    4    0    0 -0.49233383002E+02 -0.16233910122E+02  0.49653172407E+02  0.71783726357E+02  0.00000000000E+00 0.  1.
         13    1    4    4    0    0  0.16151287262E+02  0.36399201712E+02  0.71789106698E+02  0.82094103357E+02  0.00000000000E+00 0. -1.
        -13    1    3    3    0    0 -0.23660672782E+02  0.35067612635E+02  0.13022510567E+03  0.13692385855E+03  0.00000000000E+00 0. -1.
         13    1    3    3    0    0  0.33775113726E+02 -0.19831358079E+02  0.56739317985E+02  0.68944842272E+02  0.00000000000E+00 0.  1.
          1    1    1    2  501    0  0.22967654796E+02 -0.35401546146E+02  0.12998731318E+02  0.44155969610E+02  0.00000000000E+00 0. -1.
<scales pt_clust_5="13000.00000" pt_clust_6="13000.00000" pt_clust_7="13000.00000" pt_clust_8="13000.00000" pt_clust_9="42.19932"></scales>
<clustering>
<clus scale="   42.199">  2  9  1 -1</clus>
<clus scale="   84.213">  7  8 -1 -1</clus>
<clus scale="   86.192">  5  6 -1 -1</clus>
<clus scale="   86.264">  1  7  2 -1</clus>
<clus scale="   42.199">  2  5  1 -1</clus>
</clustering>
</event>
<event>
 9    1  0.1881049E-005  0.9865409E+02  0.7546771E-02  0.1283227E+00
         21   -1    0    0  501  502  0.00000000000E+00  0.00000000000E+00  0.43748480936E+03  0.43748480936E+03  0.00000000000E+00 0.  1.
         -4   -1    0    0    0  501 -0.00000000000E+00 -0.00000000000E+00 -0.54416948366E+02  0.54416948366E+02  0.00000000000E+00 0.  1.
         23    2    1    2    0    0  0.87194422011E+00 -0.31794661516E+02  0.39953579372E+02  0.10569102579E+03  0.92534553766E+02 0.  0.
         23    2    1    2    0    0  0.48942950377E+02  0.36526733016E+02  0.30098378865E+03  0.32079747134E+03  0.92683126659E+02 0.  0.
        -11    1    4    4    0    0 -0.80299526013E+01 -0.24965395665E+02  0.55236010454E+02  0.61145465657E+02  0.00000000000E+00 0. -1.
         11    1    4    4    0    0  0.56972902978E+02  0.61492128682E+02  0.24574777820E+03  0.25965200568E+03  0.00000000000E+00 0.  1.
        -13    1    3    3    0    0  0.40341523802E+02  0.70342957898E+01  0.26289151826E+02  0.48662504699E+02  0.00000000000E+00 0. -1.
         13    1    3    3    0    0 -0.39469579582E+02 -0.38828957306E+02  0.13664427547E+02  0.57028521092E+02  0.00000000000E+00 0.  1.
         -4    1    1    2    0  502 -0.49814894597E+02 -0.47320715007E+01  0.42130492971E+02  0.65413260601E+02  0.00000000000E+00 0.  1.
<scales pt_clust_5="13000.00000" pt_clust_6="13000.00000" pt_clust_7="13000.00000" pt_clust_8="13000.00000" pt_clust_9="50.03917"></scales>
<clustering>
<clus scale="   50.039">  1  9  2 -1</clus>
<clus scale="   92.535">  7  8 -1 -1</clus>
<clus scale="   92.683">  5  6 -1 -1</clus>
<clus scale="   98.515">  2  7  1 -1</clus>
<clus scale="   50.039">  1  5  2 -1</clus>
</clustering>
</event>
<event>
 9    1  0.1881049E-005  0.9680330E+02  0.7546771E-02  0.1287828E+00
         21   -1    0    0  501  502  0.00000000000E+00  0.00000000000E+00  0.18214641119E+03  0.18214641119E+03  0.00000000000E+00 0.  1.
         -2   -1    0    0    0  501 -0.00000000000E+00 -0.00000000000E+00 -0.23607689814E+03  0.23607689814E+03  0.00000000000E+00 0.  1.
         23    2    1    2    0    0  0.30254034787E+02  0.11030819869E+02 -0.13696030914E+03  0.16987757503E+03  0.95201253197E+02 0.  0.
         23    2    1    2    0    0  0.54942152578E+01  0.21638611385E+02 -0.48568191892E+02  0.10811996481E+03  0.93982134596E+02 0.  0.
        -11    1    4    4    0    0  0.27544755204E+02 -0.27678863570E+02 -0.63600513433E+01  0.39563661116E+02  0.00000000000E+00 0.  1.
         11    1    4    4    0    0 -0.22050539946E+02  0.49317474955E+02 -0.42208140548E+02  0.68556303696E+02  0.00000000000E+00 0. -1.
        -11    1    3    3    0    0  0.29759716068E+02 -0.25922401556E+02 -0.12492463002E+03  0.13101059037E+03  0.00000000000E+00 0.  1.
         11    1    3    3    0    0  0.49431871956E+00  0.36953221425E+02 -0.12035679117E+02  0.38866984659E+02  0.00000000000E+00 0. -1.
         -2    1    1    2    0  502 -0.35748250045E+02 -0.32669431254E+02  0.13159801408E+03  0.14022576950E+03  0.00000000000E+00 0.  1.
<scales pt_clust_5="13000.00000" pt_clust_6="13000.00000" pt_clust_7="13000.00000" pt_clust_8="13000.00000" pt_clust_9="48.42757"></scales>
<clustering>
<clus scale="   48.428">  1  9  2 -1</clus>
<clus scale="   93.982">  5  6 -1 -1</clus>
<clus scale="   95.201">  7  8 -1 -1</clus>
<clus scale="   95.605">  1  5  2 -1</clus>
<clus scale="   48.428">  1  5  2 -1</clus>
</clustering>
</event>
<event>
 9    1  0.1881049E-005  0.9839783E+02  0.7546771E-02  0.1298655E+00
          2   -1    0    0  502    0 -0.00000000000E+00  0.00000000000E+00  0.38265532128E+03  0.38265532128E+03  0.00000000000E+00 0. -1.
         21   -1    0    0  501  502  0.00000000000E+00 -0.00000000000E+00 -0.21037864508E+03  0.21037864508E+03  0.00000000000E+00 0. -1.
         23    2    1    2    0    0 -0.40793283270E+02  0.22016479763E+02  0.35807183683E+03  0.37179289225E+03  0.88688765109E+02 0.  0.
         23    2    1    2    0    0  0.46505713581E+01 -0.85278348126E+01 -0.48186684094E+02  0.78327351955E+02  0.60982503719E+02 0.  0.
        -11    1    4    4    0    0  0.30820374001E+02  0.11049360747E+01 -0.37282448504E+02  0.48384887142E+02  0.00000000000E+00 0.  1.
         11    1    4    4    0    0 -0.26169802643E+02 -0.96327708872E+01 -0.10904235589E+02  0.29942464813E+02  0.00000000000E+00 0. -1.
        -13    1    3    3    0    0 -0.50122490843E+02  0.47243798850E+02  0.29983597214E+03  0.30764565787E+03  0.00000000000E+00 0. -1.
         13    1    3    3    0    0  0.93292075735E+01 -0.25227319088E+02  0.58235864684E+02  0.64147234374E+02  0.00000000000E+00 0.  1.
          2    1    1    2  501    0  0.36142711912E+02 -0.13488644950E+02 -0.13760847653E+03  0.14291372216E+03  0.00000000000E+00 0. -1.
<scales pt_clust_5="13000.00000" pt_clust_6="13000.00000" pt_clust_7="13000.00000" pt_clust_8="13000.00000" pt_clust_9="38.57770"></scales>
<clustering>
<clus scale="   38.578">  2  9  1 -1</clus>
<clus scale="   60.983">  5  6 -1 -1</clus>
<clus scale="   74.400">  2  5  1 -1</clus>
<clus scale="   88.689">  7  8 -1 -1</clus>
<clus scale="   38.578">  2  5  1 -1</clus>
</clustering>
</event>
<event>
 9    1  0.1881049E-005  0.1260517E+03  0.7546771E-02  0.1234873E+00
          2   -1    0    0  502    0 -0.00000000000E+00  0.00000000000E+00  0.28556006210E+03  0.28556006210E+03  0.00000000000E+00 0. -1.
         21   -1    0    0  501  502  0.00000000000E+00 -0.00000000000E+00 -0.19958458176E+03  0.19958458176E+03  0.00000000000E+00 0.  1.
         23    2    1    2    0    0 -0.70892692088E+02  0.36948393275E+02  0.23133275054E+03  0.26172876968E+03  0.92715424022E+02 0.  0.
         23    2    1    2    0    0  0.87447597794E+02 -0.21055419223E+01 -0.11546822262E+03  0.17461582953E+03  0.97500060614E+02 0.  0.
        -13    1    3    3    0    0 -0.85542372915E+02  0.11681042959E+02  0.12835992143E+03  0.15469393575E+03  0.00000000000E+00 0. -1.
         13    1    3    3    0    0  0.14649680828E+02  0.25267350317E+02  0.10297282911E+03  0.10703483393E+03  0.00000000000E+00 0.  1.
        -13    1    4    4    0    0  0.85099050523E+02  0.29800842804E+02 -0.10987923088E+03  0.14213860845E+03  0.00000000000E+00 0.  1.
         13    1    4    4    0    0  0.23485472711E+01 -0.31906384726E+02 -0.55889917408E+01  0.32477221083E+02  0.00000000000E+00 0. -1.
          2    1    1    2  501    0 -0.16554905706E+02 -0.34842851353E+02 -0.29889047566E+02  0.48800044649E+02  0.00000000000E+00 0. -1.
<scales pt_clust_5="13000.00000" pt_clust_6="13000.00000" pt_clust_7="13000.00000" pt_clust_8="13000.00000" pt_clust_9="38.57576"></scales>
<clustering>
<clus scale="   38.576">  2  9  1 -1</clus>
<clus scale="   92.715">  5  6 -1 -1</clus>
<clus scale="   97.500">  7  8 -1 -1</clus>
<clus scale="  122.388">  1  5  2 -1</clus>
<clus scale="   38.576">  2  5  1 -1</clus>
</clustering>
</event>
<event>
 9    1  0.1881049E-005  0.1036909E+03  0.7546771E-02  0.1274252E+00
         21   -1    0    0  501  502  0.00000000000E+00  0.00000000000E+00  0.95963254403E+02  0.95963254403E+02  0.00000000000E+00 0.  1.
         -1   -1    0    0    0  501 -0.00000000000E+00 -0.00000000000E+00 -0.25308977091E+03  0.25308977091E+03  0.00000000000E+00 0.  1.
         23    2    1    2    0    0 -0.29541410710E+02  0.11544599952E+02 -0.11589102169E+03  0.15292843815E+03  0.94606583028E+02 0.  0.
         23    2    1    2    0    0  0.40396440329E+02 -0.45510045468E+02 -0.85632618938E+02  0.13918086243E+03  0.91298030700E+02 0.  0.
        -13    1    4    4    0    0  0.16888901234E+02 -0.68847151856E+02 -0.35989025286E+02  0.79500787698E+02  0.00000000000E+00 0.  1.
         13    1    4    4    0    0  0.23507539095E+02  0.23337106388E+02 -0.49643593651E+02  0.59680074727E+02  0.00000000000E+00 0. -1.
        -13    1    3    3    0    0 -0.21697501260E+02 -0.41010468153E+02 -0.59415100956E+02  0.75384310574E+02  0.00000000000E+00 0.  1.
         13    1    3    3    0    0 -0.78439094501E+01  0.52555068105E+02 -0.56475920735E+02  0.77544127578E+02  0.00000000000E+00 0. -1.
         -1    1    1    2    0  502 -0.10855029619E+02  0.33965445516E+02  0.44397124119E+02  0.56943724739E+02  0.00000000000E+00 0.  1.
<scales pt_clust_5="13000.00000" pt_clust_6="13000.00000" pt_clust_7="13000.00000" pt_clust_8="13000.00000" pt_clust_9="35.65786"></scales>
<clustering>
<clus scale="   35.658">  1  9  2 -1</clus>
<clus scale="   91.298">  5  6 -1 -1</clus>
<clus scale="   94.607">  7  8 -1 -1</clus>
<clus scale="  100.681">  1  5  2 -1</clus>
<clus scale="   35.658">  1  5  2 -1</clus>
</clustering>
</event>
<event>
 9    1  0.1881049E-005  0.1446851E+03  0.7546771E-02  0.1207665E+00
          1   -1    0    0  502    0 -0.00000000000E+00  0.00000000000E+00  0.11323097708E+04  0.11323097708E+04  0.00000000000E+00 0. -1.
         21   -1    0    0  501  502  0.00000000000E+00 -0.00000000000E+00 -0.35760867888E+02  0.35760867888E+02  0.00000000000E+00 0. -1.
         23    2    1    2    0    0  0.11024206074E+02  0.80080705258E+02  0.27058596938E+03  0.29595315603E+03  0.88527121612E+02 0.  0.
         23    2    1    2    0    0 -0.10094634118E+03 -0.11906494376E+03  0.57368836872E+03  0.60147340406E+03  0.91023550534E+02 0.  0.
        -11    1    3    3    0    0  0.28651203021E+02  0.96792302679E+01  0.16550999820E+03  0.16825022567E+03  0.00000000000E+00 0. -1.
         11    1    3    3    0    0 -0.17626996948E+02  0.70401474990E+02  0.10507597118E+03  0.12770293036E+03  0.00000000000E+00 0.  1.
        -13    1    4    4    0    0 -0.74915361587E+02 -0.19097334212E+02  0.23642450092E+03  0.24874397322E+03  0.00000000000E+00 0. -1.
         13    1    4    4    0    0 -0.26030979593E+02 -0.99967609553E+02  0.33726386780E+03  0.35272943084E+03  0.00000000000E+00 0.  1.
          1    1    1    2  501    0  0.89922135106E+02  0.38984238507E+02  0.25227456481E+03  0.27064407861E+03  0.00000000000E+00 0. -1.
<scales pt_clust_5="13000.00000" pt_clust_6="13000.00000" pt_clust_7="13000.00000" pt_clust_8="13000.00000" pt_clust_9="98.00899"></scales>
<clustering>
<clus scale="   88.527">  5  6 -1 -1</clus>
<clus scale="   91.024">  7  8 -1 -1</clus>
<clus scale="   98.009">  2  9  1 -1</clus>
<clus scale="  143.128">  1  5  2 -1</clus>
<clus scale="   98.009">  2  5  1 -1</clus>
</clustering>
</event>
<event>
 9    1  0.1881049E-005  0.1615681E+03  0.7546771E-02  0.1204505E+00
          1   -1    0    0  502    0 -0.00000000000E+00  0.00000000000E+00  0.45029850259E+03  0.45029850259E+03  0.00000000000E+00 0. -1.
         21   -1    0    0  501  502  0.00000000000E+00 -0.00000000000E+00 -0.41383212615E+03  0.41383212615E+03  0.00000000000E+00 0. -1.
         23    2    1    2    0    0  0.11167106740E+02 -0.62696551146E+02 -0.13713668141E+03  0.17580784698E+03  0.89701548895E+02 0.  0.
         23    2    1    2    0    0  0.11862725098E+03  0.79084625259E+02  0.39534686648E+03  0.43086315204E+03  0.94958455767E+02 0.  0.
        -11    1    4    4    0    0  0.86763976600E+02  0.96233029076E+02  0.34752644616E+03  0.37089542232E+03  0.00000000000E+00 0. -1.
         11    1    4    4    0    0  0.31863274379E+02 -0.17148403816E+02  0.47820420328E+02  0.59967729722E+02  0.00000000000E+00 0.  1.
        -13    1    3    3    0    0  0.30700021669E+02  0.10225613746E+02 -0.58147057237E+02  0.66544231698E+02  0.00000000000E+00 0. -1.
         13    1    3    3    0    0 -0.19532914929E+02 -0.72922164891E+02 -0.78989624170E+02  0.10926361528E+03  0.00000000000E+00 0.  1.
          1    1    1    2  501    0 -0.12979435772E+03 -0.16388074114E+02 -0.22174380864E+03  0.25745962972E+03  0.00000000000E+00 0. -1.
<scales pt_clust_5="13000.00000" pt_clust_6="13000.00000" pt_clust_7="13000.00000" pt_clust_8="13000.00000" pt_clust_9="130.71778"></scales>
<clustering>
<clus scale="   89.702">  7  8 -1 -1</clus>
<clus scale="   94.958">  5  6 -1 -1</clus>
<clus scale="  110.009">  1  7  2 -1</clus>
<clus scale="  130.718">  2  9  1 -1</clus>
<clus scale="  130.718">  2  5  1 -1</clus>
</clustering>
</event>
<event>
 9    1  0.1881049E-005  0.1435958E+03  0.7546771E-02  0.1213162E+00
         21   -1    0    0  501  502  0.00000000000E+00  0.00000000000E+00  0.31369184706E+03  0.31369184706E+03  0.00000000000E+00 0.  1.
         -1   -1    0    0    0  501 -0.00000000000E+00 -0.00000000000E+00 -0.11649975888E+03  0.11649975888E+03  0.00000000000E+00 0.  1.
         23    2    1    2    0    0 -0.10196583715E+03 -0.19407536982E+02  0.18399806676E+02  0.13969262391E+03  0.91661288726E+02 0.  0.
         23    2    1    2    0    0  0.10395035596E+03  0.90497571683E+02  0.14578373876E+03  0.21209429312E+03  0.68815722781E+02 0.  0.
        -13    1    3    3    0    0 -0.66884823585E+02 -0.56277947793E+02  0.14969100550E+02  0.88684051582E+02  0.00000000000E+00 0.  1.
         13    1    3    3    0    0 -0.35081013567E+02  0.36870410811E+02  0.34307061257E+01  0.51008572327E+02  0.00000000000E+00 0. -1.
        -13    1    4    4    0    0  0.76969544556E+02  0.72656940301E+02  0.14527467255E+03  0.17974446375E+03  0.00000000000E+00 0.  1.
         13    1    4    4    0    0  0.26980811407E+02  0.17840631383E+02  0.50906621458E+00  0.32349829377E+02  0.00000000000E+00 0. -1.
         -1    1    1    2    0  502 -0.19845188098E+01 -0.71090034701E+02  0.33008542739E+02  0.78404688906E+02  0.00000000000E+00 0.  1.
<scales pt_clust_5="13000.00000" pt_clust_6="13000.00000" pt_clust_7="13000.00000" pt_clust_8="13000.00000" pt_clust_9="71.11776"></scales>
<clustering>
<clus scale="   68.816">  7  8 -1 -1</clus>
<clus scale="   71.118">  1  9  2 -1</clus>
<clus scale="   91.661">  5  6 -1 -1</clus>
<clus scale="  130.206">  1  7  2 -1</clus>
<clus scale="   71.118">  1  5  2 -1</clus>
</clustering>
</event>
<event>
 9    1  0.1881049E-005  0.1263291E+03  0.7546771E-02  0.1234502E+00
         21   -1    0    0  501  502  0.00000000000E+00  0.00000000000E+00  0.13317290662E+03  0.13317290662E+03  0.00000000000E+00 0. -1.
          2   -1    0    0  502    0 -0.00000000000E+00 -0.00000000000E+00 -0.33091962589E+03  0.33091962589E+03  0.00000000000E+00 0. -1.
         23    2    1    2    0    0 -0.18143408660E+02  0.75737433256E+02 -0.19551110847E+03  0.22789002727E+03  0.87429565474E+02 0.  0.
         23    2    1    2    0    0 -0.20544163207E+02 -0.11679327297E+03 -0.53728876716E+02  0.15982275253E+03  0.92702690241E+02 0.  0.
        -11    1    3    3    0    0  0.18981733585E+02  0.55731313295E+02 -0.16676388361E+03  0.17685157157E+03  0.00000000000E+00 0.  1.
         11    1    3    3    0    0 -0.37125142245E+02  0.20006119961E+02 -0.28747224863E+02  0.51038455697E+02  0.00000000000E+00 0. -1.
        -13    1    4    4    0    0 -0.52337928987E+01 -0.39308858125E+02 -0.68804474376E+02  0.79414322444E+02  0.00000000000E+00 0. -1.
         13    1    4    4    0    0 -0.15310370309E+02 -0.77484414847E+02  0.15075597660E+02  0.80408430081E+02  0.00000000000E+00 0.  1.
          2    1    1    2  501    0  0.38687571867E+02  0.41055839717E+02  0.51493265911E+02  0.76379752723E+02  0.00000000000E+00 0. -1.
<scales pt_clust_5="13000.00000" pt_clust_6="13000.00000" pt_clust_7="13000.00000" pt_clust_8="13000.00000" pt_clust_9="56.41197"></scales>
<clustering>
<clus scale="   56.412">  1  9  2 -1</clus>
<clus scale="   87.430">  5  6 -1 -1</clus>
<clus scale="   92.703">  7  8 -1 -1</clus>
<clus scale="  122.512">  2  5  1 -1</clus>
<clus scale="   56.412">  1  5  2 -1</clus>
</clustering>
</event>
<event>
 9    1  0.1881049E-005  0.1096087E+03  0.7546771E-02  0.1262224E+00
         21   -1    0    0  501  502  0.00000000000E+00  0.00000000000E+00  0.81485754443E+03  0.81485754443E+03  0.00000000000E+00 0.  1.
          1   -1    0    0  502    0 -0.00000000000E+00 -0.00000000000E+00 -0.20608078537E+02  0.20608078537E+02  0.00000000000E+00 0. -1.
         23    2    1    2    0    0  0.22181817681E+02  0.43225780836E+02  0.24950124743E+03  0.27014716124E+03  0.91477402066E+02 0.  0.
         23    2    1    2    0    0 -0.39770369892E+02 -0.69024196477E+02  0.41518988941E+03  0.43205077606E+03  0.89102226704E+02 0.  0.
        -11    1    4    4    0    0 -0.58789490700E+02 -0.76218998805E+02  0.29952671290E+03  0.31461371829E+03  0.00000000000E+00 0.  1.
         11    1    4    4    0    0  0.19019120808E+02  0.71948023281E+01  0.11566317651E+03  0.11743705777E+03  0.00000000000E+00 0. -1.
        -11    1    3    3    0    0  0.17458578528E+02 -0.22246146334E+02  0.30826368422E+02  0.41832499101E+02  0.00000000000E+00 0. -1.
         11    1    3    3    0    0  0.47232391538E+01  0.65471927170E+02  0.21867487901E+03  0.22831466214E+03  0.00000000000E+00 0.  1.
          1    1    1    2  501    0  0.17588552210E+02  0.25798415641E+02  0.12955832904E+03  0.13326768567E+03  0.00000000000E+00 0. -1.
<scales pt_clust_5="13000.00000" pt_clust_6="13000.00000" pt_clust_7="13000.00000" pt_clust_8="13000.00000" pt_clust_9="31.22364"></scales>
<clustering>
<clus scale="   31.224">  1  9  2 -1</clus>
<clus scale="   89.102">  5  6 -1 -1</clus>
<clus scale="   91.477">  7  8 -1 -1</clus>
<clus scale="  107.634">  1  5  2 -1</clus>
<clus scale="   31.224">  1  5  2 -1</clus>
</clustering>
</event>
<event>
 9    1  0.1881049E-005  0.1285668E+03  0.7546771E-02  0.1245266E+00
          1   -1    0    0  502    0 -0.00000000000E+00  0.00000000000E+00  0.52487116402E+03  0.52487116402E+03  0.00000000000E+00 0. -1.
         21   -1    0    0  501  502  0.00000000000E+00 -0.00000000000E+00 -0.96545344181E+02  0.96545344181E+02  0.00000000000E+00 0. -1.
         23    2    1    2    0    0  0.53563526778E+01 -0.15134344374E+02  0.35227883961E+03  0.36444988417E+03  0.92008686229E+02 0.  0.
         23    2    1    2    0    0 -0.51260978615E+01 -0.81175675534E+02  0.10131995376E+03  0.15739556326E+03  0.88836158892E+02 0.  0.
        -11    1    4    4    0    0  0.40815560521E+02 -0.36479809316E+02  0.59560386576E+02  0.80895773174E+02  0.00000000000E+00 0. -1.
         11    1    4    4    0    0 -0.45941658383E+02 -0.44695866218E+02  0.41759567189E+02  0.76499790090E+02  0.00000000000E+00 0.  1.
        -13    1    3    3    0    0 -0.12936246786E+02  0.30541819507E+02  0.64849441414E+02  0.72839544695E+02  0.00000000000E+00 0.  1.
         13    1    3    3    0    0  0.18292599463E+02 -0.45676163880E+02  0.28742939819E+03  0.29161033947E+03  0.00000000000E+00 0. -1.
          1    1    1    2  501    0 -0.23025481623E+00  0.96310019907E+02 -0.25272973531E+02  0.99571060770E+02  0.00000000000E+00 0. -1.
<scales pt_clust_5="13000.00000" pt_clust_6="13000.00000" pt_clust_7="13000.00000" pt_clust_8="13000.00000" pt_clust_9="92.93843"></scales>
<clustering>
<clus scale="   88.836">  5  6 -1 -1</clus>
<clus scale="   92.009">  7  8 -1 -1</clus>
<clus scale="   93.399">  1  7  2 -1</clus>
<clus scale="   92.938">  2  9  1 -1</clus>
<clus scale="   92.938">  2  5  1 -1</clus>
</clustering>
</event>
<event>
 9    1  0.1881049E-005  0.1047201E+03  0.7546771E-02  0.1273299E+00
          1   -1    0    0  502    0 -0.00000000000E+00  0.00000000000E+00  0.12253876380E+03  0.12253876380E+03  0.00000000000E+00 0. -1.
         21   -1    0    0  501  502  0.00000000000E+00 -0.00000000000E+00 -0.14331902517E+03  0.14331902517E+03  0.00000000000E+00 0.  1.
         23    2    1    2    0    0 -0.47518883612E+02  0.16251237914E+02  0.44413675131E+02  0.11658884351E+03  0.95384678324E+02 0.  0.
         23    2    1    2    0    0  0.31973566629E+02  0.17096634731E+02 -0.54142991836E+02  0.11085201080E+03  0.89677761189E+02 0.  0.
        -11    1    4    4    0    0 -0.17979838419E+02 -0.14234461488E+02 -0.45903746497E+02  0.51313238311E+02  0.00000000000E+00 0.  1.
         11    1    4    4    0    0  0.49953405047E+02  0.31331096219E+02 -0.82392453387E+01  0.59538772492E+02  0.00000000000E+00 0. -1.
        -13    1    3    3    0    0 -0.18236599641E+02 -0.19476582100E+02  0.61734633866E+02  0.67253816511E+02  0.00000000000E+00 0.  1.
         13    1    3    3    0    0 -0.29282283971E+02  0.35727820014E+02 -0.17320958735E+02  0.49335026999E+02  0.00000000000E+00 0. -1.
          1    1    1    2  501    0  0.15545316984E+02 -0.33347872645E+02 -0.11050944666E+02  0.38416934652E+02  0.00000000000E+00 0. -1.
<scales pt_clust_5="13000.00000" pt_clust_6="13000.00000" pt_clust_7="13000.00000" pt_clust_8="13000.00000" pt_clust_9="36.79317"></scales>
<clustering>
<clus scale="   36.793">  2  9  1 -1</clus>
<clus scale="   89.678">  5  6 -1 -1</clus>
<clus scale="   95.385">  7  8 -1 -1</clus>
<clus scale="   99.550">  2  5  1 -1</clus>
<clus scale="   36.793">  2  5  1 -1</clus>
</clustering>
</event>
<event>
 9    1  0.1881049E-005  0.1067316E+03  0.7546771E-02  0.1266934E+00
         21   -1    0    0  501  502  0.00000000000E+00  0.00000000000E+00  0.10351872537E+03  0.10351872537E+03  0.00000000000E+00 0. -1.
          1   -1    0    0  502    0 -0.00000000000E+00 -0.00000000000E+00 -0.28270979422E+03  0.28270979422E+03  0.00000000000E+00 0. -1.
         23    2    1    2    0    0  0.15277253189E+01  0.64863081344E+02 -0.18349798633E+03  0.21455434244E+03  0.90291204487E+02 0.  0.
         23    2    1    2    0    0 -0.36886082517E+01 -0.39115070694E+02 -0.50531550381E+02  0.11105333069E+03  0.90751364108E+02 0.  0.
        -11    1    3    3    0    0  0.44327566158E+02  0.22980267460E+02 -0.10036684709E+03  0.11210053438E+03  0.00000000000E+00 0. -1.
         11    1    3    3    0    0 -0.42799840839E+02  0.41882813884E+02 -0.83131139241E+02  0.10245380806E+03  0.00000000000E+00 0.  1.
        -13    1    4    4    0    0  0.40988383881E+01 -0.61418327310E+02 -0.75615792389E+01  0.62017649797E+02  0.00000000000E+00 0.  1.
         13    1    4    4    0    0 -0.77874466398E+01  0.22303256616E+02 -0.42969971142E+02  0.49035680894E+02  0.00000000000E+00 0. -1.
          1    1    1    2  501    0  0.21608829327E+01 -0.25748010650E+02  0.54838467857E+02  0.60620846451E+02  0.00000000000E+00 0. -1.
<scales pt_clust_5="13000.00000" pt_clust_6="13000.00000" pt_clust_7="13000.00000" pt_clust_8="13000.00000" pt_clust_9="25.83853"></scales>
<clustering>
<clus scale="   25.839">  1  9  2 -1</clus>
<clus scale="   90.291">  5  6 -1 -1</clus>
<clus scale="   90.751">  7  8 -1 -1</clus>
<clus scale="  106.341">  2  5  1 -1</clus>
<clus scale="   25.839">  1  5  2 -1</clus>
</clustering>
</event>
<event>
 9    1  0.1881049E-005  0.2280717E+03  0.7546771E-02  0.1128213E+00
          2   -1    0    0  502    0 -0.00000000000E+00  0.00000000000E+00  0.16121465871E+04  0.16121465871E+04  0.00000000000E+00 0. -1.
         21   -1    0    0  501  502  0.00000000000E+00 -0.00000000000E+00 -0.15622806435E+03  0.15622806435E+03  0.00000000000E+00 0. -1.
         23    2    1    2    0    0  0.14459160568E+03  0.16287293743E+03  0.10393239129E+04  0.10657321889E+04  0.90313766251E+02 0.  0.
         23    2    1    2    0    0 -0.11344098293E+03 -0.16109222524E+03  0.53680492807E+03  0.57844885222E+03  0.87315417831E+02 0.  0.
        -11    1    4    4    0    0 -0.35019905550E+02 -0.96790095258E+02  0.17831550477E+03  0.20589107695E+03  0.00000000000E+00 0.  1.
         11    1    4    4    0    0 -0.78421077383E+02 -0.64302129984E+02  0.35848942329E+03  0.37255777527E+03  0.00000000000E+00 0. -1.
        -11    1    3    3    0    0  0.32200177512E+02  0.27135537945E+02  0.80507605233E+02  0.90855177903E+02  0.00000000000E+00 0.  1.
         11    1    3    3    0    0  0.11239142817E+03  0.13573739949E+03  0.95881630763E+03  0.97487701097E+03  0.00000000000E+00 0. -1.
          2    1    1    2  501    0 -0.31150622745E+02 -0.17807121921E+01 -0.12021031822E+03  0.12419361031E+03  0.00000000000E+00 0. -1.
<scales pt_clust_5="13000.00000" pt_clust_6="13000.00000" pt_clust_7="13000.00000" pt_clust_8="13000.00000" pt_clust_9="31.20148"></scales>
<clustering>
<clus scale="   31.201">  2  9  1 -1</clus>
<clus scale="   87.315">  5  6 -1 -1</clus>
<clus scale="   90.314">  7  8 -1 -1</clus>
<clus scale="  226.901">  2  5  1 -1</clus>
<clus scale="   31.201">  2  5  1 -1</clus>
</clustering>
</event>
<event>
 9    1  0.1881049E-005  0.1343590E+03  0.7546771E-02  0.1223907E+00
         21   -1    0    0  501  502  0.00000000000E+00  0.00000000000E+00  0.22507458697E+03  0.22507458697E+03  0.00000000000E+00 0.  1.
         -1   -1    0    0    0  501 -0.00000000000E+00 -0.00000000000E+00 -0.15726826799E+03  0.15726826799E+03  0.00000000000E+00 0.  1.
         23    2    1    2    0    0  0.25885706228E+02  0.59865103035E+02 -0.64283167661E+01  0.12068214939E+03  0.10133586520E+03 0.  0.
         23    2    1    2    0    0  0.10623855362E+02 -0.12452784197E+03 -0.28204066609E+01  0.15464810139E+03  0.91038622804E+02 0.  0.
        -13    1    3    3    0    0 -0.33388538891E+02 -0.37049332298E+01 -0.16853542703E+01  0.33635717304E+02  0.00000000000E+00 0. -1.
         13    1    3    3    0    0  0.59274245119E+02  0.63570036265E+02 -0.47429624958E+01  0.87046432083E+02  0.00000000000E+00 0.  1.
        -13    1    4    4    0    0 -0.38476323288E+02 -0.50235771955E+02  0.11904117107E+02  0.64387640443E+02  0.00000000000E+00 0. -1.
         13    1    4    4    0    0  0.49100178650E+02 -0.74292070014E+02 -0.14724523768E+02  0.90260460949E+02  0.00000000000E+00 0.  1.
         -1    1    1    2    0  502 -0.36509561590E+02  0.64662738935E+02  0.77055042408E+02  0.10701260419E+03  0.00000000000E+00 0.  1.
<scales pt_clust_5="13000.00000" pt_clust_6="13000.00000" pt_clust_7="13000.00000" pt_clust_8="13000.00000" pt_clust_9="74.25778"></scales>
<clustering>
<clus scale="   74.258">  1  9  2 -1</clus>
<clus scale="   91.039">  7  8 -1 -1</clus>
<clus scale="  101.336">  5  6 -1 -1</clus>
<clus scale="  126.773">  1  7  2 -1</clus>
<clus scale="   74.258">  1  5  2 -1</clus>
</clustering>
</event>
<event>
 9    1  0.2363494E-005  0.1334649E+03  0.7546771E-02  0.1240718E+00
         21   -1    0    0  501  502  0.00000000000E+00  0.00000000000E+00  0.60465080589E+02  0.60465080589E+02  0.00000000000E+00 0. -1.
          1   -1    0    0  502    0 -0.00000000000E+00 -0.00000000000E+00 -0.75549764453E+03  0.75549764453E+03  0.00000000000E+00 0. -1.
         23    2    1    2    0    0 -0.14966283382E+02  0.61871753221E+01 -0.34738222705E+03  0.35923727240E+03  0.90081826348E+02 0.  0.
         23    2    1    2    0    0 -0.92441990154E+02  0.33180723872E+01 -0.49962134749E+02  0.14011030359E+03  0.92618308753E+02 0.  0.
        -11    1    4    4    0    0  0.15396967457E+02 -0.13464362326E+02 -0.95764901417E+00  0.20476150795E+02  0.00000000000E+00 0.  1.
         11    1    4    4    0    0 -0.10783895761E+03  0.16782434714E+02 -0.49004485735E+02  0.11963415280E+03  0.00000000000E+00 0. -1.
        -13    1    3    3    0    0  0.36854287822E+02 -0.54557653499E+01 -0.17202738560E+03  0.17601541212E+03  0.00000000000E+00 0. -1.
         13    1    3    3    0    0 -0.51820571204E+02  0.11642940672E+02 -0.17535484144E+03  0.18322186028E+03  0.00000000000E+00 0.  1.
          1    1    1    2  501    0  0.10740827354E+03 -0.95052477093E+01 -0.29768820214E+03  0.31661514912E+03  0.00000000000E+00 0. -1.
<scales pt_clust_5="13000.00000" pt_clust_6="13000.00000" pt_clust_7="13000.00000" pt_clust_8="13000.00000" pt_clust_9="96.09750"></scales>
<clustering>
<clus scale="   90.082">  7  8 -1 -1</clus>
<clus scale="   91.526">  2  7  1 -1</clus>
<clus scale="   92.618">  5  6 -1 -1</clus>
<clus scale="   96.098">  1  9  2 -1</clus>
<clus scale="   96.098">  1  5  2 -1</clus>
</clustering>
</event>
<event>
 9    1  0.1881049E-005  0.1070926E+03  0.7546771E-02  0.1266303E+00
         21   -1    0    0  501  502  0.00000000000E+00  0.00000000000E+00  0.70373396996E+02  0.70373396996E+02  0.00000000000E+00 0. -1.
         -1   -1    0    0    0  501 -0.00000000000E+00 -0.00000000000E+00 -0.32214012347E+03  0.32214012347E+03  0.00000000000E+00 0.  1.
         23    2    1    2    0    0 -0.23930348304E+02  0.23245500590E+02 -0.10262619061E+03  0.14117594306E+03  0.91024705617E+02 0.  0.
         23    2    1    2    0    0  0.23343440676E+02 -0.82981822841E+02 -0.14423860532E+03  0.19139759426E+03  0.91637135921E+02 0.  0.
        -11    1    4    4    0    0  0.51015148983E+02 -0.63739339467E+02 -0.61982504744E+02  0.10250404731E+03  0.00000000000E+00 0. -1.
         11    1    4    4    0    0 -0.27671708307E+02 -0.19242483374E+02 -0.82256100572E+02  0.88893546945E+02  0.00000000000E+00 0.  1.
        -13    1    3    3    0    0 -0.18156605535E+02  0.58372046356E+02 -0.60239784108E+02  0.85824179051E+02  0.00000000000E+00 0.  1.
         13    1    3    3    0    0 -0.57737427692E+01 -0.35126545766E+02 -0.42386406504E+02  0.55351764013E+02  0.00000000000E+00 0. -1.
         -1    1    1    2    0  502  0.58690762864E+00  0.59736322251E+02 -0.49019305489E+01  0.59939983148E+02  0.00000000000E+00 0.  1.
<scales pt_clust_5="13000.00000" pt_clust_6="13000.00000" pt_clust_7="13000.00000" pt_clust_8="13000.00000" pt_clust_9="59.73921"></scales>
<clustering>
<clus scale="   59.739">  1  9  2 -1</clus>
<clus scale="   91.025">  7  8 -1 -1</clus>
<clus scale="   91.637">  5  6 -1 -1</clus>
<clus scale="  106.569">  2  7  1 -1</clus>
<clus scale="   59.739">  1  5  2 -1</clus>
</clustering>
</event>
<event>
 9    1  0.1881049E-005  0.2227127E+03  0.7546771E-02  0.1163451E+00
          2   -1    0    0  502    0 -0.00000000000E+00  0.00000000000E+00  0.43860571787E+03  0.43860571787E+03  0.00000000000E+00 0. -1.
         21   -1    0    0  501  502  0.00000000000E+00 -0.00000000000E+00 -0.53635376164E+03  0.53635376164E+03  0.00000000000E+00 0. -1.
         23    2    1    2    0    0 -0.34274472499E+02  0.40950632899E+02  0.32527504344E+03  0.34181932642E+03  0.90470460560E+02 0.  0.
         23    2    1    2    0    0  0.15491598709E+03  0.12481923876E+03 -0.81001487228E+02  0.23437606212E+03  0.93766156690E+02 0.  0.
        -13    1    3    3    0    0 -0.48747852752E+01  0.66086448919E+02  0.19778520321E+03  0.20859091272E+03  0.00000000000E+00 0. -1.
         13    1    3    3    0    0 -0.29399687224E+02 -0.25135816020E+02  0.12748984023E+03  0.13322841370E+03  0.00000000000E+00 0.  1.
        -13    1    4    4    0    0  0.10304234690E+03  0.39241485995E+02 -0.76503634880E+02  0.13420292705E+03  0.00000000000E+00 0.  1.
         13    1    4    4    0    0  0.51873640190E+02  0.85577752761E+02 -0.44978523484E+01  0.10017313507E+03  0.00000000000E+00 0. -1.
          2    1    1    2  501    0 -0.12064151459E+03 -0.16576987166E+03 -0.34202159998E+03  0.39876409096E+03  0.00000000000E+00 0. -1.
<scales pt_clust_5="13000.00000" pt_clust_6="13000.00000" pt_clust_7="13000.00000" pt_clust_8="13000.00000" pt_clust_9="202.01201"></scales>
<clustering>
<clus scale="   90.470">  5  6 -1 -1</clus>
<clus scale="   93.766">  7  8 -1 -1</clus>
<clus scale="  105.055">  1  5  2 -1</clus>
<clus scale="  202.012">  2  9  1 -1</clus>
<clus scale="  202.012">  2  5  1 -1</clus>
</clustering>
</event>
<event>
 9    1  0.1881049E-005  0.1072985E+03  0.7546771E-02  0.1266165E+00
          1   -1    0    0  502    0 -0.00000000000E+00  0.00000000000E+00  0.19371043042E+03  0.19371043042E+03  0.00000000000E+00 0. -1.
         21   -1    0    0  501  502  0.00000000000E+00 -0.00000000000E+00 -0.16938721611E+03  0.16938721611E+03  0.00000000000E+00 0. -1.
         23    2    1    2    0    0 -0.52548113704E+02 -0.73467134585E+01  0.12883792984E+03  0.16679714517E+03  0.91688587176E+02 0.  0.
         23    2    1    2    0    0  0.69242569896E+02 -0.22986339927E+02 -0.39667505228E+02  0.12278887181E+03  0.90447171105E+02 0.  0.
        -13    1    4    4    0    0 -0.14799681018E+02 -0.25204447420E+02 -0.22734451764E+02  0.37029042993E+02  0.00000000000E+00 0.  1.
         13    1    4    4    0    0  0.84042250914E+02  0.22181074924E+01 -0.16933053464E+02  0.85759828819E+02  0.00000000000E+00 0. -1.
        -13    1    3    3    0    0 -0.47689281251E+02  0.29220588299E+02  0.35022982802E+02  0.65990299674E+02  0.00000000000E+00 0.  1.
         13    1    3    3    0    0 -0.48588324524E+01 -0.36567301757E+02  0.93814947039E+02  0.10080684549E+03  0.00000000000E+00 0. -1.
          1    1    1    2  501    0 -0.16694456192E+02  0.30333053386E+02 -0.64847210306E+02  0.73511629555E+02  0.00000000000E+00 0. -1.
<scales pt_clust_5="13000.00000" pt_clust_6="13000.00000" pt_clust_7="13000.00000" pt_clust_8="13000.00000" pt_clust_9="34.62368"></scales>
<clustering>
<clus scale="   34.624">  2  9  1 -1</clus>
<clus scale="   90.447">  5  6 -1 -1</clus>
<clus scale="   91.689">  7  8 -1 -1</clus>
<clus scale="  106.240">  2  5  1 -1</clus>
<clus scale="   34.624">  2  5  1 -1</clus>
</clustering>
</event>
<event>
 9    1  0.1881049E-005  0.1163558E+03  0.7546771E-02  0.1250124E+00
         21   -1    0    0  501  502  0.00000000000E+00  0.00000000000E+00  0.25763553883E+03  0.25763553883E+03  0.00000000000E+00 0. -1.
         -2   -1    0    0    0  501 -0.00000000000E+00 -0.00000000000E+00 -0.93756069307E+02  0.93756069307E+02  0.00000000000E+00 0.  1.
         23    2    1    2    0    0 -0.65821396444E+02 -0.30437944193E+02 -0.25331764877E+02  0.11772206728E+03  0.89206850280E+02 0.  0.
         23    2    1    2    0    0  0.52280200999E+02  0.45622759068E+02  0.17234403722E+03  0.20724143238E+03  0.91825315506E+02 0.  0.
        -11    1    4    4    0    0 -0.15695107823E+02 -0.14549684936E+02  0.17065554702E+02  0.27372666998E+02  0.00000000000E+00 0.  1.
         11    1    4    4    0    0  0.67975308822E+02  0.60172444004E+02  0.15527848252E+03  0.17986876538E+03  0.00000000000E+00 0. -1.
        -11    1    3    3    0    0  0.39949972495E+01  0.24617689527E+02  0.10995355786E+01  0.24963966415E+02  0.00000000000E+00 0. -1.
         11    1    3    3    0    0 -0.69816393694E+02 -0.55055633720E+02 -0.26431300456E+02  0.92758100867E+02  0.00000000000E+00 0.  1.
         -2    1    1    2    0  502  0.13541195445E+02 -0.15184814875E+02  0.16867197177E+02  0.26428108474E+02  0.00000000000E+00 0.  1.
<scales pt_clust_5="13000.00000" pt_clust_6="13000.00000" pt_clust_7="13000.00000" pt_clust_8="13000.00000" pt_clust_9="20.34558"></scales>
<clustering>
<clus scale="   20.346">  1  9  2 -1</clus>
<clus scale="   89.207">  7  8 -1 -1</clus>
<clus scale="   91.825">  5  6 -1 -1</clus>
<clus scale="  114.301">  2  7  1 -1</clus>
<clus scale="   20.346">  1  5  2 -1</clus>
</clustering>
</event>
<event>
 9    1  0.1881049E-005  0.1232806E+03  0.7546771E-02  0.1238286E+00
          2   -1    0    0  502    0 -0.00000000000E+00  0.00000000000E+00  0.35590183422E+03  0.35590183422E+03  0.00000000000E+00 0. -1.
         21   -1    0    0  501  502  0.00000000000E+00 -0.00000000000E+00 -0.90444070325E+02  0.90444070325E+02  0.00000000000E+00 0.  1.
         23    2    1    2    0    0 -0.39836983023E+02 -0.46988531004E+02  0.13115319434E+03  0.17273018889E+03  0.94019415580E+02 0.  0.
         23    2    1    2    0    0  0.53270649398E+02  0.86122130088E+02  0.17042019213E+03  0.21869540827E+03  0.92357221351E+02 0.  0.
        -11    1    3    3    0    0  0.20451241000E+02 -0.47897744924E+02  0.62684310081E+02  0.81497054901E+02  0.00000000000E+00 0. -1.
         11    1    3    3    0    0 -0.60288224023E+02  0.90921391960E+00  0.68468884256E+02  0.91233133987E+02  0.00000000000E+00 0.  1.
        -13    1    4    4    0    0  0.40517250721E+02  0.51703631118E+01  0.10864610865E+03  0.11607048370E+03  0.00000000000E+00 0. -1.
         13    1    4    4    0    0  0.12753398677E+02  0.80951766976E+02  0.61774083480E+02  0.10262492458E+03  0.00000000000E+00 0.  1.
          2    1    1    2  501    0 -0.13433666375E+02 -0.39133599084E+02 -0.36115622572E+02  0.54920307385E+02  0.00000000000E+00 0. -1.
<scales pt_clust_5="13000.00000" pt_clust_6="13000.00000" pt_clust_7="13000.00000" pt_clust_8="13000.00000" pt_clust_9="41.37514"></scales>
<clustering>
<clus scale="   41.375">  2  9  1 -1</clus>
<clus scale="   92.357">  7  8 -1 -1</clus>
<clus scale="   94.019">  5  6 -1 -1</clus>
<clus scale="  122.018">  2  7  1 -1</clus>
<clus scale="   41.375">  2  5  1 -1</clus>
</clustering>
</event>
<event>
 9    1  0.1881049E-005  0.1657295E+03  0.7546771E-02  0.1182486E+00
         21   -1    0    0  501  502  0.00000000000E+00  0.00000000000E+00  0.43382159007E+03  0.43382159007E+03  0.00000000000E+00 0.  1.
         -1   -1    0    0    0  501 -0.00000000000E+00 -0.00000000000E+00 -0.13996816169E+03  0.13996816169E+03  0.00000000000E+00 0.  1.
         23    2    1    2    0    0 -0.85221226934E+02  0.10446146553E+03  0.78559684965E+02  0.18082023645E+03  0.91375480901E+02 0.  0.
         23    2    1    2    0    0  0.17327487736E+03 -0.17372541485E+02  0.17426442813E+03  0.26250369312E+03  0.90631725499E+02 0.  0.
        -11    1    4    4    0    0  0.97238887253E+02 -0.41929242145E+02  0.14006465251E+03  0.17558920646E+03  0.00000000000E+00 0.  1.
         11    1    4    4    0    0  0.76035990111E+02  0.24556700660E+02  0.34199775617E+02  0.86914486662E+02  0.00000000000E+00 0. -1.
        -13    1    3    3    0    0 -0.60292020922E+02  0.18222187040E+02  0.64147811560E+02  0.89900598525E+02  0.00000000000E+00 0. -1.
         13    1    3    3    0    0 -0.24929206012E+02  0.86239278486E+02  0.14411873405E+02  0.90919637929E+02  0.00000000000E+00 0.  1.
         -1    1    1    2    0  502 -0.88053650430E+02 -0.87088924040E+02  0.41029315288E+02  0.13046582218E+03  0.00000000000E+00 0.  1.
<scales pt_clust_5="13000.00000" pt_clust_6="13000.00000" pt_clust_7="13000.00000" pt_clust_8="13000.00000" pt_clust_9="123.84644"></scales>
<clustering>
<clus scale="   90.632">  5  6 -1 -1</clus>
<clus scale="   91.375">  7  8 -1 -1</clus>
<clus scale="  123.846">  1  9  2 -1</clus>
<clus scale="  165.321">  1  5  2 -1</clus>
<clus scale="  123.846">  1  5  2 -1</clus>
</clustering>
</event>
<event>
 9    1  0.1881049E-005  0.9784690E+02  0.7546771E-02  0.1284984E+00
         21   -1    0    0  501  502  0.00000000000E+00  0.00000000000E+00  0.28419417678E+02  0.28419417678E+02  0.00000000000E+00 0. -1.
         -2   -1    0    0    0  501 -0.00000000000E+00 -0.00000000000E+00 -0.82101572749E+03  0.82101572749E+03  0.00000000000E+00 0.  1.
         23    2    1    2    0    0 -0.21824090007E+02 -0.14757503129E+02 -0.51727858471E+03  0.52587882779E+03  0.90979846748E+02 0.  0.
         23    2    1    2    0    0  0.37341392335E+02  0.47238884628E+02 -0.26416984136E+03  0.28587207496E+03  0.91166037263E+02 0.  0.
        -11    1    4    4    0    0  0.39537860426E+00 -0.26278884844E+02 -0.78651868024E+02  0.82926789740E+02  0.00000000000E+00 0.  1.
         11    1    4    4    0    0  0.36946013731E+02  0.73517769472E+02 -0.18551797334E+03  0.20294528522E+03  0.00000000000E+00 0. -1.
        -13    1    3    3    0    0 -0.27405628420E+02 -0.51072180694E+02 -0.31189838864E+03  0.31723814548E+03  0.00000000000E+00 0.  1.
         13    1    3    3    0    0  0.55815384132E+01  0.36314677564E+02 -0.20538019606E+03  0.20864068231E+03  0.00000000000E+00 0. -1.
         -2    1    1    2    0  502 -0.15517302328E+02 -0.32481381498E+02 -0.11147883745E+02  0.37684242431E+02  0.00000000000E+00 0.  1.
<scales pt_clust_5="13000.00000" pt_clust_6="13000.00000" pt_clust_7="13000.00000" pt_clust_8="13000.00000" pt_clust_9="35.99759"></scales>
<clustering>
<clus scale="   35.998">  1  9  2 -1</clus>
<clus scale="   90.980">  7  8 -1 -1</clus>
<clus scale="   91.166">  5  6 -1 -1</clus>
<clus scale="   97.673">  2  7  1 -1</clus>
<clus scale="   35.998">  1  5  2 -1</clus>
</clustering>
</event>
<event>
 9    1  0.1881049E-005  0.2315593E+03  0.7546771E-02  0.1125578E+00
         21   -1    0    0  501  502  0.00000000000E+00  0.00000000000E+00  0.25416121459E+03  0.25416121459E+03  0.00000000000E+00 0. -1.
          1   -1    0    0  502    0 -0.00000000000E+00 -0.00000000000E+00 -0.88865656153E+03  0.88865656153E+03  0.00000000000E+00 0. -1.
         23    2    1    2    0    0  0.20560696466E+03  0.65803979741E+02 -0.72783532952E+03  0.76454005184E+03  0.90403740570E+02 0.  0.
         23    2    1    2    0    0 -0.19384340105E+03 -0.48916782989E+02 -0.56726653756E+02  0.22680642605E+03  0.90857723199E+02 0.  0.
        -11    1    4    4    0    0 -0.12652611985E+03 -0.64630960343E+02 -0.81360446200E+01  0.14231027813E+03  0.00000000000E+00 0.  1.
         11    1    4    4    0    0 -0.67317281195E+02  0.15714177354E+02 -0.48590609136E+02  0.84496147922E+02  0.00000000000E+00 0. -1.
        -11    1    3    3    0    0  0.20380773958E+03  0.39863677902E+02 -0.63234023665E+03  0.66556808999E+03  0.00000000000E+00 0. -1.
         11    1    3    3    0    0  0.17992250772E+01  0.25940301840E+02 -0.95495092873E+02  0.98971961854E+02  0.00000000000E+00 0.  1.
          1    1    1    2  501    0 -0.11763563611E+02 -0.16887196753E+02  0.15006663634E+03  0.15147129822E+03  0.00000000000E+00 0. -1.
<scales pt_clust_5="13000.00000" pt_clust_6="13000.00000" pt_clust_7="13000.00000" pt_clust_8="13000.00000" pt_clust_9="20.58055"></scales>
<clustering>
<clus scale="   20.581">  1  9  2 -1</clus>
<clus scale="   90.404">  7  8 -1 -1</clus>
<clus scale="   90.858">  5  6 -1 -1</clus>
<clus scale="  231.382">  2  7  1 -1</clus>
<clus scale="   20.581">  1  5  2 -1</clus>
</clustering>
</event>
<event>
 9    1  0.1881049E-005  0.1372389E+03  0.7546771E-02  0.1217171E+00
          3   -1    0    0  502    0 -0.00000000000E+00  0.00000000000E+00  0.11749440027E+03  0.11749440027E+03  0.00000000000E+00 0. -1.
         21   -1    0    0  501  502  0.00000000000E+00 -0.00000000000E+00 -0.45380211709E+03  0.45380211709E+03  0.00000000000E+00 0. -1.
         23    2    1    2    0    0  0.10473780602E+03  0.40681601795E+02  0.12345209975E+02  0.14524944194E+03  0.91214009013E+02 0.  0.
         23    2    1    2    0    0 -0.31395656498E+02 -0.10280220748E+03 -0.15200271116E+03  0.20716503446E+03  0.90876543686E+02 0.  0.
        -13    1    4    4    0    0  0.56683503880E+01 -0.76584937985E+02 -0.40598630994E+02  0.86865595957E+02  0.00000000000E+00 0. -1.
         13    1    4    4    0    0 -0.37064006886E+02 -0.26217269495E+02 -0.11140408017E+03  0.12029943850E+03  0.00000000000E+00 0.  1.
        -13    1    3    3    0    0 -0.62276490350E+01  0.27105180318E+02  0.18309878507E+02  0.33297538400E+02  0.00000000000E+00 0. -1.
         13    1    3    3    0    0  0.11096545505E+03  0.13576421477E+02 -0.59646685328E+01  0.11195190354E+03  0.00000000000E+00 0.  1.
          3    1    1    2  501    0 -0.73342149519E+02  0.62120605686E+02 -0.19665021564E+03  0.21888204096E+03  0.00000000000E+00 0. -1.
<scales pt_clust_5="13000.00000" pt_clust_6="13000.00000" pt_clust_7="13000.00000" pt_clust_8="13000.00000" pt_clust_9="96.11473"></scales>
<clustering>
<clus scale="   90.877">  5  6 -1 -1</clus>
<clus scale="   91.214">  7  8 -1 -1</clus>
<clus scale="   96.115">  2  9  1 -1</clus>
<clus scale="  137.015">  2  5  1 -1</clus>
<clus scale="   96.115">  2  5  1 -1</clus>
</clustering>
</event>
<event>
 9    1  0.1881049E-005  0.9040823E+02  0.7546771E-02  0.1302215E+00
          2   -1    0    0  502    0 -0.00000000000E+00  0.00000000000E+00  0.11463804393E+03  0.11463804393E+03  0.00000000000E+00 0. -1.
         21   -1    0    0  501  502  0.00000000000E+00 -0.00000000000E+00 -0.12139044883E+03  0.12139044883E+03  0.00000000000E+00 0. -1.
         23    2    1    2    0    0 -0.74728770767E+01 -0.97864373382E+00  0.54600964678E+02  0.10577709165E+03  0.90281372053E+02 0.  0.
         23    2    1    2    0    0 -0.10923152452E+02  0.12133990683E+02 -0.59020162619E+02  0.10861117184E+03  0.89702051616E+02 0.  0.
        -11    1    3    3    0    0  0.29643206224E+02  0.66504005459E+01 -0.90515195091E+01  0.31699802966E+02  0.00000000000E+00 0.  1.
         11    1    3    3    0    0 -0.37116083301E+02 -0.76290442797E+01  0.63652484187E+02  0.74077288688E+02  0.00000000000E+00 0. -1.
        -13    1    4    4    0    0  0.26922454295E+02  0.19682154916E+02 -0.61478997959E+02  0.69941925606E+02  0.00000000000E+00 0.  1.
         13    1    4    4    0    0 -0.37845606746E+02 -0.75481642336E+01  0.24588353400E+01  0.38669246237E+02  0.00000000000E+00 0. -1.
          2    1    1    2  501    0  0.18396029528E+02 -0.11155346949E+02 -0.23332069614E+01  0.21640229266E+02  0.00000000000E+00 0. -1.
<scales pt_clust_5="13000.00000" pt_clust_6="13000.00000" pt_clust_7="13000.00000" pt_clust_8="13000.00000" pt_clust_9="21.51408"></scales>
<clustering>
<clus scale="   21.514">  2  9  1 -1</clus>
<clus scale="   89.702">  7  8 -1 -1</clus>
<clus scale="   89.830">  2  7  1 -1</clus>
<clus scale="   90.281">  5  6 -1 -1</clus>
<clus scale="   21.514">  2  5  1 -1</clus>
</clustering>
</event>
<event>
 9    1  0.1881049E-005  0.1141565E+03  0.7546771E-02  0.1256229E+00
          1   -1    0    0  502    0 -0.00000000000E+00  0.00000000000E+00  0.25963906456E+03  0.25963906456E+03  0.00000000000E+00 0. -1.
         21   -1    0    0  501  502  0.00000000000E+00 -0.00000000000E+00 -0.18411553679E+03  0.18411553679E+03  0.00000000000E+00 0. -1.
         23    2    1    2    0    0 -0.11823162067E+02 -0.49624172260E+02  0.19961646714E+03  0.22951413774E+03  0.10113189325E+03 0.  0.
         23    2    1    2    0    0 -0.29008277507E+02  0.71817856727E+02 -0.60449792000E+02  0.13543553803E+03  0.93216537695E+02 0.  0.
        -11    1    4    4    0    0  0.10820364637E+01  0.81629618787E+02 -0.63798942977E+02  0.10360922059E+03  0.00000000000E+00 0. -1.
         11    1    4    4    0    0 -0.30090313971E+02 -0.98117620599E+01  0.33491509762E+01  0.31826317441E+02  0.00000000000E+00 0.  1.
        -13    1    3    3    0    0  0.35036679028E+02 -0.53895052803E+02  0.13559476573E+03  0.15006060804E+03  0.00000000000E+00 0.  1.
         13    1    3    3    0    0 -0.46859841095E+02  0.42708805432E+01  0.64021701419E+02  0.79453529693E+02  0.00000000000E+00 0. -1.
          1    1    1    2  501    0  0.40831439575E+02 -0.22193684467E+02 -0.63643147371E+02  0.78804925577E+02  0.00000000000E+00 0. -1.
<scales pt_clust_5="13000.00000" pt_clust_6="13000.00000" pt_clust_7="13000.00000" pt_clust_8="13000.00000" pt_clust_9="46.47328"></scales>
<clustering>
<clus scale="   46.473">  2  9  1 -1</clus>
<clus scale="   93.217">  5  6 -1 -1</clus>
<clus scale="  101.132">  7  8 -1 -1</clus>
<clus scale="  107.207">  2  5  1 -1</clus>
<clus scale="   46.473">  2  5  1 -1</clus>
</clustering>
</event>
<event>
 9    1  0.1881049E-005  0.1536467E+03  0.7546771E-02  0.1196607E+00
         21   -1    0    0  501  502  0.00000000000E+00  0.00000000000E+00  0.54081313899E+02  0.54081313899E+02  0.00000000000E+00 0. -1.
          1   -1    0    0  502    0 -0.00000000000E+00 -0.00000000000E+00 -0.93455424741E+03  0.93455424741E+03  0.00000000000E+00 0. -1.
         23    2    1    2    0    0 -0.12666022789E+03 -0.76055348042E+02 -0.63158230949E+03  0.65497018144E+03  0.90898270717E+02 0.  0.
         23    2    1    2    0    0  0.85246416149E+02 -0.78702956244E+01 -0.16263586827E+03  0.20639205054E+03  0.93906122589E+02 0.  0.
        -13    1    3    3    0    0 -0.11569306707E+03 -0.95333987589E+02 -0.57430547892E+03  0.59354885062E+03  0.00000000000E+00 0. -1.
         13    1    3    3    0    0 -0.10967160822E+02  0.19278639547E+02 -0.57276830572E+02  0.61421330819E+02  0.00000000000E+00 0.  1.
        -13    1    4    4    0    0  0.97952550564E+02  0.14967280040E+02 -0.14168354492E+03  0.17289577361E+03  0.00000000000E+00 0. -1.
         13    1    4    4    0    0 -0.12706134416E+02 -0.22837575665E+02 -0.20952323351E+02  0.33496276925E+02  0.00000000000E+00 0.  1.
          1    1    1    2  501    0  0.41413811745E+02  0.83925643667E+02 -0.86254755754E+02  0.12727332933E+03  0.00000000000E+00 0. -1.
<scales pt_clust_5="13000.00000" pt_clust_6="13000.00000" pt_clust_7="13000.00000" pt_clust_8="13000.00000" pt_clust_9="93.58749"></scales>
<clustering>
<clus scale="   90.898">  5  6 -1 -1</clus>
<clus scale="   93.587">  1  9  2 -1</clus>
<clus scale="   93.906">  7  8 -1 -1</clus>
<clus scale="  151.827">  2  5  1 -1</clus>
<clus scale="   93.587">  1  5  2 -1</clus>
</clustering>
</event>
<event>
 9    1  0.1881049E-005  0.1525557E+03  0.7546771E-02  0.1198526E+00
          4   -1    0    0  502    0 -0.00000000000E+00  0.00000000000E+00  0.26376889952E+03  0.26376889952E+03  0.00000000000E+00 0. -1.
         21   -1    0    0  501  502  0.00000000000E+00 -0.00000000000E+00 -0.49904686194E+03  0.49904686194E+03  0.00000000000E+00 0. -1.
         23    2    1    2    0    0 -0.10422863801E+03 -0.35531065427E+02  0.13433616988E+03  0.19316551984E+03  0.84502342724E+02 0.  0.
         23    2    1    2    0    0  0.14015349801E+03  0.78156539588E+02  0.11145332714E+02  0.18483171710E+03  0.91033496702E+02 0.  0.
        -11    1    4    4    0    0  0.92078491660E+02  0.93509748425E+02 -0.64295087237E+01  0.13139200988E+03  0.00000000000E+00 0. -1.
         11    1    4    4    0    0  0.48075006346E+02 -0.15353208838E+02  0.17574841438E+02  0.53439707225E+02  0.00000000000E+00 0.  1.
        -13    1    3    3    0    0 -0.25969677386E+02 -0.42178280942E+02  0.17800317692E+02  0.52633476388E+02  0.00000000000E+00 0. -1.
         13    1    3    3    0    0 -0.78258960629E+02  0.66472155148E+01  0.11653585219E+03  0.14053204346E+03  0.00000000000E+00 0.  1.
          4    1    1    2  501    0 -0.35924859991E+02 -0.42625474161E+02 -0.38075946501E+03  0.38481852452E+03  0.00000000000E+00 0. -1.
<scales pt_clust_5="13000.00000" pt_clust_6="13000.00000" pt_clust_7="13000.00000" pt_clust_8="13000.00000" pt_clust_9="55.74519"></scales>
<clustering>
<clus scale="   55.745">  2  9  1 -1</clus>
<clus scale="   84.502">  7  8 -1 -1</clus>
<clus scale="   91.033">  5  6 -1 -1</clus>
<clus scale="  148.751">  1  7  2 -1</clus>
<clus scale="   55.745">  2  5  1 -1</clus>
</clustering>
</event>
<event>
 9    1  0.1881049E-005  0.1005037E+03  0.7546771E-02  0.1280226E+00
          2   -1    0    0  502    0 -0.00000000000E+00  0.00000000000E+00  0.20701803302E+03  0.20701803302E+03  0.00000000000E+00 0. -1.
         21   -1    0    0  501  502  0.00000000000E+00 -0.00000000000E+00 -0.13609110724E+03  0.13609110724E+03  0.00000000000E+00 0. -1.
         23    2    1    2    0    0  0.64526760034E+01  0.30815736702E+02  0.68646323954E+02  0.11797207869E+03  0.90630275859E+02 0.  0.
         23    2    1    2    0    0  0.31284994803E+02 -0.43796088066E+02  0.82701029739E+02  0.13535918821E+03  0.92659598977E+02 0.  0.
        -11    1    3    3    0    0  0.46509114053E+02  0.84211888943E+01  0.20689668501E+02  0.51595314663E+02  0.00000000000E+00 0. -1.
         11    1    3    3    0    0 -0.40056438050E+02  0.22394547808E+02  0.47956655453E+02  0.66376764029E+02  0.00000000000E+00 0.  1.
        -11    1    4    4    0    0 -0.48224406486E+01  0.25408096675E+02  0.73969669782E+01  0.26898744040E+02  0.00000000000E+00 0.  1.
         11    1    4    4    0    0  0.36107435452E+02 -0.69204184741E+02  0.75304062761E+02  0.10846044417E+03  0.00000000000E+00 0. -1.
          2    1    1    2  501    0 -0.37737670806E+02  0.12980351364E+02 -0.80420427908E+02  0.89777873356E+02  0.00000000000E+00 0. -1.
<scales pt_clust_5="13000.00000" pt_clust_6="13000.00000" pt_clust_7="13000.00000" pt_clust_8="13000.00000" pt_clust_9="39.90766"></scales>
<clustering>
<clus scale="   39.908">  2  9  1 -1</clus>
<clus scale="   90.630">  5  6 -1 -1</clus>
<clus scale="   92.660">  7  8 -1 -1</clus>
<clus scale="   98.636">  1  5  2 -1</clus>
<clus scale="   39.908">  2  5  1 -1</clus>
</clustering>
</event>
<event>
 9    1  0.1881049E-005  0.1285242E+03  0.7546771E-02  0.1230182E+00
         21   -1    0    0  501  502  0.00000000000E+00  0.00000000000E+00  0.21396755600E+03  0.21396755600E+03  0.00000000000E+00 0. -1.
          3   -1    0    0  502    0 -0.00000000000E+00 -0.00000000000E+00 -0.16645859413E+03  0.16645859413E+03  0.00000000000E+00 0. -1.
         23    2    1    2    0    0  0.12024669109E+03  0.53382937528E+01 -0.58697193363E+02  0.16333968899E+03  0.93523950897E+02 0.  0.
         23    2    1    2    0    0 -0.32159954504E+02 -0.21971655772E+02  0.59819690530E+02  0.11615259170E+03  0.91629759639E+02 0.  0.
        -11    1    3    3    0    0  0.67354058109E+02 -0.28454710520E+02 -0.68044355330E+02  0.99881299485E+02  0.00000000000E+00 0. -1.
         11    1    3    3    0    0  0.52892632979E+02  0.33793004273E+02  0.93471619664E+01  0.63458389501E+02  0.00000000000E+00 0.  1.
        -13    1    4    4    0    0  0.15742988258E+02 -0.43496131427E+02  0.35331969853E+02  0.58207415525E+02  0.00000000000E+00 0. -1.
         13    1    4    4    0    0 -0.47902942762E+02  0.21524475655E+02  0.24487720677E+02  0.57945176171E+02  0.00000000000E+00 0.  1.
          3    1    1    2  501    0 -0.88086736584E+02  0.16633362019E+02  0.46386464704E+02  0.10093386945E+03  0.00000000000E+00 0. -1.
<scales pt_clust_5="13000.00000" pt_clust_6="13000.00000" pt_clust_7="13000.00000" pt_clust_8="13000.00000" pt_clust_9="89.64342"></scales>
<clustering>
<clus scale="   89.643">  1  9  2 -1</clus>
<clus scale="   91.630">  7  8 -1 -1</clus>
<clus scale="   93.524">  5  6 -1 -1</clus>
<clus scale="  127.152">  1  7  2 -1</clus>
<clus scale="   89.643">  1  5  2 -1</clus>
</clustering>
</event>
<event>
 9    1  0.1881049E-005  0.1682713E+03  0.7546771E-02  0.1180564E+00
          1   -1    0    0  502    0 -0.00000000000E+00  0.00000000000E+00  0.13573246786E+04  0.13573246786E+04  0.00000000000E+00 0. -1.
         21   -1    0    0  501  502  0.00000000000E+00 -0.00000000000E+00 -0.35222428267E+02  0.35222428267E+02  0.00000000000E+00 0. -1.
         23    2    1    2    0    0  0.14424872222E+03 -0.95120083585E+02  0.79809897925E+03  0.82092555053E+03  0.84268942525E+02 0.  0.
         23    2    1    2    0    0 -0.62077260529E+02  0.92200422533E+02  0.37384458367E+03  0.40042487137E+03  0.90696199931E+02 0.  0.
        -13    1    4    4    0    0 -0.16079618148E+02  0.48143434939E+02  0.53254446863E+02  0.73568883083E+02  0.00000000000E+00 0.  1.
         13    1    4    4    0    0 -0.45997642381E+02  0.44056987594E+02  0.32059013681E+03  0.32685598829E+03  0.00000000000E+00 0. -1.
        -13    1    3    3    0    0  0.41287062236E+02  0.12310066106E+02  0.20083699499E+03  0.20540608022E+03  0.00000000000E+00 0.  1.
         13    1    3    3    0    0  0.10296165998E+03 -0.10743014969E+03  0.59726198426E+03  0.61551947031E+03  0.00000000000E+00 0. -1.
          1    1    1    2  501    0 -0.82171461691E+02  0.29196610520E+01  0.15015868741E+03  0.17119668497E+03  0.00000000000E+00 0. -1.
<scales pt_clust_5="13000.00000" pt_clust_6="13000.00000" pt_clust_7="13000.00000" pt_clust_8="13000.00000" pt_clust_9="82.22332"></scales>
<clustering>
<clus scale="   82.223">  2  9  1 -1</clus>
<clus scale="   84.269">  7  8 -1 -1</clus>
<clus scale="   90.696">  5  6 -1 -1</clus>
<clus scale="  164.896">  1  7  2 -1</clus>
<clus scale="   82.223">  2  5  1 -1</clus>
</clustering>
</event>
<event>
 9    1  0.1881049E-005  0.2136286E+03  0.7546771E-02  0.1138788E+00
         21   -1    0    0  501  502  0.00000000000E+00  0.00000000000E+00  0.29151588862E+03  0.29151588862E+03  0.00000000000E+00 0.  1.
          1   -1    0    0  502    0 -0.00000000000E+00 -0.00000000000E+00 -0.20375550773E+03  0.20375550773E+03  0.00000000000E+00 0. -1.
         23    2    1    2    0    0  0.97528674337E+02  0.15644426827E+03  0.12688808520E+02  0.20601638073E+03  0.91077394968E+02 0.  0.
         23    2    1    2    0    0 -0.11896500961E+03 -0.16359896370E+03  0.12249511942E+02  0.22249187150E+03  0.91843823439E+02 0.  0.
        -11    1    3    3    0    0  0.83743596941E+02  0.64820481398E+02 -0.19985877198E+02  0.10776882724E+03  0.00000000000E+00 0.  1.
         11    1    3    3    0    0  0.13785077396E+02  0.91623786870E+02  0.32674685718E+02  0.98247553486E+02  0.00000000000E+00 0. -1.
        -13    1    4    4    0    0 -0.11373135583E+03 -0.92865169575E+02 -0.12525334123E+02  0.14736229170E+03  0.00000000000E+00 0.  1.
         13    1    4    4    0    0 -0.52336537791E+01 -0.70733794128E+02  0.24774846065E+02  0.75129579801E+02  0.00000000000E+00 0. -1.
          1    1    1    2  501    0  0.21436335273E+02  0.71546954343E+01  0.62822060427E+02  0.66763144121E+02  0.00000000000E+00 0. -1.
<scales pt_clust_5="13000.00000" pt_clust_6="13000.00000" pt_clust_7="13000.00000" pt_clust_8="13000.00000" pt_clust_9="22.59881"></scales>
<clustering>
<clus scale="   22.599">  1  9  2 -1</clus>
<clus scale="   91.077">  5  6 -1 -1</clus>
<clus scale="   91.844">  7  8 -1 -1</clus>
<clus scale="  213.300">  2  5  1 -1</clus>
<clus scale="   22.599">  1  5  2 -1</clus>
</clustering>
</event>
<event>
 9    1  0.1881049E-005  0.1091134E+03  0.7546771E-02  0.1262891E+00
         21   -1    0    0  501  502  0.00000000000E+00  0.00000000000E+00  0.52215076146E+03  0.52215076146E+03  0.00000000000E+00 0. -1.
          3   -1    0    0  502    0 -0.00000000000E+00 -0.00000000000E+00 -0.11347433862E+03  0.11347433862E+03  0.00000000000E+00 0. -1.
         23    2    1    2    0    0  0.84650333355E+01 -0.63389550484E+02 -0.33847714686E+02  0.11649937428E+03  0.91304679611E+02 0.  0.
         23    2    1    2    0    0 -0.91412473461E+02  0.18331805958E+02  0.98957746922E+02  0.16282761618E+03  0.89598557468E+02 0.  0.
        -11    1    3    3    0    0 -0.63124188267E+01  0.19029992625E+02 -0.25371988186E+02  0.32337672076E+02  0.00000000000E+00 0.  1.
         11    1    3    3    0    0  0.14777452162E+02 -0.82419543108E+02 -0.84757264998E+01  0.84161702207E+02  0.00000000000E+00 0. -1.
        -11    1    4    4    0    0 -0.46621022669E+02  0.14985367842E+02  0.10655892526E+03  0.11727269741E+03  0.00000000000E+00 0.  1.
         11    1    4    4    0    0 -0.44791450792E+02  0.33464381158E+01 -0.76011783397E+01  0.45554918771E+02  0.00000000000E+00 0. -1.
          3    1    1    2  501    0  0.82947440126E+02  0.45057744526E+02  0.34356639061E+03  0.35629810962E+03  0.00000000000E+00 0. -1.
<scales pt_clust_5="13000.00000" pt_clust_6="13000.00000" pt_clust_7="13000.00000" pt_clust_8="13000.00000" pt_clust_9="94.39533"></scales>
<clustering>
<clus scale="   89.599">  7  8 -1 -1</clus>
<clus scale="   91.305">  5  6 -1 -1</clus>
<clus scale="   94.395">  1  9  2 -1</clus>
<clus scale="  107.690">  1  7  2 -1</clus>
<clus scale="   94.395">  1  5  2 -1</clus>
</clustering>
</event>
<event>
 9    1  0.1881049E-005  0.1001080E+03  0.7546771E-02  0.1280102E+00
          4   -1    0    0  502    0 -0.00000000000E+00  0.00000000000E+00  0.92549861855E+02  0.92549861855E+02  0.00000000000E+00 0. -1.
         21   -1    0    0  501  502  0.00000000000E+00 -0.00000000000E+00 -0.15103972719E+03  0.15103972719E+03  0.00000000000E+00 0. -1.
         23    2    1    2    0    0  0.39609319126E+02 -0.14365631936E+02 -0.10220316176E+02  0.10156058715E+03  0.91841322163E+02 0.  0.
         23    2    1    2    0    0 -0.20731789447E+02  0.36963517848E+02 -0.49272773118E+02  0.11256661854E+03  0.91909350419E+02 0.  0.
        -11    1    3    3    0    0  0.66544830403E+02 -0.24107496456E+02  0.10373341700E+01  0.70784616273E+02  0.00000000000E+00 0. -1.
         11    1    3    3    0    0 -0.26935511276E+02  0.97418645198E+01 -0.11257650346E+02  0.30775970876E+02  0.00000000000E+00 0.  1.
        -13    1    4    4    0    0 -0.44143156022E+02  0.46888104122E+01  0.55939393805E+01  0.44742544903E+02  0.00000000000E+00 0.  1.
         13    1    4    4    0    0  0.23411366575E+02  0.32274707436E+02 -0.54866712499E+02  0.67824073642E+02  0.00000000000E+00 0. -1.
          4    1    1    2  501    0 -0.18877529679E+02 -0.22597885912E+02  0.10032239578E+01  0.29462383352E+02  0.00000000000E+00 0. -1.
<scales pt_clust_5="13000.00000" pt_clust_6="13000.00000" pt_clust_7="13000.00000" pt_clust_8="13000.00000" pt_clust_9="29.44531"></scales>
<clustering>
<clus scale="   29.445">  2  9  1 -1</clus>
<clus scale="   91.841">  5  6 -1 -1</clus>
<clus scale="   91.909">  7  8 -1 -1</clus>
<clus scale="  100.046">  1  5  2 -1</clus>
<clus scale="   29.445">  2  5  1 -1</clus>
</clustering>
</event>
<event>
 9    1  0.1881049E-005  0.1586003E+03  0.7546771E-02  0.1190351E+00
          3   -1    0    0  502    0 -0.00000000000E+00  0.00000000000E+00  0.45743013581E+03  0.45743013581E+03  0.00000000000E+00 0. -1.
         21   -1    0    0  501  502  0.00000000000E+00 -0.00000000000E+00 -0.14938000639E+03  0.14938000639E+03  0.00000000000E+00 0.  1.
         23    2    1    2    0    0 -0.13502815398E+03 -0.12819085989E+02  0.28156690334E+03  0.32571737162E+03  0.91733057198E+02 0.  0.
         23    2    1    2    0    0  0.11711423228E+03  0.22529249380E+02  0.11567828390E+03  0.18959985172E+03  0.91341819160E+02 0.  0.
        -11    1    4    4    0    0  0.16633351725E+02 -0.29420843437E+02  0.44776178014E+02  0.56099559140E+02  0.00000000000E+00 0.  1.
         11    1    4    4    0    0  0.10048088056E+03  0.51950092816E+02  0.70902105884E+02  0.13350029258E+03  0.00000000000E+00 0. -1.
        -13    1    3    3    0    0 -0.52851470779E+02 -0.30696378448E+02  0.48759887939E+02  0.78186138702E+02  0.00000000000E+00 0.  1.
         13    1    3    3    0    0 -0.82176683200E+02  0.17877292460E+02  0.23280701540E+03  0.24753123291E+03  0.00000000000E+00 0. -1.
          3    1    1    2  501    0  0.17913921697E+02 -0.97101633907E+01 -0.89195057814E+02  0.91492918863E+02  0.00000000000E+00 0. -1.
<scales pt_clust_5="13000.00000" pt_clust_6="13000.00000" pt_clust_7="13000.00000" pt_clust_8="13000.00000" pt_clust_9="20.37636"></scales>
<clustering>
<clus scale="   20.376">  2  9  1 -1</clus>
<clus scale="   91.342">  5  6 -1 -1</clus>
<clus scale="   91.733">  7  8 -1 -1</clus>
<clus scale="  158.374">  2  5  1 -1</clus>
<clus scale="   20.376">  2  5  1 -1</clus>
</clustering>
</event>
<event>
 9    1  0.1881049E-005  0.4207474E+03  0.7546771E-02  0.1036915E+00
         21   -1    0    0  501  502  0.00000000000E+00  0.00000000000E+00  0.26299273808E+03  0.26299273808E+03  0.00000000000E+00 0.  1.
          1   -1    0    0  502    0 -0.00000000000E+00 -0.00000000000E+00 -0.12642604653E+04  0.12642604653E+04  0.00000000000E+00 0. -1.
         23    2    1    2    0    0  0.39850581917E+03  0.38251868579E+02 -0.90571179397E+03  0.99446295395E+03  0.91502020103E+02 0.  0.
         23    2    1    2    0    0 -0.45384929545E+03 -0.54592765704E+02 -0.73130231740E+02  0.47088033607E+03  0.86143525940E+02 0.  0.
        -11    1    4    4    0    0 -0.42173110683E+03 -0.32679449102E+02 -0.82311502944E+02  0.43092952600E+03  0.00000000000E+00 0.  1.
         11    1    4    4    0    0 -0.32118188612E+02 -0.21913316602E+02  0.91812712035E+01  0.39950810068E+02  0.00000000000E+00 0. -1.
        -13    1    3    3    0    0  0.10826100067E+03 -0.19593099374E+02 -0.18335561795E+03  0.21383081266E+03  0.00000000000E+00 0.  1.
         13    1    3    3    0    0  0.29024481851E+03  0.57844967953E+02 -0.72235617601E+03  0.78063214129E+03  0.00000000000E+00 0. -1.
          1    1    1    2  501    0  0.55343476275E+02  0.16340897125E+02 -0.22425701533E+02  0.61909913377E+02  0.00000000000E+00 0. -1.
<scales pt_clust_5="13000.00000" pt_clust_6="13000.00000" pt_clust_7="13000.00000" pt_clust_8="13000.00000" pt_clust_9="57.70550"></scales>
<clustering>
<clus scale="   57.706">  1  9  2 -1</clus>
<clus scale="   86.144">  5  6 -1 -1</clus>
<clus scale="   91.502">  7  8 -1 -1</clus>
<clus scale="  419.615">  1  5  2 -1</clus>
<clus scale="   57.706">  1  5  2 -1</clus>
</clustering>
</event>
<event>
 9    1  0.1881049E-005  0.1300935E+03  0.7546771E-02  0.1228378E+00
         21   -1    0    0  501  502  0.00000000000E+00  0.00000000000E+00  0.15699040068E+03  0.15699040068E+03  0.00000000000E+00 0.  1.
         -4   -1    0    0    0  501 -0.00000000000E+00 -0.00000000000E+00 -0.24392542078E+03  0.24392542078E+03  0.00000000000E+00 0.  1.
         23    2    1    2    0    0  0.74877743805E+02  0.40630062578E+02 -0.12646921207E+03  0.17585525101E+03  0.87596399499E+02 0.  0.
         23    2    1    2    0    0 -0.74276512521E+02 -0.91030221374E+02 -0.16228813897E+02  0.14989375390E+03  0.91658395921E+02 0.  0.
        -11    1    4    4    0    0 -0.82804045146E+02 -0.68072994798E+02 -0.41273918857E+02  0.11486504643E+03  0.00000000000E+00 0.  1.
         11    1    4    4    0    0  0.85275326257E+01 -0.22957226576E+02  0.25045104960E+02  0.35028707473E+02  0.00000000000E+00 0. -1.
        -11    1    3    3    0    0  0.74632959887E+02  0.19172512127E+02 -0.13275228948E+03  0.15349538848E+03  0.00000000000E+00 0.  1.
         11    1    3    3    0    0  0.24478391812E+00  0.21457550451E+02  0.62830774153E+01  0.22359862529E+02  0.00000000000E+00 0. -1.
         -4    1    1    2    0  502 -0.60123128470E+00  0.50400158796E+02  0.55763005873E+02  0.75166816546E+02  0.00000000000E+00 0.  1.
<scales pt_clust_5="13000.00000" pt_clust_6="13000.00000" pt_clust_7="13000.00000" pt_clust_8="13000.00000" pt_clust_9="50.40374"></scales>
<clustering>
<clus scale="   50.404">  1  9  2 -1</clus>
<clus scale="   87.596">  7  8 -1 -1</clus>
<clus scale="   91.658">  5  6 -1 -1</clus>
<clus scale="  127.264">  2  7  1 -1</clus>
<clus scale="   50.404">  1  5  2 -1</clus>
</clustering>
</event>
<event>
 9    1  0.1881049E-005  0.1036796E+03  0.7546771E-02  0.1273698E+00
          2   -1    0    0  502    0 -0.00000000000E+00  0.00000000000E+00  0.31550593255E+02  0.31550593255E+02  0.00000000000E+00 0. -1.
         21   -1    0    0  501  502  0.00000000000E+00 -0.00000000000E+00 -0.49564686894E+03  0.49564686894E+03  0.00000000000E+00 0.  1.
         23    2    1    2    0    0  0.20273815241E+02  0.49802305765E+02 -0.10789637014E+03  0.15190867288E+03  0.92430086892E+02 0.  0.
         23    2    1    2    0    0 -0.96156302857E+01 -0.29954345582E+02 -0.28993328432E+03  0.30529733613E+03  0.90307424544E+02 0.  0.
        -11    1    3    3    0    0  0.30245721075E+02  0.25055121191E+02  0.15015860286E+01  0.39304166470E+02  0.00000000000E+00 0. -1.
         11    1    3    3    0    0 -0.99719058346E+01  0.24747184574E+02 -0.10939795617E+03  0.11260450641E+03  0.00000000000E+00 0.  1.
        -13    1    4    4    0    0  0.18121011987E+02  0.89790128266E+01 -0.12497866707E+02  0.23773733805E+02  0.00000000000E+00 0. -1.
         13    1    4    4    0    0 -0.27736642273E+02 -0.38933358409E+02 -0.27743541761E+03  0.28152360233E+03  0.00000000000E+00 0.  1.
          2    1    1    2  501    0 -0.10658184955E+02 -0.19847960183E+02 -0.66266621232E+02  0.69991453189E+02  0.00000000000E+00 0. -1.
<scales pt_clust_5="13000.00000" pt_clust_6="13000.00000" pt_clust_7="13000.00000" pt_clust_8="13000.00000" pt_clust_9="22.52861"></scales>
<clustering>
<clus scale="   22.529">  2  9  1 -1</clus>
<clus scale="   90.307">  7  8 -1 -1</clus>
<clus scale="   92.430">  5  6 -1 -1</clus>
<clus scale="  101.792">  2  7  1 -1</clus>
<clus scale="   22.529">  2  5  1 -1</clus>
</clustering>
</event>
<event>
 9    1  0.1881049E-005  0.1137268E+03  0.7546771E-02  0.1254320E+00
         21   -1    0    0  501  502  0.00000000000E+00  0.00000000000E+00  0.15115911147E+03  0.15115911147E+03  0.00000000000E+00 0.  1.
          3   -1    0    0  502    0 -0.00000000000E+00 -0.00000000000E+00 -0.18605452794E+03  0.18605452794E+03  0.00000000000E+00 0. -1.
         23    2    1    2    0    0  0.12340699986E+01  0.52444634876E+02 -0.58806325804E+02  0.12062774329E+03  0.91328559827E+02 0.  0.
         23    2    1    2    0    0  0.52438247824E+02 -0.96889090801E+02 -0.20392697112E+01  0.14222569740E+03  0.89926217686E+02 0.  0.
        -11    1    3    3    0    0  0.25054380401E+02  0.68409544108E+02 -0.26729051401E+02  0.77601738969E+02  0.00000000000E+00 0. -1.
         11    1    3    3    0    0 -0.23820310403E+02 -0.15964909231E+02 -0.32077274403E+02  0.43026004318E+02  0.00000000000E+00 0.  1.
        -13    1    4    4    0    0  0.46117544973E+02 -0.35331327440E+02 -0.39162518210E+02  0.70063067914E+02  0.00000000000E+00 0. -1.
         13    1    4    4    0    0  0.63207028515E+01 -0.61557763361E+02  0.37123248498E+02  0.72162629481E+02  0.00000000000E+00 0.  1.
          3    1    1    2  501    0 -0.53672317823E+02  0.44444455925E+02  0.25950179048E+02  0.74360198733E+02  0.00000000000E+00 0. -1.
<scales pt_clust_5="13000.00000" pt_clust_6="13000.00000" pt_clust_7="13000.00000" pt_clust_8="13000.00000" pt_clust_9="69.68520"></scales>
<clustering>
<clus scale="   69.685">  1  9  2 -1</clus>
<clus scale="   89.926">  7  8 -1 -1</clus>
<clus scale="   91.329">  5  6 -1 -1</clus>
<clus scale="  112.604">  1  7  2 -1</clus>
<clus scale="   69.685">  1  5  2 -1</clus>
</clustering>
</event>
<event>
 9    1  0.1881049E-005  0.1801988E+03  0.7546771E-02  0.1167785E+00
         21   -1    0    0  501  502  0.00000000000E+00  0.00000000000E+00  0.47273187034E+02  0.47273187034E+02  0.00000000000E+00 0.  1.
          2   -1    0    0  502    0 -0.00000000000E+00 -0.00000000000E+00 -0.13356267136E+04  0.13356267136E+04  0.00000000000E+00 0. -1.
         23    2    1    2    0    0 -0.60728232076E+02  0.17188093454E+03 -0.70421057677E+03  0.73300764920E+03  0.90314470201E+02 0.  0.
         23    2    1    2    0    0  0.10056963099E+03 -0.73926021314E+02 -0.20289633773E+03  0.25425165530E+03  0.88868853110E+02 0.  0.
        -13    1    4    4    0    0  0.18021744596E+02  0.10233731604E+02 -0.13596881720E+01  0.20769239099E+02  0.00000000000E+00 0.  1.
         13    1    4    4    0    0  0.82547886397E+02 -0.84159752918E+02 -0.20153664956E+03  0.23348241620E+03  0.00000000000E+00 0. -1.
        -13    1    3    3    0    0 -0.19721358550E+02  0.15772060798E+03 -0.51959716670E+03  0.54336538150E+03  0.00000000000E+00 0.  1.
         13    1    3    3    0    0 -0.41006873526E+02  0.14160326567E+02 -0.18461341007E+03  0.18964226771E+03  0.00000000000E+00 0. -1.
          2    1    1    2  501    0 -0.39841398917E+02 -0.97954913230E+02 -0.38124661208E+03  0.39564059614E+03  0.00000000000E+00 0. -1.
<scales pt_clust_5="13000.00000" pt_clust_6="13000.00000" pt_clust_7="13000.00000" pt_clust_8="13000.00000" pt_clust_9="105.74740"></scales>
<clustering>
<clus scale="   88.869">  5  6 -1 -1</clus>
<clus scale="   90.314">  7  8 -1 -1</clus>
<clus scale="  105.747">  1  9  2 -1</clus>
<clus scale="  179.479">  1  5  2 -1</clus>
<clus scale="  105.747">  1  5  2 -1</clus>
</clustering>
</event>
<event>
 9    1  0.1881049E-005  0.1091266E+03  0.7546771E-02  0.1262831E+00
         21   -1    0    0  501  502  0.00000000000E+00  0.00000000000E+00  0.21402044518E+03  0.21402044518E+03  0.00000000000E+00 0.  1.
         -1   -1    0    0    0  501 -0.00000000000E+00 -0.00000000000E+00 -0.67995591778E+03  0.67995591778E+03  0.00000000000E+00 0.  1.
         23    2    1    2    0    0  0.42569248461E+02 -0.84210097223E+01 -0.34141033808E+03  0.35628878160E+03  0.92182550574E+02 0.  0.
         23    2    1    2    0    0 -0.66010287550E+02  0.59846900660E+02 -0.31465248727E+03  0.33933810483E+03  0.90582294415E+02 0.  0.
        -11    1    4    4    0    0 -0.10631803215E+02  0.17657638717E+02 -0.40198383012E+01  0.20999679632E+02  0.00000000000E+00 0. -1.
         11    1    4    4    0    0 -0.55378484335E+02  0.42189261943E+02 -0.31063264897E+03  0.31833842520E+03  0.00000000000E+00 0.  1.
        -13    1    3    3    0    0  0.71412739861E+02 -0.50381794692E+00 -0.22281540734E+03  0.23398021069E+03  0.00000000000E+00 0. -1.
         13    1    3    3    0    0 -0.28843491400E+02 -0.79171917754E+01 -0.11859493074E+03  0.12230857091E+03  0.00000000000E+00 0.  1.
         -1    1    1    2    0  502  0.23441039089E+02 -0.51425890938E+02  0.19012735275E+03  0.19834947653E+03  0.00000000000E+00 0.  1.
<scales pt_clust_5="13000.00000" pt_clust_6="13000.00000" pt_clust_7="13000.00000" pt_clust_8="13000.00000" pt_clust_9="56.51641"></scales>
<clustering>
<clus scale="   56.516">  1  9  2 -1</clus>
<clus scale="   90.582">  5  6 -1 -1</clus>
<clus scale="   92.183">  7  8 -1 -1</clus>
<clus scale="  107.778">  1  5  2 -1</clus>
<clus scale="   56.516">  1  5  2 -1</clus>
</clustering>
</event>
<event>
 9    1  0.1881049E-005  0.1773637E+03  0.7546771E-02  0.1176262E+00
         21   -1    0    0  501  502  0.00000000000E+00  0.00000000000E+00  0.57295325022E+03  0.57295325022E+03  0.00000000000E+00 0. -1.
          1   -1    0    0  502    0 -0.00000000000E+00 -0.00000000000E+00 -0.15100679505E+03  0.15100679505E+03  0.00000000000E+00 0. -1.
         23    2    1    2    0    0 -0.12397016427E+03 -0.24486651494E+02 -0.12384500198E+02  0.15564756165E+03  0.90025495672E+02 0.  0.
         23    2    1    2    0    0  0.25248308233E+02  0.15392459607E+03  0.13338043700E+03  0.22615550085E+03  0.95003743324E+02 0.  0.
        -11    1    4    4    0    0  0.25598317545E+02  0.13255896963E+03  0.56487912681E+02  0.14634902996E+03  0.00000000000E+00 0. -1.
         11    1    4    4    0    0 -0.35000931146E+00  0.21365626441E+02  0.76892524321E+02  0.79806470892E+02  0.00000000000E+00 0.  1.
        -13    1    3    3    0    0 -0.43435595840E+02 -0.16062270589E+02  0.38319634521E+02  0.60108584348E+02  0.00000000000E+00 0.  1.
         13    1    3    3    0    0 -0.80534568430E+02 -0.84243809050E+01 -0.50704134719E+02  0.95538977299E+02  0.00000000000E+00 0. -1.
          1    1    1    2  501    0  0.98721856037E+02 -0.12943794458E+03  0.30095051836E+03  0.34215698277E+03  0.00000000000E+00 0. -1.
<scales pt_clust_5="13000.00000" pt_clust_6="13000.00000" pt_clust_7="13000.00000" pt_clust_8="13000.00000" pt_clust_9="149.77370"></scales>
<clustering>
<clus scale="   90.025">  7  8 -1 -1</clus>
<clus scale="   95.004">  5  6 -1 -1</clus>
<clus scale="  155.154">  2  7  1 -1</clus>
<clus scale="  149.774">  1  9  2 -1</clus>
<clus scale="  149.774">  1  5  2 -1</clus>
</clustering>
</event>
<event>
 9    1  0.1881049E-005  0.2100668E+03  0.7546771E-02  0.1143654E+00
         -1   -1    0    0    0  501 -0.00000000000E+00  0.00000000000E+00  0.29346138174E+03  0.29346138174E+03  0.00000000000E+00 0.  1.
         21   -1    0    0  501  502  0.00000000000E+00 -0.00000000000E+00 -0.24461296805E+03  0.24461296805E+03  0.00000000000E+00 0.  1.
         23    2    1    2    0    0  0.22761646502E+03  0.34985015436E+02  0.11833377204E+03  0.27460762290E+03  0.91505510738E+02 0.  0.
         23    2    1    2    0    0 -0.13820253485E+03  0.12839286163E+02 -0.42885867082E+02  0.15863568346E+03  0.63728286999E+02 0.  0.
        -11    1    4    4    0    0 -0.95565112494E+02  0.23474444253E+02 -0.17185067317E+01  0.98421001439E+02  0.00000000000E+00 0.  1.
         11    1    4    4    0    0 -0.42637422355E+02 -0.10635158090E+02 -0.41167360351E+02  0.60214682021E+02  0.00000000000E+00 0. -1.
        -13    1    3    3    0    0  0.17927599927E+03  0.29166750601E+02  0.45921422740E+02  0.18734823277E+03  0.00000000000E+00 0.  1.
         13    1    3    3    0    0  0.48340465748E+02  0.58182648355E+01  0.72412349300E+02  0.87259390128E+02  0.00000000000E+00 0. -1.
         -1    1    1    2    0  502 -0.89413930171E+02 -0.47824301599E+02 -0.26599491260E+02  0.10483104343E+03  0.00000000000E+00 0.  1.
<scales pt_clust_5="13000.00000" pt_clust_6="13000.00000" pt_clust_7="13000.00000" pt_clust_8="13000.00000" pt_clust_9="101.40027"></scales>
<clustering>
<clus scale="   63.728">  5  6 -1 -1</clus>
<clus scale="   91.506">  7  8 -1 -1</clus>
<clus scale="  101.400">  2  9  1 -1</clus>
<clus scale="  199.540">  2  5  1 -1</clus>
<clus scale="  101.400">  2  5  1 -1</clus>
</clustering>
</event>
<event>
 9    1  0.1881049E-005  0.1395114E+03  0.7546771E-02  0.1234294E+00
          2   -1    0    0  502    0 -0.00000000000E+00  0.00000000000E+00  0.59753081712E+02  0.59753081712E+02  0.00000000000E+00 0. -1.
         21   -1    0    0  501  502  0.00000000000E+00 -0.00000000000E+00 -0.54050083419E+03  0.54050083419E+03  0.00000000000E+00 0. -1.
         23    2    1    2    0    0  0.12868277425E+02 -0.92702024369E+01 -0.19906478698E+03  0.21902441162E+03  0.89963182778E+02 0.  0.
         23    2    1    2    0    0  0.98368792369E+02  0.25436973505E+02 -0.98345977815E+02  0.16617718219E+03  0.87289550312E+02 0.  0.
        -11    1    4    4    0    0  0.33233202079E+02  0.51902225630E+02 -0.60359973313E+02  0.86264784960E+02  0.00000000000E+00 0.  1.
         11    1    4    4    0    0  0.65135590290E+02 -0.26465252125E+02 -0.37986004501E+02  0.79912397226E+02  0.00000000000E+00 0. -1.
        -11    1    3    3    0    0 -0.14528058566E+01 -0.47461094502E+02 -0.13470044230E+03  0.14282463125E+03  0.00000000000E+00 0.  1.
         11    1    3    3    0    0  0.14321083282E+02  0.38190892065E+02 -0.64364344678E+02  0.76199780373E+02  0.00000000000E+00 0. -1.
          2    1    1    2  501    0 -0.11123706979E+03 -0.16166771068E+02 -0.18333698769E+03  0.21505232209E+03  0.00000000000E+00 0. -1.
<scales pt_clust_5="13000.00000" pt_clust_6="13000.00000" pt_clust_7="13000.00000" pt_clust_8="13000.00000" pt_clust_9="108.83003"></scales>
<clustering>
<clus scale="   87.290">  5  6 -1 -1</clus>
<clus scale="   89.963">  7  8 -1 -1</clus>
<clus scale="   91.350">  1  7  2 -1</clus>
<clus scale="  108.830">  2  9  1 -1</clus>
<clus scale="  108.830">  2  5  1 -1</clus>
</clustering>
</event>
<event>
 9    1  0.1881049E-005  0.1085098E+03  0.7546771E-02  0.1267199E+00
         -1   -1    0    0    0  501 -0.00000000000E+00  0.00000000000E+00  0.15890034165E+03  0.15890034165E+03  0.00000000000E+00 0.  1.
         21   -1    0    0  501  502  0.00000000000E+00 -0.00000000000E+00 -0.20122389784E+03  0.20122389784E+03  0.00000000000E+00 0. -1.
         23    2    1    2    0    0 -0.63081550237E+02  0.55994109967E+01  0.11626031550E+03  0.16083249958E+03  0.91323581714E+02 0.  0.
         23    2    1    2    0    0  0.30290398991E+02 -0.24890361087E+00 -0.11971743628E+03  0.14815968213E+03  0.81862425067E+02 0.  0.
        -11    1    3    3    0    0  0.22843161252E+02  0.77453320692E+01  0.35310216767E+02  0.42762268333E+02  0.00000000000E+00 0.  1.
         11    1    3    3    0    0 -0.85924711489E+02 -0.21459210725E+01  0.80950098735E+02  0.11807023125E+03  0.00000000000E+00 0. -1.
        -13    1    4    4    0    0 -0.19721119638E+02 -0.17549160915E+02 -0.72794270754E+02  0.77433206464E+02  0.00000000000E+00 0.  1.
         13    1    4    4    0    0  0.50011518628E+02  0.17300257304E+02 -0.46923165521E+02  0.70726475671E+02  0.00000000000E+00 0. -1.
         -1    1    1    2    0  502  0.32791151247E+02 -0.53505073859E+01 -0.38866435421E+02  0.51132057769E+02  0.00000000000E+00 0.  1.
<scales pt_clust_5="13000.00000" pt_clust_6="13000.00000" pt_clust_7="13000.00000" pt_clust_8="13000.00000" pt_clust_9="33.22480"></scales>
<clustering>
<clus scale="   33.225">  2  9  1 -1</clus>
<clus scale="   81.862">  7  8 -1 -1</clus>
<clus scale="   91.324">  5  6 -1 -1</clus>
<clus scale="  100.677">  2  7  1 -1</clus>
<clus scale="   33.225">  2  5  1 -1</clus>
</clustering>
</event>
<event>
 9    1  0.1881049E-005  0.9609912E+02  0.7546771E-02  0.1288855E+00
         21   -1    0    0  501  502  0.00000000000E+00  0.00000000000E+00  0.13514123331E+03  0.13514123331E+03  0.00000000000E+00 0. -1.
         -2   -1    0    0    0  501 -0.00000000000E+00 -0.00000000000E+00 -0.13455613468E+03  0.13455613468E+03  0.00000000000E+00 0. -1.
         23    2    1    2    0    0 -0.92324946703E+01  0.21617369988E+02 -0.46769677817E+02  0.10549826051E+03  0.91596564147E+02 0.  0.
         23    2    1    2    0    0  0.39502524550E+02 -0.18000356442E+02 -0.75354394632E+01  0.10141142320E+03  0.91340197228E+02 0.  0.
        -13    1    4    4    0    0 -0.50972337934E+01 -0.46544851470E+02  0.47174246189E+01  0.47060164531E+02  0.00000000000E+00 0.  1.
         13    1    4    4    0    0  0.44599758343E+02  0.28544495028E+02 -0.12252864082E+02  0.54351258669E+02  0.00000000000E+00 0. -1.
        -13    1    3    3    0    0  0.17382352700E+02 -0.30985823868E+02 -0.15451833701E+02  0.38743084942E+02  0.00000000000E+00 0.  1.
         13    1    3    3    0    0 -0.26614847370E+02  0.52603193855E+02 -0.31317844117E+02  0.66755175563E+02  0.00000000000E+00 0. -1.
         -2    1    1    2    0  502 -0.30270029879E+02 -0.36170135457E+01  0.54890215903E+02  0.62787684284E+02  0.00000000000E+00 0. -1.
<scales pt_clust_5="13000.00000" pt_clust_6="13000.00000" pt_clust_7="13000.00000" pt_clust_8="13000.00000" pt_clust_9="30.48537"></scales>
<clustering>
<clus scale="   30.485">  1  9  2 -1</clus>
<clus scale="   91.340">  5  6 -1 -1</clus>
<clus scale="   91.597">  7  8 -1 -1</clus>
<clus scale="   95.855">  1  5  2 -1</clus>
<clus scale="   30.485">  1  5  2 -1</clus>
</clustering>
</event>
<event>
 9    1  0.1881049E-005  0.1037281E+03  0.7546771E-02  0.1272954E+00
         21   -1    0    0  501  502  0.00000000000E+00  0.00000000000E+00  0.34936132953E+03  0.34936132953E+03  0.00000000000E+00 0.  1.
          3   -1    0    0  502    0 -0.00000000000E+00 -0.00000000000E+00 -0.48116411904E+02  0.48116411904E+02  0.00000000000E+00 0. -1.
         23    2    1    2    0    0  0.38461348255E+02  0.34236531437E+02  0.59340756376E+02  0.12082546534E+03  0.91793530887E+02 0.  0.
         23    2    1    2    0    0 -0.16462262832E+02 -0.39865531302E+02  0.22977078146E+03  0.25090612484E+03  0.91098873700E+02 0.  0.
        -11    1    3    3    0    0 -0.52173293797E+01 -0.27648030916E+02  0.77673572428E+01  0.29188456245E+02  0.00000000000E+00 0.  1.
         11    1    3    3    0    0  0.43678677635E+02  0.61884562353E+02  0.51573399133E+02  0.91637009094E+02  0.00000000000E+00 0. -1.
        -13    1    4    4    0    0 -0.41774958561E+02 -0.10474779299E+02  0.19198071438E+03  0.19675228806E+03  0.00000000000E+00 0.  1.
         13    1    4    4    0    0  0.25312695729E+02 -0.29390752004E+02  0.37790067075E+02  0.54153836780E+02  0.00000000000E+00 0. -1.
          3    1    1    2  501    0 -0.21999085424E+02  0.56289998652E+01  0.12133379792E+02  0.25746151249E+02  0.00000000000E+00 0. -1.
<scales pt_clust_5="13000.00000" pt_clust_6="13000.00000" pt_clust_7="13000.00000" pt_clust_8="13000.00000" pt_clust_9="22.70784"></scales>
<clustering>
<clus scale="   22.708">  1  9  2 -1</clus>
<clus scale="   91.099">  7  8 -1 -1</clus>
<clus scale="   91.794">  5  6 -1 -1</clus>
<clus scale="  103.114">  1  7  2 -1</clus>
<clus scale="   22.708">  1  5  2 -1</clus>
</clustering>
</event>
<event>
 9    1  0.1881049E-005  0.9385590E+02  0.7546771E-02  0.1296795E+00
         21   -1    0    0  501  502  0.00000000000E+00  0.00000000000E+00  0.28785287644E+03  0.28785287644E+03  0.00000000000E+00 0. -1.
          2   -1    0    0  502    0 -0.00000000000E+00 -0.00000000000E+00 -0.30907500261E+03  0.30907500261E+03  0.00000000000E+00 0. -1.
         23    2    1    2    0    0  0.19312778891E+01  0.31967722985E+01 -0.20636976991E+03  0.22444444480E+03  0.88163925073E+02 0.  0.
         23    2    1    2    0    0  0.28169200483E+02 -0.24008834784E+02 -0.65051362736E+02  0.11962235859E+03  0.93316134065E+02 0.  0.
        -11    1    4    4    0    0 -0.24957366648E+02  0.16548526433E+02 -0.62288746060E+01  0.30586316482E+02  0.00000000000E+00 0.  1.
         11    1    4    4    0    0  0.53126567131E+02 -0.40557361217E+02 -0.58822488130E+02  0.89036042105E+02  0.00000000000E+00 0. -1.
        -11    1    3    3    0    0  0.12334195408E+02  0.32990259278E+02 -0.17972306964E+03  0.18314167014E+03  0.00000000000E+00 0.  1.
         11    1    3    3    0    0 -0.10402917519E+02 -0.29793486979E+02 -0.26646700271E+02  0.41302774660E+02  0.00000000000E+00 0. -1.
          2    1    1    2  501    0 -0.30100478372E+02  0.20812062485E+02  0.25019900648E+03  0.25286107566E+03  0.00000000000E+00 0. -1.
<scales pt_clust_5="13000.00000" pt_clust_6="13000.00000" pt_clust_7="13000.00000" pt_clust_8="13000.00000" pt_clust_9="36.59482"></scales>
<clustering>
<clus scale="   36.595">  1  9  2 -1</clus>
<clus scale="   88.164">  7  8 -1 -1</clus>
<clus scale="   88.735">  2  7  1 -1</clus>
<clus scale="   93.316">  5  6 -1 -1</clus>
<clus scale="   36.595">  1  5  2 -1</clus>
</clustering>
</event>
<event>
 9    1  0.1881049E-005  0.1265950E+03  0.7546771E-02  0.1232714E+00
          1   -1    0    0  502    0 -0.00000000000E+00  0.00000000000E+00  0.91524020729E+03  0.91524020729E+03  0.00000000000E+00 0. -1.
         21   -1    0    0  501  502  0.00000000000E+00 -0.00000000000E+00 -0.26318430558E+02  0.26318430558E+02  0.00000000000E+00 0. -1.
         23    2    1    2    0    0 -0.45325544595E+02 -0.85200438004E+02  0.64024672844E+03  0.65384567212E+03  0.91020712221E+02 0.  0.
         23    2    1    2    0    0  0.38859730160E+02  0.54875758192E+02  0.18898128209E+03  0.22044678785E+03  0.91440876130E+02 0.  0.
        -11    1    4    4    0    0  0.10381728764E+02  0.59364365067E+02  0.18065050647E+03  0.19043768960E+03  0.00000000000E+00 0.  1.
         11    1    4    4    0    0  0.28478001396E+02 -0.44886068750E+01  0.83307756146E+01  0.30009098246E+02  0.00000000000E+00 0. -1.
        -13    1    3    3    0    0 -0.94620375231E+01 -0.88845314318E+02  0.53939790309E+03  0.54674776441E+03  0.00000000000E+00 0. -1.
         13    1    3    3    0    0 -0.35863507072E+02  0.36448763136E+01  0.10084882534E+03  0.10709790771E+03  0.00000000000E+00 0.  1.
          1    1    1    2  501    0  0.64658144352E+01  0.30324679812E+02  0.59693766211E+02  0.67266177880E+02  0.00000000000E+00 0. -1.
<scales pt_clust_5="13000.00000" pt_clust_6="13000.00000" pt_clust_7="13000.00000" pt_clust_8="13000.00000" pt_clust_9="31.00634"></scales>
<clustering>
<clus scale="   31.006">  2  9  1 -1</clus>
<clus scale="   91.021">  7  8 -1 -1</clus>
<clus scale="   91.441">  5  6 -1 -1</clus>
<clus scale="  126.292">  1  7  2 -1</clus>
<clus scale="   31.006">  2  5  1 -1</clus>
</clustering>
</event>
<event>
 9    1  0.1881049E-005  0.1021883E+03  0.7546771E-02  0.1280136E+00
          3   -1    0    0  502    0 -0.00000000000E+00  0.00000000000E+00  0.39200560581E+03  0.39200560581E+03  0.00000000000E+00 0. -1.
         21   -1    0    0  501  502  0.00000000000E+00 -0.00000000000E+00 -0.39988340065E+02  0.39988340065E+02  0.00000000000E+00 0.  1.
         23    2    1    2    0    0  0.14549960821E+02 -0.14613819623E+02  0.19966780661E+03  0.21953069618E+03  0.88888854686E+02 0.  0.
         23    2    1    2    0    0 -0.26525239946E+02  0.41523228309E+02  0.14597037193E+03  0.18232662182E+03  0.97508362210E+02 0.  0.
        -11    1    4    4    0    0  0.18845317572E+02 -0.22993399020E+02  0.49206743680E+02  0.57490399342E+02  0.00000000000E+00 0. -1.
         11    1    4    4    0    0 -0.45370557518E+02  0.64516627329E+02  0.96763628247E+02  0.12483622248E+03  0.00000000000E+00 0.  1.
        -13    1    3    3    0    0 -0.22143725107E+02 -0.20780289475E+02  0.16784534764E+03  0.17057029553E+03  0.00000000000E+00 0. -1.
         13    1    3    3    0    0  0.36693685928E+02  0.61664698521E+01  0.31822458964E+02  0.48960400652E+02  0.00000000000E+00 0.  1.
          3    1    1    2  501    0  0.11975279124E+02 -0.26909408686E+02  0.63790872125E+01  0.30136627874E+02  0.00000000000E+00 0. -1.
<scales pt_clust_5="13000.00000" pt_clust_6="13000.00000" pt_clust_7="13000.00000" pt_clust_8="13000.00000" pt_clust_9="29.45375"></scales>
<clustering>
<clus scale="   29.454">  2  9  1 -1</clus>
<clus scale="   88.889">  7  8 -1 -1</clus>
<clus scale="   93.999">  1  7  2 -1</clus>
<clus scale="   97.508">  5  6 -1 -1</clus>
<clus scale="   29.454">  2  5  1 -1</clus>
</clustering>
</event>
<event>
 9    1  0.1881049E-005  0.9397387E+02  0.7546771E-02  0.1293921E+00
         21   -1    0    0  501  502  0.00000000000E+00  0.00000000000E+00  0.16507420958E+03  0.16507420958E+03  0.00000000000E+00 0.  1.
          1   -1    0    0  502    0 -0.00000000000E+00 -0.00000000000E+00 -0.11698777213E+03  0.11698777213E+03  0.00000000000E+00 0. -1.
         23    2    1    2    0    0 -0.78587001758E+01  0.13386152695E+02 -0.31981401132E+02  0.99543022228E+02  0.92978787922E+02 0.  0.
         23    2    1    2    0    0 -0.30533525924E+02  0.14771479849E+02  0.13340072486E+02  0.10054695168E+03  0.93708266104E+02 0.  0.
        -11    1    4    4    0    0 -0.42704655463E+02 -0.14390987672E+02  0.39189258776E+02  0.59720901934E+02  0.00000000000E+00 0.  1.
         11    1    4    4    0    0  0.12171129538E+02  0.29162467520E+02 -0.25849186290E+02  0.40826049747E+02  0.00000000000E+00 0. -1.
        -13    1    3    3    0    0 -0.44947827797E+02  0.98888315248E+01  0.59157563840E+01  0.46401426553E+02  0.00000000000E+00 0.  1.
         13    1    3    3    0    0  0.37089127621E+02  0.34973211697E+01 -0.37897157516E+02  0.53141595674E+02  0.00000000000E+00 0. -1.
          1    1    1    2  501    0  0.38392226100E+02 -0.28157632543E+02  0.66727766089E+02  0.81972007799E+02  0.00000000000E+00 0. -1.
<scales pt_clust_5="13000.00000" pt_clust_6="13000.00000" pt_clust_7="13000.00000" pt_clust_8="13000.00000" pt_clust_9="47.61108"></scales>
<clustering>
<clus scale="   47.611">  1  9  2 -1</clus>
<clus scale="   92.979">  7  8 -1 -1</clus>
<clus scale="   93.246">  2  7  1 -1</clus>
<clus scale="   93.708">  5  6 -1 -1</clus>
<clus scale="   47.611">  1  5  2 -1</clus>
</clustering>
</event>
<event>
 9    1  0.1881049E-005  0.9876305E+02  0.7546771E-02  0.1284056E+00
          1   -1    0    0  502    0 -0.00000000000E+00  0.00000000000E+00  0.17536230642E+03  0.17536230642E+03  0.00000000000E+00 0. -1.
         21   -1    0    0  501  502  0.00000000000E+00 -0.00000000000E+00 -0.56202165103E+03  0.56202165103E+03  0.00000000000E+00 0.  1.
         23    2    1    2    0    0  0.92807335352E+01 -0.59623713820E+01  0.78426139340E+02  0.12379866398E+03  0.95151289976E+02 0.  0.
         23    2    1    2    0    0  0.55386120753E+01 -0.62479327721E+02  0.25081903605E+02  0.11844092361E+03  0.97287244185E+02 0.  0.
        -11    1    3    3    0    0  0.15939159547E+01 -0.31679931536E+02  0.89354375566E+02  0.94817525083E+02  0.00000000000E+00 0.  1.
         11    1    3    3    0    0  0.76868175805E+01  0.25717560154E+02 -0.10928236226E+02  0.28981138897E+02  0.00000000000E+00 0. -1.
        -13    1    4    4    0    0  0.36189347616E+02 -0.73055156557E+02  0.27207042467E+02  0.85947355633E+02  0.00000000000E+00 0.  1.
         13    1    4    4    0    0 -0.30650735540E+02  0.10575828837E+02 -0.21251388614E+01  0.32493567978E+02  0.00000000000E+00 0. -1.
          1    1    1    2  501    0 -0.14819345611E+02  0.68441699103E+02 -0.49016738755E+03  0.49514436985E+03  0.00000000000E+00 0. -1.
<scales pt_clust_5="13000.00000" pt_clust_6="13000.00000" pt_clust_7="13000.00000" pt_clust_8="13000.00000" pt_clust_9="70.02770"></scales>
<clustering>
<clus scale="   70.028">  2  9  1 -1</clus>
<clus scale="   95.151">  5  6 -1 -1</clus>
<clus scale="   96.660">  1  5  2 -1</clus>
<clus scale="   97.287">  7  8 -1 -1</clus>
<clus scale="   70.028">  2  5  1 -1</clus>
</clustering>
</event>
<event>
 9    1  0.1881049E-005  0.9508291E+02  0.7546771E-02  0.1292030E+00
          1   -1    0    0  502    0 -0.00000000000E+00  0.00000000000E+00  0.22792977125E+03  0.22792977125E+03  0.00000000000E+00 0. -1.
         21   -1    0    0  501  502  0.00000000000E+00 -0.00000000000E+00 -0.12083010110E+03  0.12083010110E+03  0.00000000000E+00 0.  1.
         23    2    1    2    0    0  0.22798399303E+02 -0.53643173047E+01  0.16027067775E+03  0.18523027261E+03  0.89861119714E+02 0.  0.
         23    2    1    2    0    0 -0.40761152341E+02 -0.24244980303E+02 -0.70248156958E+02  0.12491613017E+03  0.91760260526E+02 0.  0.
        -13    1    4    4    0    0  0.19268628878E+02  0.73416447248E+01  0.73119864938E+01  0.21877955860E+02  0.00000000000E+00 0. -1.
         13    1    4    4    0    0 -0.60029781220E+02 -0.31586625028E+02 -0.77560143452E+02  0.10303817431E+03  0.00000000000E+00 0.  1.
        -13    1    3    3    0    0 -0.14938291086E+02  0.34213130330E+02  0.77551661625E+02  0.86069454793E+02  0.00000000000E+00 0.  1.
         13    1    3    3    0    0  0.37736690388E+02 -0.39577447635E+02  0.82719016120E+02  0.99160817820E+02  0.00000000000E+00 0. -1.
          1    1    1    2  501    0  0.17962753038E+02  0.29609297608E+02  0.17077149355E+02  0.38613469562E+02  0.00000000000E+00 0. -1.
<scales pt_clust_5="13000.00000" pt_clust_6="13000.00000" pt_clust_7="13000.00000" pt_clust_8="13000.00000" pt_clust_9="34.63195"></scales>
<clustering>
<clus scale="   34.632">  2  9  1 -1</clus>
<clus scale="   89.861">  7  8 -1 -1</clus>
<clus scale="   91.760">  5  6 -1 -1</clus>
<clus scale="   93.251">  1  7  2 -1</clus>
<clus scale="   34.632">  2  5  1 -1</clus>
</clustering>
</event>
<event>
 9    1  0.1881049E-005  0.9432950E+02  0.7546771E-02  0.1296987E+00
          3   -1    0    0  502    0 -0.00000000000E+00  0.00000000000E+00  0.17248039745E+03  0.17248039745E+03  0.00000000000E+00 0. -1.
         21   -1    0    0  501  502  0.00000000000E+00 -0.00000000000E+00 -0.40337056600E+03  0.40337056600E+03  0.00000000000E+00 0. -1.
         23    2    1    2    0    0 -0.95155827192E+01 -0.22629625722E+02  0.59048378109E+02  0.10650714957E+03  0.85172857639E+02 0.  0.
         23    2    1    2    0    0  0.28510625998E+02 -0.24640082285E+02  0.59436354862E+02  0.11627433236E+03  0.92558363413E+02 0.  0.
        -13    1    3    3    0    0  0.36806534947E+02 -0.14790985428E+02  0.15954594235E+02  0.42755623512E+02  0.00000000000E+00 0. -1.
         13    1    3    3    0    0 -0.46322117666E+02 -0.78386402937E+01  0.43093783874E+02  0.63751526063E+02  0.00000000000E+00 0.  1.
        -13    1    4    4    0    0 -0.13252882739E+02 -0.38550381977E+02 -0.18627226046E+01  0.40807359470E+02  0.00000000000E+00 0.  1.
         13    1    4    4    0    0  0.41763508737E+02  0.13910299691E+02  0.61299077467E+02  0.75466972894E+02  0.00000000000E+00 0. -1.
          3    1    1    2  501    0 -0.18995043279E+02  0.47269708007E+02 -0.34937490152E+03  0.35306948152E+03  0.00000000000E+00 0. -1.
<scales pt_clust_5="13000.00000" pt_clust_6="13000.00000" pt_clust_7="13000.00000" pt_clust_8="13000.00000" pt_clust_9="50.94347"></scales>
<clustering>
<clus scale="   50.943">  2  9  1 -1</clus>
<clus scale="   85.173">  5  6 -1 -1</clus>
<clus scale="   87.094">  1  5  2 -1</clus>
<clus scale="   92.558">  7  8 -1 -1</clus>
<clus scale="   50.943">  2  5  1 -1</clus>
</clustering>
</event>
<event>
 9    1  0.1881049E-005  0.1586206E+03  0.7546771E-02  0.1209413E+00
         21   -1    0    0  501  502  0.00000000000E+00  0.00000000000E+00  0.31880958700E+03  0.31880958700E+03  0.00000000000E+00 0.  1.
         -1   -1    0    0    0  501 -0.00000000000E+00 -0.00000000000E+00 -0.30793361093E+03  0.30793361093E+03  0.00000000000E+00 0.  1.
         23    2    1    2    0    0  0.50104417631E+02  0.17936540789E+02 -0.21783731083E+03  0.24166286323E+03  0.90087031882E+02 0.  0.
         23    2    1    2    0    0 -0.91314097871E+02 -0.12886484497E+03  0.94381523247E+02  0.20605980755E+03  0.92781246040E+02 0.  0.
        -11    1    3    3    0    0  0.26873871714E+01 -0.29051724557E+02 -0.28029683022E+02  0.40458471051E+02  0.00000000000E+00 0. -1.
         11    1    3    3    0    0  0.47417030460E+02  0.46988265346E+02 -0.18980762781E+03  0.20120439218E+03  0.00000000000E+00 0.  1.
        -13    1    4    4    0    0 -0.49750153344E+02 -0.31041415128E+02 -0.71462799904E+01  0.59073822702E+02  0.00000000000E+00 0.  1.
         13    1    4    4    0    0 -0.41563944527E+02 -0.97823429843E+02  0.10152780324E+03  0.14698598485E+03  0.00000000000E+00 0. -1.
         -1    1    1    2    0  502  0.41209680240E+02  0.11092830418E+03  0.13433176366E+03  0.17902052715E+03  0.00000000000E+00 0.  1.
<scales pt_clust_5="13000.00000" pt_clust_6="13000.00000" pt_clust_7="13000.00000" pt_clust_8="13000.00000" pt_clust_9="128.65509"></scales>
<clustering>
<clus scale="   90.087">  5  6 -1 -1</clus>
<clus scale="   92.781">  7  8 -1 -1</clus>
<clus scale="  104.632">  2  5  1 -1</clus>
<clus scale="  128.655">  1  9  2 -1</clus>
<clus scale="  128.655">  1  5  2 -1</clus>
</clustering>
</event>
<event>
 9    1  0.1881049E-005  0.9722410E+02  0.7546771E-02  0.1287341E+00
         -4   -1    0    0    0  501 -0.00000000000E+00  0.00000000000E+00  0.28176121195E+03  0.28176121195E+03  0.00000000000E+00 0.  1.
         21   -1    0    0  501  502  0.00000000000E+00 -0.00000000000E+00 -0.95897996341E+02  0.95897996341E+02  0.00000000000E+00 0. -1.
         23    2    1    2    0    0  0.41207270646E+01  0.35348840142E+02  0.23323258444E+03  0.25308918838E+03  0.91597914483E+02 0.  0.
         23    2    1    2    0    0 -0.54088691953E+01 -0.13804874879E+02 -0.26381216717E+02  0.94465131962E+02  0.89486658920E+02 0.  0.
        -13    1    3    3    0    0  0.41748405475E+02  0.41407789865E+02  0.12035374313E+03  0.13394983355E+03  0.00000000000E+00 0. -1.
         13    1    3    3    0    0 -0.37627678410E+02 -0.60589497238E+01  0.11287884131E+03  0.11913935483E+03  0.00000000000E+00 0.  1.
        -13    1    4    4    0    0  0.25815017404E+02  0.20754515751E+02  0.10831112353E+02  0.34849362153E+02  0.00000000000E+00 0.  1.
         13    1    4    4    0    0 -0.31223886599E+02 -0.34559390630E+02 -0.37212329070E+02  0.59615769809E+02  0.00000000000E+00 0. -1.
         -4    1    1    2    0  502  0.12881421306E+01 -0.21543965262E+02 -0.20988152115E+02  0.30104887952E+02  0.00000000000E+00 0.  1.
<scales pt_clust_5="13000.00000" pt_clust_6="13000.00000" pt_clust_7="13000.00000" pt_clust_8="13000.00000" pt_clust_9="21.58244"></scales>
<clustering>
<clus scale="   21.582">  2  9  1 -1</clus>
<clus scale="   89.487">  7  8 -1 -1</clus>
<clus scale="   91.598">  5  6 -1 -1</clus>
<clus scale="   95.238">  2  7  1 -1</clus>
<clus scale="   21.582">  2  5  1 -1</clus>
</clustering>
</event>
<event>
 9    1  0.1881049E-005  0.9442596E+02  0.7546771E-02  0.1294483E+00
         21   -1    0    0  501  502  0.00000000000E+00  0.00000000000E+00  0.48665766375E+02  0.48665766375E+02  0.00000000000E+00 0.  1.
         -1   -1    0    0    0  501 -0.00000000000E+00 -0.00000000000E+00 -0.33748349637E+03  0.33748349637E+03  0.00000000000E+00 0.  1.
         23    2    1    2    0    0 -0.38283516278E+01  0.11726339921E+02 -0.18200218516E+03  0.20513179684E+03  0.93819482766E+02 0.  0.
         23    2    1    2    0    0 -0.26157288062E+02  0.74558033697E+00 -0.11397292432E+03  0.14776215861E+03  0.90327561849E+02 0.  0.
        -11    1    4    4    0    0 -0.32857284047E+02 -0.18541802758E+02 -0.63979091497E+01  0.38266601704E+02  0.00000000000E+00 0. -1.
         11    1    4    4    0    0  0.66999959845E+01  0.19287383095E+02 -0.10757501517E+03  0.10949555690E+03  0.00000000000E+00 0.  1.
        -11    1    3    3    0    0  0.23122508175E+02  0.45399596799E+02 -0.10945827887E+03  0.12073478615E+03  0.00000000000E+00 0.  1.
         11    1    3    3    0    0 -0.26950859803E+02 -0.33673256878E+02 -0.72543906288E+02  0.84397010684E+02  0.00000000000E+00 0. -1.
         -1    1    1    2    0  502  0.29985639690E+02 -0.12471920258E+02  0.71573794842E+01  0.33255307300E+02  0.00000000000E+00 0.  1.
<scales pt_clust_5="13000.00000" pt_clust_6="13000.00000" pt_clust_7="13000.00000" pt_clust_8="13000.00000" pt_clust_9="32.47595"></scales>
<clustering>
<clus scale="   32.476">  1  9  2 -1</clus>
<clus scale="   90.328">  5  6 -1 -1</clus>
<clus scale="   90.957">  1  5  2 -1</clus>
<clus scale="   93.819">  7  8 -1 -1</clus>
<clus scale="   32.476">  1  5  2 -1</clus>
</clustering>
</event>
<event>
 9    1  0.1881049E-005  0.1106536E+03  0.7546771E-02  0.1260601E+00
         21   -1    0    0  501  502  0.00000000000E+00  0.00000000000E+00  0.21349820255E+03  0.21349820255E+03  0.00000000000E+00 0.  1.
         -1   -1    0    0    0  501 -0.00000000000E+00 -0.00000000000E+00 -0.10217071526E+03  0.10217071526E+03  0.00000000000E+00 0.  1.
         23    2    1    2    0    0  0.15612447056E+02 -0.29450487097E+02  0.36996172355E+02  0.10389235768E+03  0.91180181632E+02 0.  0.
         23    2    1    2    0    0 -0.47372687965E+02  0.84470026301E+02  0.29712375207E+02  0.13414465702E+03  0.87935242414E+02 0.  0.
        -13    1    4    4    0    0 -0.74219379497E+01  0.60752419376E+02  0.54087073229E+02  0.81678351559E+02  0.00000000000E+00 0. -1.
         13    1    4    4    0    0 -0.39950750016E+02  0.23717606925E+02 -0.24374698022E+02  0.52466305461E+02  0.00000000000E+00 0.  1.
        -13    1    3    3    0    0  0.40541787208E+02 -0.44818272568E+02  0.51893233772E+01  0.60656765023E+02  0.00000000000E+00 0.  1.
         13    1    3    3    0    0 -0.24929340151E+02  0.15367785471E+02  0.31806848977E+02  0.43235592658E+02  0.00000000000E+00 0. -1.
         -1    1    1    2    0  502  0.31760240909E+02 -0.55019539204E+02  0.44618939737E+02  0.77631903107E+02  0.00000000000E+00 0.  1.
<scales pt_clust_5="13000.00000" pt_clust_6="13000.00000" pt_clust_7="13000.00000" pt_clust_8="13000.00000" pt_clust_9="63.52844"></scales>
<clustering>
<clus scale="   63.528">  1  9  2 -1</clus>
<clus scale="   87.935">  5  6 -1 -1</clus>
<clus scale="   91.180">  7  8 -1 -1</clus>
<clus scale="  107.995">  1  5  2 -1</clus>
<clus scale="   63.528">  1  5  2 -1</clus>
</clustering>
</event>
<event>
 9    1  0.1881049E-005  0.9344649E+02  0.7546771E-02  0.1294742E+00
          1   -1    0    0  502    0 -0.00000000000E+00  0.00000000000E+00  0.41384256994E+03  0.41384256994E+03  0.00000000000E+00 0. -1.
         21   -1    0    0  501  502  0.00000000000E+00 -0.00000000000E+00 -0.33039880750E+02  0.33039880750E+02  0.00000000000E+00 0.  1.
         23    2    1    2    0    0  0.72104737187E+01  0.28726131900E+02  0.19674064641E+03  0.21786303523E+03  0.88770707919E+02 0.  0.
         23    2    1    2    0    0 -0.31983709145E+02 -0.14674911376E+02  0.17456151750E+03  0.19899592512E+03  0.88821980092E+02 0.  0.
        -13    1    4    4    0    0 -0.31487642350E+02  0.27921943714E+02  0.40802017401E+02  0.58616645976E+02  0.00000000000E+00 0. -1.
         13    1    4    4    0    0 -0.49606679519E+00 -0.42596855089E+02  0.13375950010E+03  0.14037927915E+03  0.00000000000E+00 0.  1.
        -13    1    3    3    0    0 -0.14004966433E+02 -0.28803078265E+02  0.75022372368E+02  0.81572745192E+02  0.00000000000E+00 0.  1.
         13    1    3    3    0    0  0.21215440151E+02  0.57529210165E+02  0.12171827404E+03  0.13629029004E+03  0.00000000000E+00 0. -1.
          1    1    1    2  501    0  0.24773235426E+02 -0.14051220524E+02  0.95005252805E+01  0.30023490342E+02  0.00000000000E+00 0. -1.
<scales pt_clust_5="13000.00000" pt_clust_6="13000.00000" pt_clust_7="13000.00000" pt_clust_8="13000.00000" pt_clust_9="28.48070"></scales>
<clustering>
<clus scale="   28.481">  2  9  1 -1</clus>
<clus scale="   88.771">  7  8 -1 -1</clus>
<clus scale="   88.822">  5  6 -1 -1</clus>
<clus scale="   93.398">  1  7  2 -1</clus>
<clus scale="   28.481">  2  5  1 -1</clus>
</clustering>
</event>
<event>
 9    1  0.1881049E-005  0.9472331E+02  0.7546771E-02  0.1292664E+00
          2   -1    0    0  502    0 -0.00000000000E+00  0.00000000000E+00  0.16791401679E+03  0.16791401679E+03  0.00000000000E+00 0. -1.
         21   -1    0    0  501  502  0.00000000000E+00 -0.00000000000E+00 -0.11520631688E+03  0.11520631688E+03  0.00000000000E+00 0. -1.
         23    2    1    2    0    0  0.12002443982E+02 -0.16176591871E+02  0.45266623569E+02  0.10453424611E+03  0.92046730603E+02 0.  0.
         23    2    1    2    0    0 -0.34285510822E+02 -0.49010653065E+02  0.14070377681E+02  0.10937727594E+03  0.90486864222E+02 0.  0.
        -11    1    4    4    0    0 -0.62566785386E+02 -0.21728584102E+02  0.20986295027E+02  0.69477756006E+02  0.00000000000E+00 0. -1.
         11    1    4    4    0    0  0.28281274564E+02 -0.27282068963E+02 -0.69159173468E+01  0.39899519929E+02  0.00000000000E+00 0.  1.
        -11    1    3    3    0    0 -0.97406497589E+01  0.30688858571E+02 -0.48447521798E+01  0.32560066366E+02  0.00000000000E+00 0.  1.
         11    1    3    3    0    0  0.21743093741E+02 -0.46865450442E+02  0.50111375748E+02  0.71974179745E+02  0.00000000000E+00 0. -1.
          2    1    1    2  501    0  0.22283066841E+02  0.65187244936E+02 -0.66293013305E+01  0.69208811624E+02  0.00000000000E+00 0. -1.
<scales pt_clust_5="13000.00000" pt_clust_6="13000.00000" pt_clust_7="13000.00000" pt_clust_8="13000.00000" pt_clust_9="68.89058"></scales>
<clustering>
<clus scale="   68.891">  2  9  1 -1</clus>
<clus scale="   90.487">  5  6 -1 -1</clus>
<clus scale="   92.047">  7  8 -1 -1</clus>
<clus scale="   93.208">  2  5  1 -1</clus>
<clus scale="   68.891">  2  5  1 -1</clus>
</clustering>
</event>
<event>
 9    1  0.1881049E-005  0.2623143E+03  0.7546771E-02  0.1105969E+00
          3   -1    0    0  502    0 -0.00000000000E+00  0.00000000000E+00  0.81444598430E+03  0.81444598430E+03  0.00000000000E+00 0. -1.
         21   -1    0    0  501  502  0.00000000000E+00 -0.00000000000E+00 -0.28103296818E+03  0.28103296818E+03  0.00000000000E+00 0. -1.
         23    2    1    2    0    0  0.73007133122E+02 -0.28382920117E+03  0.55861757462E+03  0.63688831935E+03  0.87658882832E+02 0.  0.
         23    2    1    2    0    0 -0.73989638393E+02  0.16789743764E+03  0.14602847080E+03  0.25180115217E+03  0.91735978734E+02 0.  0.
        -13    1    4    4    0    0  0.10983343276E+02  0.50929924671E+02  0.73393460083E+02  0.90006061126E+02  0.00000000000E+00 0.  1.
         13    1    4    4    0    0 -0.84972981669E+02  0.11696751297E+03  0.72635010716E+02  0.16179509104E+03  0.00000000000E+00 0. -1.
        -13    1    3    3    0    0  0.51849652736E+02 -0.55859890987E+02  0.12109104558E+03  0.14307954162E+03  0.00000000000E+00 0.  1.
         13    1    3    3    0    0  0.21157480386E+02 -0.22796931018E+03  0.43752652903E+03  0.49380877773E+03  0.00000000000E+00 0. -1.
          3    1    1    2  501    0  0.98250527065E+00  0.11593176353E+03 -0.17123302930E+03  0.20678948096E+03  0.00000000000E+00 0. -1.
<scales pt_clust_5="13000.00000" pt_clust_6="13000.00000" pt_clust_7="13000.00000" pt_clust_8="13000.00000" pt_clust_9="115.93593"></scales>
<clustering>
<clus scale="   87.659">  7  8 -1 -1</clus>
<clus scale="   91.736">  5  6 -1 -1</clus>
<clus scale="  115.936">  2  9  1 -1</clus>
<clus scale="  260.916">  1  7  2 -1</clus>
<clus scale="  115.936">  2  5  1 -1</clus>
</clustering>
</event>
<event>
 9    1  0.1881049E-005  0.1003973E+03  0.7546771E-02  0.1281967E+00
         21   -1    0    0  501  502  0.00000000000E+00  0.00000000000E+00  0.26157714368E+02  0.26157714368E+02  0.00000000000E+00 0. -1.
         -2   -1    0    0    0  501 -0.00000000000E+00 -0.00000000000E+00 -0.78694373181E+03  0.78694373181E+03  0.00000000000E+00 0.  1.
         23    2    1    2    0    0  0.19214369262E+02  0.18522300839E+02 -0.41770567593E+03  0.42772315782E+03  0.88072699622E+02 0.  0.
         23    2    1    2    0    0 -0.24119680024E+02 -0.53606923772E+02 -0.32953819310E+03  0.34745227322E+03  0.93124648799E+02 0.  0.
        -11    1    3    3    0    0 -0.80234112318E+01  0.48365570665E+02 -0.17764702849E+03  0.18428800906E+03  0.00000000000E+00 0.  1.
         11    1    3    3    0    0  0.27237780494E+02 -0.29843269826E+02 -0.24005864744E+03  0.24343514876E+03  0.00000000000E+00 0. -1.
        -13    1    4    4    0    0 -0.45145701592E+02 -0.66450540228E+02 -0.28950626804E+03  0.30044581526E+03  0.00000000000E+00 0. -1.
         13    1    4    4    0    0  0.21026021568E+02  0.12843616456E+02 -0.40031925061E+02  0.47006457969E+02  0.00000000000E+00 0.  1.
         -2    1    1    2    0  502  0.49053107620E+01  0.35084622933E+02 -0.13542148405E+02  0.37926015128E+02  0.00000000000E+00 0.  1.
<scales pt_clust_5="13000.00000" pt_clust_6="13000.00000" pt_clust_7="13000.00000" pt_clust_8="13000.00000" pt_clust_9="35.42588"></scales>
<clustering>
<clus scale="   35.426">  1  9  2 -1</clus>
<clus scale="   88.073">  5  6 -1 -1</clus>
<clus scale="   93.125">  7  8 -1 -1</clus>
<clus scale="   95.730">  2  5  1 -1</clus>
<clus scale="   35.426">  1  5  2 -1</clus>
</clustering>
</event>
<event>
 9    1  0.1881049E-005  0.1245907E+03  0.7546771E-02  0.1237254E+00
         21   -1    0    0  501  502  0.00000000000E+00  0.00000000000E+00  0.22395370693E+03  0.22395370693E+03  0.00000000000E+00 0. -1.
         -2   -1    0    0    0  501 -0.00000000000E+00 -0.00000000000E+00 -0.12235436751E+03  0.12235436751E+03  0.00000000000E+00 0.  1.
         23    2    1    2    0    0  0.57202117308E+02 -0.58482559840E+02 -0.43421808755E+02  0.13004188796E+03  0.91286072973E+02 0.  0.
         23    2    1    2    0    0 -0.49048520398E+02  0.84935290630E+02  0.13243711570E+03  0.18585918100E+03  0.85931860200E+02 0.  0.
        -13    1    3    3    0    0  0.93655318458E+01 -0.69956201557E+02 -0.39029487353E+02  0.80652862355E+02  0.00000000000E+00 0.  1.
         13    1    3    3    0    0  0.47836585462E+02  0.11473641717E+02 -0.43923214020E+01  0.49389025605E+02  0.00000000000E+00 0. -1.
        -13    1    4    4    0    0 -0.45181984846E+02  0.15659069640E+02  0.96551933713E+02  0.10774457815E+03  0.00000000000E+00 0.  1.
         13    1    4    4    0    0 -0.38665355518E+01  0.69276220990E+02  0.35885181991E+02  0.78114602850E+02  0.00000000000E+00 0. -1.
         -2    1    1    2    0  502 -0.81535969102E+01 -0.26452730790E+02  0.12584032478E+02  0.30407005480E+02  0.00000000000E+00 0.  1.
<scales pt_clust_5="13000.00000" pt_clust_6="13000.00000" pt_clust_7="13000.00000" pt_clust_8="13000.00000" pt_clust_9="27.68083"></scales>
<clustering>
<clus scale="   27.681">  1  9  2 -1</clus>
<clus scale="   85.932">  7  8 -1 -1</clus>
<clus scale="   91.286">  5  6 -1 -1</clus>
<clus scale="  120.723">  1  7  2 -1</clus>
<clus scale="   27.681">  1  5  2 -1</clus>
</clustering>
</event>
<event>
 9    1  0.1881049E-005  0.2044205E+03  0.7546771E-02  0.1146264E+00
         21   -1    0    0  501  502  0.00000000000E+00  0.00000000000E+00  0.20118421695E+03  0.20118421695E+03  0.00000000000E+00 0. -1.
          1   -1    0    0  502    0 -0.00000000000E+00 -0.00000000000E+00 -0.79974968947E+03  0.79974968947E+03  0.00000000000E+00 0. -1.
         23    2    1    2    0    0  0.87912703420E+02 -0.17231713690E+03 -0.56630767304E+03  0.60559579173E+03  0.92844188418E+02 0.  0.
         23    2    1    2    0    0 -0.92191127788E+02  0.13090127038E+03 -0.17057080045E+03  0.25089412849E+03  0.90659357575E+02 0.  0.
        -11    1    4    4    0    0 -0.95916859919E+02  0.60334299586E+02 -0.10360627439E+03  0.15354000070E+03  0.00000000000E+00 0.  1.
         11    1    4    4    0    0  0.37257321304E+01  0.70566970796E+02 -0.66964526056E+02  0.97354127787E+02  0.00000000000E+00 0. -1.
        -13    1    3    3    0    0  0.10163310454E+03 -0.12505879873E+03 -0.47891967447E+03  0.50530490367E+03  0.00000000000E+00 0. -1.
         13    1    3    3    0    0 -0.13720401122E+02 -0.47258338168E+02 -0.87387998575E+02  0.10029088806E+03  0.00000000000E+00 0.  1.
          1    1    1    2  501    0  0.42784243682E+01  0.41415866513E+02  0.13831300096E+03  0.14444398620E+03  0.00000000000E+00 0. -1.
<scales pt_clust_5="13000.00000" pt_clust_6="13000.00000" pt_clust_7="13000.00000" pt_clust_8="13000.00000" pt_clust_9="41.63627"></scales>
<clustering>
<clus scale="   41.636">  1  9  2 -1</clus>
<clus scale="   90.659">  5  6 -1 -1</clus>
<clus scale="   92.844">  7  8 -1 -1</clus>
<clus scale="  203.437">  1  5  2 -1</clus>
<clus scale="   41.636">  1  5  2 -1</clus>
</clustering>
</event>
<event>
 9    1  0.1881049E-005  0.4006065E+03  0.7546771E-02  0.1086321E+00
         -1   -1    0    0    0  501 -0.00000000000E+00  0.00000000000E+00  0.24218246002E+03  0.24218246002E+03  0.00000000000E+00 0.  1.
         21   -1    0    0  501  502  0.00000000000E+00 -0.00000000000E+00 -0.94989738026E+03  0.94989738026E+03  0.00000000000E+00 0.  1.
         23    2    1    2    0    0  0.49701425595E+01  0.81179440998E+02 -0.48519434189E+02  0.13167759726E+03  0.91487978278E+02 0.  0.
         23    2    1    2    0    0 -0.19424845320E+03 -0.36746923071E+03 -0.55872178273E+03  0.70279479395E+03  0.94786047553E+02 0.  0.
        -11    1    3    3    0    0 -0.16735083380E+02  0.82904190751E+02 -0.70876641074E+01  0.84872862815E+02  0.00000000000E+00 0.  1.
         11    1    3    3    0    0  0.21705225940E+02 -0.17247497528E+01 -0.41431770082E+02  0.46804734450E+02  0.00000000000E+00 0. -1.
        -13    1    4    4    0    0 -0.55529849030E+02 -0.20631139712E+03 -0.28424700602E+03  0.35559009709E+03  0.00000000000E+00 0.  1.
         13    1    4    4    0    0 -0.13871860417E+03 -0.16115783359E+03 -0.27447477672E+03  0.34720469686E+03  0.00000000000E+00 0. -1.
         -1    1    1    2    0  502  0.18927831064E+03  0.28628978971E+03 -0.10047370331E+03  0.35760744907E+03  0.00000000000E+00 0.  1.
<scales pt_clust_5="13000.00000" pt_clust_6="13000.00000" pt_clust_7="13000.00000" pt_clust_8="13000.00000" pt_clust_9="389.23171"></scales>
<clustering>
<clus scale="   91.488">  5  6 -1 -1</clus>
<clus scale="   94.786">  7  8 -1 -1</clus>
<clus scale="  122.413">  1  5  2 -1</clus>
<clus scale="  389.232">  2  9  1 -1</clus>
<clus scale="  389.232">  2  5  1 -1</clus>
</clustering>
</event>
<event>
 9    1  0.1881049E-005  0.1102464E+03  0.7546771E-02  0.1262303E+00
          1   -1    0    0  502    0 -0.00000000000E+00  0.00000000000E+00  0.10400209473E+04  0.10400209473E+04  0.00000000000E+00 0. -1.
         21   -1    0    0  501  502  0.00000000000E+00 -0.00000000000E+00 -0.30484034809E+02  0.30484034809E+02  0.00000000000E+00 0.  1.
         23    2    1    2    0    0  0.43009692601E+02  0.58433562166E+02  0.64556325343E+03  0.65608839408E+03  0.91846349013E+02 0.  0.
         23    2    1    2    0    0 -0.30044312433E+02  0.31953358539E+02  0.18541756259E+03  0.21386690316E+03  0.97137541228E+02 0.  0.
        -11    1    4    4    0    0 -0.52151504158E+02  0.31344688565E+02  0.18147342394E+03  0.19140238369E+03  0.00000000000E+00 0. -1.
         11    1    4    4    0    0  0.22107191725E+02  0.60866997404E+00  0.39441386581E+01  0.22464519466E+02  0.00000000000E+00 0.  1.
        -11    1    3    3    0    0 -0.24487545777E+02  0.40256363785E+02  0.25316702625E+03  0.25751457804E+03  0.00000000000E+00 0. -1.
         11    1    3    3    0    0  0.67497238378E+02  0.18177198380E+02  0.39239622718E+03  0.39857381605E+03  0.00000000000E+00 0.  1.
          1    1    1    2  501    0 -0.12965380168E+02 -0.90386920705E+02  0.17855609650E+03  0.20054968490E+03  0.00000000000E+00 0. -1.
<scales pt_clust_5="13000.00000" pt_clust_6="13000.00000" pt_clust_7="13000.00000" pt_clust_8="13000.00000" pt_clust_9="91.31208"></scales>
<clustering>
<clus scale="   91.312">  2  9  1 -1</clus>
<clus scale="   91.846">  7  8 -1 -1</clus>
<clus scale="   97.138">  5  6 -1 -1</clus>
<clus scale="  105.614">  1  7  2 -1</clus>
<clus scale="   91.312">  2  5  1 -1</clus>
</clustering>
</event>
<event>
 9    1  0.1881049E-005  0.1134731E+03  0.7546771E-02  0.1256305E+00
         21   -1    0    0  501  502  0.00000000000E+00  0.00000000000E+00  0.11344698181E+03  0.11344698181E+03  0.00000000000E+00 0. -1.
         -1   -1    0    0    0  501 -0.00000000000E+00 -0.00000000000E+00 -0.27286301342E+03  0.27286301342E+03  0.00000000000E+00 0.  1.
         23    2    1    2    0    0  0.53101432220E+02 -0.31927058794E+02 -0.19395276981E+03  0.22560618806E+03  0.97166743218E+02 0.  0.
         23    2    1    2    0    0 -0.29962980508E+02  0.25300580231E+02  0.66996110177E+02  0.12029453850E+03  0.91893403752E+02 0.  0.
        -11    1    4    4    0    0  0.17570880346E+02  0.13277236067E+02 -0.13652154571E+02  0.25911429103E+02  0.00000000000E+00 0.  1.
         11    1    4    4    0    0 -0.47533860854E+02  0.12023344164E+02  0.80648264748E+02  0.94383109397E+02  0.00000000000E+00 0. -1.
        -13    1    3    3    0    0  0.22751240969E+02  0.33767857952E+01  0.30275035793E+01  0.23198866909E+02  0.00000000000E+00 0. -1.
         13    1    3    3    0    0  0.30350191251E+02 -0.35303844589E+02 -0.19698027338E+03  0.20240732115E+03  0.00000000000E+00 0.  1.
         -1    1    1    2    0  502 -0.23138451712E+02  0.66264785628E+01 -0.32459371975E+02  0.40409268675E+02  0.00000000000E+00 0.  1.
<scales pt_clust_5="13000.00000" pt_clust_6="13000.00000" pt_clust_7="13000.00000" pt_clust_8="13000.00000" pt_clust_9="24.06863"></scales>
<clustering>
<clus scale="   24.069">  1  9  2 -1</clus>
<clus scale="   91.893">  5  6 -1 -1</clus>
<clus scale="   97.167">  7  8 -1 -1</clus>
<clus scale="  108.992">  1  5  2 -1</clus>
<clus scale="   24.069">  1  5  2 -1</clus>
</clustering>
</event>
<event>
 9    1  0.1881049E-005  0.1449394E+03  0.7546771E-02  0.1206962E+00
         -2   -1    0    0    0  501 -0.00000000000E+00  0.00000000000E+00  0.71976516686E+02  0.71976516686E+02  0.00000000000E+00 0.  1.
         21   -1    0    0  501  502  0.00000000000E+00 -0.00000000000E+00 -0.41310739031E+03  0.41310739031E+03  0.00000000000E+00 0. -1.
         23    2    1    2    0    0 -0.15606218474E+01  0.11272630418E+03 -0.57949421120E+02  0.15711364835E+03  0.92827301454E+02 0.  0.
         23    2    1    2    0    0  0.22392213283E+02 -0.10681701769E+03 -0.25652825065E+03  0.29362978634E+03  0.92197730795E+02 0.  0.
        -13    1    4    4    0    0  0.28113802047E+02  0.41694081852E+01 -0.81365514149E+02  0.86186522861E+02  0.00000000000E+00 0.  1.
         13    1    4    4    0    0 -0.57215887638E+01 -0.11098642587E+03 -0.17516273650E+03  0.20744326348E+03  0.00000000000E+00 0. -1.
        -13    1    3    3    0    0 -0.46315574625E+02  0.67782038517E+02 -0.26131646925E+02  0.86153352630E+02  0.00000000000E+00 0.  1.
         13    1    3    3    0    0  0.44754952777E+02  0.44944265665E+02 -0.31817774194E+02  0.70960295722E+02  0.00000000000E+00 0. -1.
         -2    1    1    2    0  502 -0.20831591435E+02 -0.59092864934E+01 -0.26653201854E+02  0.34340472298E+02  0.00000000000E+00 0.  1.
<scales pt_clust_5="13000.00000" pt_clust_6="13000.00000" pt_clust_7="13000.00000" pt_clust_8="13000.00000" pt_clust_9="21.65352"></scales>
<clustering>
<clus scale="   21.654">  2  9  1 -1</clus>
<clus scale="   92.198">  5  6 -1 -1</clus>
<clus scale="   92.827">  7  8 -1 -1</clus>
<clus scale="  144.537">  2  5  1 -1</clus>
<clus scale="   21.654">  2  5  1 -1</clus>
</clustering>
</event>
<event>
 9    1  0.1881049E-005  0.1045091E+03  0.7546771E-02  0.1276546E+00
          4   -1    0    0  502    0 -0.00000000000E+00  0.00000000000E+00  0.18663950339E+03  0.18663950339E+03  0.00000000000E+00 0. -1.
         21   -1    0    0  501  502  0.00000000000E+00 -0.00000000000E+00 -0.23892627986E+03  0.23892627986E+03  0.00000000000E+00 0. -1.
         23    2    1    2    0    0 -0.19845851891E+02  0.37834132289E+01  0.14423117671E+03  0.17203139960E+03  0.91564174552E+02 0.  0.
         23    2    1    2    0    0  0.36258577371E+02  0.16791371148E+02 -0.84645375289E+02  0.13860756783E+03  0.10222809655E+03 0.  0.
        -13    1    4    4    0    0  0.66551162061E+02  0.71829996764E+01 -0.83214302397E+02  0.10679547172E+03  0.00000000000E+00 0.  1.
         13    1    4    4    0    0 -0.30292584689E+02  0.96083714717E+01 -0.14310728920E+01  0.31812096113E+02  0.00000000000E+00 0. -1.
        -13    1    3    3    0    0 -0.27593828433E+02  0.44070086677E+02  0.91237267144E+02  0.10501347925E+03  0.00000000000E+00 0. -1.
         13    1    3    3    0    0  0.77479765425E+01 -0.40286673448E+02  0.52993909568E+02  0.67017920360E+02  0.00000000000E+00 0.  1.
          4    1    1    2  501    0 -0.16412725481E+02 -0.20574784377E+02 -0.11187257789E+03  0.11492681582E+03  0.00000000000E+00 0. -1.
<scales pt_clust_5="13000.00000" pt_clust_6="13000.00000" pt_clust_7="13000.00000" pt_clust_8="13000.00000" pt_clust_9="26.31918"></scales>
<clustering>
<clus scale="   26.319">  2  9  1 -1</clus>
<clus scale="   91.564">  7  8 -1 -1</clus>
<clus scale="   94.104">  1  7  2 -1</clus>
<clus scale="  102.228">  5  6 -1 -1</clus>
<clus scale="   26.319">  2  5  1 -1</clus>
</clustering>
</event>
<event>
 9    1  0.1881049E-005  0.1230935E+03  0.7546771E-02  0.1245265E+00
         -1   -1    0    0    0  501 -0.00000000000E+00  0.00000000000E+00  0.16243324787E+03  0.16243324787E+03  0.00000000000E+00 0.  1.
         21   -1    0    0  501  502  0.00000000000E+00 -0.00000000000E+00 -0.31289434491E+03  0.31289434491E+03  0.00000000000E+00 0.  1.
         23    2    1    2    0    0  0.31006168703E+02 -0.20624585834E+02  0.26391374449E+02  0.10263422033E+03  0.91926723528E+02 0.  0.
         23    2    1    2    0    0 -0.11018889404E+02  0.88750657532E+02  0.37202977697E+02  0.14717089396E+03  0.11080214503E+03 0.  0.
        -11    1    3    3    0    0  0.10108976078E+02  0.31868781228E+02  0.31459199423E+02  0.45907426879E+02  0.00000000000E+00 0.  1.
         11    1    3    3    0    0  0.20897192624E+02 -0.52493367062E+02 -0.50678249740E+01  0.56726793450E+02  0.00000000000E+00 0. -1.
        -13    1    4    4    0    0 -0.45017610174E+02  0.31371116163E+02  0.55465292274E+02  0.78020066663E+02  0.00000000000E+00 0. -1.
         13    1    4    4    0    0  0.33998720770E+02  0.57379541370E+02 -0.18262314577E+02  0.69150827294E+02  0.00000000000E+00 0.  1.
         -1    1    1    2    0  502 -0.19987279298E+02 -0.68126071698E+02 -0.21405544919E+03  0.22552247849E+03  0.00000000000E+00 0.  1.
<scales pt_clust_5="13000.00000" pt_clust_6="13000.00000" pt_clust_7="13000.00000" pt_clust_8="13000.00000" pt_clust_9="70.99756"></scales>
<clustering>
<clus scale="   70.998">  2  9  1 -1</clus>
<clus scale="   91.927">  5  6 -1 -1</clus>
<clus scale="  106.421">  1  5  2 -1</clus>
<clus scale="  110.802">  7  8 -1 -1</clus>
<clus scale="   70.998">  2  5  1 -1</clus>
</clustering>
</event>
<event>
 9    1  0.1881049E-005  0.9268503E+02  0.7546771E-02  0.1296643E+00
         21   -1    0    0  501  502  0.00000000000E+00  0.00000000000E+00  0.14622604821E+03  0.14622604821E+03  0.00000000000E+00 0. -1.
          2   -1    0    0  502    0 -0.00000000000E+00 -0.00000000000E+00 -0.50133715478E+03  0.50133715478E+03  0.00000000000E+00 0. -1.
         23    2    1    2    0    0 -0.27561504644E+01 -0.66295409810E+01 -0.42893405552E+03  0.43872405476E+03  0.91884846752E+02 0.  0.
         23    2    1    2    0    0  0.20206701380E+02  0.21433624817E+02 -0.30952159490E+02  0.10159407388E+03  0.92171625876E+02 0.  0.
        -13    1    4    4    0    0  0.32713817342E+02 -0.45197871864E+01 -0.54942274011E+02  0.64103633242E+02  0.00000000000E+00 0. -1.
         13    1    4    4    0    0 -0.12507115962E+02  0.25953412003E+02  0.23990114522E+02  0.37490440636E+02  0.00000000000E+00 0.  1.
        -13    1    3    3    0    0  0.36688985947E+02 -0.28902829913E+02 -0.20483023748E+03  0.21008779463E+03  0.00000000000E+00 0. -1.
         13    1    3    3    0    0 -0.39445136412E+02  0.22273288932E+02 -0.22410381804E+03  0.22863626013E+03  0.00000000000E+00 0.  1.
          2    1    1    2  501    0 -0.17450550916E+02 -0.14804083836E+02  0.10477510844E+03  0.10724507435E+03  0.00000000000E+00 0. -1.
<scales pt_clust_5="13000.00000" pt_clust_6="13000.00000" pt_clust_7="13000.00000" pt_clust_8="13000.00000" pt_clust_9="22.88411"></scales>
<clustering>
<clus scale="   22.884">  1  9  2 -1</clus>
<clus scale="   91.885">  7  8 -1 -1</clus>
<clus scale="   92.172">  5  6 -1 -1</clus>
<clus scale="   92.400">  2  7  1 -1</clus>
<clus scale="   22.884">  1  5  2 -1</clus>
</clustering>
</event>
<event>
 9    1  0.1881049E-005  0.1061490E+03  0.7546771E-02  0.1267896E+00
         21   -1    0    0  501  502  0.00000000000E+00  0.00000000000E+00  0.11603827513E+03  0.11603827513E+03  0.00000000000E+00 0.  1.
          3   -1    0    0  502    0 -0.00000000000E+00 -0.00000000000E+00 -0.38847253855E+03  0.38847253855E+03  0.00000000000E+00 0. -1.
         23    2    1    2    0    0  0.54532026809E+01  0.50619364627E+02 -0.30644557200E+03  0.32378226070E+03  0.91290778586E+02 0.  0.
         23    2    1    2    0    0 -0.19166633707E+01 -0.72083127827E+02 -0.24027841146E+02  0.11874675613E+03  0.91234883813E+02 0.  0.
        -11    1    4    4    0    0  0.33803019054E+02 -0.29472712516E+02 -0.40842732273E+02  0.60658170593E+02  0.00000000000E+00 0. -1.
         11    1    4    4    0    0 -0.35719682424E+02 -0.42610415312E+02  0.16814891127E+02  0.58088585532E+02  0.00000000000E+00 0.  1.
        -13    1    3    3    0    0  0.28002656186E+02  0.68894226971E+02 -0.19752886302E+03  0.21106448064E+03  0.00000000000E+00 0. -1.
         13    1    3    3    0    0 -0.22549453506E+02 -0.18274862344E+02 -0.10891670898E+03  0.11271778006E+03  0.00000000000E+00 0.  1.
          3    1    1    2  501    0 -0.35365393102E+01  0.21463763200E+02  0.58039149721E+02  0.61981796854E+02  0.00000000000E+00 0. -1.
<scales pt_clust_5="13000.00000" pt_clust_6="13000.00000" pt_clust_7="13000.00000" pt_clust_8="13000.00000" pt_clust_9="21.75317"></scales>
<clustering>
<clus scale="   21.753">  1  9  2 -1</clus>
<clus scale="   91.235">  5  6 -1 -1</clus>
<clus scale="   91.291">  7  8 -1 -1</clus>
<clus scale="  106.101">  1  5  2 -1</clus>
<clus scale="   21.753">  1  5  2 -1</clus>
</clustering>
</event>
<event>
 9    1  0.1881049E-005  0.1161036E+03  0.7546771E-02  0.1251607E+00
         21   -1    0    0  501  502  0.00000000000E+00  0.00000000000E+00  0.26186372739E+02  0.26186372739E+02  0.00000000000E+00 0.  1.
          1   -1    0    0  502    0 -0.00000000000E+00 -0.00000000000E+00 -0.85803675239E+03  0.85803675239E+03  0.00000000000E+00 0. -1.
         23    2    1    2    0    0 -0.20457267858E+02  0.58476829501E+02 -0.50935896798E+03  0.52153342312E+03  0.93340847260E+02 0.  0.
         23    2    1    2    0    0  0.56410131460E+02 -0.67290704853E+02 -0.28023613229E+03  0.30651318169E+03  0.87794640040E+02 0.  0.
        -11    1    3    3    0    0 -0.31639255111E+02 -0.16501104431E+02 -0.18774360586E+03  0.19110465837E+03  0.00000000000E+00 0.  1.
         11    1    3    3    0    0  0.11181987252E+02  0.74977933932E+02 -0.32161536213E+03  0.33042876474E+03  0.00000000000E+00 0. -1.
        -13    1    4    4    0    0  0.33059247536E+02 -0.86996616375E+02 -0.19791440478E+03  0.21870399340E+03  0.00000000000E+00 0.  1.
         13    1    4    4    0    0  0.23350883924E+02  0.19705911523E+02 -0.82321727506E+02  0.87809188292E+02  0.00000000000E+00 0. -1.
          1    1    1    2  501    0 -0.35952863601E+02  0.88138753515E+01 -0.42255279379E+02  0.56176520320E+02  0.00000000000E+00 0. -1.
<scales pt_clust_5="13000.00000" pt_clust_6="13000.00000" pt_clust_7="13000.00000" pt_clust_8="13000.00000" pt_clust_9="37.01747"></scales>
<clustering>
<clus scale="   37.017">  1  9  2 -1</clus>
<clus scale="   87.795">  7  8 -1 -1</clus>
<clus scale="   93.341">  5  6 -1 -1</clus>
<clus scale="  111.693">  1  7  2 -1</clus>
<clus scale="   37.017">  1  5  2 -1</clus>
</clustering>
</event>
<event>
 9    1  0.1881049E-005  0.9666441E+02  0.7546771E-02  0.1289069E+00
         21   -1    0    0  501  502  0.00000000000E+00  0.00000000000E+00  0.17843712765E+03  0.17843712765E+03  0.00000000000E+00 0.  1.
         -1   -1    0    0    0  501 -0.00000000000E+00 -0.00000000000E+00 -0.24354378965E+03  0.24354378965E+03  0.00000000000E+00 0.  1.
         23    2    1    2    0    0  0.23966639015E+01 -0.30538364712E+02 -0.11582770429E+03  0.15090495918E+03  0.91749190221E+02 0.  0.
         23    2    1    2    0    0 -0.17214223449E+02  0.11628008819E+01 -0.86849598706E+02  0.12962573690E+03  0.94669410453E+02 0.  0.
        -11    1    3    3    0    0  0.27200366256E+02 -0.53744397709E+02 -0.56746256430E+02  0.82755409662E+02  0.00000000000E+00 0.  1.
         11    1    3    3    0    0 -0.24803702354E+02  0.23206032997E+02 -0.59081447860E+02  0.68149549516E+02  0.00000000000E+00 0. -1.
        -13    1    4    4    0    0 -0.54699378265E+02  0.14212043906E+02 -0.52370545222E+02  0.77049842189E+02  0.00000000000E+00 0.  1.
         13    1    4    4    0    0  0.37485154816E+02 -0.13049243024E+02 -0.34479053484E+02  0.52575894707E+02  0.00000000000E+00 0. -1.
         -1    1    1    2    0  502  0.14817559548E+02  0.29375563830E+02  0.13757064099E+03  0.14145022123E+03  0.00000000000E+00 0.  1.
<scales pt_clust_5="13000.00000" pt_clust_6="13000.00000" pt_clust_7="13000.00000" pt_clust_8="13000.00000" pt_clust_9="32.90112"></scales>
<clustering>
<clus scale="   32.901">  1  9  2 -1</clus>
<clus scale="   91.749">  5  6 -1 -1</clus>
<clus scale="   93.806">  2  5  1 -1</clus>
<clus scale="   94.669">  7  8 -1 -1</clus>
<clus scale="   32.901">  1  5  2 -1</clus>
</clustering>
</event>
<event>
 9    1  0.1881049E-005  0.2013064E+03  0.7546771E-02  0.1149161E+00
         21   -1    0    0  501  502  0.00000000000E+00  0.00000000000E+00  0.55287642597E+03  0.55287642597E+03  0.00000000000E+00 0. -1.
         -1   -1    0    0    0  501 -0.00000000000E+00 -0.00000000000E+00 -0.13261837003E+03  0.13261837003E+03  0.00000000000E+00 0.  1.
         23    2    1    2    0    0 -0.15881884718E+03 -0.27668548758E+02  0.37121783857E+02  0.19345748958E+03  0.10029356225E+03 0.  0.
         23    2    1    2    0    0  0.20019054857E+03  0.28616103986E+02  0.18656571837E+03  0.29115799409E+03  0.95242181322E+02 0.  0.
        -13    1    4    4    0    0  0.34387591523E+02  0.38230275627E+02  0.75552745680E+02  0.91390797158E+02  0.00000000000E+00 0.  1.
         13    1    4    4    0    0  0.16580295705E+03 -0.96141716410E+01  0.11101297269E+03  0.19976719693E+03  0.00000000000E+00 0. -1.
        -13    1    3    3    0    0 -0.48785686441E+02 -0.77268421430E+01 -0.34869971560E+02  0.60462072472E+02  0.00000000000E+00 0.  1.
         13    1    3    3    0    0 -0.11003316074E+03 -0.19941706615E+02  0.71991755417E+02  0.13299541711E+03  0.00000000000E+00 0. -1.
         -1    1    1    2    0  502 -0.41371701392E+02 -0.94755522775E+00  0.19657055371E+03  0.20087931233E+03  0.00000000000E+00 0.  1.
<scales pt_clust_5="13000.00000" pt_clust_6="13000.00000" pt_clust_7="13000.00000" pt_clust_8="13000.00000" pt_clust_9="41.38255"></scales>
<clustering>
<clus scale="   41.383">  1  9  2 -1</clus>
<clus scale="   95.242">  5  6 -1 -1</clus>
<clus scale="  100.294">  7  8 -1 -1</clus>
<clus scale="  198.838">  1  5  2 -1</clus>
<clus scale="   41.383">  1  5  2 -1</clus>
</clustering>
</event>
<event>
 9    1  0.1881049E-005  0.2174779E+03  0.7546771E-02  0.1162116E+00
         21   -1    0    0  501  502  0.00000000000E+00  0.00000000000E+00  0.23038890287E+03  0.23038890287E+03  0.00000000000E+00 0. -1.
          1   -1    0    0  502    0 -0.00000000000E+00 -0.00000000000E+00 -0.32158776752E+03  0.32158776752E+03  0.00000000000E+00 0. -1.
         23    2    1    2    0    0 -0.40874608322E+02  0.62975002628E+02 -0.46423861929E+02  0.12528783181E+03  0.88911648745E+02 0.  0.
         23    2    1    2    0    0  0.21220917319E+03 -0.46320339665E+02  0.28758786841E+02  0.23949875037E+03  0.96717509052E+02 0.  0.
        -11    1    4    4    0    0  0.18830123660E+03 -0.13280147610E+02  0.47443065622E+02  0.19463957075E+03  0.00000000000E+00 0. -1.
         11    1    4    4    0    0  0.23907936588E+02 -0.33040192055E+02 -0.18684278781E+02  0.44859179623E+02  0.00000000000E+00 0.  1.
        -13    1    3    3    0    0 -0.22414735444E+02 -0.18759316484E+02 -0.25817186811E+02  0.38998198097E+02  0.00000000000E+00 0.  1.
         13    1    3    3    0    0 -0.18459872878E+02  0.81734319112E+02 -0.20606675118E+02  0.86289633716E+02  0.00000000000E+00 0. -1.
          1    1    1    2  501    0 -0.17133456487E+03 -0.16654662963E+02 -0.73533789556E+02  0.18719008821E+03  0.00000000000E+00 0. -1.
<scales pt_clust_5="13000.00000" pt_clust_6="13000.00000" pt_clust_7="13000.00000" pt_clust_8="13000.00000" pt_clust_9="194.78811"></scales>
<clustering>
<clus scale="   88.912">  7  8 -1 -1</clus>
<clus scale="   96.718">  5  6 -1 -1</clus>
<clus scale="  116.370">  2  7  1 -1</clus>
<clus scale="  194.788">  1  9  2 -1</clus>
<clus scale="  194.788">  1  5  2 -1</clus>
</clustering>
</event>
<event>
 9    1  0.1881049E-005  0.1070825E+03  0.7546771E-02  0.1268299E+00
         21   -1    0    0  501  502  0.00000000000E+00  0.00000000000E+00  0.18685604338E+03  0.18685604338E+03  0.00000000000E+00 0. -1.
          1   -1    0    0  502    0 -0.00000000000E+00 -0.00000000000E+00 -0.17249392325E+03  0.17249392325E+03  0.00000000000E+00 0. -1.
         23    2    1    2    0    0 -0.37679094461E+02  0.36070177117E+02 -0.10939178595E+03  0.14891000415E+03  0.86526612474E+02 0.  0.
         23    2    1    2    0    0  0.70515714430E+02 -0.21891557175E+02  0.49125709650E+02  0.12768342450E+03  0.91858670179E+02 0.  0.
        -11    1    4    4    0    0  0.38708528626E+01 -0.46024536627E+02  0.26657054297E+02  0.53327666529E+02  0.00000000000E+00 0.  1.
         11    1    4    4    0    0  0.66644861567E+02  0.24132979452E+02  0.22468655352E+02  0.74355757974E+02  0.00000000000E+00 0. -1.
        -13    1    3    3    0    0 -0.17104994861E+02 -0.15480670650E+02 -0.85365997167E+02  0.88428420122E+02  0.00000000000E+00 0.  1.
         13    1    3    3    0    0 -0.20574099601E+02  0.51550847767E+02 -0.24025788781E+02  0.60481584027E+02  0.00000000000E+00 0. -1.
          1    1    1    2  501    0 -0.32836619969E+02 -0.14178619942E+02  0.74628196432E+02  0.82756537972E+02  0.00000000000E+00 0. -1.
<scales pt_clust_5="13000.00000" pt_clust_6="13000.00000" pt_clust_7="13000.00000" pt_clust_8="13000.00000" pt_clust_9="35.76698"></scales>
<clustering>
<clus scale="   35.767">  1  9  2 -1</clus>
<clus scale="   86.527">  7  8 -1 -1</clus>
<clus scale="   91.859">  5  6 -1 -1</clus>
<clus scale="  102.545">  2  7  1 -1</clus>
<clus scale="   35.767">  1  5  2 -1</clus>
</clustering>
</event>
<event>
 9    1  0.1881049E-005  0.1093629E+03  0.7546771E-02  0.1261868E+00
         21   -1    0    0  501  502  0.00000000000E+00  0.00000000000E+00  0.20662835664E+02  0.20662835664E+02  0.00000000000E+00 0.  1.
          1   -1    0    0  502    0 -0.00000000000E+00 -0.00000000000E+00 -0.71648676097E+03  0.71648676097E+03  0.00000000000E+00 0. -1.
         23    2    1    2    0    0 -0.20570108369E+02 -0.66195618904E+02 -0.37920618457E+03  0.39628790204E+03  0.91879168317E+02 0.  0.
         23    2    1    2    0    0  0.14673023842E+02  0.46260546046E+02 -0.28242352758E+03  0.30084386170E+03  0.91589543310E+02 0.  0.
        -13    1    3    3    0    0  0.35188374581E+02 -0.24780230254E+02 -0.10630714875E+03  0.11468867159E+03  0.00000000000E+00 0.  1.
         13    1    3    3    0    0 -0.55758482950E+02 -0.41415388650E+02 -0.27289903582E+03  0.28159923045E+03  0.00000000000E+00 0. -1.
        -13    1    4    4    0    0  0.29665618385E+02 -0.16285609312E+02 -0.14807686882E+03  0.15189479604E+03  0.00000000000E+00 0. -1.
         13    1    4    4    0    0 -0.14992594543E+02  0.62546155358E+02 -0.13434665876E+03  0.14894906566E+03  0.00000000000E+00 0.  1.
          1    1    1    2  501    0  0.58970845274E+01  0.19935072857E+02 -0.34194213164E+02  0.40017832895E+02  0.00000000000E+00 0. -1.
<scales pt_clust_5="13000.00000" pt_clust_6="13000.00000" pt_clust_7="13000.00000" pt_clust_8="13000.00000" pt_clust_9="20.78901"></scales>
<clustering>
<clus scale="   20.789">  1  9  2 -1</clus>
<clus scale="   91.590">  7  8 -1 -1</clus>
<clus scale="   91.879">  5  6 -1 -1</clus>
<clus scale="  109.120">  1  7  2 -1</clus>
<clus scale="   20.789">  1  5  2 -1</clus>
</clustering>
</event>
<event>
 9    1  0.1881049E-005  0.1063808E+03  0.7546771E-02  0.1268707E+00
         21   -1    0    0  501  502  0.00000000000E+00  0.00000000000E+00  0.15278196332E+03  0.15278196332E+03  0.00000000000E+00 0. -1.
         -2   -1    0    0    0  501 -0.00000000000E+00 -0.00000000000E+00 -0.39371650753E+03  0.39371650753E+03  0.00000000000E+00 0.  1.
         23    2    1    2    0    0 -0.47740130712E+02 -0.29189157971E+02 -0.35649785903E+03  0.37246317439E+03  0.92233213994E+02 0.  0.
         23    2    1    2    0    0  0.17621956612E+02  0.52045115966E+01  0.73704842014E+02  0.11716263679E+03  0.89202351024E+02 0.  0.
        -11    1    3    3    0    0 -0.19223064198E+02 -0.57229602649E+02 -0.27663402773E+03  0.28314508457E+03  0.00000000000E+00 0.  1.
         11    1    3    3    0    0 -0.28517066515E+02  0.28040444679E+02 -0.79863831294E+02  0.89318089822E+02  0.00000000000E+00 0. -1.
        -13    1    4    4    0    0 -0.31042060714E+02 -0.19256515136E+02  0.27201416389E+02  0.45544922462E+02  0.00000000000E+00 0.  1.
         13    1    4    4    0    0  0.48664017326E+02  0.24461026732E+02  0.46503425625E+02  0.71617714331E+02  0.00000000000E+00 0. -1.
         -2    1    1    2    0  502  0.30118174101E+02  0.23984646374E+02  0.41858472794E+02  0.56872659666E+02  0.00000000000E+00 0.  1.
<scales pt_clust_5="13000.00000" pt_clust_6="13000.00000" pt_clust_7="13000.00000" pt_clust_8="13000.00000" pt_clust_9="38.50153"></scales>
<clustering>
<clus scale="   38.502">  1  9  2 -1</clus>
<clus scale="   89.202">  7  8 -1 -1</clus>
<clus scale="   92.233">  5  6 -1 -1</clus>
<clus scale="  103.764">  1  7  2 -1</clus>
<clus scale="   38.502">  1  5  2 -1</clus>
</clustering>
</event>
<event>
 9    1  0.1881049E-005  0.2028812E+03  0.7546771E-02  0.1147729E+00
          3   -1    0    0  502    0 -0.00000000000E+00  0.00000000000E+00  0.67437848385E+02  0.67437848385E+02  0.00000000000E+00 0. -1.
         21   -1    0    0  501  502  0.00000000000E+00 -0.00000000000E+00 -0.11539851173E+04  0.11539851173E+04  0.00000000000E+00 0. -1.
         23    2    1    2    0    0 -0.18992863285E+03 -0.67741739588E+02 -0.20481414393E+03  0.30259466094E+03  0.94619587921E+02 0.  0.
         23    2    1    2    0    0  0.12075564374E+03  0.75824123163E+02 -0.43360417301E+03  0.46531999727E+03  0.90437259267E+02 0.  0.
        -11    1    4    4    0    0  0.75262070164E+02  0.99572772596E+00 -0.14021751564E+03  0.15914245936E+03  0.00000000000E+00 0.  1.
         11    1    4    4    0    0  0.45493573576E+02  0.74828395437E+02 -0.29338665737E+03  0.30617753792E+03  0.00000000000E+00 0. -1.
        -13    1    3    3    0    0 -0.44617478667E+02  0.19940908333E+02 -0.72323194974E+02  0.87286904854E+02  0.00000000000E+00 0.  1.
         13    1    3    3    0    0 -0.14531115418E+03 -0.87682647921E+02 -0.13249094896E+03  0.21530775609E+03  0.00000000000E+00 0. -1.
          3    1    1    2  501    0  0.69172989106E+02 -0.80823835747E+01 -0.44812895202E+03  0.45350830752E+03  0.00000000000E+00 0. -1.
<scales pt_clust_5="13000.00000" pt_clust_6="13000.00000" pt_clust_7="13000.00000" pt_clust_8="13000.00000" pt_clust_9="69.64357"></scales>
<clustering>
<clus scale="   69.644">  2  9  1 -1</clus>
<clus scale="   90.437">  5  6 -1 -1</clus>
<clus scale="   94.620">  7  8 -1 -1</clus>
<clus scale="  200.965">  2  5  1 -1</clus>
<clus scale="   69.644">  2  5  1 -1</clus>
</clustering>
</event>
<event>
 9    1  0.1881049E-005  0.1147088E+03  0.7546771E-02  0.1255625E+00
         -4   -1    0    0    0  501 -0.00000000000E+00  0.00000000000E+00  0.16284567594E+03  0.16284567594E+03  0.00000000000E+00 0.  1.
         21   -1    0    0  501  502  0.00000000000E+00 -0.00000000000E+00 -0.36353416590E+03  0.36353416590E+03  0.00000000000E+00 0.  1.
         23    2    1    2    0    0 -0.71528424908E+02  0.11788454862E+02  0.39987649011E+02  0.12885726399E+03  0.98741577719E+02 0.  0.
         23    2    1    2    0    0  0.32554332968E+02  0.64665369298E+02  0.25396185200E+02  0.11795389441E+03  0.89592189406E+02 0.  0.
        -11    1    3    3    0    0 -0.87462639656E+02 -0.85976312866E+00  0.55222929834E+02  0.10344092279E+03  0.00000000000E+00 0. -1.
         11    1    3    3    0    0  0.15934214748E+02  0.12648217990E+02 -0.15235280823E+02  0.25416341195E+02  0.00000000000E+00 0.  1.
        -11    1    4    4    0    0 -0.95586098356E+01 -0.19094256301E+02  0.64714633851E+01  0.22312272050E+02  0.00000000000E+00 0. -1.
         11    1    4    4    0    0  0.42112942803E+02  0.83759625599E+02  0.18924721815E+02  0.95641622361E+02  0.00000000000E+00 0.  1.
         -4    1    1    2    0  502  0.38974091941E+02 -0.76453824160E+02 -0.26607232418E+03  0.27956868345E+03  0.00000000000E+00 0.  1.
<scales pt_clust_5="13000.00000" pt_clust_6="13000.00000" pt_clust_7="13000.00000" pt_clust_8="13000.00000" pt_clust_9="85.81473"></scales>
<clustering>
<clus scale="   85.815">  2  9  1 -1</clus>
<clus scale="   89.592">  7  8 -1 -1</clus>
<clus scale="   98.742">  5  6 -1 -1</clus>
<clus scale="  106.934">  2  7  1 -1</clus>
<clus scale="   85.815">  2  5  1 -1</clus>
</clustering>
</event>
<event>
 9    1  0.2813268E-005  0.1737871E+03  0.7546771E-02  0.1189693E+00
         21   -1    0    0  501  502  0.00000000000E+00  0.00000000000E+00  0.62151270447E+03  0.62151270447E+03  0.00000000000E+00 0. -1.
          1   -1    0    0  502    0 -0.00000000000E+00 -0.00000000000E+00 -0.83059703514E+03  0.83059703514E+03  0.00000000000E+00 0. -1.
         23    2    1    2    0    0  0.69691541550E+02  0.41021390939E+02 -0.45568798660E+02  0.13036277712E+03  0.91532905384E+02 0.  0.
         23    2    1    2    0    0  0.54912256207E+02 -0.11894256769E+03 -0.72432967030E+03  0.74199674568E+03  0.93504058918E+02 0.  0.
        -11    1    3    3    0    0  0.80221783852E+02  0.32310702619E+01 -0.42930958857E+02  0.91044174157E+02  0.00000000000E+00 0. -1.
         11    1    3    3    0    0 -0.10530242303E+02  0.37790320678E+02 -0.26378398025E+01  0.39318602960E+02  0.00000000000E+00 0.  1.
        -11    1    4    4    0    0  0.25859805917E+02  0.10045461729E+02 -0.15978916026E+03  0.16217958133E+03  0.00000000000E+00 0.  1.
         11    1    4    4    0    0  0.29052450290E+02 -0.12898802942E+03 -0.56454051003E+03  0.57981716435E+03  0.00000000000E+00 0. -1.
          1    1    1    2  501    0 -0.12460379776E+03  0.77921176752E+02  0.56081413828E+03  0.57975021681E+03  0.00000000000E+00 0. -1.
<scales pt_clust_5="13000.00000" pt_clust_6="13000.00000" pt_clust_7="13000.00000" pt_clust_8="13000.00000" pt_clust_9="146.48876"></scales>
<clustering>
<clus scale="   91.533">  5  6 -1 -1</clus>
<clus scale="   93.504">  7  8 -1 -1</clus>
<clus scale="  122.139">  2  5  1 -1</clus>
<clus scale="  146.489">  1  9  2 -1</clus>
<clus scale="  146.489">  1  5  2 -1</clus>
</clustering>
</event>
<event>
 9    1  0.1881049E-005  0.9776565E+02  0.7546771E-02  0.1294098E+00
         21   -1    0    0  501  502  0.00000000000E+00  0.00000000000E+00  0.27511290859E+02  0.27511290859E+02  0.00000000000E+00 0.  1.
          1   -1    0    0  502    0 -0.00000000000E+00 -0.00000000000E+00 -0.48462322673E+03  0.48462322673E+03  0.00000000000E+00 0. -1.
         23    2    1    2    0    0 -0.32668108507E+02 -0.11463393602E+02 -0.29023443586E+03  0.30139005305E+03  0.73493684156E+02 0.  0.
         23    2    1    2    0    0  0.35316714776E+02  0.33299809382E+02 -0.15480334158E+03  0.18565204594E+03  0.90257741782E+02 0.  0.
        -13    1    3    3    0    0 -0.52935082782E+02 -0.23061010086E+02 -0.21470087795E+03  0.22232948560E+03  0.00000000000E+00 0. -1.
         13    1    3    3    0    0  0.20266974275E+02  0.11597616484E+02 -0.75533557905E+02  0.79060567441E+02  0.00000000000E+00 0.  1.
        -13    1    4    4    0    0 -0.21802290844E+02  0.36774076585E+02 -0.46538463958E+02  0.63194154970E+02  0.00000000000E+00 0. -1.
         13    1    4    4    0    0  0.57119005619E+02 -0.34742672037E+01 -0.10826487762E+03  0.12245789097E+03  0.00000000000E+00 0.  1.
          1    1    1    2  501    0 -0.26486062690E+01 -0.21836415780E+02 -0.12074158434E+02  0.25092418599E+02  0.00000000000E+00 0. -1.
<scales pt_clust_5="13000.00000" pt_clust_6="13000.00000" pt_clust_7="13000.00000" pt_clust_8="13000.00000" pt_clust_9="21.99646"></scales>
<clustering>
<clus scale="   21.996">  1  9  2 -1</clus>
<clus scale="   73.494">  5  6 -1 -1</clus>
<clus scale="   82.541">  2  5  1 -1</clus>
<clus scale="   90.258">  7  8 -1 -1</clus>
<clus scale="   21.996">  1  5  2 -1</clus>
</clustering>
</event>
<event>
 9    1  0.1881049E-005  0.1016770E+03  0.7546771E-02  0.1284854E+00
          1   -1    0    0  502    0 -0.00000000000E+00  0.00000000000E+00  0.20470731609E+03  0.20470731609E+03  0.00000000000E+00 0. -1.
         21   -1    0    0  501  502  0.00000000000E+00 -0.00000000000E+00 -0.69759925487E+02  0.69759925487E+02  0.00000000000E+00 0. -1.
         23    2    1    2    0    0 -0.34195052229E+02  0.15895810488E+02  0.89778845292E+02  0.12355104075E+03  0.76043673109E+02 0.  0.
         23    2    1    2    0    0  0.34632287776E+02 -0.44655764727E+02  0.53905697228E+02  0.12085519675E+03  0.92231348830E+02 0.  0.
        -11    1    4    4    0    0  0.58916814098E+02 -0.19739135493E+01  0.32123261270E+02  0.67134128673E+02  0.00000000000E+00 0.  1.
         11    1    4    4    0    0 -0.24284526322E+02 -0.42681851178E+02  0.21782435958E+02  0.53721068073E+02  0.00000000000E+00 0. -1.
        -13    1    3    3    0    0 -0.22024395496E+02  0.39876794656E+02  0.21912890715E+02  0.50551038847E+02  0.00000000000E+00 0. -1.
         13    1    3    3    0    0 -0.12170656734E+02 -0.23980984168E+02  0.67865954577E+02  0.73000001901E+02  0.00000000000E+00 0.  1.
          1    1    1    2  501    0 -0.43723554629E+00  0.28759954239E+02 -0.87371519179E+01  0.30061004082E+02  0.00000000000E+00 0. -1.
<scales pt_clust_5="13000.00000" pt_clust_6="13000.00000" pt_clust_7="13000.00000" pt_clust_8="13000.00000" pt_clust_9="28.76328"></scales>
<clustering>
<clus scale="   28.763">  2  9  1 -1</clus>
<clus scale="   76.044">  7  8 -1 -1</clus>
<clus scale="   87.260">  1  7  2 -1</clus>
<clus scale="   92.231">  5  6 -1 -1</clus>
<clus scale="   28.763">  2  5  1 -1</clus>
</clustering>
</event>
<event>
 9    1  0.1881049E-005  0.1093207E+03  0.7546771E-02  0.1264825E+00
         21   -1    0    0  501  502  0.00000000000E+00  0.00000000000E+00  0.13685043345E+03  0.13685043345E+03  0.00000000000E+00 0. -1.
          2   -1    0    0  502    0 -0.00000000000E+00 -0.00000000000E+00 -0.81953008053E+03  0.81953008053E+03  0.00000000000E+00 0. -1.
         23    2    1    2    0    0 -0.38979240495E+02 -0.15114226548E+02 -0.44439630489E+03  0.45530441460E+03  0.89812098985E+02 0.  0.
         23    2    1    2    0    0  0.76361363765E+02 -0.49700960584E+02 -0.34556871783E+03  0.37027631556E+03  0.96879139958E+02 0.  0.
        -11    1    3    3    0    0 -0.38446546293E+02 -0.50529814060E+02 -0.27294284801E+03  0.28023061451E+03  0.00000000000E+00 0.  1.
         11    1    3    3    0    0 -0.53269420234E+00  0.35415587512E+02 -0.17145345688E+03  0.17507380009E+03  0.00000000000E+00 0. -1.
        -11    1    4    4    0    0  0.86425836821E+02 -0.22497475812E+02 -0.31784281906E+03  0.33015090385E+03  0.00000000000E+00 0. -1.
         11    1    4    4    0    0 -0.10064473056E+02 -0.27203484772E+02 -0.27725898777E+02  0.40125411707E+02  0.00000000000E+00 0.  1.
          2    1    1    2  501    0 -0.37382123270E+02  0.64815187131E+02  0.10728537564E+03  0.13079978383E+03  0.00000000000E+00 0. -1.
<scales pt_clust_5="13000.00000" pt_clust_6="13000.00000" pt_clust_7="13000.00000" pt_clust_8="13000.00000" pt_clust_9="74.82267"></scales>
<clustering>
<clus scale="   74.823">  1  9  2 -1</clus>
<clus scale="   89.812">  5  6 -1 -1</clus>
<clus scale="   96.879">  7  8 -1 -1</clus>
<clus scale="  103.110">  2  5  1 -1</clus>
<clus scale="   74.823">  1  5  2 -1</clus>
</clustering>
</event>
<event>
 9    1  0.1881049E-005  0.1710968E+03  0.7546771E-02  0.1177908E+00
         21   -1    0    0  501  502  0.00000000000E+00  0.00000000000E+00  0.75816390319E+02  0.75816390319E+02  0.00000000000E+00 0. -1.
          2   -1    0    0  502    0 -0.00000000000E+00 -0.00000000000E+00 -0.69867453111E+03  0.69867453111E+03  0.00000000000E+00 0. -1.
         23    2    1    2    0    0 -0.12971748925E+03  0.53931527730E+02 -0.49058828197E+03  0.51769506043E+03  0.87155473040E+02 0.  0.
         23    2    1    2    0    0  0.12010812411E+03 -0.90252346029E+02 -0.12729834337E+03  0.21889787021E+03  0.95603148048E+02 0.  0.
        -13    1    3    3    0    0 -0.23429126637E+02 -0.18478932735E+02 -0.16406372409E+03  0.16675521129E+03  0.00000000000E+00 0.  1.
         13    1    3    3    0    0 -0.10628836261E+03  0.72410460465E+02 -0.32652455788E+03  0.35093984914E+03  0.00000000000E+00 0. -1.
        -13    1    4    4    0    0  0.46337141363E+02  0.12987900045E+02 -0.17845868591E+02  0.51325346985E+02  0.00000000000E+00 0.  1.
         13    1    4    4    0    0  0.73770982747E+02 -0.10324024607E+03 -0.10945247478E+03  0.16757252323E+03  0.00000000000E+00 0. -1.
          2    1    1    2  501    0  0.96093651404E+01  0.36320818300E+02 -0.49715154510E+01  0.37897990794E+02  0.00000000000E+00 0. -1.
<scales pt_clust_5="13000.00000" pt_clust_6="13000.00000" pt_clust_7="13000.00000" pt_clust_8="13000.00000" pt_clust_9="37.57049"></scales>
<clustering>
<clus scale="   37.570">  1  9  2 -1</clus>
<clus scale="   87.155">  5  6 -1 -1</clus>
<clus scale="   95.603">  7  8 -1 -1</clus>
<clus scale="  166.524">  2  5  1 -1</clus>
<clus scale="   37.570">  1  5  2 -1</clus>
</clustering>
</event>
<event>
 9    1  0.1881049E-005  0.2278376E+03  0.7546771E-02  0.1128173E+00
          1   -1    0    0  502    0 -0.00000000000E+00  0.00000000000E+00  0.51482821929E+03  0.51482821929E+03  0.00000000000E+00 0. -1.
         21   -1    0    0  501  502  0.00000000000E+00 -0.00000000000E+00 -0.55074053381E+03  0.55074053381E+03  0.00000000000E+00 0. -1.
         23    2    1    2    0    0 -0.63157884270E+02  0.21183246923E+03  0.24910877034E+03  0.34547503684E+03  0.91847200564E+02 0.  0.
         23    2    1    2    0    0  0.13664576102E+03 -0.15209691423E+03  0.15337116415E+03  0.27158890184E+03  0.91827459320E+02 0.  0.
        -11    1    4    4    0    0  0.75834519711E+02 -0.20877179185E+02  0.42867341454E+02  0.89578680242E+02  0.00000000000E+00 0.  1.
         11    1    4    4    0    0  0.60811241314E+02 -0.13121973505E+03  0.11050382270E+03  0.18201022160E+03  0.00000000000E+00 0. -1.
        -11    1    3    3    0    0 -0.68918795172E+02  0.74112238985E+02  0.96636979009E+02  0.13993259094E+03  0.00000000000E+00 0.  1.
         11    1    3    3    0    0  0.57609109021E+01  0.13772023025E+03  0.15247179133E+03  0.20554244590E+03  0.00000000000E+00 0. -1.
          1    1    1    2  501    0 -0.73487876755E+02 -0.59735555005E+02 -0.43839224901E+03  0.44850481442E+03  0.00000000000E+00 0. -1.
<scales pt_clust_5="13000.00000" pt_clust_6="13000.00000" pt_clust_7="13000.00000" pt_clust_8="13000.00000" pt_clust_9="94.70377"></scales>
<clustering>
<clus scale="   91.827">  5  6 -1 -1</clus>
<clus scale="   91.847">  7  8 -1 -1</clus>
<clus scale="   94.704">  2  9  1 -1</clus>
<clus scale="  227.830">  2  5  1 -1</clus>
<clus scale="   94.704">  2  5  1 -1</clus>
</clustering>
</event>
<event>
 9    1  0.1881049E-005  0.9857365E+02  0.7546771E-02  0.1283720E+00
          1   -1    0    0  502    0 -0.00000000000E+00  0.00000000000E+00  0.46111140474E+03  0.46111140474E+03  0.00000000000E+00 0. -1.
         21   -1    0    0  501  502  0.00000000000E+00 -0.00000000000E+00 -0.60073843356E+02  0.60073843356E+02  0.00000000000E+00 0.  1.
         23    2    1    2    0    0 -0.73129622776E+01  0.42070781659E+02  0.24442918701E+03  0.26504737319E+03  0.93172165812E+02 0.  0.
         23    2    1    2    0    0  0.48260194507E+02  0.86896758174E+01  0.15963337009E+03  0.19085042995E+03  0.92393273163E+02 0.  0.
        -11    1    4    4    0    0  0.19424236346E+02  0.37968957193E+02  0.23595618981E+02  0.48741111015E+02  0.00000000000E+00 0.  1.
         11    1    4    4    0    0  0.28835958161E+02 -0.29279281375E+02  0.13603775111E+03  0.14210931893E+03  0.00000000000E+00 0. -1.
        -13    1    3    3    0    0 -0.29925302296E+02 -0.16450406852E+02  0.48480197723E+02  0.59299824404E+02  0.00000000000E+00 0. -1.
         13    1    3    3    0    0  0.22612340018E+02  0.58521188511E+02  0.19594898929E+03  0.20574754878E+03  0.00000000000E+00 0.  1.
          1    1    1    2  501    0 -0.40947232230E+02 -0.50760457477E+02 -0.30249957195E+01  0.65287444962E+02  0.00000000000E+00 0. -1.
<scales pt_clust_5="13000.00000" pt_clust_6="13000.00000" pt_clust_7="13000.00000" pt_clust_8="13000.00000" pt_clust_9="65.21733"></scales>
<clustering>
<clus scale="   65.217">  2  9  1 -1</clus>
<clus scale="   92.393">  5  6 -1 -1</clus>
<clus scale="   93.172">  7  8 -1 -1</clus>
<clus scale="   97.838">  2  5  1 -1</clus>
<clus scale="   65.217">  2  5  1 -1</clus>
</clustering>
</event>
<event>
 9    1  0.1881049E-005  0.2181027E+03  0.7546771E-02  0.1135487E+00
         -2   -1    0    0    0  501 -0.00000000000E+00  0.00000000000E+00  0.28233565380E+03  0.28233565380E+03  0.00000000000E+00 0.  1.
         21   -1    0    0  501  502  0.00000000000E+00 -0.00000000000E+00 -0.24290747268E+03  0.24290747268E+03  0.00000000000E+00 0. -1.
         23    2    1    2    0    0 -0.15514674608E+03 -0.13229964218E+03  0.14324737198E+03  0.26543813555E+03  0.91454284140E+02 0.  0.
         23    2    1    2    0    0  0.12446165153E+03  0.13162347537E+03 -0.73869463368E+02  0.21692121305E+03  0.93715916899E+02 0.  0.
        -11    1    4    4    0    0  0.53216543257E+02  0.36389320701E+02  0.17660975153E+02  0.66843796875E+02  0.00000000000E+00 0.  1.
         11    1    4    4    0    0  0.71245108277E+02  0.95234154670E+02 -0.91530438521E+02  0.15007741617E+03  0.00000000000E+00 0. -1.
        -13    1    3    3    0    0 -0.94700373603E+02 -0.13265290940E+03  0.10648640755E+03  0.19469029284E+03  0.00000000000E+00 0. -1.
         13    1    3    3    0    0 -0.60446372474E+02  0.35326721764E+00  0.36760964426E+02  0.70747842713E+02  0.00000000000E+00 0.  1.
         -2    1    1    2    0  502  0.30685094544E+02  0.67616681252E+00 -0.29949727487E+02  0.42883777880E+02  0.00000000000E+00 0.  1.
<scales pt_clust_5="13000.00000" pt_clust_6="13000.00000" pt_clust_7="13000.00000" pt_clust_8="13000.00000" pt_clust_9="30.69254"></scales>
<clustering>
<clus scale="   30.693">  2  9  1 -1</clus>
<clus scale="   91.454">  7  8 -1 -1</clus>
<clus scale="   93.716">  5  6 -1 -1</clus>
<clus scale="  217.140">  1  7  2 -1</clus>
<clus scale="   30.693">  2  5  1 -1</clus>
</clustering>
</event>
<event>
 9    1  0.1881049E-005  0.1677657E+03  0.7546771E-02  0.1180320E+00
         21   -1    0    0  501  502  0.00000000000E+00  0.00000000000E+00  0.74282946407E+02  0.74282946407E+02  0.00000000000E+00 0. -1.
          1   -1    0    0  502    0 -0.00000000000E+00 -0.00000000000E+00 -0.10613956343E+04  0.10613956343E+04  0.00000000000E+00 0. -1.
         23    2    1    2    0    0  0.11255879796E+03  0.93575257709E+02 -0.84999251010E+03  0.86765240619E+03  0.94380182651E+02 0.  0.
         23    2    1    2    0    0 -0.33973945417E+02 -0.11053304720E+03 -0.76015671539E+02  0.16704644212E+03  0.93564672892E+02 0.  0.
        -11    1    3    3    0    0 -0.23264180077E+01  0.51891874076E+02 -0.25722796549E+03  0.26242028322E+03  0.00000000000E+00 0.  1.
         11    1    3    3    0    0  0.11488521597E+03  0.41683383633E+02 -0.59276454461E+03  0.60523212296E+03  0.00000000000E+00 0. -1.
        -13    1    4    4    0    0 -0.13355588545E+02 -0.71481514842E+02 -0.94443451433E+02  0.11919540355E+03  0.00000000000E+00 0.  1.
         13    1    4    4    0    0 -0.20618356872E+02 -0.39051532361E+02  0.18427779895E+02  0.47851038564E+02  0.00000000000E+00 0. -1.
          1    1    1    2  501    0 -0.78584852544E+02  0.16957789493E+02 -0.61104506277E+02  0.10097973243E+03  0.00000000000E+00 0. -1.
<scales pt_clust_5="13000.00000" pt_clust_6="13000.00000" pt_clust_7="13000.00000" pt_clust_8="13000.00000" pt_clust_9="80.39369"></scales>
<clustering>
<clus scale="   80.394">  1  9  2 -1</clus>
<clus scale="   93.565">  7  8 -1 -1</clus>
<clus scale="   94.380">  5  6 -1 -1</clus>
<clus scale="  167.308">  1  7  2 -1</clus>
<clus scale="   80.394">  1  5  2 -1</clus>
</clustering>
</event>
<event>
 9    1  0.1881049E-005  0.1268704E+03  0.7546771E-02  0.1235921E+00
         21   -1    0    0  501  502  0.00000000000E+00  0.00000000000E+00  0.84365114261E+03  0.84365114261E+03  0.00000000000E+00 0.  1.
          1   -1    0    0  502    0 -0.00000000000E+00 -0.00000000000E+00 -0.21994666745E+02  0.21994666745E+02  0.00000000000E+00 0. -1.
         23    2    1    2    0    0 -0.30937411228E+02  0.55752411167E+02  0.30290765852E+03  0.32281494116E+03  0.91602302812E+02 0.  0.
         23    2    1    2    0    0  0.36866203444E+02 -0.79196831169E+02  0.42591576118E+03  0.44689981106E+03  0.10336319693E+03 0.  0.
        -11    1    3    3    0    0  0.13505742032E+02 -0.17530447933E+02  0.10229496194E+03  0.10466126748E+03  0.00000000000E+00 0.  1.
         11    1    3    3    0    0 -0.44443153260E+02  0.73282859100E+02  0.20061269658E+03  0.21815367367E+03  0.00000000000E+00 0. -1.
        -11    1    4    4    0    0  0.72537097333E+02 -0.49252361065E+02  0.30399234449E+03  0.31638389824E+03  0.00000000000E+00 0.  1.
         11    1    4    4    0    0 -0.35670893889E+02 -0.29944470104E+02  0.12192341669E+03  0.13051591282E+03  0.00000000000E+00 0. -1.
          1    1    1    2  501    0 -0.59287922166E+01  0.23444420002E+02  0.92833056164E+02  0.95931057135E+02  0.00000000000E+00 0. -1.
<scales pt_clust_5="13000.00000" pt_clust_6="13000.00000" pt_clust_7="13000.00000" pt_clust_8="13000.00000" pt_clust_9="24.18246"></scales>
<clustering>
<clus scale="   24.182">  1  9  2 -1</clus>
<clus scale="   91.602">  5  6 -1 -1</clus>
<clus scale="  103.363">  7  8 -1 -1</clus>
<clus scale="  117.487">  2  5  1 -1</clus>
<clus scale="   24.182">  1  5  2 -1</clus>
</clustering>
</event>
<event>
 9    1  0.1881049E-005  0.1241087E+03  0.7546771E-02  0.1239436E+00
         21   -1    0    0  501  502  0.00000000000E+00  0.00000000000E+00  0.24111283878E+02  0.24111283878E+02  0.00000000000E+00 0.  1.
          1   -1    0    0  502    0 -0.00000000000E+00 -0.00000000000E+00 -0.93374371196E+03  0.93374371196E+03  0.00000000000E+00 0. -1.
         23    2    1    2    0    0 -0.74410745035E+02  0.26507859393E+02 -0.58510497538E+03  0.59889057400E+03  0.10041146265E+03 0.  0.
         23    2    1    2    0    0  0.62044356444E+02  0.76897172850E+00 -0.17818868320E+03  0.20959244139E+03  0.91256184349E+02 0.  0.
        -11    1    3    3    0    0 -0.66961685881E+02 -0.24237182128E+02 -0.42026607177E+03  0.42625682336E+03  0.00000000000E+00 0.  1.
         11    1    3    3    0    0 -0.74490591542E+01  0.50745041520E+02 -0.16483890361E+03  0.17263375065E+03  0.00000000000E+00 0. -1.
        -13    1    4    4    0    0  0.10382667023E+02  0.18167827541E+02  0.22998122728E+01  0.21051338878E+02  0.00000000000E+00 0.  1.
         13    1    4    4    0    0  0.51661689421E+02 -0.17398855812E+02 -0.18048849547E+03  0.18854110251E+03  0.00000000000E+00 0. -1.
          1    1    1    2  501    0  0.12366388591E+02 -0.27276831121E+02 -0.14633876950E+03  0.14937198044E+03  0.00000000000E+00 0. -1.
<scales pt_clust_5="13000.00000" pt_clust_6="13000.00000" pt_clust_7="13000.00000" pt_clust_8="13000.00000" pt_clust_9="29.94919"></scales>
<clustering>
<clus scale="   29.949">  1  9  2 -1</clus>
<clus scale="   91.256">  7  8 -1 -1</clus>
<clus scale="  100.411">  5  6 -1 -1</clus>
<clus scale="  116.826">  1  7  2 -1</clus>
<clus scale="   29.949">  1  5  2 -1</clus>
</clustering>
</event>
<event>
 9    1  0.1881049E-005  0.9136095E+02  0.7546771E-02  0.1300015E+00
         21   -1    0    0  501  502  0.00000000000E+00  0.00000000000E+00  0.85179414961E+02  0.85179414961E+02  0.00000000000E+00 0. -1.
          3   -1    0    0  502    0 -0.00000000000E+00 -0.00000000000E+00 -0.44973904698E+03  0.44973904698E+03  0.00000000000E+00 0. -1.
         23    2    1    2    0    0 -0.27856906009E+02 -0.39192726627E+01 -0.32178483783E+03  0.33532445243E+03  0.90031320261E+02 0.  0.
         23    2    1    2    0    0 -0.22733722796E+02  0.74625136833E+01 -0.90916393805E+02  0.12966847845E+03  0.89306284086E+02 0.  0.
        -13    1    3    3    0    0 -0.53082293190E+02  0.21830675907E+02 -0.17470037457E+03  0.18388727290E+03  0.00000000000E+00 0. -1.
         13    1    3    3    0    0  0.25225387181E+02 -0.25749948569E+02 -0.14708446326E+03  0.15143717953E+03  0.00000000000E+00 0.  1.
        -13    1    4    4    0    0  0.56947058094E+01 -0.36739683393E+02 -0.22719631822E+02  0.43570812251E+02  0.00000000000E+00 0.  1.
         13    1    4    4    0    0 -0.28428428605E+02  0.44202197076E+02 -0.68196761983E+02  0.86097666195E+02  0.00000000000E+00 0. -1.
          3    1    1    2  501    0  0.50590628805E+02 -0.35432410206E+01  0.48141599624E+02  0.69925531061E+02  0.00000000000E+00 0. -1.
<scales pt_clust_5="13000.00000" pt_clust_6="13000.00000" pt_clust_7="13000.00000" pt_clust_8="13000.00000" pt_clust_9="50.71456"></scales>
<clustering>
<clus scale="   50.715">  1  9  2 -1</clus>
<clus scale="   89.306">  7  8 -1 -1</clus>
<clus scale="   90.031">  5  6 -1 -1</clus>
<clus scale="   90.647">  1  7  2 -1</clus>
<clus scale="   50.715">  1  5  2 -1</clus>
</clustering>
</event>
<event>
 9    1  0.1881049E-005  0.1589510E+03  0.7546771E-02  0.1196063E+00
          1   -1    0    0  502    0 -0.00000000000E+00  0.00000000000E+00  0.32605873901E+03  0.32605873901E+03  0.00000000000E+00 0. -1.
         21   -1    0    0  501  502  0.00000000000E+00 -0.00000000000E+00 -0.15572898404E+03  0.15572898404E+03  0.00000000000E+00 0.  1.
         23    2    1    2    0    0  0.90932493460E+01  0.10891010070E+03  0.25650238720E+03  0.30382912602E+03  0.12072516707E+03 0.  0.
         23    2    1    2    0    0  0.57341882230E+01 -0.77771666924E+02 -0.70623240188E+02  0.14012688341E+03  0.92555865878E+02 0.  0.
        -13    1    3    3    0    0 -0.20814214380E+02  0.12570567729E+03  0.18643850226E+03  0.22581953845E+03  0.00000000000E+00 0.  1.
         13    1    3    3    0    0  0.29907463726E+02 -0.16795576594E+02  0.70063884942E+02  0.78009587570E+02  0.00000000000E+00 0. -1.
        -13    1    4    4    0    0  0.30147802342E+02 -0.70146126288E+02 -0.13494029272E+02  0.77533591722E+02  0.00000000000E+00 0. -1.
         13    1    4    4    0    0 -0.24413614119E+02 -0.76255406362E+01 -0.57129210915E+02  0.62593291686E+02  0.00000000000E+00 0.  1.
          1    1    1    2  501    0 -0.14827437569E+02 -0.31138433773E+02 -0.15549392037E+02  0.37831713620E+02  0.00000000000E+00 0. -1.
<scales pt_clust_5="13000.00000" pt_clust_6="13000.00000" pt_clust_7="13000.00000" pt_clust_8="13000.00000" pt_clust_9="34.48848"></scales>
<clustering>
<clus scale="   34.488">  2  9  1 -1</clus>
<clus scale="   92.556">  7  8 -1 -1</clus>
<clus scale="  120.725">  5  6 -1 -1</clus>
<clus scale="  138.771">  2  7  1 -1</clus>
<clus scale="   34.488">  2  5  1 -1</clus>
</clustering>
</event>
<event>
 9    1  0.1881049E-005  0.1366530E+03  0.7546771E-02  0.1226246E+00
         21   -1    0    0  501  502  0.00000000000E+00  0.00000000000E+00  0.20003015368E+03  0.20003015368E+03  0.00000000000E+00 0. -1.
          1   -1    0    0  502    0 -0.00000000000E+00 -0.00000000000E+00 -0.11147542990E+03  0.11147542990E+03  0.00000000000E+00 0. -1.
         23    2    1    2    0    0 -0.51726289245E+02  0.52223275730E+02 -0.16244647752E+02  0.11929764090E+03  0.92548144312E+02 0.  0.
         23    2    1    2    0    0  0.28632628119E+02 -0.49899987199E+02  0.67053170811E+02  0.14789665154E+03  0.11860630550E+03 0.  0.
        -11    1    4    4    0    0 -0.26010991133E+02 -0.41190488299E+02 -0.13148531963E+02  0.50459011870E+02  0.00000000000E+00 0. -1.
         11    1    4    4    0    0  0.54643619252E+02 -0.87094988995E+01  0.80201702775E+02  0.97437639667E+02  0.00000000000E+00 0.  1.
        -13    1    3    3    0    0  0.19018491189E+02  0.39591946854E+02  0.53794608183E+01  0.44251145313E+02  0.00000000000E+00 0.  1.
         13    1    3    3    0    0 -0.70744780434E+02  0.12631328876E+02 -0.21624108571E+02  0.75046495583E+02  0.00000000000E+00 0. -1.
          1    1    1    2  501    0  0.23093661126E+02 -0.23232885311E+01  0.37746200727E+02  0.44311291147E+02  0.00000000000E+00 0. -1.
<scales pt_clust_5="13000.00000" pt_clust_6="13000.00000" pt_clust_7="13000.00000" pt_clust_8="13000.00000" pt_clust_9="23.21023"></scales>
<clustering>
<clus scale="   23.210">  1  9  2 -1</clus>
<clus scale="   92.548">  7  8 -1 -1</clus>
<clus scale="  114.768">  2  7  1 -1</clus>
<clus scale="  118.606">  5  6 -1 -1</clus>
<clus scale="   23.210">  1  5  2 -1</clus>
</clustering>
</event>
<event>
 9    1  0.1881049E-005  0.1220463E+03  0.7546771E-02  0.1252389E+00
          2   -1    0    0  502    0 -0.00000000000E+00  0.00000000000E+00  0.51037447537E+02  0.51037447537E+02  0.00000000000E+00 0. -1.
         21   -1    0    0  501  502  0.00000000000E+00 -0.00000000000E+00 -0.53832389386E+03  0.53832389386E+03  0.00000000000E+00 0. -1.
         23    2    1    2    0    0 -0.32353029420E+02 -0.15299572968E+02 -0.53312447562E+02  0.13537715069E+03  0.11918036926E+03 0.  0.
         23    2    1    2    0    0 -0.33928543564E+01 -0.63180495643E+01 -0.31123623963E+03  0.32433216671E+03  0.90950141793E+02 0.  0.
        -11    1    3    3    0    0  0.43827643043E+02 -0.15482600705E+02 -0.31447525623E+02  0.56120585235E+02  0.00000000000E+00 0.  1.
         11    1    3    3    0    0 -0.76180672463E+02  0.18302773686E+00 -0.21864921939E+02  0.79256565454E+02  0.00000000000E+00 0. -1.
        -13    1    4    4    0    0  0.31631498387E+02 -0.29718558823E+02 -0.21411900655E+03  0.21847355308E+03  0.00000000000E+00 0. -1.
         13    1    4    4    0    0 -0.35024352744E+02  0.23400509259E+02 -0.97117233083E+02  0.10585861363E+03  0.00000000000E+00 0.  1.
          2    1    1    2  501    0  0.35745883777E+02  0.21617622532E+02 -0.12273775913E+03  0.12965202400E+03  0.00000000000E+00 0. -1.
<scales pt_clust_5="13000.00000" pt_clust_6="13000.00000" pt_clust_7="13000.00000" pt_clust_8="13000.00000" pt_clust_9="41.77427"></scales>
<clustering>
<clus scale="   41.774">  2  9  1 -1</clus>
<clus scale="   90.950">  7  8 -1 -1</clus>
<clus scale="   94.674">  2  7  1 -1</clus>
<clus scale="  119.180">  5  6 -1 -1</clus>
<clus scale="   41.774">  2  5  1 -1</clus>
</clustering>
</event>
<event>
 9    1  0.1881049E-005  0.9697492E+02  0.7546771E-02  0.1287984E+00
         21   -1    0    0  501  502  0.00000000000E+00  0.00000000000E+00  0.25505798920E+03  0.25505798920E+03  0.00000000000E+00 0.  1.
         -1   -1    0    0    0  501 -0.00000000000E+00 -0.00000000000E+00 -0.84889389770E+02  0.84889389770E+02  0.00000000000E+00 0.  1.
         23    2    1    2    0    0  0.87460719836E+01 -0.39953797734E+02 -0.24821636398E+02  0.99341278512E+02  0.87061910468E+02 0.  0.
         23    2    1    2    0    0  0.89238179389E+01  0.50106986526E+02  0.89913088911E+02  0.13357097045E+03  0.84655159104E+02 0.  0.
        -11    1    4    4    0    0  0.23695075759E+02  0.68119039968E+02  0.51411065249E+02  0.88570637637E+02  0.00000000000E+00 0.  1.
         11    1    4    4    0    0 -0.14771257820E+02 -0.18012053442E+02  0.38502023662E+02  0.45000332808E+02  0.00000000000E+00 0. -1.
        -13    1    3    3    0    0 -0.29305540535E+02 -0.29374546031E+02 -0.39421720356E+02  0.57234174201E+02  0.00000000000E+00 0. -1.
         13    1    3    3    0    0  0.38051612519E+02 -0.10579251703E+02  0.14600083958E+02  0.42107104311E+02  0.00000000000E+00 0.  1.
         -1    1    1    2    0  502 -0.17669889922E+02 -0.10153188792E+02  0.10507714692E+03  0.10703513001E+03  0.00000000000E+00 0.  1.
<scales pt_clust_5="13000.00000" pt_clust_6="13000.00000" pt_clust_7="13000.00000" pt_clust_8="13000.00000" pt_clust_9="20.37921"></scales>
<clustering>
<clus scale="   20.379">  1  9  2 -1</clus>
<clus scale="   84.655">  5  6 -1 -1</clus>
<clus scale="   87.062">  7  8 -1 -1</clus>
<clus scale="   94.820">  1  5  2 -1</clus>
<clus scale="   20.379">  1  5  2 -1</clus>
</clustering>
</event>
<event>
 9    1  0.1881049E-005  0.1632616E+03  0.7546771E-02  0.1204013E+00
         -2   -1    0    0    0  501 -0.00000000000E+00  0.00000000000E+00  0.42321085792E+03  0.42321085792E+03  0.00000000000E+00 0.  1.
         21   -1    0    0  501  502  0.00000000000E+00 -0.00000000000E+00 -0.74215572554E+03  0.74215572554E+03  0.00000000000E+00 0.  1.
         23    2    1    2    0    0  0.53391254930E+02  0.23550254561E+02 -0.14094307908E+03  0.17741735848E+03  0.90590987172E+02 0.  0.
         23    2    1    2    0    0 -0.14151778817E+03 -0.12097121361E+03  0.36964554401E+03  0.42476654594E+03  0.95537801181E+02 0.  0.
        -11    1    3    3    0    0  0.22489071063E+02 -0.33900110819E+02 -0.70597332179E+02  0.81479808184E+02  0.00000000000E+00 0.  1.
         11    1    3    3    0    0  0.30902183867E+02  0.57450365379E+02 -0.70345746898E+02  0.95937550295E+02  0.00000000000E+00 0. -1.
        -13    1    4    4    0    0 -0.12033968270E+03 -0.10171886935E+03  0.20981800228E+03  0.26239657333E+03  0.00000000000E+00 0.  1.
         13    1    4    4    0    0 -0.21178105470E+02 -0.19252344263E+02  0.15982754173E+03  0.16236997262E+03  0.00000000000E+00 0. -1.
         -2    1    1    2    0  502  0.88126533242E+02  0.97420959049E+02 -0.54764733255E+03  0.56318267904E+03  0.00000000000E+00 0.  1.
<scales pt_clust_5="13000.00000" pt_clust_6="13000.00000" pt_clust_7="13000.00000" pt_clust_8="13000.00000" pt_clust_9="132.38917"></scales>
<clustering>
<clus scale="   90.591">  5  6 -1 -1</clus>
<clus scale="   95.538">  7  8 -1 -1</clus>
<clus scale="  107.759">  1  5  2 -1</clus>
<clus scale="  132.389">  2  9  1 -1</clus>
<clus scale="  132.389">  2  5  1 -1</clus>
</clustering>
</event>
<event>
 9    1  0.1881049E-005  0.3517531E+03  0.7546771E-02  0.1081554E+00
         21   -1    0    0  501  502  0.00000000000E+00  0.00000000000E+00  0.24770698650E+03  0.24770698650E+03  0.00000000000E+00 0.  1.
          1   -1    0    0  502    0 -0.00000000000E+00 -0.00000000000E+00 -0.11077721463E+04  0.11077721463E+04  0.00000000000E+00 0. -1.
         23    2    1    2    0    0 -0.71184021438E+02  0.15397715277E+03 -0.16185217727E+03  0.26151452593E+03  0.11583432782E+03 0.  0.
         23    2    1    2    0    0 -0.10313363279E+03 -0.42084877494E+03 -0.62697200266E+03  0.76734191243E+03  0.89271948928E+02 0.  0.
        -13    1    3    3    0    0 -0.10100184694E+03  0.13456888438E+03 -0.12045074169E+03  0.20692640939E+03  0.00000000000E+00 0.  1.
         13    1    3    3    0    0  0.29817825499E+02  0.19408268390E+02 -0.41401435580E+02  0.54588116541E+02  0.00000000000E+00 0. -1.
        -13    1    4    4    0    0 -0.16188831277E+02 -0.45750044702E+02 -0.12930153343E+03  0.13810876654E+03  0.00000000000E+00 0. -1.
         13    1    4    4    0    0 -0.86944801511E+02 -0.37509873024E+03 -0.49767046923E+03  0.62923314589E+03  0.00000000000E+00 0.  1.
          1    1    1    2  501    0  0.17431765423E+03  0.26687162217E+03 -0.71240979832E+02  0.32662269441E+03  0.00000000000E+00 0. -1.
<scales pt_clust_5="13000.00000" pt_clust_6="13000.00000" pt_clust_7="13000.00000" pt_clust_8="13000.00000" pt_clust_9="340.23638"></scales>
<clustering>
<clus scale="   89.272">  7  8 -1 -1</clus>
<clus scale="  115.834">  5  6 -1 -1</clus>
<clus scale="  205.411">  2  5  1 -1</clus>
<clus scale="  340.236">  1  9  2 -1</clus>
<clus scale="  340.236">  1  5  2 -1</clus>
</clustering>
</event>
<event>
 9    1  0.1881049E-005  0.1051631E+03  0.7546771E-02  0.1270505E+00
          2   -1    0    0  502    0 -0.00000000000E+00  0.00000000000E+00  0.26523319771E+03  0.26523319771E+03  0.00000000000E+00 0. -1.
         21   -1    0    0  501  502  0.00000000000E+00 -0.00000000000E+00 -0.18558901555E+03  0.18558901555E+03  0.00000000000E+00 0.  1.
         23    2    1    2    0    0 -0.87114270469E+01  0.55108025651E+02  0.20049424452E+03  0.22747270180E+03  0.91831936296E+02 0.  0.
         23    2    1    2    0    0 -0.59396537474E+01 -0.36370695167E+02  0.27594132269E+01  0.97472411955E+02  0.90195065150E+02 0.  0.
        -11    1    3    3    0    0  0.33080312728E+02  0.33090455164E+02  0.44832403709E+02  0.64801463992E+02  0.00000000000E+00 0.  1.
         11    1    3    3    0    0 -0.41791739775E+02  0.22017570487E+02  0.15566184082E+03  0.16267123781E+03  0.00000000000E+00 0. -1.
        -13    1    4    4    0    0 -0.25066097876E+02  0.22635509708E+02  0.94842649273E+01  0.35080291385E+02  0.00000000000E+00 0. -1.
         13    1    4    4    0    0  0.19126444128E+02 -0.59006204875E+02 -0.67248517004E+01  0.62392120569E+02  0.00000000000E+00 0.  1.
          2    1    1    2  501    0  0.14651080794E+02 -0.18737330484E+02 -0.12360947560E+03  0.12587709950E+03  0.00000000000E+00 0. -1.
<scales pt_clust_5="13000.00000" pt_clust_6="13000.00000" pt_clust_7="13000.00000" pt_clust_8="13000.00000" pt_clust_9="23.78533"></scales>
<clustering>
<clus scale="   23.785">  2  9  1 -1</clus>
<clus scale="   90.195">  7  8 -1 -1</clus>
<clus scale="   91.832">  5  6 -1 -1</clus>
<clus scale="  103.737">  2  7  1 -1</clus>
<clus scale="   23.785">  2  5  1 -1</clus>
</clustering>
</event>
<event>
 9    1  0.1881049E-005  0.1015757E+03  0.7546771E-02  0.1278444E+00
         21   -1    0    0  501  502  0.00000000000E+00  0.00000000000E+00  0.20420051013E+03  0.20420051013E+03  0.00000000000E+00 0.  1.
         -3   -1    0    0    0  501 -0.00000000000E+00 -0.00000000000E+00 -0.11690018667E+03  0.11690018667E+03  0.00000000000E+00 0.  1.
         23    2    1    2    0    0 -0.15733777540E+02 -0.11461675225E+02 -0.29556569615E+01  0.92334132032E+02  0.90210499806E+02 0.  0.
         23    2    1    2    0    0  0.70398480656E+02  0.55105747071E+02  0.14528168001E+02  0.12567565174E+03  0.87124694185E+02 0.  0.
        -11    1    3    3    0    0 -0.49699660719E+02 -0.14220012619E+02 -0.18465405131E+02  0.54892952382E+02  0.00000000000E+00 0. -1.
         11    1    3    3    0    0  0.33965883179E+02  0.27583373938E+01  0.15509748169E+02  0.37441179650E+02  0.00000000000E+00 0.  1.
        -11    1    4    4    0    0  0.44153477527E+02  0.40987743527E+02 -0.33664373125E+02  0.69013148857E+02  0.00000000000E+00 0.  1.
         11    1    4    4    0    0  0.26245003129E+02  0.14118003544E+02  0.48192541126E+02  0.56662502888E+02  0.00000000000E+00 0. -1.
         -3    1    1    2    0  502 -0.54664703116E+02 -0.43644071846E+02  0.75727812425E+02  0.10309091303E+03  0.00000000000E+00 0.  1.
<scales pt_clust_5="13000.00000" pt_clust_6="13000.00000" pt_clust_7="13000.00000" pt_clust_8="13000.00000" pt_clust_9="69.95023"></scales>
<clustering>
<clus scale="   69.950">  1  9  2 -1</clus>
<clus scale="   87.125">  7  8 -1 -1</clus>
<clus scale="   90.210">  5  6 -1 -1</clus>
<clus scale="   98.845">  1  7  2 -1</clus>
<clus scale="   69.950">  1  5  2 -1</clus>
</clustering>
</event>
<event>
 9    1  0.1881049E-005  0.1727197E+03  0.7546771E-02  0.1175109E+00
          4   -1    0    0  502    0 -0.00000000000E+00  0.00000000000E+00  0.25691675028E+03  0.25691675028E+03  0.00000000000E+00 0. -1.
         21   -1    0    0  501  502  0.00000000000E+00 -0.00000000000E+00 -0.27754089402E+03  0.27754089402E+03  0.00000000000E+00 0. -1.
         23    2    1    2    0    0 -0.97146859181E+02 -0.11096461454E+03  0.13703216457E+03  0.22064368376E+03  0.90305941820E+02 0.  0.
         23    2    1    2    0    0  0.70665051354E+02  0.12860953070E+03 -0.19785816305E+03  0.26254195709E+03  0.90810052725E+02 0.  0.
        -11    1    3    3    0    0  0.23128187064E+01 -0.51452916879E+02  0.69486318928E+02  0.86493354102E+02  0.00000000000E+00 0.  1.
         11    1    3    3    0    0 -0.99459677888E+02 -0.59511697658E+02  0.67545845646E+02  0.13415032966E+03  0.00000000000E+00 0. -1.
        -13    1    4    4    0    0  0.85809472127E+02  0.72163393958E+02 -0.11036614212E+03  0.15732611436E+03  0.00000000000E+00 0. -1.
         13    1    4    4    0    0 -0.15144420773E+02  0.56446136742E+02 -0.87492020934E+02  0.10521584273E+03  0.00000000000E+00 0.  1.
          4    1    1    2  501    0  0.26481807827E+02 -0.17644916163E+02  0.40201854741E+02  0.51272003441E+02  0.00000000000E+00 0. -1.
<scales pt_clust_5="13000.00000" pt_clust_6="13000.00000" pt_clust_7="13000.00000" pt_clust_8="13000.00000" pt_clust_9="31.82185"></scales>
<clustering>
<clus scale="   31.822">  2  9  1 -1</clus>
<clus scale="   90.306">  5  6 -1 -1</clus>
<clus scale="   90.810">  7  8 -1 -1</clus>
<clus scale="  172.455">  1  5  2 -1</clus>
<clus scale="   31.822">  2  5  1 -1</clus>
</clustering>
</event>
<event>
 9    1  0.1881049E-005  0.1316051E+03  0.7546771E-02  0.1225961E+00
         21   -1    0    0  501  502  0.00000000000E+00  0.00000000000E+00  0.28493600516E+03  0.28493600516E+03  0.00000000000E+00 0. -1.
          2   -1    0    0  502    0 -0.00000000000E+00 -0.00000000000E+00 -0.60442613543E+03  0.60442613543E+03  0.00000000000E+00 0. -1.
         23    2    1    2    0    0 -0.13319912951E+02 -0.94706896000E+02 -0.42890994406E+03  0.44829905208E+03  0.88665008630E+02 0.  0.
         23    2    1    2    0    0 -0.32584378623E+02  0.92130251720E+02 -0.13615876265E+03  0.19121777578E+03  0.92061414903E+02 0.  0.
        -13    1    4    4    0    0  0.22805624122E+02 -0.32016657669E+01 -0.15435669173E+02  0.27723763058E+02  0.00000000000E+00 0.  1.
         13    1    4    4    0    0 -0.55390002745E+02  0.95331917486E+02 -0.12072309348E+03  0.16349401272E+03  0.00000000000E+00 0. -1.
        -13    1    3    3    0    0  0.26901378574E+02 -0.52720870469E+02 -0.11814367432E+03  0.13214046365E+03  0.00000000000E+00 0.  1.
         13    1    3    3    0    0 -0.40221291525E+02 -0.41986025531E+02 -0.31076626974E+03  0.31615858844E+03  0.00000000000E+00 0. -1.
          2    1    1    2  501    0  0.45904291574E+02  0.25766442803E+01  0.24557857644E+03  0.24984531272E+03  0.00000000000E+00 0. -1.
<scales pt_clust_5="13000.00000" pt_clust_6="13000.00000" pt_clust_7="13000.00000" pt_clust_8="13000.00000" pt_clust_9="45.97655"></scales>
<clustering>
<clus scale="   45.977">  1  9  2 -1</clus>
<clus scale="   88.665">  7  8 -1 -1</clus>
<clus scale="   92.061">  5  6 -1 -1</clus>
<clus scale="  129.252">  2  7  1 -1</clus>
<clus scale="   45.977">  1  5  2 -1</clus>
</clustering>
</event>
<event>
 9    1  0.1881049E-005  0.1089283E+03  0.7546771E-02  0.1264333E+00
          4   -1    0    0  502    0 -0.00000000000E+00  0.00000000000E+00  0.36934197842E+03  0.36934197842E+03  0.00000000000E+00 0. -1.
         21   -1    0    0  501  502  0.00000000000E+00 -0.00000000000E+00 -0.69099989895E+02  0.69099989895E+02  0.00000000000E+00 0. -1.
         23    2    1    2    0    0 -0.44033121703E+02 -0.21828468262E+02  0.18331206255E+03  0.20865258408E+03  0.86701734332E+02 0.  0.
         23    2    1    2    0    0  0.83302895736E+02  0.34319710227E+01  0.13484071845E+03  0.18287091505E+03  0.91151529635E+02 0.  0.
        -13    1    3    3    0    0 -0.24701547364E+02 -0.50042115435E+02  0.15333063567E+03  0.16317065788E+03  0.00000000000E+00 0.  1.
         13    1    3    3    0    0 -0.19331574339E+02  0.28213647173E+02  0.29981426877E+02  0.45481926200E+02  0.00000000000E+00 0. -1.
        -13    1    4    4    0    0  0.38005977939E+02  0.44735005302E+02  0.44344101749E+02  0.73566802421E+02  0.00000000000E+00 0.  1.
         13    1    4    4    0    0  0.45296917797E+02 -0.41303034279E+02  0.90496616706E+02  0.10930411263E+03  0.00000000000E+00 0. -1.
          4    1    1    2  501    0 -0.39269774033E+02  0.18396497239E+02 -0.17910792475E+02  0.46918469182E+02  0.00000000000E+00 0. -1.
<scales pt_clust_5="13000.00000" pt_clust_6="13000.00000" pt_clust_7="13000.00000" pt_clust_8="13000.00000" pt_clust_9="43.36527"></scales>
<clustering>
<clus scale="   43.365">  2  9  1 -1</clus>
<clus scale="   86.702">  5  6 -1 -1</clus>
<clus scale="   91.152">  7  8 -1 -1</clus>
<clus scale="  105.233">  1  5  2 -1</clus>
<clus scale="   43.365">  2  5  1 -1</clus>
</clustering>
</event>
<event>
 9    1  0.1881049E-005  0.1024743E+03  0.7546771E-02  0.1277092E+00
         21   -1    0    0  501  502  0.00000000000E+00  0.00000000000E+00  0.35844019219E+02  0.35844019219E+02  0.00000000000E+00 0.  1.
         -2   -1    0    0    0  501 -0.00000000000E+00 -0.00000000000E+00 -0.52388416546E+03  0.52388416546E+03  0.00000000000E+00 0.  1.
         23    2    1    2    0    0  0.21094325772E+02  0.44352460295E+02 -0.29511537548E+03  0.31336690396E+03  0.93239585696E+02 0.  0.
         23    2    1    2    0    0 -0.37433717472E+02 -0.15472492609E+02 -0.18910433913E+03  0.21296032336E+03  0.89168195100E+02 0.  0.
        -13    1    3    3    0    0  0.28912373654E+01  0.65968864098E+02 -0.26020055524E+03  0.26844846662E+03  0.00000000000E+00 0.  1.
         13    1    3    3    0    0  0.18203088407E+02 -0.21616403803E+02 -0.34914820241E+02  0.44918437344E+02  0.00000000000E+00 0. -1.
        -13    1    4    4    0    0  0.21585637666E+02  0.19701769461E+02 -0.55360198968E+02  0.62600727657E+02  0.00000000000E+00 0.  1.
         13    1    4    4    0    0 -0.59019355138E+02 -0.35174262070E+02 -0.13374414016E+03  0.15035959570E+03  0.00000000000E+00 0. -1.
         -2    1    1    2    0  502  0.16339391699E+02 -0.28879967686E+02 -0.38204316373E+01  0.33400957359E+02  0.00000000000E+00 0.  1.
<scales pt_clust_5="13000.00000" pt_clust_6="13000.00000" pt_clust_7="13000.00000" pt_clust_8="13000.00000" pt_clust_9="33.18175"></scales>
<clustering>
<clus scale="   33.182">  1  9  2 -1</clus>
<clus scale="   89.168">  7  8 -1 -1</clus>
<clus scale="   93.240">  5  6 -1 -1</clus>
<clus scale="   98.784">  1  7  2 -1</clus>
<clus scale="   33.182">  1  5  2 -1</clus>
</clustering>
</event>
<event>
 9    1  0.1881049E-005  0.1332419E+03  0.7546771E-02  0.1223688E+00
         21   -1    0    0  501  502  0.00000000000E+00  0.00000000000E+00  0.71881553279E+02  0.71881553279E+02  0.00000000000E+00 0. -1.
          1   -1    0    0  502    0 -0.00000000000E+00 -0.00000000000E+00 -0.67371584893E+03  0.67371584893E+03  0.00000000000E+00 0. -1.
         23    2    1    2    0    0 -0.11570131707E+03 -0.13953050229E+02 -0.46755584480E+03  0.49034722214E+03  0.90831976036E+02 0.  0.
         23    2    1    2    0    0  0.53947105503E+02 -0.33387838442E+02 -0.13601795886E+03  0.17741851379E+03  0.94611870065E+02 0.  0.
        -11    1    3    3    0    0 -0.70384030770E+02  0.23586514743E+02 -0.36165966433E+03  0.36919906320E+03  0.00000000000E+00 0. -1.
         11    1    3    3    0    0 -0.45317286303E+02 -0.37539564972E+02 -0.10589618047E+03  0.12114815894E+03  0.00000000000E+00 0.  1.
        -13    1    4    4    0    0 -0.14712281388E+01 -0.54540987678E+02 -0.67372203102E+02  0.86694276627E+02  0.00000000000E+00 0. -1.
         13    1    4    4    0    0  0.55418333642E+02  0.21153149236E+02 -0.68645755754E+02  0.90724237165E+02  0.00000000000E+00 0.  1.
          1    1    1    2  501    0  0.61754211570E+02  0.47340888671E+02  0.17395080080E+01  0.77831666273E+02  0.00000000000E+00 0. -1.
<scales pt_clust_5="13000.00000" pt_clust_6="13000.00000" pt_clust_7="13000.00000" pt_clust_8="13000.00000" pt_clust_9="77.81223"></scales>
<clustering>
<clus scale="   77.812">  1  9  2 -1</clus>
<clus scale="   90.832">  5  6 -1 -1</clus>
<clus scale="   94.612">  7  8 -1 -1</clus>
<clus scale="  130.585">  2  5  1 -1</clus>
<clus scale="   77.812">  1  5  2 -1</clus>
</clustering>
</event>
<event>
 9    1  0.1881049E-005  0.1072699E+03  0.7546771E-02  0.1266051E+00
         21   -1    0    0  501  502  0.00000000000E+00  0.00000000000E+00  0.27396452156E+03  0.27396452156E+03  0.00000000000E+00 0.  1.
          3   -1    0    0  502    0 -0.00000000000E+00 -0.00000000000E+00 -0.53381483563E+02  0.53381483563E+02  0.00000000000E+00 0. -1.
         23    2    1    2    0    0  0.30781896215E+02  0.32976143006E+02  0.68722476057E+02  0.12540820398E+03  0.94707379691E+02 0.  0.
         23    2    1    2    0    0 -0.27447827899E+02 -0.53436547032E+02  0.13591886693E+03  0.17578666762E+03  0.93905092047E+02 0.  0.
        -11    1    3    3    0    0  0.29791074361E+02  0.61139199516E+02  0.69468001156E+02  0.97217863655E+02  0.00000000000E+00 0.  1.
         11    1    3    3    0    0  0.99082185302E+00 -0.28163056510E+02 -0.74552509842E+00  0.28190340325E+02  0.00000000000E+00 0. -1.
        -13    1    4    4    0    0 -0.13009342148E+02 -0.77610980413E+02  0.11982086379E+03  0.14335182825E+03  0.00000000000E+00 0. -1.
         13    1    4    4    0    0 -0.14438485751E+02  0.24174433380E+02  0.16098003136E+02  0.32434839371E+02  0.00000000000E+00 0.  1.
          3    1    1    2  501    0 -0.33340683154E+01  0.20460404026E+02  0.15941695011E+02  0.26151133518E+02  0.00000000000E+00 0. -1.
<scales pt_clust_5="13000.00000" pt_clust_6="13000.00000" pt_clust_7="13000.00000" pt_clust_8="13000.00000" pt_clust_9="20.73028"></scales>
<clustering>
<clus scale="   20.730">  1  9  2 -1</clus>
<clus scale="   93.905">  7  8 -1 -1</clus>
<clus scale="   94.707">  5  6 -1 -1</clus>
<clus scale="  106.562">  1  7  2 -1</clus>
<clus scale="   20.730">  1  5  2 -1</clus>
</clustering>
</event>
<event>
 9    1  0.1881049E-005  0.9418520E+02  0.7546771E-02  0.1293681E+00
         21   -1    0    0  501  502  0.00000000000E+00  0.00000000000E+00  0.18661846543E+03  0.18661846543E+03  0.00000000000E+00 0. -1.
          4   -1    0    0  502    0 -0.00000000000E+00 -0.00000000000E+00 -0.13324407903E+03  0.13324407903E+03  0.00000000000E+00 0. -1.
         23    2    1    2    0    0  0.20526596179E+02  0.27559499598E+01 -0.85249809328E+02  0.12727995464E+03  0.92215619354E+02 0.  0.
         23    2    1    2    0    0 -0.37475821208E+01 -0.30308682836E+02  0.77232605732E+02  0.12323119673E+03  0.91040605398E+02 0.  0.
        -13    1    4    4    0    0 -0.45320411126E+02 -0.30087543006E+02  0.41716427484E+02  0.68552609219E+02  0.00000000000E+00 0.  1.
         13    1    4    4    0    0  0.41572829005E+02 -0.22113983027E+00  0.35516178248E+02  0.54678587506E+02  0.00000000000E+00 0. -1.
        -13    1    3    3    0    0 -0.30219985647E+02 -0.19788948049E+02 -0.18929207506E+02  0.40781918716E+02  0.00000000000E+00 0.  1.
         13    1    3    3    0    0  0.50746581826E+02  0.22544898009E+02 -0.66320601823E+02  0.86498035928E+02  0.00000000000E+00 0. -1.
          4    1    1    2  501    0 -0.16779014058E+02  0.27552732876E+02  0.61391589999E+02  0.69351393096E+02  0.00000000000E+00 0. -1.
<scales pt_clust_5="13000.00000" pt_clust_6="13000.00000" pt_clust_7="13000.00000" pt_clust_8="13000.00000" pt_clust_9="32.25970"></scales>
<clustering>
<clus scale="   32.260">  1  9  2 -1</clus>
<clus scale="   91.041">  5  6 -1 -1</clus>
<clus scale="   92.216">  7  8 -1 -1</clus>
<clus scale="   93.035">  1  5  2 -1</clus>
<clus scale="   32.260">  1  5  2 -1</clus>
</clustering>
</event>
<event>
 9    1  0.1881049E-005  0.9701807E+02  0.7546771E-02  0.1287361E+00
          1   -1    0    0  502    0 -0.00000000000E+00  0.00000000000E+00  0.11023435795E+03  0.11023435795E+03  0.00000000000E+00 0. -1.
         21   -1    0    0  501  502  0.00000000000E+00 -0.00000000000E+00 -0.43782932527E+03  0.43782932527E+03  0.00000000000E+00 0.  1.
         23    2    1    2    0    0 -0.62486805288E+01  0.21416787620E+02  0.62560773711E+02  0.11412940051E+03  0.92811340106E+02 0.  0.
         23    2    1    2    0    0  0.29451666557E+02 -0.58583994837E+02 -0.13853967946E+03  0.17853181152E+03  0.91547145379E+02 0.  0.
        -11    1    4    4    0    0  0.35922487549E+01 -0.30636557799E+02  0.38989586383E+01  0.31091876807E+02  0.00000000000E+00 0. -1.
         11    1    4    4    0    0  0.25859417802E+02 -0.27947437038E+02 -0.14243863810E+03  0.14743993472E+03  0.00000000000E+00 0.  1.
        -13    1    3    3    0    0  0.20823638839E+02  0.49358501730E+02  0.49911331625E+02  0.73219032035E+02  0.00000000000E+00 0. -1.
         13    1    3    3    0    0 -0.27072319368E+02 -0.27941714110E+02  0.12649442086E+02  0.40910368471E+02  0.00000000000E+00 0.  1.
          1    1    1    2  501    0 -0.23202986029E+02  0.37167207216E+02 -0.25161606156E+03  0.25540247119E+03  0.00000000000E+00 0. -1.
<scales pt_clust_5="13000.00000" pt_clust_6="13000.00000" pt_clust_7="13000.00000" pt_clust_8="13000.00000" pt_clust_9="43.81529"></scales>
<clustering>
<clus scale="   43.815">  2  9  1 -1</clus>
<clus scale="   91.547">  5  6 -1 -1</clus>
<clus scale="   92.811">  7  8 -1 -1</clus>
<clus scale="   95.809">  2  5  1 -1</clus>
<clus scale="   43.815">  2  5  1 -1</clus>
</clustering>
</event>
<event>
 9    1  0.1881049E-005  0.1197668E+03  0.7546771E-02  0.1244859E+00
          1   -1    0    0  502    0 -0.00000000000E+00  0.00000000000E+00  0.25059061625E+03  0.25059061625E+03  0.00000000000E+00 0. -1.
         21   -1    0    0  501  502  0.00000000000E+00 -0.00000000000E+00 -0.14310740966E+03  0.14310740966E+03  0.00000000000E+00 0. -1.
         23    2    1    2    0    0  0.90816648633E+01 -0.71965227512E+02  0.13973139751E+03  0.18425981820E+03  0.95735816407E+02 0.  0.
         23    2    1    2    0    0 -0.28622935569E+02  0.66887006393E+02  0.48183010087E+02  0.12651156732E+03  0.91599291159E+02 0.  0.
        -11    1    3    3    0    0  0.46528463302E+02 -0.40964315651E+02  0.41333340009E+02  0.74507838851E+02  0.00000000000E+00 0.  1.
         11    1    3    3    0    0 -0.37446798438E+02 -0.31000911861E+02  0.98398057505E+02  0.10975197935E+03  0.00000000000E+00 0. -1.
        -11    1    4    4    0    0  0.20114358789E+01 -0.21478808871E+02  0.60815228537E+00  0.21581356630E+02  0.00000000000E+00 0.  1.
         11    1    4    4    0    0 -0.30634371448E+02  0.88365815264E+02  0.47574857802E+02  0.10493021069E+03  0.00000000000E+00 0. -1.
          1    1    1    2  501    0  0.19541270706E+02  0.50782211190E+01 -0.80431201013E+02  0.82926640393E+02  0.00000000000E+00 0. -1.
<scales pt_clust_5="13000.00000" pt_clust_6="13000.00000" pt_clust_7="13000.00000" pt_clust_8="13000.00000" pt_clust_9="20.19033"></scales>
<clustering>
<clus scale="   20.190">  2  9  1 -1</clus>
<clus scale="   91.599">  7  8 -1 -1</clus>
<clus scale="   95.736">  5  6 -1 -1</clus>
<clus scale="  116.487">  2  7  1 -1</clus>
<clus scale="   20.190">  2  5  1 -1</clus>
</clustering>
</event>
<event>
 9    1  0.1881049E-005  0.9834366E+02  0.7546771E-02  0.1286822E+00
          2   -1    0    0  502    0 -0.00000000000E+00  0.00000000000E+00  0.14775685257E+03  0.14775685257E+03  0.00000000000E+00 0. -1.
         21   -1    0    0  501  502  0.00000000000E+00 -0.00000000000E+00 -0.38495395321E+03  0.38495395321E+03  0.00000000000E+00 0. -1.
         23    2    1    2    0    0 -0.62571469208E+01  0.88960393139E+01  0.10084857557E+03  0.14034711324E+03  0.96997863888E+02 0.  0.
         23    2    1    2    0    0  0.54501254221E+02 -0.11502670227E+02 -0.90751226238E+02  0.14039378680E+03  0.91498263234E+02 0.  0.
        -11    1    4    4    0    0  0.18280604208E+02 -0.37839660599E+02 -0.33132864860E+01  0.42154457319E+02  0.00000000000E+00 0.  1.
         11    1    4    4    0    0  0.36220650013E+02  0.26336990372E+02 -0.87437939752E+02  0.98239329483E+02  0.00000000000E+00 0. -1.
        -11    1    3    3    0    0 -0.20642152240E+02  0.49443336358E+02  0.65797065395E+02  0.84852788840E+02  0.00000000000E+00 0.  1.
         11    1    3    3    0    0  0.14385005319E+02 -0.40547297044E+02  0.35051510171E+02  0.55494324403E+02  0.00000000000E+00 0. -1.
          2    1    1    2  501    0 -0.48244107300E+02  0.26066309135E+01 -0.24729444996E+03  0.25196990574E+03  0.00000000000E+00 0. -1.
<scales pt_clust_5="13000.00000" pt_clust_6="13000.00000" pt_clust_7="13000.00000" pt_clust_8="13000.00000" pt_clust_9="48.31447"></scales>
<clustering>
<clus scale="   48.314">  2  9  1 -1</clus>
<clus scale="   91.498">  5  6 -1 -1</clus>
<clus scale="   92.924">  2  5  1 -1</clus>
<clus scale="   96.998">  7  8 -1 -1</clus>
<clus scale="   48.314">  2  5  1 -1</clus>
</clustering>
</event>
<event>
 9    1  0.1881049E-005  0.1390567E+03  0.7546771E-02  0.1216435E+00
         21   -1    0    0  501  502  0.00000000000E+00  0.00000000000E+00  0.17416167853E+03  0.17416167853E+03  0.00000000000E+00 0.  1.
         -4   -1    0    0    0  501 -0.00000000000E+00 -0.00000000000E+00 -0.23112478540E+03  0.23112478540E+03  0.00000000000E+00 0.  1.
         23    2    1    2    0    0  0.57554965795E+02 -0.10823402317E+03 -0.12814137220E+03  0.20350767328E+03  0.99839791434E+02 0.  0.
         23    2    1    2    0    0  0.30682216662E+01  0.51789150355E+02  0.37400835805E+02  0.11232428114E+03  0.92338461848E+02 0.  0.
        -13    1    3    3    0    0  0.36630750819E+02 -0.10630150115E+03 -0.50830399726E+02  0.12339185787E+03  0.00000000000E+00 0. -1.
         13    1    3    3    0    0  0.20924214976E+02 -0.19325220263E+01 -0.77310972479E+02  0.80115815413E+02  0.00000000000E+00 0.  1.
        -13    1    4    4    0    0 -0.20669614283E+02  0.17090300203E+02  0.59181918176E+02  0.64975462712E+02  0.00000000000E+00 0. -1.
         13    1    4    4    0    0  0.23737835949E+02  0.34698850151E+02 -0.21781082372E+02  0.47348818429E+02  0.00000000000E+00 0.  1.
         -4    1    1    2    0  502 -0.60623187462E+02  0.56444872819E+02  0.33777429535E+02  0.89454509509E+02  0.00000000000E+00 0.  1.
<scales pt_clust_5="13000.00000" pt_clust_6="13000.00000" pt_clust_7="13000.00000" pt_clust_8="13000.00000" pt_clust_9="82.83233"></scales>
<clustering>
<clus scale="   82.832">  1  9  2 -1</clus>
<clus scale="   92.338">  7  8 -1 -1</clus>
<clus scale="   99.840">  5  6 -1 -1</clus>
<clus scale="  133.773">  1  7  2 -1</clus>
<clus scale="   82.832">  1  5  2 -1</clus>
</clustering>
</event>
<event>
 9    1  0.1881049E-005  0.1101984E+03  0.7546771E-02  0.1263241E+00
         21   -1    0    0  501  502  0.00000000000E+00  0.00000000000E+00  0.51685958292E+02  0.51685958292E+02  0.00000000000E+00 0.  1.
         -2   -1    0    0    0  501 -0.00000000000E+00 -0.00000000000E+00 -0.80317244243E+03  0.80317244243E+03  0.00000000000E+00 0.  1.
         23    2    1    2    0    0  0.71120898593E+01 -0.18822677732E+02 -0.30215919413E+03  0.31823272285E+03  0.97811105063E+02 0.  0.
         23    2    1    2    0    0 -0.43577695417E+02  0.68770581760E+02 -0.45823671740E+03  0.47414438946E+03  0.90573751309E+02 0.  0.
        -11    1    4    4    0    0 -0.48451036185E+02 -0.28552836100E+01 -0.22181819871E+03  0.22706600104E+03  0.00000000000E+00 0.  1.
         11    1    4    4    0    0  0.48733407678E+01  0.71625865370E+02 -0.23641851869E+03  0.24707838841E+03  0.00000000000E+00 0. -1.
        -13    1    3    3    0    0 -0.34119617997E+02 -0.40575517683E+02 -0.15003483091E+03  0.15912564675E+03  0.00000000000E+00 0.  1.
         13    1    3    3    0    0  0.41231707856E+02  0.21752839952E+02 -0.15212436323E+03  0.15910707610E+03  0.00000000000E+00 0. -1.
         -2    1    1    2    0  502  0.36465605558E+02 -0.49947904029E+02  0.89094273951E+01  0.62481288416E+02  0.00000000000E+00 0.  1.
<scales pt_clust_5="13000.00000" pt_clust_6="13000.00000" pt_clust_7="13000.00000" pt_clust_8="13000.00000" pt_clust_9="61.84281"></scales>
<clustering>
<clus scale="   61.843">  1  9  2 -1</clus>
<clus scale="   90.574">  5  6 -1 -1</clus>
<clus scale="   97.811">  7  8 -1 -1</clus>
<clus scale="  103.828">  1  5  2 -1</clus>
<clus scale="   61.843">  1  5  2 -1</clus>
</clustering>
</event>
<event>
 9    1  0.1881049E-005  0.3246274E+03  0.7546771E-02  0.1092283E+00
          1   -1    0    0  502    0 -0.00000000000E+00  0.00000000000E+00  0.13148345597E+04  0.13148345597E+04  0.00000000000E+00 0. -1.
         21   -1    0    0  501  502  0.00000000000E+00 -0.00000000000E+00 -0.24414854384E+03  0.24414854384E+03  0.00000000000E+00 0. -1.
         23    2    1    2    0    0 -0.15153025355E+03  0.85312382816E+02  0.83593117051E+03  0.85870862512E+03  0.91432820289E+02 0.  0.
         23    2    1    2    0    0 -0.77321925062E+02 -0.31420958383E+03  0.12447595077E+03  0.35832611555E+03  0.90537285660E+02 0.  0.
        -11    1    4    4    0    0 -0.60783951522E+02 -0.90486129177E+02  0.62220026753E+02  0.12551398354E+03  0.00000000000E+00 0.  1.
         11    1    4    4    0    0 -0.16537973540E+02 -0.22372345466E+03  0.62255924016E+02  0.23281213200E+03  0.00000000000E+00 0. -1.
        -13    1    3    3    0    0 -0.37326898583E+02  0.54958542136E+02  0.17280330145E+03  0.18513432881E+03  0.00000000000E+00 0.  1.
         13    1    3    3    0    0 -0.11420335496E+03  0.30353840681E+02  0.66312786906E+03  0.67357429631E+03  0.00000000000E+00 0. -1.
          1    1    1    2  501    0  0.22885217861E+03  0.22889720102E+03  0.11027889458E+03  0.34194836288E+03  0.00000000000E+00 0. -1.
<scales pt_clust_5="13000.00000" pt_clust_6="13000.00000" pt_clust_7="13000.00000" pt_clust_8="13000.00000" pt_clust_9="311.74664"></scales>
<clustering>
<clus scale="   90.537">  5  6 -1 -1</clus>
<clus scale="   91.433">  7  8 -1 -1</clus>
<clus scale="  196.468">  1  7  2 -1</clus>
<clus scale="  311.747">  2  9  1 -1</clus>
<clus scale="  311.747">  2  5  1 -1</clus>
</clustering>
</event>
<event>
 9    1  0.1881049E-005  0.1534996E+03  0.7546771E-02  0.1198355E+00
          3   -1    0    0  502    0 -0.00000000000E+00  0.00000000000E+00  0.41476927283E+03  0.41476927283E+03  0.00000000000E+00 0. -1.
         21   -1    0    0  501  502  0.00000000000E+00 -0.00000000000E+00 -0.16389183145E+03  0.16389183145E+03  0.00000000000E+00 0.  1.
         23    2    1    2    0    0  0.71411991244E+02 -0.93614397690E+02  0.33554774737E+03  0.36537025649E+03  0.83903549457E+02 0.  0.
         23    2    1    2    0    0 -0.90616450028E+02  0.10908946163E+03 -0.76526104075E+02  0.18731746015E+03  0.95497301622E+02 0.  0.
        -13    1    4    4    0    0 -0.10950514264E+03  0.98364063117E+02 -0.75839394054E+02  0.16558526163E+03  0.00000000000E+00 0.  1.
         13    1    4    4    0    0  0.18888692612E+02  0.10725398508E+02 -0.68671002025E+00  0.21732198518E+02  0.00000000000E+00 0. -1.
        -13    1    3    3    0    0  0.52195950357E+02 -0.26918850291E+02  0.24117045131E+03  0.24821810635E+03  0.00000000000E+00 0.  1.
         13    1    3    3    0    0  0.19216040886E+02 -0.66695547400E+02  0.94377296066E+02  0.11715215014E+03  0.00000000000E+00 0. -1.
          3    1    1    2  501    0  0.19204458784E+02 -0.15475063936E+02 -0.81442019216E+01  0.25973387649E+02  0.00000000000E+00 0. -1.
<scales pt_clust_5="13000.00000" pt_clust_6="13000.00000" pt_clust_7="13000.00000" pt_clust_8="13000.00000" pt_clust_9="24.66351"></scales>
<clustering>
<clus scale="   24.664">  2  9  1 -1</clus>
<clus scale="   83.904">  7  8 -1 -1</clus>
<clus scale="   95.497">  5  6 -1 -1</clus>
<clus scale="  146.568">  1  7  2 -1</clus>
<clus scale="   24.664">  2  5  1 -1</clus>
</clustering>
</event>
<event>
 9    1  0.1881049E-005  0.9862640E+02  0.7546771E-02  0.1285465E+00
         21   -1    0    0  501  502  0.00000000000E+00  0.00000000000E+00  0.15936931544E+03  0.15936931544E+03  0.00000000000E+00 0.  1.
          3   -1    0    0  502    0 -0.00000000000E+00 -0.00000000000E+00 -0.45820914059E+03  0.45820914059E+03  0.00000000000E+00 0. -1.
         23    2    1    2    0    0  0.53851403087E+00 -0.19640342220E+02 -0.40884459825E+03  0.41974876568E+03  0.93000471702E+02 0.  0.
         23    2    1    2    0    0 -0.12382797955E+02 -0.15301750459E+02  0.20818230495E+02  0.10131297531E+03  0.97177379018E+02 0.  0.
        -11    1    4    4    0    0 -0.29992345550E+02 -0.47960654199E+02  0.28624792039E+02  0.63396718070E+02  0.00000000000E+00 0. -1.
         11    1    4    4    0    0  0.17609547595E+02  0.32658903739E+02 -0.78065615438E+01  0.37916257240E+02  0.00000000000E+00 0.  1.
        -11    1    3    3    0    0 -0.45270297847E+02 -0.10136178012E+01 -0.21269222597E+03  0.21745898528E+03  0.00000000000E+00 0. -1.
         11    1    3    3    0    0  0.45808811877E+02 -0.18626724419E+02 -0.19615237227E+03  0.20228978040E+03  0.00000000000E+00 0.  1.
          3    1    1    2  501    0  0.11844283924E+02  0.34942092679E+02  0.89186542597E+02  0.96516715044E+02  0.00000000000E+00 0. -1.
<scales pt_clust_5="13000.00000" pt_clust_6="13000.00000" pt_clust_7="13000.00000" pt_clust_8="13000.00000" pt_clust_9="36.89494"></scales>
<clustering>
<clus scale="   36.895">  1  9  2 -1</clus>
<clus scale="   93.000">  7  8 -1 -1</clus>
<clus scale="   94.514">  2  7  1 -1</clus>
<clus scale="   97.177">  5  6 -1 -1</clus>
<clus scale="   36.895">  1  5  2 -1</clus>
</clustering>
</event>
<event>
 9    1  0.1881049E-005  0.1717353E+03  0.7546771E-02  0.1179956E+00
          1   -1    0    0  502    0 -0.00000000000E+00  0.00000000000E+00  0.33828507327E+03  0.33828507327E+03  0.00000000000E+00 0. -1.
         21   -1    0    0  501  502  0.00000000000E+00 -0.00000000000E+00 -0.15994699896E+03  0.15994699896E+03  0.00000000000E+00 0.  1.
         23    2    1    2    0    0  0.37521977387E+02  0.11834945537E+03  0.16817673871E+03  0.23864402193E+03  0.11512194138E+03 0.  0.
         23    2    1    2    0    0 -0.61681837639E+02 -0.11803070068E+03  0.83621966356E+02  0.18225587896E+03  0.92134015224E+02 0.  0.
        -11    1    4    4    0    0 -0.37459358949E+02 -0.10289587759E+03  0.18377899281E+02  0.11103383439E+03  0.00000000000E+00 0.  1.
         11    1    4    4    0    0 -0.24222478690E+02 -0.15134823086E+02  0.65244067075E+02  0.71222044566E+02  0.00000000000E+00 0. -1.
        -11    1    3    3    0    0  0.25419110726E+02  0.43079410270E+02 -0.41653749551E+01  0.50192799561E+02  0.00000000000E+00 0.  1.
         11    1    3    3    0    0  0.12102866662E+02  0.75270045105E+02  0.17234211366E+03  0.18845122237E+03  0.00000000000E+00 0. -1.
          1    1    1    2  501    0  0.24159860252E+02 -0.31875469644E+00 -0.73460630753E+02  0.77332171330E+02  0.00000000000E+00 0. -1.
<scales pt_clust_5="13000.00000" pt_clust_6="13000.00000" pt_clust_7="13000.00000" pt_clust_8="13000.00000" pt_clust_9="24.16196"></scales>
<clustering>
<clus scale="   24.162">  2  9  1 -1</clus>
<clus scale="   92.134">  5  6 -1 -1</clus>
<clus scale="  115.122">  7  8 -1 -1</clus>
<clus scale="  157.253">  2  5  1 -1</clus>
<clus scale="   24.162">  2  5  1 -1</clus>
</clustering>
</event>
<event>
 9    1  0.1881049E-005  0.9591793E+02  0.7546771E-02  0.1290025E+00
         21   -1    0    0  501  502  0.00000000000E+00  0.00000000000E+00  0.96942203409E+02  0.96942203409E+02  0.00000000000E+00 0.  1.
          1   -1    0    0  502    0 -0.00000000000E+00 -0.00000000000E+00 -0.27359406095E+03  0.27359406095E+03  0.00000000000E+00 0. -1.
         23    2    1    2    0    0 -0.21861402099E+02 -0.11906861558E+00 -0.21344512552E+03  0.23371126084E+03  0.92650940399E+02 0.  0.
         23    2    1    2    0    0  0.40941217831E+02  0.18661494170E+02  0.15353911426E+02  0.10265620308E+03  0.90984167598E+02 0.  0.
        -11    1    3    3    0    0 -0.42277653504E+02 -0.21895533162E+02 -0.56192670419E+02  0.73650733650E+02  0.00000000000E+00 0.  1.
         11    1    3    3    0    0  0.20416251406E+02  0.21776464547E+02 -0.15725245510E+03  0.16006052719E+03  0.00000000000E+00 0. -1.
        -13    1    4    4    0    0  0.28805296887E+02  0.47348766001E+02  0.35261920783E+02  0.65689069318E+02  0.00000000000E+00 0. -1.
         13    1    4    4    0    0  0.12135920944E+02 -0.28687271831E+02 -0.19908009358E+02  0.36967133766E+02  0.00000000000E+00 0.  1.
          1    1    1    2  501    0 -0.19079815733E+02 -0.18542425554E+02  0.21439356551E+02  0.34168800435E+02  0.00000000000E+00 0. -1.
<scales pt_clust_5="13000.00000" pt_clust_6="13000.00000" pt_clust_7="13000.00000" pt_clust_8="13000.00000" pt_clust_9="26.60566"></scales>
<clustering>
<clus scale="   26.606">  1  9  2 -1</clus>
<clus scale="   90.984">  7  8 -1 -1</clus>
<clus scale="   92.651">  5  6 -1 -1</clus>
<clus scale="   94.309">  1  7  2 -1</clus>
<clus scale="   26.606">  1  5  2 -1</clus>
</clustering>
</event>
<event>
 9    1  0.1881049E-005  0.1074807E+03  0.7546771E-02  0.1267403E+00
         21   -1    0    0  501  502  0.00000000000E+00  0.00000000000E+00  0.46508120124E+02  0.46508120124E+02  0.00000000000E+00 0.  1.
          1   -1    0    0  502    0 -0.00000000000E+00 -0.00000000000E+00 -0.52455740862E+03  0.52455740862E+03  0.00000000000E+00 0. -1.
         23    2    1    2    0    0  0.48402119296E+02  0.36534619001E+02 -0.40881598348E+03  0.42244413670E+03  0.87469976236E+02 0.  0.
         23    2    1    2    0    0 -0.15985105474E+02 -0.26409191018E+02 -0.49763210080E+02  0.10947459558E+03  0.92495086532E+02 0.  0.
        -11    1    3    3    0    0 -0.21493335205E+02  0.99286662805E-01 -0.41163319092E+02  0.46436969699E+02  0.00000000000E+00 0.  1.
         11    1    3    3    0    0  0.69895454502E+02  0.36435332338E+02 -0.36765266439E+03  0.37600716700E+03  0.00000000000E+00 0. -1.
        -13    1    4    4    0    0 -0.28410978086E+02  0.23117709102E+02 -0.45245683415E+02  0.58213263245E+02  0.00000000000E+00 0. -1.
         13    1    4    4    0    0  0.12425872611E+02 -0.49526900119E+02 -0.45175266646E+01  0.51261332335E+02  0.00000000000E+00 0.  1.
          1    1    1    2  501    0 -0.32417013822E+02 -0.10125427983E+02 -0.19470094939E+02  0.39146796471E+02  0.00000000000E+00 0. -1.
<scales pt_clust_5="13000.00000" pt_clust_6="13000.00000" pt_clust_7="13000.00000" pt_clust_8="13000.00000" pt_clust_9="33.96155"></scales>
<clustering>
<clus scale="   33.962">  1  9  2 -1</clus>
<clus scale="   87.470">  5  6 -1 -1</clus>
<clus scale="   92.495">  7  8 -1 -1</clus>
<clus scale="  103.188">  2  5  1 -1</clus>
<clus scale="   33.962">  1  5  2 -1</clus>
</clustering>
</event>
<event>
 9    1  0.1881049E-005  0.9792781E+02  0.7546771E-02  0.1287660E+00
         21   -1    0    0  501  502  0.00000000000E+00  0.00000000000E+00  0.51303300596E+03  0.51303300596E+03  0.00000000000E+00 0.  1.
         -2   -1    0    0    0  501 -0.00000000000E+00 -0.00000000000E+00 -0.84178146232E+02  0.84178146232E+02  0.00000000000E+00 0.  1.
         23    2    1    2    0    0 -0.22940416826E+02  0.95139456621E+01 -0.33274629799E+02  0.10512050197E+03  0.96572983076E+02 0.  0.
         23    2    1    2    0    0 -0.22152926548E+02  0.16865637656E+02  0.16645930512E+03  0.19184050454E+03  0.91207878136E+02 0.  0.
        -11    1    4    4    0    0 -0.40842366744E+02  0.32706443512E+02  0.48435931427E+02  0.71301120760E+02  0.00000000000E+00 0.  1.
         11    1    4    4    0    0  0.18689440196E+02 -0.15840805856E+02  0.11802337369E+03  0.12053938378E+03  0.00000000000E+00 0. -1.
        -13    1    3    3    0    0  0.26923201823E+02  0.12579163723E+02  0.17007708921E+02  0.34239689238E+02  0.00000000000E+00 0. -1.
         13    1    3    3    0    0 -0.49863618649E+02 -0.30652180608E+01 -0.50282338720E+02  0.70880812733E+02  0.00000000000E+00 0.  1.
         -2    1    1    2    0  502  0.45093343374E+02 -0.26379583318E+02  0.29567018441E+03  0.30025014568E+03  0.00000000000E+00 0.  1.
<scales pt_clust_5="13000.00000" pt_clust_6="13000.00000" pt_clust_7="13000.00000" pt_clust_8="13000.00000" pt_clust_9="52.24263"></scales>
<clustering>
<clus scale="   52.243">  1  9  2 -1</clus>
<clus scale="   91.208">  5  6 -1 -1</clus>
<clus scale="   92.641">  1  5  2 -1</clus>
<clus scale="   96.573">  7  8 -1 -1</clus>
<clus scale="   52.243">  1  5  2 -1</clus>
</clustering>
</event>
<event>
 9    1  0.1881049E-005  0.1873663E+03  0.7546771E-02  0.1161056E+00
         -1   -1    0    0    0  501 -0.00000000000E+00  0.00000000000E+00  0.24283636023E+03  0.24283636023E+03  0.00000000000E+00 0.  1.
         21   -1    0    0  501  502  0.00000000000E+00 -0.00000000000E+00 -0.47805697931E+03  0.47805697931E+03  0.00000000000E+00 0.  1.
         23    2    1    2    0    0  0.15592674895E+03  0.15181154051E+00  0.14639161098E+03  0.23249863241E+03  0.91169820787E+02 0.  0.
         23    2    1    2    0    0 -0.21541826367E+03 -0.29782403538E+01 -0.23953597013E+03  0.33433987059E+03  0.89396699279E+02 0.  0.
        -13    1    3    3    0    0  0.59495976338E+02 -0.37733477173E+02  0.29719066970E+02  0.76464432527E+02  0.00000000000E+00 0. -1.
         13    1    3    3    0    0  0.96430772609E+02  0.37885288714E+02  0.11667254401E+03  0.15603419988E+03  0.00000000000E+00 0.  1.
        -13    1    4    4    0    0 -0.15585864247E+03  0.38579716379E+02 -0.16849625075E+03  0.23274728240E+03  0.00000000000E+00 0.  1.
         13    1    4    4    0    0 -0.59559621197E+02 -0.41557956733E+02 -0.71039719380E+02  0.10159258819E+03  0.00000000000E+00 0. -1.
         -1    1    1    2    0  502  0.59491514722E+02  0.28264288133E+01 -0.14207625994E+03  0.15405483654E+03  0.00000000000E+00 0.  1.
<scales pt_clust_5="13000.00000" pt_clust_6="13000.00000" pt_clust_7="13000.00000" pt_clust_8="13000.00000" pt_clust_9="59.55862"></scales>
<clustering>
<clus scale="   59.559">  2  9  1 -1</clus>
<clus scale="   89.397">  7  8 -1 -1</clus>
<clus scale="   91.170">  5  6 -1 -1</clus>
<clus scale="  186.510">  2  7  1 -1</clus>
<clus scale="   59.559">  2  5  1 -1</clus>
</clustering>
</event>
<event>
 9    1  0.1881049E-005  0.9572761E+02  0.7546771E-02  0.1289711E+00
          1   -1    0    0  502    0 -0.00000000000E+00  0.00000000000E+00  0.22296847545E+03  0.22296847545E+03  0.00000000000E+00 0. -1.
         21   -1    0    0  501  502  0.00000000000E+00 -0.00000000000E+00 -0.87710862822E+02  0.87710862822E+02  0.00000000000E+00 0.  1.
         23    2    1    2    0    0 -0.10699877349E+02  0.21620136166E+01  0.44916722321E+02  0.10243875782E+03  0.91416768052E+02 0.  0.
         23    2    1    2    0    0  0.19669095949E+02 -0.62217751963E+02  0.17519993073E+02  0.11342485568E+03  0.91106123472E+02 0.  0.
        -11    1    3    3    0    0  0.10290048549E+02  0.40913413707E+02  0.39927809984E+02  0.58086336865E+02  0.00000000000E+00 0. -1.
         11    1    3    3    0    0 -0.20989925897E+02 -0.38751400090E+02  0.49889123379E+01  0.44352420953E+02  0.00000000000E+00 0.  1.
        -11    1    4    4    0    0  0.45100094263E+02 -0.63025524203E+02 -0.73470300955E+01  0.77847376673E+02  0.00000000000E+00 0.  1.
         11    1    4    4    0    0 -0.25430998315E+02  0.80777224037E+00  0.24867023169E+02  0.35577479008E+02  0.00000000000E+00 0. -1.
          1    1    1    2  501    0 -0.89692186000E+01  0.60055738346E+02  0.72820897238E+02  0.94815724778E+02  0.00000000000E+00 0. -1.
<scales pt_clust_5="13000.00000" pt_clust_6="13000.00000" pt_clust_7="13000.00000" pt_clust_8="13000.00000" pt_clust_9="60.72184"></scales>
<clustering>
<clus scale="   60.722">  2  9  1 -1</clus>
<clus scale="   91.106">  7  8 -1 -1</clus>
<clus scale="   91.417">  5  6 -1 -1</clus>
<clus scale="   95.431">  2  7  1 -1</clus>
<clus scale="   60.722">  2  5  1 -1</clus>
</clustering>
</event>
<event>
 9    1  0.1881049E-005  0.1064335E+03  0.7546771E-02  0.1270311E+00
         21   -1    0    0  501  502  0.00000000000E+00  0.00000000000E+00  0.24724092277E+02  0.24724092277E+02  0.00000000000E+00 0. -1.
          2   -1    0    0  502    0 -0.00000000000E+00 -0.00000000000E+00 -0.84164495110E+03  0.84164495110E+03  0.00000000000E+00 0. -1.
         23    2    1    2    0    0 -0.80676702277E+01  0.41059239940E+02 -0.47971479204E+03  0.49024659454E+03  0.92002680794E+02 0.  0.
         23    2    1    2    0    0 -0.32888600040E+02 -0.37479497809E+02 -0.30350014717E+03  0.32295930704E+03  0.98508892523E+02 0.  0.
        -13    1    4    4    0    0  0.32018739964E+02 -0.10924575237E+02 -0.53415996636E+02  0.63228274922E+02  0.00000000000E+00 0.  1.
         13    1    4    4    0    0 -0.64907340004E+02 -0.26554922572E+02 -0.25008415053E+03  0.25973103212E+03  0.00000000000E+00 0. -1.
        -13    1    3    3    0    0  0.41374494454E+02  0.22618789501E+02 -0.18988643991E+03  0.19565356754E+03  0.00000000000E+00 0.  1.
         13    1    3    3    0    0 -0.49442164682E+02  0.18440450439E+02 -0.28982835213E+03  0.29459302700E+03  0.00000000000E+00 0. -1.
          2    1    1    2  501    0  0.40956270268E+02 -0.35797421312E+01 -0.33705919617E+02  0.53163141792E+02  0.00000000000E+00 0. -1.
<scales pt_clust_5="13000.00000" pt_clust_6="13000.00000" pt_clust_7="13000.00000" pt_clust_8="13000.00000" pt_clust_9="41.11241"></scales>
<clustering>
<clus scale="   41.112">  1  9  2 -1</clus>
<clus scale="   92.003">  7  8 -1 -1</clus>
<clus scale="   98.509">  5  6 -1 -1</clus>
<clus scale="  100.442">  2  7  1 -1</clus>
<clus scale="   41.112">  1  5  2 -1</clus>
</clustering>
</event>
<event>
 9    1  0.1881049E-005  0.1748914E+03  0.7546771E-02  0.1173109E+00
         -2   -1    0    0    0  501 -0.00000000000E+00  0.00000000000E+00  0.21663759322E+03  0.21663759322E+03  0.00000000000E+00 0.  1.
         21   -1    0    0  501  502  0.00000000000E+00 -0.00000000000E+00 -0.19403675840E+03  0.19403675840E+03  0.00000000000E+00 0.  1.
         23    2    1    2    0    0  0.10684745199E+03 -0.78427691855E+02  0.27206225336E+02  0.16317973740E+03  0.91214950278E+02 0.  0.
         23    2    1    2    0    0 -0.11373624252E+03  0.12618182667E+03  0.17219588546E+02  0.19453951497E+03  0.93227262157E+02 0.  0.
        -13    1    3    3    0    0  0.69650983296E+02 -0.23777894232E+02 -0.26275435068E+02  0.78147592517E+02  0.00000000000E+00 0.  1.
         13    1    3    3    0    0  0.37196468689E+02 -0.54649797623E+02  0.53481660404E+02  0.85032144879E+02  0.00000000000E+00 0. -1.
        -13    1    4    4    0    0 -0.10654727559E+03  0.83892422020E+02  0.45637650222E+02  0.14308408551E+03  0.00000000000E+00 0.  1.
         13    1    4    4    0    0 -0.71889669294E+01  0.42289404649E+02 -0.28418061676E+02  0.51455429456E+02  0.00000000000E+00 0. -1.
         -2    1    1    2    0  502  0.68887905386E+01 -0.47754134814E+02 -0.21824979058E+02  0.52955099262E+02  0.00000000000E+00 0.  1.
<scales pt_clust_5="13000.00000" pt_clust_6="13000.00000" pt_clust_7="13000.00000" pt_clust_8="13000.00000" pt_clust_9="48.24845"></scales>
<clustering>
<clus scale="   48.248">  2  9  1 -1</clus>
<clus scale="   91.215">  5  6 -1 -1</clus>
<clus scale="   93.227">  7  8 -1 -1</clus>
<clus scale="  173.827">  1  5  2 -1</clus>
<clus scale="   48.248">  2  5  1 -1</clus>
</clustering>
</event>
<event>
 9    1  0.1881049E-005  0.2710947E+03  0.7546771E-02  0.1120700E+00
          2   -1    0    0  502    0 -0.00000000000E+00  0.00000000000E+00  0.82947330141E+03  0.82947330141E+03  0.00000000000E+00 0. -1.
         21   -1    0    0  501  502  0.00000000000E+00 -0.00000000000E+00 -0.16110625636E+03  0.16110625636E+03  0.00000000000E+00 0.  1.
         23    2    1    2    0    0 -0.11811296949E+03  0.66174924474E+02  0.12675491159E+03  0.20631926310E+03  0.90393785859E+02 0.  0.
         23    2    1    2    0    0  0.26510304705E+03  0.13060857866E+03  0.38232192067E+03  0.49150920262E+03  0.89849979725E+02 0.  0.
        -13    1    4    4    0    0  0.34141329307E+02  0.55562675894E+02  0.66835932568E+02  0.93380314851E+02  0.00000000000E+00 0.  1.
         13    1    4    4    0    0  0.23096171775E+03  0.75045902769E+02  0.31548598810E+03  0.39812888777E+03  0.00000000000E+00 0. -1.
        -13    1    3    3    0    0 -0.38875039977E+02  0.64036289022E+02  0.28676640839E+02  0.80213868967E+02  0.00000000000E+00 0. -1.
         13    1    3    3    0    0 -0.79237929509E+02  0.21386354526E+01  0.98078270754E+02  0.12610539413E+03  0.00000000000E+00 0.  1.
          2    1    1    2  501    0 -0.14699007757E+03 -0.19678350314E+03  0.15929021279E+03  0.29275109206E+03  0.00000000000E+00 0. -1.
<scales pt_clust_5="13000.00000" pt_clust_6="13000.00000" pt_clust_7="13000.00000" pt_clust_8="13000.00000" pt_clust_9="255.77205"></scales>
<clustering>
<clus scale="   89.850">  5  6 -1 -1</clus>
<clus scale="   90.394">  7  8 -1 -1</clus>
<clus scale="  162.791">  1  7  2 -1</clus>
<clus scale="  255.772">  2  9  1 -1</clus>
<clus scale="  255.772">  2  5  1 -1</clus>
</clustering>
</event>
<event>
 9    1  0.1881049E-005  0.1076051E+03  0.7546771E-02  0.1265755E+00
          2   -1    0    0  502    0 -0.00000000000E+00  0.00000000000E+00  0.28982240220E+03  0.28982240220E+03  0.00000000000E+00 0. -1.
         21   -1    0    0  501  502  0.00000000000E+00 -0.00000000000E+00 -0.19166460774E+03  0.19166460774E+03  0.00000000000E+00 0. -1.
         23    2    1    2    0    0 -0.41020362596E+02  0.27635558042E+02  0.20357556072E+03  0.22824768881E+03  0.90595829424E+02 0.  0.
         23    2    1    2    0    0  0.66492176324E+02 -0.44937529958E+02  0.20167444702E+02  0.12393419077E+03  0.92262488075E+02 0.  0.
        -13    1    3    3    0    0 -0.39618544620E+02 -0.76379713142E+01  0.18298404920E+03  0.18737964122E+03  0.00000000000E+00 0. -1.
         13    1    3    3    0    0 -0.14018179760E+01  0.35273529356E+02  0.20591511521E+02  0.40868047587E+02  0.00000000000E+00 0.  1.
        -13    1    4    4    0    0  0.24098427850E+02 -0.45904565743E+02  0.50046718890E+02  0.72059957345E+02  0.00000000000E+00 0. -1.
         13    1    4    4    0    0  0.42393748473E+02  0.96703578448E+00 -0.29879274187E+02  0.51874233429E+02  0.00000000000E+00 0.  1.
          2    1    1    2  501    0 -0.25471813728E+02  0.17301971916E+02 -0.12558521096E+03  0.12930513036E+03  0.00000000000E+00 0. -1.
<scales pt_clust_5="13000.00000" pt_clust_6="13000.00000" pt_clust_7="13000.00000" pt_clust_8="13000.00000" pt_clust_9="30.79239"></scales>
<clustering>
<clus scale="   30.792">  2  9  1 -1</clus>
<clus scale="   90.596">  5  6 -1 -1</clus>
<clus scale="   92.262">  7  8 -1 -1</clus>
<clus scale="  106.180">  1  5  2 -1</clus>
<clus scale="   30.792">  2  5  1 -1</clus>
</clustering>
</event>
<event>
 9    1  0.1881049E-005  0.1780993E+03  0.7546771E-02  0.1169863E+00
         21   -1    0    0  501  502  0.00000000000E+00  0.00000000000E+00  0.25488011324E+03  0.25488011324E+03  0.00000000000E+00 0. -1.
         -2   -1    0    0    0  501 -0.00000000000E+00 -0.00000000000E+00 -0.27822514691E+03  0.27822514691E+03  0.00000000000E+00 0.  1.
         23    2    1    2    0    0 -0.15992011978E+03 -0.10774242033E+02 -0.11634278787E+03  0.21809254769E+03  0.91313668573E+02 0.  0.
         23    2    1    2    0    0  0.14157390375E+03 -0.11491604811E+02 -0.43717868549E+02  0.17528614704E+03  0.92944898244E+02 0.  0.
        -11    1    3    3    0    0 -0.88543649837E+02  0.34537577499E+02 -0.86277660918E+02  0.12836143096E+03  0.00000000000E+00 0.  1.
         11    1    3    3    0    0 -0.71376469938E+02 -0.45311819531E+02 -0.30065126953E+02  0.89731116725E+02  0.00000000000E+00 0. -1.
        -13    1    4    4    0    0  0.42808256345E+02  0.15673610563E+02 -0.55898811644E+02  0.72131033699E+02  0.00000000000E+00 0.  1.
         13    1    4    4    0    0  0.98765647405E+02 -0.27165215374E+02  0.12180943095E+02  0.10315511334E+03  0.00000000000E+00 0. -1.
         -2    1    1    2    0  502  0.18346216025E+02  0.22265846844E+02  0.13671562276E+03  0.13972656542E+03  0.00000000000E+00 0.  1.
<scales pt_clust_5="13000.00000" pt_clust_6="13000.00000" pt_clust_7="13000.00000" pt_clust_8="13000.00000" pt_clust_9="28.85050"></scales>
<clustering>
<clus scale="   28.851">  1  9  2 -1</clus>
<clus scale="   91.314">  5  6 -1 -1</clus>
<clus scale="   92.945">  7  8 -1 -1</clus>
<clus scale="  177.254">  2  5  1 -1</clus>
<clus scale="   28.851">  1  5  2 -1</clus>
</clustering>
</event>
<event>
 9    1  0.1881049E-005  0.1334145E+03  0.7546771E-02  0.1224146E+00
          1   -1    0    0  502    0 -0.00000000000E+00  0.00000000000E+00  0.72020273606E+03  0.72020273606E+03  0.00000000000E+00 0. -1.
         21   -1    0    0  501  502  0.00000000000E+00 -0.00000000000E+00 -0.25811914358E+03  0.25811914358E+03  0.00000000000E+00 0. -1.
         23    2    1    2    0    0 -0.85995596718E+01  0.93954298528E+02  0.54898692387E+03  0.56467733580E+03  0.92587733293E+02 0.  0.
         23    2    1    2    0    0 -0.38836430568E+02 -0.10426562468E+03  0.12995562327E+03  0.19141875137E+03  0.85866672973E+02 0.  0.
        -11    1    3    3    0    0  0.15956432473E+02 -0.13202587209E+02  0.59634915683E+02  0.63128751095E+02  0.00000000000E+00 0.  1.
         11    1    3    3    0    0 -0.24555992145E+02  0.10715688574E+03  0.48935200818E+03  0.50154858471E+03  0.00000000000E+00 0. -1.
        -11    1    4    4    0    0 -0.28826714484E+02 -0.62694685157E+02  0.17617075621E+02  0.71217725099E+02  0.00000000000E+00 0.  1.
         11    1    4    4    0    0 -0.10009716084E+02 -0.41570939527E+02  0.11233854765E+03  0.12020102627E+03  0.00000000000E+00 0. -1.
          1    1    1    2  501    0  0.47435990240E+02  0.10311326155E+02 -0.21685895466E+03  0.22222579246E+03  0.00000000000E+00 0. -1.
<scales pt_clust_5="13000.00000" pt_clust_6="13000.00000" pt_clust_7="13000.00000" pt_clust_8="13000.00000" pt_clust_9="48.54376"></scales>
<clustering>
<clus scale="   48.544">  2  9  1 -1</clus>
<clus scale="   85.867">  7  8 -1 -1</clus>
<clus scale="   92.588">  5  6 -1 -1</clus>
<clus scale="  128.841">  2  7  1 -1</clus>
<clus scale="   48.544">  2  5  1 -1</clus>
</clustering>
</event>
<event>
 9    1  0.1881049E-005  0.1034951E+03  0.7546771E-02  0.1273490E+00
          1   -1    0    0  502    0 -0.00000000000E+00  0.00000000000E+00  0.46120665780E+03  0.46120665780E+03  0.00000000000E+00 0. -1.
         21   -1    0    0  501  502  0.00000000000E+00 -0.00000000000E+00 -0.10303034547E+03  0.10303034547E+03  0.00000000000E+00 0. -1.
         23    2    1    2    0    0  0.25239352394E+02 -0.33626967232E+02  0.26595590056E+03  0.28438609537E+03  0.91515639978E+02 0.  0.
         23    2    1    2    0    0  0.46429888983E+02  0.84546212969E+02  0.12795765748E+03  0.18494885061E+03  0.92353226886E+02 0.  0.
        -11    1    4    4    0    0 -0.19409476202E+02  0.58630596005E+02  0.71105295516E+02  0.94181938846E+02  0.00000000000E+00 0.  1.
         11    1    4    4    0    0  0.65839365184E+02  0.25915616964E+02  0.56852361964E+02  0.90766911765E+02  0.00000000000E+00 0. -1.
        -13    1    3    3    0    0  0.59630720306E+02 -0.18225277051E+02  0.14939162788E+03  0.16188218558E+03  0.00000000000E+00 0. -1.
         13    1    3    3    0    0 -0.34391367912E+02 -0.15401690181E+02  0.11656427269E+03  0.12250390979E+03  0.00000000000E+00 0.  1.
          1    1    1    2  501    0 -0.71669241377E+02 -0.50919245737E+02 -0.35737245712E+02  0.94902057286E+02  0.00000000000E+00 0. -1.
<scales pt_clust_5="13000.00000" pt_clust_6="13000.00000" pt_clust_7="13000.00000" pt_clust_8="13000.00000" pt_clust_9="87.91615"></scales>
<clustering>
<clus scale="   87.916">  2  9  1 -1</clus>
<clus scale="   91.516">  7  8 -1 -1</clus>
<clus scale="   92.353">  5  6 -1 -1</clus>
<clus scale="  102.748">  1  7  2 -1</clus>
<clus scale="   87.916">  2  5  1 -1</clus>
</clustering>
</event>
<event>
 9    1  0.1881049E-005  0.1600117E+03  0.7546771E-02  0.1204011E+00
          1   -1    0    0  502    0 -0.00000000000E+00  0.00000000000E+00  0.13241743054E+04  0.13241743054E+04  0.00000000000E+00 0. -1.
         21   -1    0    0  501  502  0.00000000000E+00 -0.00000000000E+00 -0.48132455035E+02  0.48132455035E+02  0.00000000000E+00 0. -1.
         23    2    1    2    0    0  0.47148279843E+02  0.54940777469E+02  0.67164912278E+03  0.68133262404E+03  0.88657493323E+02 0.  0.
         23    2    1    2    0    0 -0.63390743659E+02  0.87389718888E+02  0.48339290673E+03  0.50345681860E+03  0.90248083446E+02 0.  0.
        -13    1    4    4    0    0 -0.70794771160E+02  0.63168970128E+02  0.45750622411E+03  0.46724101223E+03  0.00000000000E+00 0. -1.
         13    1    4    4    0    0  0.74040275009E+01  0.24220748760E+02  0.25886682622E+02  0.36215806368E+02  0.00000000000E+00 0.  1.
        -13    1    3    3    0    0  0.90132530587E+01  0.72048811142E+02  0.43636645500E+03  0.44236631084E+03  0.00000000000E+00 0.  1.
         13    1    3    3    0    0  0.38135026784E+02 -0.17108033673E+02  0.23528266778E+03  0.23896631320E+03  0.00000000000E+00 0. -1.
          1    1    1    2  501    0  0.16242463816E+02 -0.14233049636E+03  0.12099982082E+03  0.18751731777E+03  0.00000000000E+00 0. -1.
<scales pt_clust_5="13000.00000" pt_clust_6="13000.00000" pt_clust_7="13000.00000" pt_clust_8="13000.00000" pt_clust_9="132.13265"></scales>
<clustering>
<clus scale="   88.657">  7  8 -1 -1</clus>
<clus scale="   90.248">  5  6 -1 -1</clus>
<clus scale="  114.462">  1  7  2 -1</clus>
<clus scale="  132.133">  2  9  1 -1</clus>
<clus scale="  132.133">  2  5  1 -1</clus>
</clustering>
</event>
<event>
 9    1  0.1881049E-005  0.1837238E+03  0.7546771E-02  0.1171501E+00
         21   -1    0    0  501  502  0.00000000000E+00  0.00000000000E+00  0.52262426041E+03  0.52262426041E+03  0.00000000000E+00 0. -1.
          3   -1    0    0  502    0 -0.00000000000E+00 -0.00000000000E+00 -0.41156450788E+03  0.41156450788E+03  0.00000000000E+00 0. -1.
         23    2    1    2    0    0 -0.80919067945E+02  0.98272154280E+02 -0.24032035528E+03  0.28626264038E+03  0.89370656535E+02 0.  0.
         23    2    1    2    0    0 -0.84334873598E+02 -0.12145624715E+03 -0.76100826303E+02  0.18902928069E+03  0.89870697755E+02 0.  0.
        -11    1    4    4    0    0 -0.64272922908E+02 -0.13437646145E+03 -0.62270332834E+02  0.16144855639E+03  0.00000000000E+00 0.  1.
         11    1    4    4    0    0 -0.20061950691E+02  0.12920214293E+02 -0.13830493469E+02  0.27580724292E+02  0.00000000000E+00 0. -1.
        -13    1    3    3    0    0 -0.57934977086E+02  0.17808132327E+02 -0.15647115929E+03  0.16779992502E+03  0.00000000000E+00 0. -1.
         13    1    3    3    0    0 -0.22984090859E+02  0.80464021953E+02 -0.83849195988E+02  0.11846271535E+03  0.00000000000E+00 0.  1.
          3    1    1    2  501    0  0.16525394154E+03  0.23184092874E+02  0.42748093412E+03  0.45889684722E+03  0.00000000000E+00 0. -1.
<scales pt_clust_5="13000.00000" pt_clust_6="13000.00000" pt_clust_7="13000.00000" pt_clust_8="13000.00000" pt_clust_9="160.24260"></scales>
<clustering>
<clus scale="   89.371">  7  8 -1 -1</clus>
<clus scale="   89.871">  5  6 -1 -1</clus>
<clus scale="  155.539">  2  7  1 -1</clus>
<clus scale="  160.243">  1  9  2 -1</clus>
<clus scale="  160.243">  1  5  2 -1</clus>
</clustering>
</event>
<event>
 9    1  0.1881049E-005  0.1205251E+03  0.7546771E-02  0.1245957E+00
          1   -1    0    0  502    0 -0.00000000000E+00  0.00000000000E+00  0.42526133423E+03  0.42526133423E+03  0.00000000000E+00 0. -1.
         21   -1    0    0  501  502  0.00000000000E+00 -0.00000000000E+00 -0.13832265439E+03  0.13832265439E+03  0.00000000000E+00 0. -1.
         23    2    1    2    0    0 -0.39515978368E+02  0.46934104814E+02  0.18949713446E+03  0.21590181990E+03  0.83307317352E+02 0.  0.
         23    2    1    2    0    0  0.51984499944E+02 -0.80182703032E+02  0.19893722831E+03  0.24015400048E+03  0.94690385138E+02 0.  0.
        -13    1    3    3    0    0  0.13457428971E+02  0.41846137780E+02  0.49871632533E+02  0.66478427878E+02  0.00000000000E+00 0.  1.
         13    1    3    3    0    0 -0.52973407339E+02  0.50879670339E+01  0.13962550193E+03  0.14942339202E+03  0.00000000000E+00 0. -1.
        -13    1    4    4    0    0  0.82221174727E+01 -0.24625823351E+02 -0.30524974614E+01  0.26141004805E+02  0.00000000000E+00 0.  1.
         13    1    4    4    0    0  0.43762382471E+02 -0.55556879681E+02  0.20198972577E+03  0.21401299567E+03  0.00000000000E+00 0. -1.
          1    1    1    2  501    0 -0.12468521576E+02  0.33248598218E+02 -0.10149568292E+03  0.10752816824E+03  0.00000000000E+00 0. -1.
<scales pt_clust_5="13000.00000" pt_clust_6="13000.00000" pt_clust_7="13000.00000" pt_clust_8="13000.00000" pt_clust_9="35.50962"></scales>
<clustering>
<clus scale="   35.510">  2  9  1 -1</clus>
<clus scale="   83.307">  5  6 -1 -1</clus>
<clus scale="   94.690">  7  8 -1 -1</clus>
<clus scale="  111.804">  1  5  2 -1</clus>
<clus scale="   35.510">  2  5  1 -1</clus>
</clustering>
</event>
<event>
 9    1  0.1881049E-005  0.1033772E+03  0.7546771E-02  0.1273547E+00
          4   -1    0    0  502    0 -0.00000000000E+00  0.00000000000E+00  0.72025780424E+02  0.72025780424E+02  0.00000000000E+00 0. -1.
         21   -1    0    0  501  502  0.00000000000E+00 -0.00000000000E+00 -0.50902088956E+03  0.50902088956E+03  0.00000000000E+00 0.  1.
         23    2    1    2    0    0 -0.44246097064E+02 -0.62631632612E+01  0.16116612986E+02  0.10303556421E+03  0.91431055767E+02 0.  0.
         23    2    1    2    0    0  0.65881637286E+02 -0.68574048796E+01 -0.26476747605E+03  0.28797479098E+03  0.91870831804E+02 0.  0.
        -11    1    4    4    0    0  0.60737018890E+02 -0.31477726340E+02 -0.24914434112E+03  0.25836550744E+03  0.00000000000E+00 0.  1.
         11    1    4    4    0    0  0.51446183961E+01  0.24620321461E+02 -0.15623134922E+02  0.29609283545E+02  0.00000000000E+00 0. -1.
        -13    1    3    3    0    0 -0.66794565107E+02  0.16732486395E+02  0.16578676054E+02  0.70826142973E+02  0.00000000000E+00 0. -1.
         13    1    3    3    0    0  0.22548468043E+02 -0.22995649657E+02 -0.46206306847E+00  0.32209421238E+02  0.00000000000E+00 0.  1.
          4    1    1    2  501    0 -0.21635540222E+02  0.13120568141E+02 -0.18834424607E+03  0.19003631479E+03  0.00000000000E+00 0. -1.
<scales pt_clust_5="13000.00000" pt_clust_6="13000.00000" pt_clust_7="13000.00000" pt_clust_8="13000.00000" pt_clust_9="25.30308"></scales>
<clustering>
<clus scale="   25.303">  2  9  1 -1</clus>
<clus scale="   91.431">  7  8 -1 -1</clus>
<clus scale="   91.871">  5  6 -1 -1</clus>
<clus scale="  102.987">  1  7  2 -1</clus>
<clus scale="   25.303">  2  5  1 -1</clus>
</clustering>
</event>
<event>
 9    1  0.1881049E-005  0.1083255E+03  0.7546771E-02  0.1265601E+00
          2   -1    0    0  502    0 -0.00000000000E+00  0.00000000000E+00  0.43247500439E+03  0.43247500439E+03  0.00000000000E+00 0. -1.
         21   -1    0    0  501  502  0.00000000000E+00 -0.00000000000E+00 -0.35199590230E+02  0.35199590230E+02  0.00000000000E+00 0.  1.
         23    2    1    2    0    0 -0.20637712458E+02 -0.57024997494E+02  0.24761510572E+03  0.27044401560E+03  0.90271587314E+02 0.  0.
         23    2    1    2    0    0  0.65325077797E+01  0.40025726496E+02  0.13796288780E+03  0.17223534621E+03  0.94797276527E+02 0.  0.
        -11    1    3    3    0    0 -0.46145869107E+02 -0.49275519526E+02  0.22676171054E+03  0.23659753048E+03  0.00000000000E+00 0.  1.
         11    1    3    3    0    0  0.25508156648E+02 -0.77494779683E+01  0.20853395176E+02  0.33846485117E+02  0.00000000000E+00 0. -1.
        -13    1    4    4    0    0  0.16206590722E+02 -0.13906364429E+02 -0.24644568968E+01  0.21496839356E+02  0.00000000000E+00 0. -1.
         13    1    4    4    0    0 -0.96740829427E+01  0.53932090925E+02  0.14042734469E+03  0.15073850686E+03  0.00000000000E+00 0.  1.
          2    1    1    2  501    0  0.14105204679E+02  0.16999270998E+02  0.11697420644E+02  0.24995232810E+02  0.00000000000E+00 0. -1.
<scales pt_clust_5="13000.00000" pt_clust_6="13000.00000" pt_clust_7="13000.00000" pt_clust_8="13000.00000" pt_clust_9="22.08918"></scales>
<clustering>
<clus scale="   22.089">  2  9  1 -1</clus>
<clus scale="   90.272">  5  6 -1 -1</clus>
<clus scale="   94.797">  7  8 -1 -1</clus>
<clus scale="  104.388">  1  5  2 -1</clus>
<clus scale="   22.089">  2  5  1 -1</clus>
</clustering>
</event>
<event>
 9    1  0.1881049E-005  0.9550734E+02  0.7546771E-02  0.1290683E+00
         21   -1    0    0  501  502  0.00000000000E+00  0.00000000000E+00  0.36581561655E+03  0.36581561655E+03  0.00000000000E+00 0.  1.
          1   -1    0    0  502    0 -0.00000000000E+00 -0.00000000000E+00 -0.56181081536E+02  0.56181081536E+02  0.00000000000E+00 0. -1.
         23    2    1    2    0    0 -0.15611083099E+02  0.28586547032E+02  0.11649102415E+02  0.96949879704E+02  0.90568653522E+02 0.  0.
         23    2    1    2    0    0  0.68319084670E+01 -0.44050567745E+01  0.15949885688E+03  0.18419104096E+03  0.91762599824E+02 0.  0.
        -11    1    3    3    0    0 -0.48475078788E+02  0.47372391181E+01  0.24283461154E+02  0.54423902686E+02  0.00000000000E+00 0. -1.
         11    1    3    3    0    0  0.32863995689E+02  0.23849307913E+02 -0.12634358739E+02  0.42525977018E+02  0.00000000000E+00 0.  1.
        -13    1    4    4    0    0 -0.38756748085E+02  0.14424190888E+02  0.56776506792E+02  0.70240405241E+02  0.00000000000E+00 0. -1.
         13    1    4    4    0    0  0.45588656552E+02 -0.18829247663E+02  0.10272235009E+03  0.11395063572E+03  0.00000000000E+00 0.  1.
          1    1    1    2  501    0  0.87791746323E+01 -0.24181490257E+02  0.13848657572E+03  0.14085577743E+03  0.00000000000E+00 0. -1.
<scales pt_clust_5="13000.00000" pt_clust_6="13000.00000" pt_clust_7="13000.00000" pt_clust_8="13000.00000" pt_clust_9="25.72583"></scales>
<clustering>
<clus scale="   25.726">  1  9  2 -1</clus>
<clus scale="   90.569">  5  6 -1 -1</clus>
<clus scale="   91.763">  7  8 -1 -1</clus>
<clus scale="   94.361">  2  5  1 -1</clus>
<clus scale="   25.726">  1  5  2 -1</clus>
</clustering>
</event>
<event>
 9    1  0.1881049E-005  0.2612287E+03  0.7546771E-02  0.1106440E+00
         21   -1    0    0  501  502  0.00000000000E+00  0.00000000000E+00  0.40625766041E+03  0.40625766041E+03  0.00000000000E+00 0.  1.
         -1   -1    0    0    0  501 -0.00000000000E+00 -0.00000000000E+00 -0.27019357666E+03  0.27019357666E+03  0.00000000000E+00 0.  1.
         23    2    1    2    0    0 -0.27356492249E+03  0.12981789822E+02 -0.89460581389E+02  0.30297377489E+03  0.93720963339E+02 0.  0.
         23    2    1    2    0    0  0.18216349586E+03 -0.46406001586E+01  0.17134610161E+03  0.26689832265E+03  0.93113660143E+02 0.  0.
        -11    1    3    3    0    0 -0.18590807162E+03  0.23713735123E+02 -0.15988074875E+02  0.18809511122E+03  0.00000000000E+00 0.  1.
         11    1    3    3    0    0 -0.87656850862E+02 -0.10731945301E+02 -0.73472506514E+02  0.11487866367E+03  0.00000000000E+00 0. -1.
        -13    1    4    4    0    0  0.16114064519E+03 -0.35123216981E+02  0.12170798537E+03  0.20497019688E+03  0.00000000000E+00 0. -1.
         13    1    4    4    0    0  0.21022850664E+02  0.30482616823E+02  0.49638116241E+02  0.61928125778E+02  0.00000000000E+00 0.  1.
         -1    1    1    2    0  502  0.91401426627E+02 -0.83411896637E+01  0.54178563529E+02  0.10657913952E+03  0.00000000000E+00 0.  1.
<scales pt_clust_5="13000.00000" pt_clust_6="13000.00000" pt_clust_7="13000.00000" pt_clust_8="13000.00000" pt_clust_9="91.78124"></scales>
<clustering>
<clus scale="   91.781">  1  9  2 -1</clus>
<clus scale="   93.114">  7  8 -1 -1</clus>
<clus scale="   93.721">  5  6 -1 -1</clus>
<clus scale="  261.011">  1  7  2 -1</clus>
<clus scale="   91.781">  1  5  2 -1</clus>
</clustering>
</event>
<event>
 9    1  0.1881049E-005  0.1018451E+03  0.7546771E-02  0.1280102E+00
         -1   -1    0    0    0  501 -0.00000000000E+00  0.00000000000E+00  0.28805006537E+03  0.28805006537E+03  0.00000000000E+00 0.  1.
         21   -1    0    0  501  502  0.00000000000E+00 -0.00000000000E+00 -0.79539211602E+02  0.79539211602E+02  0.00000000000E+00 0.  1.
         23    2    1    2    0    0  0.23051221981E+02 -0.13207126455E+02  0.18785696749E+03  0.21279756688E+03  0.96367926268E+02 0.  0.
         23    2    1    2    0    0 -0.53505876590E+02  0.28767830605E+01  0.46135413885E+02  0.11376110894E+03  0.89117668180E+02 0.  0.
        -11    1    4    4    0    0 -0.50026650941E+02 -0.33127093629E+02  0.49013613943E+02  0.77475186276E+02  0.00000000000E+00 0.  1.
         11    1    4    4    0    0 -0.34792256487E+01  0.36003876690E+02 -0.28782000577E+01  0.36285922661E+02  0.00000000000E+00 0. -1.
        -11    1    3    3    0    0  0.13233953511E+02  0.37124745373E+02  0.12824070591E+03  0.13416058623E+03  0.00000000000E+00 0. -1.
         11    1    3    3    0    0  0.98172684699E+01 -0.50331871828E+02  0.59616261577E+02  0.78636980654E+02  0.00000000000E+00 0.  1.
         -1    1    1    2    0  502  0.30454654609E+02  0.10330343394E+02 -0.25481527604E+02  0.41030601154E+02  0.00000000000E+00 0.  1.
<scales pt_clust_5="13000.00000" pt_clust_6="13000.00000" pt_clust_7="13000.00000" pt_clust_8="13000.00000" pt_clust_9="32.15901"></scales>
<clustering>
<clus scale="   32.159">  2  9  1 -1</clus>
<clus scale="   89.118">  5  6 -1 -1</clus>
<clus scale="   95.014">  2  5  1 -1</clus>
<clus scale="   96.368">  7  8 -1 -1</clus>
<clus scale="   32.159">  2  5  1 -1</clus>
</clustering>
</event>
<event>
 9    1  0.1881049E-005  0.9803415E+02  0.7546771E-02  0.1286301E+00
         21   -1    0    0  501  502  0.00000000000E+00  0.00000000000E+00  0.20685930210E+02  0.20685930210E+02  0.00000000000E+00 0.  1.
          2   -1    0    0  502    0 -0.00000000000E+00 -0.00000000000E+00 -0.69702057475E+03  0.69702057475E+03  0.00000000000E+00 0. -1.
         23    2    1    2    0    0  0.38755416315E+01  0.27630029067E+02 -0.39418389901E+03  0.40579402504E+03  0.92246442722E+02 0.  0.
         23    2    1    2    0    0 -0.27543473645E+02 -0.39543995900E+02 -0.18005710888E+03  0.20643630129E+03  0.88730003283E+02 0.  0.
        -11    1    3    3    0    0 -0.24348349410E+01 -0.32111035454E+02 -0.86489830800E+02  0.92290507914E+02  0.00000000000E+00 0.  1.
         11    1    3    3    0    0  0.63103765726E+01  0.59741064521E+02 -0.30769406821E+03  0.31350351713E+03  0.00000000000E+00 0. -1.
        -11    1    4    4    0    0  0.62400824011E+01 -0.43003972964E+02 -0.30544701029E+02  0.53115525791E+02  0.00000000000E+00 0.  1.
         11    1    4    4    0    0 -0.33783556046E+02  0.34599770641E+01 -0.14951240785E+03  0.15332077550E+03  0.00000000000E+00 0. -1.
          2    1    1    2  501    0  0.23667932014E+02  0.11913966834E+02 -0.10209363666E+03  0.10547617863E+03  0.00000000000E+00 0. -1.
<scales pt_clust_5="13000.00000" pt_clust_6="13000.00000" pt_clust_7="13000.00000" pt_clust_8="13000.00000" pt_clust_9="26.49744"></scales>
<clustering>
<clus scale="   26.497">  1  9  2 -1</clus>
<clus scale="   88.730">  7  8 -1 -1</clus>
<clus scale="   92.246">  5  6 -1 -1</clus>
<clus scale="   94.733">  1  7  2 -1</clus>
<clus scale="   26.497">  1  5  2 -1</clus>
</clustering>
</event>
<event>
 9    1  0.1881049E-005  0.1052122E+03  0.7546771E-02  0.1270025E+00
          3   -1    0    0  502    0 -0.00000000000E+00  0.00000000000E+00  0.14427893654E+03  0.14427893654E+03  0.00000000000E+00 0. -1.
         21   -1    0    0  501  502  0.00000000000E+00 -0.00000000000E+00 -0.10322777737E+03  0.10322777737E+03  0.00000000000E+00 0.  1.
         23    2    1    2    0    0  0.31696391691E+02 -0.18817204371E+02  0.10728746504E+02  0.10015211664E+03  0.92501848838E+02 0.  0.
         23    2    1    2    0    0 -0.60784445585E+02  0.16595834212E+02  0.12643504772E+02  0.11324311608E+03  0.93241485341E+02 0.  0.
        -11    1    4    4    0    0 -0.77117888549E+02  0.35104110710E+02 -0.15939948812E+01  0.84746729392E+02  0.00000000000E+00 0.  1.
         11    1    4    4    0    0  0.16333442964E+02 -0.18508276497E+02  0.14237499653E+02  0.28496386689E+02  0.00000000000E+00 0. -1.
        -11    1    3    3    0    0  0.33233154636E+02 -0.54513929796E+02  0.70717044975E+01  0.64235660761E+02  0.00000000000E+00 0. -1.
         11    1    3    3    0    0 -0.15367629446E+01  0.35696725425E+02  0.36570420060E+01  0.35916455875E+02  0.00000000000E+00 0.  1.
          3    1    1    2  501    0  0.29088053894E+02  0.22213701590E+01  0.17678907898E+02  0.34111481193E+02  0.00000000000E+00 0. -1.
<scales pt_clust_5="13000.00000" pt_clust_6="13000.00000" pt_clust_7="13000.00000" pt_clust_8="13000.00000" pt_clust_9="29.17276"></scales>
<clustering>
<clus scale="   29.173">  2  9  1 -1</clus>
<clus scale="   92.502">  7  8 -1 -1</clus>
<clus scale="   93.241">  5  6 -1 -1</clus>
<clus scale="  104.557">  1  7  2 -1</clus>
<clus scale="   29.173">  2  5  1 -1</clus>
</clustering>
</event>
<event>
 9    1  0.1881049E-005  0.1189388E+03  0.7546771E-02  0.1245146E+00
         21   -1    0    0  501  502  0.00000000000E+00  0.00000000000E+00  0.19761963228E+03  0.19761963228E+03  0.00000000000E+00 0.  1.
         -1   -1    0    0    0  501 -0.00000000000E+00 -0.00000000000E+00 -0.35387138736E+03  0.35387138736E+03  0.00000000000E+00 0.  1.
         23    2    1    2    0    0  0.60805359066E+02 -0.75118043279E+02 -0.22236713169E+03  0.25938256151E+03  0.92152915535E+02 0.  0.
         23    2    1    2    0    0 -0.65017675400E+02 -0.28036256176E+02 -0.58130710937E+02  0.13056699790E+03  0.93033497255E+02 0.  0.
        -11    1    4    4    0    0 -0.14965402943E+01  0.30495168700E+02 -0.15684188668E+02  0.34324753766E+02  0.00000000000E+00 0. -1.
         11    1    4    4    0    0 -0.63521135106E+02 -0.58531424876E+02 -0.42446522269E+02  0.96242244134E+02  0.00000000000E+00 0.  1.
        -13    1    3    3    0    0  0.84720639746E+02 -0.63253576373E+02 -0.16297742810E+03  0.19426848379E+03  0.00000000000E+00 0.  1.
         13    1    3    3    0    0 -0.23915280681E+02 -0.11864466906E+02 -0.59389703586E+02  0.65114077718E+02  0.00000000000E+00 0. -1.
         -1    1    1    2    0  502  0.42123163342E+01  0.10315429945E+03  0.12424608754E+03  0.16154146024E+03  0.00000000000E+00 0.  1.
<scales pt_clust_5="13000.00000" pt_clust_6="13000.00000" pt_clust_7="13000.00000" pt_clust_8="13000.00000" pt_clust_9="103.24027"></scales>
<clustering>
<clus scale="   92.153">  7  8 -1 -1</clus>
<clus scale="   93.033">  5  6 -1 -1</clus>
<clus scale="  103.240">  1  9  2 -1</clus>
<clus scale="  118.251">  2  7  1 -1</clus>
<clus scale="  103.240">  1  5  2 -1</clus>
</clustering>
</event>
<event>
 9    1  0.1881049E-005  0.2607711E+03  0.7546771E-02  0.1106857E+00
          1   -1    0    0  502    0 -0.00000000000E+00  0.00000000000E+00  0.84491600205E+03  0.84491600205E+03  0.00000000000E+00 0. -1.
         21   -1    0    0  501  502  0.00000000000E+00 -0.00000000000E+00 -0.16136493727E+03  0.16136493727E+03  0.00000000000E+00 0.  1.
         23    2    1    2    0    0 -0.20918126533E+03 -0.48339858995E+02  0.40152627034E+03  0.46510945528E+03  0.94920576712E+02 0.  0.
         23    2    1    2    0    0  0.32546747107E+03  0.47470941832E+02  0.18613445327E+03  0.39044592485E+03  0.98078644444E+02 0.  0.
        -11    1    4    4    0    0  0.85360663007E+02  0.16649370935E+02  0.10228061478E+03  0.13425709852E+03  0.00000000000E+00 0. -1.
         11    1    4    4    0    0  0.24010680806E+03  0.30821570897E+02  0.83853838489E+02  0.25618882633E+03  0.00000000000E+00 0.  1.
        -13    1    3    3    0    0 -0.18477788050E+03 -0.70916667115E+01  0.29298828442E+03  0.34646109690E+03  0.00000000000E+00 0. -1.
         13    1    3    3    0    0 -0.24403384827E+02 -0.41248192284E+02  0.10853798592E+03  0.11864835838E+03  0.00000000000E+00 0.  1.
          1    1    1    2  501    0 -0.11628620574E+03  0.86891716364E+00  0.95890341171E+02  0.15072555919E+03  0.00000000000E+00 0. -1.
<scales pt_clust_5="13000.00000" pt_clust_6="13000.00000" pt_clust_7="13000.00000" pt_clust_8="13000.00000" pt_clust_9="116.28945"></scales>
<clustering>
<clus scale="   94.921">  7  8 -1 -1</clus>
<clus scale="   98.079">  5  6 -1 -1</clus>
<clus scale="  116.289">  2  9  1 -1</clus>
<clus scale="  259.600">  1  7  2 -1</clus>
<clus scale="  116.289">  2  5  1 -1</clus>
</clustering>
</event>
<event>
 9    1  0.1881049E-005  0.1264743E+03  0.7546771E-02  0.1234255E+00
         21   -1    0    0  501  502  0.00000000000E+00  0.00000000000E+00  0.22058051105E+03  0.22058051105E+03  0.00000000000E+00 0. -1.
         -3   -1    0    0    0  501 -0.00000000000E+00 -0.00000000000E+00 -0.11043112271E+03  0.11043112271E+03  0.00000000000E+00 0.  1.
         23    2    1    2    0    0 -0.67749862940E+02 -0.22340290304E+02  0.10263064966E+02  0.11780463500E+03  0.93185133069E+02 0.  0.
         23    2    1    2    0    0  0.11043185281E+03  0.28059028613E+02  0.87175946270E+02  0.16830699973E+03  0.88006234714E+02 0.  0.
        -11    1    4    4    0    0  0.30121814524E+02  0.56936744905E+01 -0.16863481393E+02  0.34987406936E+02  0.00000000000E+00 0.  1.
         11    1    4    4    0    0  0.80310038291E+02  0.22365354122E+02  0.10403942766E+03  0.13331959280E+03  0.00000000000E+00 0. -1.
        -11    1    3    3    0    0 -0.83850256263E+02  0.59935126516E+01  0.15804071383E+01  0.84079042311E+02  0.00000000000E+00 0.  1.
         11    1    3    3    0    0  0.16100393323E+02 -0.28333802956E+02  0.86826578278E+01  0.33725592686E+02  0.00000000000E+00 0. -1.
         -3    1    1    2    0  502 -0.42681989874E+02 -0.57187383086E+01  0.12710377104E+02  0.44899999038E+02  0.00000000000E+00 0.  1.
<scales pt_clust_5="13000.00000" pt_clust_6="13000.00000" pt_clust_7="13000.00000" pt_clust_8="13000.00000" pt_clust_9="43.06342"></scales>
<clustering>
<clus scale="   43.063">  1  9  2 -1</clus>
<clus scale="   88.006">  5  6 -1 -1</clus>
<clus scale="   93.185">  7  8 -1 -1</clus>
<clus scale="  122.709">  1  5  2 -1</clus>
<clus scale="   43.063">  1  5  2 -1</clus>
</clustering>
</event>
<event>
 9    1  0.1881049E-005  0.1695245E+03  0.7546771E-02  0.1178359E+00
         21   -1    0    0  501  502  0.00000000000E+00  0.00000000000E+00  0.70172050105E+03  0.70172050105E+03  0.00000000000E+00 0.  1.
          1   -1    0    0  502    0 -0.00000000000E+00 -0.00000000000E+00 -0.17203887567E+03  0.17203887567E+03  0.00000000000E+00 0. -1.
         23    2    1    2    0    0  0.10446566611E+03  0.10223453241E+03 -0.10463094473E+03  0.20145054647E+03  0.90937962740E+02 0.  0.
         23    2    1    2    0    0 -0.98471230442E+02 -0.49904795011E+02  0.57709275320E+03  0.59453709938E+03  0.90836363617E+02 0.  0.
        -11    1    3    3    0    0  0.73623136316E+02  0.11646536274E+03 -0.78349309151E+02  0.15850287431E+03  0.00000000000E+00 0. -1.
         11    1    3    3    0    0  0.30842529792E+02 -0.14230830330E+02 -0.26281635575E+02  0.42947672164E+02  0.00000000000E+00 0.  1.
        -11    1    4    4    0    0 -0.34105226814E+02  0.17019515996E+02  0.77235708831E+02  0.86128886788E+02  0.00000000000E+00 0. -1.
         11    1    4    4    0    0 -0.64366003628E+02 -0.66924311007E+02  0.49985704437E+03  0.50840821260E+03  0.00000000000E+00 0.  1.
          1    1    1    2  501    0 -0.59944356656E+01 -0.52329737403E+02  0.57219816902E+02  0.77771730867E+02  0.00000000000E+00 0. -1.
<scales pt_clust_5="13000.00000" pt_clust_6="13000.00000" pt_clust_7="13000.00000" pt_clust_8="13000.00000" pt_clust_9="52.67195"></scales>
<clustering>
<clus scale="   52.672">  1  9  2 -1</clus>
<clus scale="   90.836">  7  8 -1 -1</clus>
<clus scale="   90.938">  5  6 -1 -1</clus>
<clus scale="  169.470">  1  7  2 -1</clus>
<clus scale="   52.672">  1  5  2 -1</clus>
</clustering>
</event>
<event>
 9    1  0.2482408E-005  0.1113141E+03  0.7546771E-02  0.1260146E+00
         21   -1    0    0  501  502  0.00000000000E+00  0.00000000000E+00  0.15834761842E+03  0.15834761842E+03  0.00000000000E+00 0. -1.
          2   -1    0    0  502    0 -0.00000000000E+00 -0.00000000000E+00 -0.52714019891E+03  0.52714019891E+03  0.00000000000E+00 0. -1.
         23    2    1    2    0    0  0.57393940495E+02 -0.17410233847E+02 -0.26371877852E+03  0.28640568900E+03  0.94252023317E+02 0.  0.
         23    2    1    2    0    0 -0.61160281710E+02 -0.21234019555E+02 -0.23710666040E+03  0.26145858619E+03  0.89160306424E+02 0.  0.
        -11    1    3    3    0    0  0.25571956527E+02  0.35549048281E+02 -0.65575337014E+02  0.78852930312E+02  0.00000000000E+00 0.  1.
         11    1    3    3    0    0  0.31821983968E+02 -0.52959282129E+02 -0.19814344150E+03  0.20755275869E+03  0.00000000000E+00 0. -1.
        -13    1    4    4    0    0 -0.27744648534E+02  0.30869882873E+02 -0.53585855439E+02  0.67780226423E+02  0.00000000000E+00 0.  1.
         13    1    4    4    0    0 -0.33415633176E+02 -0.52103902428E+02 -0.18352080496E+03  0.19367835977E+03  0.00000000000E+00 0. -1.
          2    1    1    2  501    0  0.37663412159E+01  0.38644253402E+02  0.13203285842E+03  0.13762354214E+03  0.00000000000E+00 0. -1.
<scales pt_clust_5="13000.00000" pt_clust_6="13000.00000" pt_clust_7="13000.00000" pt_clust_8="13000.00000" pt_clust_9="38.82736"></scales>
<clustering>
<clus scale="   38.827">  1  9  2 -1</clus>
<clus scale="   89.160">  7  8 -1 -1</clus>
<clus scale="   94.252">  5  6 -1 -1</clus>
<clus scale="  107.037">  1  7  2 -1</clus>
<clus scale="   38.827">  1  5  2 -1</clus>
</clustering>
</event>
<event>
 9    1  0.1881049E-005  0.2133917E+03  0.7546771E-02  0.1139187E+00
         21   -1    0    0  501  502  0.00000000000E+00  0.00000000000E+00  0.12138463284E+03  0.12138463284E+03  0.00000000000E+00 0.  1.
          2   -1    0    0  502    0 -0.00000000000E+00 -0.00000000000E+00 -0.10313314270E+04  0.10313314270E+04  0.00000000000E+00 0. -1.
         23    2    1    2    0    0  0.10461307951E+03 -0.15387400403E+03 -0.77320781048E+03  0.80049869215E+03  0.91250931094E+02 0.  0.
         23    2    1    2    0    0 -0.16800231586E+03  0.17279689341E+03 -0.92722096624E+02  0.27275821232E+03  0.87841395009E+02 0.  0.
        -11    1    3    3    0    0  0.69940990555E+02 -0.15005597895E+03 -0.70131035706E+03  0.72058639724E+03  0.00000000000E+00 0. -1.
         11    1    3    3    0    0  0.34672088960E+02 -0.38180250775E+01 -0.71897453425E+02  0.79912294907E+02  0.00000000000E+00 0.  1.
        -11    1    4    4    0    0 -0.15943558307E+03  0.13850356480E+03 -0.10432416165E+03  0.23555566925E+03  0.00000000000E+00 0.  1.
         11    1    4    4    0    0 -0.85667327869E+01  0.34293328612E+02  0.11602065023E+02  0.37202543068E+02  0.00000000000E+00 0. -1.
          2    1    1    2  501    0  0.63389236345E+02 -0.18922889382E+02 -0.44016887067E+02  0.79459155382E+02  0.00000000000E+00 0. -1.
<scales pt_clust_5="13000.00000" pt_clust_6="13000.00000" pt_clust_7="13000.00000" pt_clust_8="13000.00000" pt_clust_9="66.15339"></scales>
<clustering>
<clus scale="   66.153">  1  9  2 -1</clus>
<clus scale="   87.841">  7  8 -1 -1</clus>
<clus scale="   91.251">  5  6 -1 -1</clus>
<clus scale="  211.956">  1  7  2 -1</clus>
<clus scale="   66.153">  1  5  2 -1</clus>
</clustering>
</event>
<event>
 9    1  0.1881049E-005  0.9245568E+02  0.7546771E-02  0.1297207E+00
          2   -1    0    0  502    0 -0.00000000000E+00  0.00000000000E+00  0.23399168143E+03  0.23399168143E+03  0.00000000000E+00 0. -1.
         21   -1    0    0  501  502  0.00000000000E+00 -0.00000000000E+00 -0.81742398350E+02  0.81742398350E+02  0.00000000000E+00 0.  1.
         23    2    1    2    0    0 -0.35004485508E+01  0.21349065898E+02  0.16199912874E+03  0.18611615557E+03  0.89036340312E+02 0.  0.
         23    2    1    2    0    0  0.24440856132E+02 -0.36935369874E+02 -0.20764242440E+02  0.10128507264E+03  0.88690107566E+02 0.  0.
        -11    1    3    3    0    0  0.23418187763E+02 -0.73343383418E+01  0.13772235480E+03  0.13989156890E+03  0.00000000000E+00 0.  1.
         11    1    3    3    0    0 -0.26918636314E+02  0.28683404239E+02  0.24276773938E+02  0.46224586668E+02  0.00000000000E+00 0. -1.
        -13    1    4    4    0    0  0.46908622614E+02 -0.11685094917E+02 -0.39689965905E+02  0.62548011258E+02  0.00000000000E+00 0.  1.
         13    1    4    4    0    0 -0.22467766482E+02 -0.25250274957E+02  0.18925723465E+02  0.38737061386E+02  0.00000000000E+00 0. -1.
          2    1    1    2  501    0 -0.20940407581E+02  0.15586303976E+02  0.11014396774E+02  0.28332851561E+02  0.00000000000E+00 0. -1.
<scales pt_clust_5="13000.00000" pt_clust_6="13000.00000" pt_clust_7="13000.00000" pt_clust_8="13000.00000" pt_clust_9="26.10428"></scales>
<clustering>
<clus scale="   26.104">  2  9  1 -1</clus>
<clus scale="   88.690">  7  8 -1 -1</clus>
<clus scale="   89.036">  5  6 -1 -1</clus>
<clus scale="   92.122">  2  7  1 -1</clus>
<clus scale="   26.104">  2  5  1 -1</clus>
</clustering>
</event>
<event>
 9    1  0.1881049E-005  0.9970325E+02  0.7546771E-02  0.1281535E+00
          1   -1    0    0  502    0 -0.00000000000E+00  0.00000000000E+00  0.75306516946E+03  0.75306516946E+03  0.00000000000E+00 0. -1.
         21   -1    0    0  501  502  0.00000000000E+00 -0.00000000000E+00 -0.26202810308E+02  0.26202810308E+02  0.00000000000E+00 0.  1.
         23    2    1    2    0    0 -0.25470176219E+02  0.13207056310E+02  0.39845899679E+03  0.40979850777E+03  0.91335035095E+02 0.  0.
         23    2    1    2    0    0  0.36190288536E+02 -0.34383763023E+02  0.32932702313E+03  0.34571601195E+03  0.92581275703E+02 0.  0.
        -11    1    3    3    0    0  0.26943444546E+02  0.26375066783E+02  0.22431549738E+03  0.22746216327E+03  0.00000000000E+00 0. -1.
         11    1    3    3    0    0 -0.52413620765E+02 -0.13168010473E+02  0.17414349940E+03  0.18233634450E+03  0.00000000000E+00 0.  1.
        -11    1    4    4    0    0  0.16589652776E+02 -0.58299253092E+02  0.28680313924E+03  0.29313829530E+03  0.00000000000E+00 0. -1.
         11    1    4    4    0    0  0.19600635760E+02  0.23915490069E+02  0.42523883881E+02  0.52577716646E+02  0.00000000000E+00 0.  1.
          1    1    1    2  501    0 -0.10720112317E+02  0.21176706713E+02 -0.92366076231E+00  0.23753460053E+02  0.00000000000E+00 0. -1.
<scales pt_clust_5="13000.00000" pt_clust_6="13000.00000" pt_clust_7="13000.00000" pt_clust_8="13000.00000" pt_clust_9="23.73549"></scales>
<clustering>
<clus scale="   23.735">  2  9  1 -1</clus>
<clus scale="   91.335">  5  6 -1 -1</clus>
<clus scale="   92.581">  7  8 -1 -1</clus>
<clus scale="   98.547">  1  5  2 -1</clus>
<clus scale="   23.735">  2  5  1 -1</clus>
</clustering>
</event>
<event>
 9    1  0.1881049E-005  0.1110251E+03  0.7546771E-02  0.1261805E+00
         21   -1    0    0  501  502  0.00000000000E+00  0.00000000000E+00  0.70518543722E+03  0.70518543722E+03  0.00000000000E+00 0. -1.
          3   -1    0    0  502    0 -0.00000000000E+00 -0.00000000000E+00 -0.23413042925E+02  0.23413042925E+02  0.00000000000E+00 0. -1.
         23    2    1    2    0    0 -0.53034782037E+02 -0.51452470049E+02  0.23504997664E+03  0.26300067670E+03  0.91982713847E+02 0.  0.
         23    2    1    2    0    0  0.40833334688E+02  0.27809162829E+02  0.27280679960E+03  0.28965882682E+03  0.83892641424E+02 0.  0.
        -11    1    3    3    0    0  0.10214022133E+02  0.20063931541E+02  0.44876035616E+02  0.50207033069E+02  0.00000000000E+00 0.  1.
         11    1    3    3    0    0 -0.63248804170E+02 -0.71516401590E+02  0.19017394103E+03  0.21279364363E+03  0.00000000000E+00 0. -1.
        -13    1    4    4    0    0  0.66150866532E+02  0.20489679899E+02  0.17086312658E+03  0.18436369531E+03  0.00000000000E+00 0. -1.
         13    1    4    4    0    0 -0.25317531843E+02  0.73194829296E+01  0.10194367303E+03  0.10529513151E+03  0.00000000000E+00 0.  1.
          3    1    1    2  501    0  0.12201447348E+02  0.23643307221E+02  0.17391561805E+03  0.17593897662E+03  0.00000000000E+00 0. -1.
<scales pt_clust_5="13000.00000" pt_clust_6="13000.00000" pt_clust_7="13000.00000" pt_clust_8="13000.00000" pt_clust_9="26.60604"></scales>
<clustering>
<clus scale="   26.606">  1  9  2 -1</clus>
<clus scale="   83.893">  7  8 -1 -1</clus>
<clus scale="   91.983">  5  6 -1 -1</clus>
<clus scale="  104.421">  1  7  2 -1</clus>
<clus scale="   26.606">  1  5  2 -1</clus>
</clustering>
</event>
<event>
 9    1  0.1881049E-005  0.1082434E+03  0.7546771E-02  0.1264548E+00
         21   -1    0    0  501  502  0.00000000000E+00  0.00000000000E+00  0.91715725386E+02  0.91715725386E+02  0.00000000000E+00 0. -1.
          1   -1    0    0  502    0 -0.00000000000E+00 -0.00000000000E+00 -0.26523083633E+03  0.26523083633E+03  0.00000000000E+00 0. -1.
         23    2    1    2    0    0  0.58635372202E+02 -0.45269088058E+02 -0.14339524660E+03  0.18463949268E+03  0.89678025761E+02 0.  0.
         23    2    1    2    0    0 -0.31896372933E+02 -0.15311899829E+02  0.34399874942E+01  0.98068980220E+02  0.91399444664E+02 0.  0.
        -11    1    3    3    0    0  0.99510390951E+01 -0.29796893803E+02  0.10450017455E+01  0.31431991474E+02  0.00000000000E+00 0.  1.
         11    1    3    3    0    0  0.48684333107E+02 -0.15472194254E+02 -0.14444024834E+03  0.15320750121E+03  0.00000000000E+00 0. -1.
        -13    1    4    4    0    0 -0.99106553436E+01  0.38555367109E+02  0.23372022667E+01  0.39877311052E+02  0.00000000000E+00 0.  1.
         13    1    4    4    0    0 -0.21985717590E+02 -0.53867266939E+02  0.11027852275E+01  0.58191669169E+02  0.00000000000E+00 0. -1.
          1    1    1    2  501    0 -0.26738999268E+02  0.60580987887E+02 -0.33559851843E+02  0.74238088815E+02  0.00000000000E+00 0. -1.
<scales pt_clust_5="13000.00000" pt_clust_6="13000.00000" pt_clust_7="13000.00000" pt_clust_8="13000.00000" pt_clust_9="66.21956"></scales>
<clustering>
<clus scale="   66.220">  1  9  2 -1</clus>
<clus scale="   89.678">  5  6 -1 -1</clus>
<clus scale="   91.399">  7  8 -1 -1</clus>
<clus scale="  106.794">  2  5  1 -1</clus>
<clus scale="   66.220">  1  5  2 -1</clus>
</clustering>
</event>
<event>
 9    1  0.1881049E-005  0.1180812E+03  0.7546771E-02  0.1256171E+00
         21   -1    0    0  501  502  0.00000000000E+00  0.00000000000E+00  0.64687486470E+02  0.64687486470E+02  0.00000000000E+00 0. -1.
          1   -1    0    0  502    0 -0.00000000000E+00 -0.00000000000E+00 -0.66379354548E+03  0.66379354548E+03  0.00000000000E+00 0. -1.
         23    2    1    2    0    0  0.41951979259E+02  0.69080775324E+02 -0.36212832282E+03  0.37754829961E+03  0.69811705831E+02 0.  0.
         23    2    1    2    0    0 -0.22589991966E+02 -0.43941931151E+02 -0.27829719839E+03  0.29883526604E+03  0.97015383041E+02 0.  0.
        -11    1    3    3    0    0  0.56315514477E+02  0.38934320495E+02 -0.18416717182E+03  0.19648120943E+03  0.00000000000E+00 0. -1.
         11    1    3    3    0    0 -0.14363535218E+02  0.30146454829E+02 -0.17796115100E+03  0.18106709018E+03  0.00000000000E+00 0.  1.
        -13    1    4    4    0    0 -0.52676445955E+02 -0.15398103863E+02 -0.85280292191E+02  0.10141320327E+03  0.00000000000E+00 0.  1.
         13    1    4    4    0    0  0.30086453989E+02 -0.28543827289E+02 -0.19301690620E+03  0.19742206277E+03  0.00000000000E+00 0. -1.
          1    1    1    2  501    0 -0.19361987293E+02 -0.25138844173E+02  0.41319462198E+02  0.52097466297E+02  0.00000000000E+00 0. -1.
<scales pt_clust_5="13000.00000" pt_clust_6="13000.00000" pt_clust_7="13000.00000" pt_clust_8="13000.00000" pt_clust_9="31.73087"></scales>
<clustering>
<clus scale="   31.731">  1  9  2 -1</clus>
<clus scale="   69.812">  5  6 -1 -1</clus>
<clus scale="   96.979">  2  5  1 -1</clus>
<clus scale="   97.015">  7  8 -1 -1</clus>
<clus scale="   31.731">  1  5  2 -1</clus>
</clustering>
</event>
<event>
 9    1  0.1881049E-005  0.1624723E+03  0.7546771E-02  0.1186776E+00
         21   -1    0    0  501  502  0.00000000000E+00  0.00000000000E+00  0.21010572739E+03  0.21010572739E+03  0.00000000000E+00 0.  1.
          1   -1    0    0  502    0 -0.00000000000E+00 -0.00000000000E+00 -0.33676481849E+03  0.33676481849E+03  0.00000000000E+00 0. -1.
         23    2    1    2    0    0 -0.11159076916E+02  0.12795335815E+03 -0.23324293254E+03  0.28164505615E+03  0.91788262942E+02 0.  0.
         23    2    1    2    0    0 -0.46499828476E+02 -0.14515653402E+03  0.94483164153E+02  0.20385020951E+03  0.96928768657E+02 0.  0.
        -13    1    3    3    0    0 -0.70858410809E+01  0.38180430468E+02 -0.87112543642E+01  0.39797491971E+02  0.00000000000E+00 0.  1.
         13    1    3    3    0    0 -0.40732358355E+01  0.89772927681E+02 -0.22453167817E+03  0.24184756418E+03  0.00000000000E+00 0. -1.
        -13    1    4    4    0    0  0.24201402841E+02 -0.41629837175E+02  0.53446574741E+02  0.71939471740E+02  0.00000000000E+00 0. -1.
         13    1    4    4    0    0 -0.70701231317E+02 -0.10352669685E+03  0.41036589412E+02  0.13191073777E+03  0.00000000000E+00 0.  1.
          1    1    1    2  501    0  0.57658905393E+02  0.17203175871E+02  0.12100677288E+02  0.61375280219E+02  0.00000000000E+00 0. -1.
<scales pt_clust_5="13000.00000" pt_clust_6="13000.00000" pt_clust_7="13000.00000" pt_clust_8="13000.00000" pt_clust_9="60.17058"></scales>
<clustering>
<clus scale="   60.171">  1  9  2 -1</clus>
<clus scale="   91.788">  5  6 -1 -1</clus>
<clus scale="   96.929">  7  8 -1 -1</clus>
<clus scale="  159.459">  2  5  1 -1</clus>
<clus scale="   60.171">  1  5  2 -1</clus>
</clustering>
</event>
<event>
 9    1  0.1881049E-005  0.1025855E+03  0.7546771E-02  0.1276314E+00
         21   -1    0    0  501  502  0.00000000000E+00  0.00000000000E+00  0.77491902411E+02  0.77491902411E+02  0.00000000000E+00 0.  1.
          1   -1    0    0  502    0 -0.00000000000E+00 -0.00000000000E+00 -0.36496837321E+03  0.36496837321E+03  0.00000000000E+00 0. -1.
         23    2    1    2    0    0  0.11062024805E+02  0.36097947872E+02 -0.23977664285E+03  0.25977867565E+03  0.92556424037E+02 0.  0.
         23    2    1    2    0    0 -0.19249601118E+01 -0.63354696627E+02 -0.82668276789E+02  0.13741341337E+03  0.89615172439E+02 0.  0.
        -11    1    3    3    0    0  0.36119223272E+02 -0.82582154530E+01 -0.16624282568E+03  0.17032167655E+03  0.00000000000E+00 0.  1.
         11    1    3    3    0    0 -0.25057198467E+02  0.44356163325E+02 -0.73533817171E+02  0.89456999098E+02  0.00000000000E+00 0. -1.
        -13    1    4    4    0    0  0.32416200872E+02 -0.57074537586E+02 -0.25476566161E+02  0.70408581459E+02  0.00000000000E+00 0.  1.
         13    1    4    4    0    0 -0.34341160983E+02 -0.62801590402E+01 -0.57191710628E+02  0.67004831914E+02  0.00000000000E+00 0. -1.
          1    1    1    2  501    0 -0.91370646928E+01  0.27256748755E+02  0.34968448841E+02  0.45268186602E+02  0.00000000000E+00 0. -1.
<scales pt_clust_5="13000.00000" pt_clust_6="13000.00000" pt_clust_7="13000.00000" pt_clust_8="13000.00000" pt_clust_9="28.74746"></scales>
<clustering>
<clus scale="   28.747">  1  9  2 -1</clus>
<clus scale="   89.615">  7  8 -1 -1</clus>
<clus scale="   92.556">  5  6 -1 -1</clus>
<clus scale="   99.940">  1  7  2 -1</clus>
<clus scale="   28.747">  1  5  2 -1</clus>
</clustering>
</event>
<event>
 9    1  0.1881049E-005  0.9215124E+02  0.7546771E-02  0.1298348E+00
         -2   -1    0    0    0  501 -0.00000000000E+00  0.00000000000E+00  0.26365160334E+03  0.26365160334E+03  0.00000000000E+00 0.  1.
         21   -1    0    0  501  502  0.00000000000E+00 -0.00000000000E+00 -0.84831537125E+02  0.84831537125E+02  0.00000000000E+00 0. -1.
         23    2    1    2    0    0 -0.65609843306E+01  0.41464046631E+01  0.12841137147E+03  0.15708921161E+03  0.90151544046E+02 0.  0.
         23    2    1    2    0    0  0.64858300151E+02 -0.12712545826E+02 -0.42880155627E+01  0.11099687714E+03  0.89071385626E+02 0.  0.
        -11    1    3    3    0    0  0.30574587079E+02 -0.21956118034E+02  0.90258658628E+02  0.97793159022E+02  0.00000000000E+00 0.  1.
         11    1    3    3    0    0 -0.37135571409E+02  0.26102522697E+02  0.38152712840E+02  0.59296052585E+02  0.00000000000E+00 0. -1.
        -11    1    4    4    0    0 -0.16688575095E+02  0.16554922476E+02  0.44256285585E+01  0.23919870088E+02  0.00000000000E+00 0.  1.
         11    1    4    4    0    0  0.81546875246E+02 -0.29267468302E+02 -0.87136441213E+01  0.87077007051E+02  0.00000000000E+00 0. -1.
         -2    1    1    2    0  502 -0.58297315820E+02  0.85661411624E+01  0.54696710305E+02  0.80397051715E+02  0.00000000000E+00 0.  1.
<scales pt_clust_5="13000.00000" pt_clust_6="13000.00000" pt_clust_7="13000.00000" pt_clust_8="13000.00000" pt_clust_9="58.92333"></scales>
<clustering>
<clus scale="   58.923">  2  9  1 -1</clus>
<clus scale="   89.071">  7  8 -1 -1</clus>
<clus scale="   90.152">  5  6 -1 -1</clus>
<clus scale="   91.095">  2  7  1 -1</clus>
<clus scale="   58.923">  2  5  1 -1</clus>
</clustering>
</event>
<event>
 9    1  0.1881049E-005  0.1004891E+03  0.7546771E-02  0.1280018E+00
          1   -1    0    0  502    0 -0.00000000000E+00  0.00000000000E+00  0.73214355967E+03  0.73214355967E+03  0.00000000000E+00 0. -1.
         21   -1    0    0  501  502  0.00000000000E+00 -0.00000000000E+00 -0.23223848070E+02  0.23223848070E+02  0.00000000000E+00 0.  1.
         23    2    1    2    0    0  0.42061383308E+02  0.32683455068E+02  0.42600493033E+03  0.43890793456E+03  0.91228318805E+02 0.  0.
         23    2    1    2    0    0 -0.33950105126E+02  0.10211351339E+02  0.21628504134E+03  0.23680221053E+03  0.89661510519E+02 0.  0.
        -11    1    3    3    0    0 -0.24318307500E+02  0.50282375818E+01  0.47158812459E+02  0.53297437512E+02  0.00000000000E+00 0.  1.
         11    1    3    3    0    0  0.66379690808E+02  0.27655217486E+02  0.37884611788E+03  0.38561049705E+03  0.00000000000E+00 0. -1.
        -13    1    4    4    0    0 -0.34458546412E+01 -0.20371513897E+02  0.51488637120E+01  0.21292799022E+02  0.00000000000E+00 0.  1.
         13    1    4    4    0    0 -0.30504250485E+02  0.30582865236E+02  0.21113617763E+03  0.21550941150E+03  0.00000000000E+00 0. -1.
          1    1    1    2  501    0 -0.81112781817E+01 -0.42894806407E+02  0.66629739921E+02  0.79657262646E+02  0.00000000000E+00 0. -1.
<scales pt_clust_5="13000.00000" pt_clust_6="13000.00000" pt_clust_7="13000.00000" pt_clust_8="13000.00000" pt_clust_9="43.65498"></scales>
<clustering>
<clus scale="   43.655">  2  9  1 -1</clus>
<clus scale="   89.662">  7  8 -1 -1</clus>
<clus scale="   91.228">  5  6 -1 -1</clus>
<clus scale="   99.069">  2  7  1 -1</clus>
<clus scale="   43.655">  2  5  1 -1</clus>
</clustering>
</event>
<event>
 9    1  0.1881049E-005  0.1026121E+03  0.7546771E-02  0.1277964E+00
         21   -1    0    0  501  502  0.00000000000E+00  0.00000000000E+00  0.17538791477E+02  0.17538791477E+02  0.00000000000E+00 0. -1.
         -1   -1    0    0    0  501 -0.00000000000E+00 -0.00000000000E+00 -0.85987457193E+03  0.85987457193E+03  0.00000000000E+00 0.  1.
         23    2    1    2    0    0 -0.41061905581E+02  0.44959807125E+01 -0.46145727506E+03  0.47347709017E+03  0.97629115894E+02 0.  0.
         23    2    1    2    0    0  0.17088830777E+02 -0.18948254283E+02 -0.34816491618E+03  0.36088101286E+03  0.91461642840E+02 0.  0.
        -11    1    3    3    0    0 -0.22139899324E+01 -0.43886662796E+02 -0.18714559747E+03  0.19223531303E+03  0.00000000000E+00 0. -1.
         11    1    3    3    0    0 -0.38847915649E+02  0.48382643508E+02 -0.27431167759E+03  0.28124177714E+03  0.00000000000E+00 0.  1.
        -13    1    4    4    0    0  0.43131540607E+02  0.20433550982E+02 -0.17805239727E+03  0.18433804810E+03  0.00000000000E+00 0.  1.
         13    1    4    4    0    0 -0.26042709830E+02 -0.39381805265E+02 -0.17011251890E+03  0.17654296477E+03  0.00000000000E+00 0. -1.
         -1    1    1    2    0  502  0.23973074804E+02  0.14452273571E+02 -0.32713589210E+02  0.43055260374E+02  0.00000000000E+00 0.  1.
<scales pt_clust_5="13000.00000" pt_clust_6="13000.00000" pt_clust_7="13000.00000" pt_clust_8="13000.00000" pt_clust_9="27.99244"></scales>
<clustering>
<clus scale="   27.992">  1  9  2 -1</clus>
<clus scale="   91.462">  7  8 -1 -1</clus>
<clus scale="   96.763">  1  7  2 -1</clus>
<clus scale="   97.629">  5  6 -1 -1</clus>
<clus scale="   27.992">  1  5  2 -1</clus>
</clustering>
</event>
<event>
 9    1  0.1881049E-005  0.1307559E+03  0.7546771E-02  0.1228962E+00
         -1   -1    0    0    0  501 -0.00000000000E+00  0.00000000000E+00  0.32764002487E+03  0.32764002487E+03  0.00000000000E+00 0.  1.
         21   -1    0    0  501  502  0.00000000000E+00 -0.00000000000E+00 -0.12335666689E+03  0.12335666689E+03  0.00000000000E+00 0.  1.
         23    2    1    2    0    0  0.78976621250E+02 -0.12275582263E+02  0.13475136455E+03  0.18652219096E+03  0.10121561563E+03 0.  0.
         23    2    1    2    0    0 -0.82144265452E+02 -0.58678942803E+02  0.11629508807E+03  0.17943706424E+03  0.92098935057E+02 0.  0.
        -13    1    4    4    0    0 -0.61563481428E+02  0.12268518320E+02  0.52802969390E+02  0.82028850801E+02  0.00000000000E+00 0. -1.
         13    1    4    4    0    0 -0.20580784023E+02 -0.70947461123E+02  0.63492118678E+02  0.97408213437E+02  0.00000000000E+00 0.  1.
        -13    1    3    3    0    0 -0.19781830312E+02  0.50096006559E+01  0.54193449574E+02  0.57908089987E+02  0.00000000000E+00 0. -1.
         13    1    3    3    0    0  0.98758451561E+02 -0.17285182919E+02  0.80557914978E+02  0.12861410097E+03  0.00000000000E+00 0.  1.
         -1    1    1    2    0  502  0.31676442018E+01  0.70954525066E+02 -0.46763094645E+02  0.85037436567E+02  0.00000000000E+00 0.  1.
<scales pt_clust_5="13000.00000" pt_clust_6="13000.00000" pt_clust_7="13000.00000" pt_clust_8="13000.00000" pt_clust_9="71.02520"></scales>
<clustering>
<clus scale="   71.025">  2  9  1 -1</clus>
<clus scale="   92.099">  5  6 -1 -1</clus>
<clus scale="  101.216">  7  8 -1 -1</clus>
<clus scale="  123.833">  2  5  1 -1</clus>
<clus scale="   71.025">  2  5  1 -1</clus>
</clustering>
</event>
<event>
 9    1  0.1881049E-005  0.1224889E+03  0.7546771E-02  0.1243820E+00
         21   -1    0    0  501  502  0.00000000000E+00  0.00000000000E+00  0.61825090369E+02  0.61825090369E+02  0.00000000000E+00 0. -1.
         -1   -1    0    0    0  501 -0.00000000000E+00 -0.00000000000E+00 -0.56953162951E+03  0.56953162951E+03  0.00000000000E+00 0.  1.
         23    2    1    2    0    0  0.66443121815E+02 -0.69560846096E+02 -0.19070536869E+03  0.23197038831E+03  0.90489356614E+02 0.  0.
         23    2    1    2    0    0 -0.47671055841E+02 -0.33983241181E+02 -0.91106878978E+02  0.15018360407E+03  0.10405412673E+03 0.  0.
        -11    1    3    3    0    0  0.47668277168E+02 -0.88262605397E+02 -0.17338528394E+03  0.20031227832E+03  0.00000000000E+00 0. -1.
         11    1    3    3    0    0  0.18774844647E+02  0.18701759301E+02 -0.17320084754E+02  0.31658109994E+02  0.00000000000E+00 0.  1.
        -13    1    4    4    0    0 -0.51015029087E+02  0.75008419277E+01 -0.95298874393E+02  0.10835437824E+03  0.00000000000E+00 0.  1.
         13    1    4    4    0    0  0.33439732458E+01 -0.41484083109E+02  0.41919954145E+01  0.41829225836E+02  0.00000000000E+00 0. -1.
         -1    1    1    2    0  502 -0.18772065974E+02  0.10354408728E+03 -0.22589429147E+03  0.24920272750E+03  0.00000000000E+00 0.  1.
<scales pt_clust_5="13000.00000" pt_clust_6="13000.00000" pt_clust_7="13000.00000" pt_clust_8="13000.00000" pt_clust_9="105.23203"></scales>
<clustering>
<clus scale="   90.489">  5  6 -1 -1</clus>
<clus scale="  104.054">  7  8 -1 -1</clus>
<clus scale="  105.232">  1  9  2 -1</clus>
<clus scale="  111.196">  2  5  1 -1</clus>
<clus scale="  105.232">  1  5  2 -1</clus>
</clustering>
</event>
<event>
 9    1  0.1881049E-005  0.1408045E+03  0.7546771E-02  0.1212733E+00
         21   -1    0    0  501  502  0.00000000000E+00  0.00000000000E+00  0.17068251852E+03  0.17068251852E+03  0.00000000000E+00 0. -1.
          1   -1    0    0  502    0 -0.00000000000E+00 -0.00000000000E+00 -0.27598102064E+03  0.27598102064E+03  0.00000000000E+00 0. -1.
         23    2    1    2    0    0 -0.84073644901E+02  0.75381250596E+02 -0.14810824867E+03  0.20684085049E+03  0.89979849953E+02 0.  0.
         23    2    1    2    0    0  0.10007953844E+03 -0.24300654017E+02 -0.37580553440E+02  0.14324103251E+03  0.92191429087E+02 0.  0.
        -11    1    3    3    0    0 -0.29889035959E+02  0.83765164473E+02 -0.10076022075E+03  0.13439709571E+03  0.00000000000E+00 0. -1.
         11    1    3    3    0    0 -0.54184608942E+02 -0.83839138770E+01 -0.47348027915E+02  0.72443754773E+02  0.00000000000E+00 0.  1.
        -13    1    4    4    0    0  0.30000183004E+02 -0.53331544867E+02 -0.75342211235E+01  0.61652486942E+02  0.00000000000E+00 0.  1.
         13    1    4    4    0    0  0.70079355438E+02  0.29030890850E+02 -0.30046332316E+02  0.81588545568E+02  0.00000000000E+00 0. -1.
          1    1    1    2  501    0 -0.16005893542E+02 -0.51080596579E+02  0.80390299992E+02  0.96581656166E+02  0.00000000000E+00 0. -1.
<scales pt_clust_5="13000.00000" pt_clust_6="13000.00000" pt_clust_7="13000.00000" pt_clust_8="13000.00000" pt_clust_9="53.52958"></scales>
<clustering>
<clus scale="   53.530">  1  9  2 -1</clus>
<clus scale="   89.980">  5  6 -1 -1</clus>
<clus scale="   92.191">  7  8 -1 -1</clus>
<clus scale="  139.366">  2  5  1 -1</clus>
<clus scale="   53.530">  1  5  2 -1</clus>
</clustering>
</event>
<event>
 9    1  0.1881049E-005  0.1457166E+03  0.7546771E-02  0.1205899E+00
          2   -1    0    0  502    0 -0.00000000000E+00  0.00000000000E+00  0.56548403693E+03  0.56548403693E+03  0.00000000000E+00 0. -1.
         21   -1    0    0  501  502  0.00000000000E+00 -0.00000000000E+00 -0.27566089852E+03  0.27566089852E+03  0.00000000000E+00 0. -1.
         23    2    1    2    0    0 -0.10384786460E+03  0.55771665562E+02  0.48797304506E+03  0.51033367447E+03  0.91803643344E+02 0.  0.
         23    2    1    2    0    0  0.82778849121E+02 -0.29543253480E+02  0.29577572700E+01  0.12690901601E+03  0.91498679380E+02 0.  0.
        -11    1    3    3    0    0 -0.27906182103E+02  0.56632863144E+02  0.13163841649E+03  0.14599557830E+03  0.00000000000E+00 0.  1.
         11    1    3    3    0    0 -0.75941682500E+02 -0.86119758248E+00  0.35633462857E+03  0.36433809617E+03  0.00000000000E+00 0. -1.
        -11    1    4    4    0    0  0.79765494122E+02 -0.50414033868E+02 -0.19227847906E+02  0.96300669772E+02  0.00000000000E+00 0.  1.
         11    1    4    4    0    0  0.30133549986E+01  0.20870780388E+02  0.22185605176E+02  0.30608346237E+02  0.00000000000E+00 0. -1.
          2    1    1    2  501    0  0.21069015483E+02 -0.26228412082E+02 -0.20110766392E+03  0.20390224497E+03  0.00000000000E+00 0. -1.
<scales pt_clust_5="13000.00000" pt_clust_6="13000.00000" pt_clust_7="13000.00000" pt_clust_8="13000.00000" pt_clust_9="33.64273"></scales>
<clustering>
<clus scale="   33.643">  2  9  1 -1</clus>
<clus scale="   91.499">  7  8 -1 -1</clus>
<clus scale="   91.804">  5  6 -1 -1</clus>
<clus scale="  145.525">  2  7  1 -1</clus>
<clus scale="   33.643">  2  5  1 -1</clus>
</clustering>
</event>
<event>
 9    1  0.1881049E-005  0.9824685E+02  0.7546771E-02  0.1286452E+00
          1   -1    0    0  502    0 -0.00000000000E+00  0.00000000000E+00  0.29830418887E+03  0.29830418887E+03  0.00000000000E+00 0. -1.
         21   -1    0    0  501  502  0.00000000000E+00 -0.00000000000E+00 -0.44210259579E+02  0.44210259579E+02  0.00000000000E+00 0.  1.
         23    2    1    2    0    0 -0.72135998991E+00 -0.27451662495E+02  0.15436757074E+03  0.18168962761E+03  0.91802286192E+02 0.  0.
         23    2    1    2    0    0 -0.71356269355E+01  0.49581317573E+02  0.67830219982E+02  0.12121651953E+03  0.87082039704E+02 0.  0.
        -11    1    4    4    0    0 -0.34569505270E+02  0.30752304996E+02  0.67859025426E+00  0.46273269194E+02  0.00000000000E+00 0.  1.
         11    1    4    4    0    0  0.27433878335E+02  0.18829012577E+02  0.67151629727E+02  0.74943250331E+02  0.00000000000E+00 0. -1.
        -13    1    3    3    0    0  0.35102184484E+02 -0.15876982967E+02  0.13285804261E+03  0.13833112965E+03  0.00000000000E+00 0. -1.
         13    1    3    3    0    0 -0.35823544473E+02 -0.11574679529E+02  0.21509528129E+02  0.43358497958E+02  0.00000000000E+00 0.  1.
          1    1    1    2  501    0  0.78569869254E+01 -0.22129655078E+02  0.31896138565E+02  0.39608301311E+02  0.00000000000E+00 0. -1.
<scales pt_clust_5="13000.00000" pt_clust_6="13000.00000" pt_clust_7="13000.00000" pt_clust_8="13000.00000" pt_clust_9="23.48307"></scales>
<clustering>
<clus scale="   23.483">  2  9  1 -1</clus>
<clus scale="   87.082">  5  6 -1 -1</clus>
<clus scale="   91.802">  7  8 -1 -1</clus>
<clus scale="   93.851">  2  5  1 -1</clus>
<clus scale="   23.483">  2  5  1 -1</clus>
</clustering>
</event>
<event>
 9    1  0.1881049E-005  0.9693270E+02  0.7546771E-02  0.1287743E+00
         21   -1    0    0  501  502  0.00000000000E+00  0.00000000000E+00  0.10550982428E+03  0.10550982428E+03  0.00000000000E+00 0.  1.
          1   -1    0    0  502    0 -0.00000000000E+00 -0.00000000000E+00 -0.37641043132E+03  0.37641043132E+03  0.00000000000E+00 0. -1.
         23    2    1    2    0    0 -0.17219867339E+02 -0.17702543738E+02 -0.30542756301E+03  0.31972884306E+03  0.91272301107E+02 0.  0.
         23    2    1    2    0    0  0.35936515273E+02  0.28833829049E+02 -0.18074503682E+02  0.10526047209E+03  0.92899173702E+02 0.  0.
        -13    1    4    4    0    0  0.16668799477E+01 -0.25579802202E+02  0.18191606688E+02  0.31433092806E+02  0.00000000000E+00 0.  1.
         13    1    4    4    0    0  0.34269635325E+02  0.54413631251E+02 -0.36266110370E+02  0.73827379288E+02  0.00000000000E+00 0. -1.
        -13    1    3    3    0    0 -0.26583315972E+02  0.27428310866E+02 -0.21353762641E+03  0.21692695272E+03  0.00000000000E+00 0.  1.
         13    1    3    3    0    0  0.93634486323E+01 -0.45130854604E+02 -0.91889936605E+02  0.10280189034E+03  0.00000000000E+00 0. -1.
          1    1    1    2  501    0 -0.18716647933E+02 -0.11131285310E+02  0.52601459656E+02  0.56930940449E+02  0.00000000000E+00 0. -1.
<scales pt_clust_5="13000.00000" pt_clust_6="13000.00000" pt_clust_7="13000.00000" pt_clust_8="13000.00000" pt_clust_9="21.77656"></scales>
<clustering>
<clus scale="   21.777">  1  9  2 -1</clus>
<clus scale="   91.272">  7  8 -1 -1</clus>
<clus scale="   92.899">  5  6 -1 -1</clus>
<clus scale="   95.375">  2  7  1 -1</clus>
<clus scale="   21.777">  1  5  2 -1</clus>
</clustering>
</event>
<event>
 9    1  0.1881049E-005  0.1543978E+03  0.7546771E-02  0.1195268E+00
         21   -1    0    0  501  502  0.00000000000E+00  0.00000000000E+00  0.18622105418E+03  0.18622105418E+03  0.00000000000E+00 0. -1.
          1   -1    0    0  502    0 -0.00000000000E+00 -0.00000000000E+00 -0.40067539844E+03  0.40067539844E+03  0.00000000000E+00 0. -1.
         23    2    1    2    0    0  0.77465343014E+02 -0.10147250589E+03 -0.29662195367E+03  0.33535156522E+03  0.90435281147E+02 0.  0.
         23    2    1    2    0    0 -0.29107695128E+02  0.11812198839E+03 -0.32868225816E+01  0.15195509213E+03  0.90991674157E+02 0.  0.
        -11    1    3    3    0    0  0.23425904882E+02  0.13802544615E+01 -0.89714489628E+01  0.25122997799E+02  0.00000000000E+00 0.  1.
         11    1    3    3    0    0  0.54039438133E+02 -0.10285276035E+03 -0.28765050471E+03  0.31022856742E+03  0.00000000000E+00 0. -1.
        -13    1    4    4    0    0 -0.67595136411E+01  0.98269494349E+02 -0.38505821040E+02  0.10576049734E+03  0.00000000000E+00 0. -1.
         13    1    4    4    0    0 -0.22348181487E+02  0.19852494040E+02  0.35218998459E+02  0.46194594790E+02  0.00000000000E+00 0.  1.
          1    1    1    2  501    0 -0.48357647886E+02 -0.16649482498E+02  0.85454431985E+02  0.99589795273E+02  0.00000000000E+00 0. -1.
<scales pt_clust_5="13000.00000" pt_clust_6="13000.00000" pt_clust_7="13000.00000" pt_clust_8="13000.00000" pt_clust_9="51.14360"></scales>
<clustering>
<clus scale="   51.144">  1  9  2 -1</clus>
<clus scale="   90.435">  5  6 -1 -1</clus>
<clus scale="   90.992">  7  8 -1 -1</clus>
<clus scale="  154.071">  2  5  1 -1</clus>
<clus scale="   51.144">  1  5  2 -1</clus>
</clustering>
</event>
<event>
 9    1  0.1881049E-005  0.1020646E+03  0.7546771E-02  0.1276073E+00
         21   -1    0    0  501  502  0.00000000000E+00  0.00000000000E+00  0.24857892700E+03  0.24857892700E+03  0.00000000000E+00 0. -1.
         -1   -1    0    0    0  501 -0.00000000000E+00 -0.00000000000E+00 -0.12727905401E+03  0.12727905401E+03  0.00000000000E+00 0.  1.
         23    2    1    2    0    0  0.47733048763E+02 -0.19543754137E+01 -0.72460260842E+02  0.12569968622E+03  0.90926663789E+02 0.  0.
         23    2    1    2    0    0 -0.37458731918E+02  0.26770839017E+02  0.70541226589E+02  0.12404597361E+03  0.91057698746E+02 0.  0.
        -11    1    3    3    0    0  0.33109054682E+02 -0.27431979823E+02  0.45883058853E+01  0.43240901584E+02  0.00000000000E+00 0. -1.
         11    1    3    3    0    0  0.14623994082E+02  0.25477604410E+02 -0.77048566727E+02  0.82458784639E+02  0.00000000000E+00 0.  1.
        -11    1    4    4    0    0 -0.42991314376E+02  0.77372222131E+00  0.83916361480E+02  0.94291078485E+02  0.00000000000E+00 0. -1.
         11    1    4    4    0    0  0.55325824582E+01  0.25997116796E+02 -0.13375134891E+02  0.29754895122E+02  0.00000000000E+00 0.  1.
         -1    1    1    2    0  502 -0.10274316845E+02 -0.24816463603E+02  0.12321890724E+03  0.12611232118E+03  0.00000000000E+00 0.  1.
<scales pt_clust_5="13000.00000" pt_clust_6="13000.00000" pt_clust_7="13000.00000" pt_clust_8="13000.00000" pt_clust_9="26.85923"></scales>
<clustering>
<clus scale="   26.859">  1  9  2 -1</clus>
<clus scale="   90.927">  5  6 -1 -1</clus>
<clus scale="   91.058">  7  8 -1 -1</clus>
<clus scale="  101.948">  2  5  1 -1</clus>
<clus scale="   26.859">  1  5  2 -1</clus>
</clustering>
</event>
<event>
 9    1  0.1881049E-005  0.3066110E+03  0.7546771E-02  0.1097319E+00
         21   -1    0    0  501  502  0.00000000000E+00  0.00000000000E+00  0.10111433201E+03  0.10111433201E+03  0.00000000000E+00 0. -1.
          1   -1    0    0  502    0 -0.00000000000E+00 -0.00000000000E+00 -0.23314606600E+04  0.23314606600E+04  0.00000000000E+00 0. -1.
         23    2    1    2    0    0  0.73225963694E+02 -0.16854040579E+03 -0.36414285483E+03  0.41756453536E+03  0.89399174082E+02 0.  0.
         23    2    1    2    0    0  0.12782753471E+03  0.36033539095E+03 -0.15256413317E+04  0.15754761602E+04  0.91444987469E+02 0.  0.
        -11    1    4    4    0    0  0.11465810756E+03  0.19141576226E+03 -0.82525277494E+03  0.85488514914E+03  0.00000000000E+00 0.  1.
         11    1    4    4    0    0  0.13169427155E+02  0.16891962870E+03 -0.70038855678E+03  0.72059101107E+03  0.00000000000E+00 0. -1.
        -13    1    3    3    0    0 -0.20799076211E+02 -0.23560872428E+02 -0.61467080441E+02  0.69035630356E+02  0.00000000000E+00 0.  1.
         13    1    3    3    0    0  0.94025039905E+02 -0.14497953336E+03 -0.30267577439E+03  0.34852890500E+03  0.00000000000E+00 0. -1.
          1    1    1    2  501    0 -0.20105349841E+03 -0.19179498516E+03 -0.34056214142E+03  0.43953429641E+03  0.00000000000E+00 0. -1.
<scales pt_clust_5="13000.00000" pt_clust_6="13000.00000" pt_clust_7="13000.00000" pt_clust_8="13000.00000" pt_clust_9="292.65695"></scales>
<clustering>
<clus scale="   89.399">  7  8 -1 -1</clus>
<clus scale="   91.445">  5  6 -1 -1</clus>
<clus scale="  204.353">  2  7  1 -1</clus>
<clus scale="  292.657">  1  9  2 -1</clus>
<clus scale="  292.657">  1  5  2 -1</clus>
</clustering>
</event>
<event>
 9    1  0.1881049E-005  0.1598409E+03  0.7546771E-02  0.1192049E+00
         21   -1    0    0  501  502  0.00000000000E+00  0.00000000000E+00  0.51684472833E+02  0.51684472833E+02  0.00000000000E+00 0. -1.
          1   -1    0    0  502    0 -0.00000000000E+00 -0.00000000000E+00 -0.11216845569E+04  0.11216845569E+04  0.00000000000E+00 0. -1.
         23    2    1    2    0    0  0.11090679257E+03  0.51292004386E+02 -0.71030168989E+03  0.72726790822E+03  0.97257047613E+02 0.  0.
         23    2    1    2    0    0 -0.13164215500E+03 -0.36276271866E+02 -0.38136707545E+03  0.41256070960E+03  0.78229585205E+02 0.  0.
        -11    1    4    4    0    0 -0.23018358829E+02 -0.32649441630E+02 -0.17299553850E+03  0.17754798569E+03  0.00000000000E+00 0.  1.
         11    1    4    4    0    0 -0.10862379617E+03 -0.36268302363E+01 -0.20837153695E+03  0.23501272391E+03  0.00000000000E+00 0. -1.
        -11    1    3    3    0    0  0.11988217573E+03  0.17537845573E+02 -0.56131747551E+03  0.57424439082E+03  0.00000000000E+00 0.  1.
         11    1    3    3    0    0 -0.89753831552E+01  0.33754158813E+02 -0.14898421439E+03  0.15302351740E+03  0.00000000000E+00 0. -1.
          1    1    1    2  501    0  0.20735362427E+02 -0.15015732520E+02  0.21668681316E+02  0.33540411865E+02  0.00000000000E+00 0. -1.
<scales pt_clust_5="13000.00000" pt_clust_6="13000.00000" pt_clust_7="13000.00000" pt_clust_8="13000.00000" pt_clust_9="25.60132"></scales>
<clustering>
<clus scale="   25.601">  1  9  2 -1</clus>
<clus scale="   78.230">  5  6 -1 -1</clus>
<clus scale="   97.257">  7  8 -1 -1</clus>
<clus scale="  149.030">  1  5  2 -1</clus>
<clus scale="   25.601">  1  5  2 -1</clus>
</clustering>
</event>
<event>
 9    1  0.1881049E-005  0.1405948E+03  0.7546771E-02  0.1213437E+00
         -1   -1    0    0    0  501 -0.00000000000E+00  0.00000000000E+00  0.67360283289E+02  0.67360283289E+02  0.00000000000E+00 0.  1.
         21   -1    0    0  501  502  0.00000000000E+00 -0.00000000000E+00 -0.49760261745E+03  0.49760261745E+03  0.00000000000E+00 0. -1.
         23    2    1    2    0    0  0.30600358472E+02  0.11541637838E+03 -0.10281156844E+03  0.18244582319E+03  0.91972482075E+02 0.  0.
         23    2    1    2    0    0  0.14641791945E+02 -0.85651852547E+02 -0.15586629892E+03  0.20260836336E+03  0.95943857794E+02 0.  0.
        -13    1    3    3    0    0  0.23906947761E+02  0.49441540684E+02  0.57652856483E+01  0.55219983838E+02  0.00000000000E+00 0.  1.
         13    1    3    3    0    0  0.66934107118E+01  0.65974837692E+02 -0.10857685409E+03  0.12722583936E+03  0.00000000000E+00 0. -1.
        -13    1    4    4    0    0 -0.51213759836E+01 -0.10149221939E+03 -0.13897198214E+03  0.17216303584E+03  0.00000000000E+00 0.  1.
         13    1    4    4    0    0  0.19763167929E+02  0.15840366848E+02 -0.16894316787E+02  0.30445327526E+02  0.00000000000E+00 0. -1.
         -1    1    1    2    0  502 -0.45242150418E+02 -0.29764525830E+02 -0.17156446679E+03  0.17990871418E+03  0.00000000000E+00 0.  1.
<scales pt_clust_5="13000.00000" pt_clust_6="13000.00000" pt_clust_7="13000.00000" pt_clust_8="13000.00000" pt_clust_9="54.15514"></scales>
<clustering>
<clus scale="   54.155">  2  9  1 -1</clus>
<clus scale="   91.972">  5  6 -1 -1</clus>
<clus scale="   95.944">  7  8 -1 -1</clus>
<clus scale="  137.915">  1  5  2 -1</clus>
<clus scale="   54.155">  2  5  1 -1</clus>
</clustering>
</event>
<event>
 9    1  0.1881049E-005  0.1196320E+03  0.7546771E-02  0.1243935E+00
         21   -1    0    0  501  502  0.00000000000E+00  0.00000000000E+00  0.14812764551E+03  0.14812764551E+03  0.00000000000E+00 0. -1.
          2   -1    0    0  502    0 -0.00000000000E+00 -0.00000000000E+00 -0.16857781378E+03  0.16857781378E+03  0.00000000000E+00 0. -1.
         23    2    1    2    0    0  0.36684735269E+02  0.25699855646E+02  0.90501542301E+01  0.10748767567E+03  0.97290506975E+02 0.  0.
         23    2    1    2    0    0 -0.47351036908E+02 -0.90013586253E+02 -0.77505133654E+01  0.14049311459E+03  0.96610964094E+02 0.  0.
        -13    1    3    3    0    0  0.12552067527E+02  0.17172974244E+02  0.52731462140E+02  0.56860113815E+02  0.00000000000E+00 0.  1.
         13    1    3    3    0    0  0.24132667741E+02  0.85268814022E+01 -0.43681307910E+02  0.50627561856E+02  0.00000000000E+00 0. -1.
        -13    1    4    4    0    0  0.19659666064E+02 -0.58701506047E+02 -0.20958500288E+02  0.65357692862E+02  0.00000000000E+00 0. -1.
         13    1    4    4    0    0 -0.67010702972E+02 -0.31312080206E+02  0.13207986923E+02  0.75135421727E+02  0.00000000000E+00 0.  1.
          2    1    1    2  501    0  0.10666301639E+02  0.64313730607E+02 -0.21749809139E+02  0.68724669026E+02  0.00000000000E+00 0. -1.
<scales pt_clust_5="13000.00000" pt_clust_6="13000.00000" pt_clust_7="13000.00000" pt_clust_8="13000.00000" pt_clust_9="65.19226"></scales>
<clustering>
<clus scale="   65.192">  1  9  2 -1</clus>
<clus scale="   96.611">  7  8 -1 -1</clus>
<clus scale="   97.291">  5  6 -1 -1</clus>
<clus scale="  119.080">  1  7  2 -1</clus>
<clus scale="   65.192">  1  5  2 -1</clus>
</clustering>
</event>
<event>
 9    1  0.1881049E-005  0.9437048E+02  0.7546771E-02  0.1292857E+00
          1   -1    0    0  502    0 -0.00000000000E+00  0.00000000000E+00  0.28302053283E+03  0.28302053283E+03  0.00000000000E+00 0. -1.
         21   -1    0    0  501  502  0.00000000000E+00 -0.00000000000E+00 -0.61114665888E+02  0.61114665888E+02  0.00000000000E+00 0. -1.
         23    2    1    2    0    0  0.17624123988E+02  0.74783190047E+01  0.18973958898E+03  0.21120021169E+03  0.90762783062E+02 0.  0.
         23    2    1    2    0    0 -0.31670819030E+02 -0.31132826984E+02  0.25945625821E+02  0.10472963466E+03  0.91229530208E+02 0.  0.
        -13    1    4    4    0    0  0.11491842774E+02  0.24547901068E+02 -0.53710569196E+01  0.27631687419E+02  0.00000000000E+00 0.  1.
         13    1    4    4    0    0 -0.43162661804E+02 -0.55680728052E+02  0.31316682741E+02  0.77097947238E+02  0.00000000000E+00 0. -1.
        -13    1    3    3    0    0 -0.27058469862E+02  0.64524749700E+01  0.16619358716E+02  0.32403677394E+02  0.00000000000E+00 0.  1.
         13    1    3    3    0    0  0.44682593849E+02  0.10258440347E+01  0.17312023026E+03  0.17879653429E+03  0.00000000000E+00 0. -1.
          1    1    1    2  501    0  0.14046695042E+02  0.23654507979E+02  0.62206521389E+01  0.28205352371E+02  0.00000000000E+00 0. -1.
<scales pt_clust_5="13000.00000" pt_clust_6="13000.00000" pt_clust_7="13000.00000" pt_clust_8="13000.00000" pt_clust_9="27.51082"></scales>
<clustering>
<clus scale="   27.511">  2  9  1 -1</clus>
<clus scale="   90.763">  7  8 -1 -1</clus>
<clus scale="   91.230">  5  6 -1 -1</clus>
<clus scale="   93.919">  1  7  2 -1</clus>
<clus scale="   27.511">  2  5  1 -1</clus>
</clustering>
</event>
<event>
 9    1  0.1881049E-005  0.9602002E+02  0.7546771E-02  0.1298742E+00
         21   -1    0    0  501  502  0.00000000000E+00  0.00000000000E+00  0.10100380358E+03  0.10100380358E+03  0.00000000000E+00 0.  1.
          1   -1    0    0  502    0 -0.00000000000E+00 -0.00000000000E+00 -0.22057614332E+03  0.22057614332E+03  0.00000000000E+00 0. -1.
         23    2    1    2    0    0  0.36085338126E+02 -0.75599672802E+01 -0.12508934289E+03  0.15953925120E+03  0.91902797766E+02 0.  0.
         23    2    1    2    0    0  0.37868234874E+01 -0.39724161571E+02  0.37026208760E+02  0.92625941127E+02  0.74941816030E+02 0.  0.
        -11    1    3    3    0    0  0.66531725075E+02 -0.12582847591E+02 -0.92791670826E+02  0.11486989453E+03  0.00000000000E+00 0.  1.
         11    1    3    3    0    0 -0.30446386948E+02  0.50228803112E+01 -0.32297672064E+02  0.44669356673E+02  0.00000000000E+00 0. -1.
        -13    1    4    4    0    0  0.23550816340E+02  0.79224600874E+01 -0.58764138064E+01  0.25533087618E+02  0.00000000000E+00 0. -1.
         13    1    4    4    0    0 -0.19763992852E+02 -0.47646621658E+02  0.42902622566E+02  0.67092853509E+02  0.00000000000E+00 0.  1.
          1    1    1    2  501    0 -0.39872161614E+02  0.47284128851E+02 -0.31509205610E+02  0.69414754563E+02  0.00000000000E+00 0. -1.
<scales pt_clust_5="13000.00000" pt_clust_6="13000.00000" pt_clust_7="13000.00000" pt_clust_8="13000.00000" pt_clust_9="61.85129"></scales>
<clustering>
<clus scale="   61.851">  1  9  2 -1</clus>
<clus scale="   74.942">  7  8 -1 -1</clus>
<clus scale="   79.937">  1  7  2 -1</clus>
<clus scale="   91.903">  5  6 -1 -1</clus>
<clus scale="   61.851">  1  5  2 -1</clus>
</clustering>
</event>
<event>
 9    1  0.1881049E-005  0.1533373E+03  0.7546771E-02  0.1197638E+00
         21   -1    0    0  501  502  0.00000000000E+00  0.00000000000E+00  0.34373800187E+03  0.34373800187E+03  0.00000000000E+00 0. -1.
          1   -1    0    0  502    0 -0.00000000000E+00 -0.00000000000E+00 -0.72059542474E+03  0.72059542474E+03  0.00000000000E+00 0. -1.
         23    2    1    2    0    0 -0.80684762906E+02  0.91977488172E+02 -0.43369848762E+03  0.46019801946E+03  0.93369961226E+02 0.  0.
         23    2    1    2    0    0  0.26469548360E+02 -0.12842332282E+03 -0.24732002187E+03  0.29303806713E+03  0.86665614499E+02 0.  0.
        -13    1    4    4    0    0 -0.15981027440E+02 -0.10424075097E+03 -0.14141960694E+03  0.17641154336E+03  0.00000000000E+00 0.  1.
         13    1    4    4    0    0  0.42450575800E+02 -0.24182571853E+02 -0.10590041492E+03  0.11662652378E+03  0.00000000000E+00 0. -1.
        -13    1    3    3    0    0 -0.49663675490E+02  0.10358684276E+03 -0.27411267519E+03  0.29721115954E+03  0.00000000000E+00 0.  1.
         13    1    3    3    0    0 -0.31021087416E+02 -0.11609354589E+02 -0.15958581243E+03  0.16298685992E+03  0.00000000000E+00 0. -1.
          1    1    1    2  501    0  0.54215214547E+02  0.36445834651E+02  0.30416108661E+03  0.31109734001E+03  0.00000000000E+00 0. -1.
<scales pt_clust_5="13000.00000" pt_clust_6="13000.00000" pt_clust_7="13000.00000" pt_clust_8="13000.00000" pt_clust_9="65.32678"></scales>
<clustering>
<clus scale="   65.327">  1  9  2 -1</clus>
<clus scale="   86.666">  5  6 -1 -1</clus>
<clus scale="   93.370">  7  8 -1 -1</clus>
<clus scale="  149.350">  1  5  2 -1</clus>
<clus scale="   65.327">  1  5  2 -1</clus>
</clustering>
</event>
<event>
 9    1  0.1881049E-005  0.1361050E+03  0.7546771E-02  0.1218782E+00
         21   -1    0    0  501  502  0.00000000000E+00  0.00000000000E+00  0.95768520797E+02  0.95768520797E+02  0.00000000000E+00 0. -1.
          2   -1    0    0  502    0 -0.00000000000E+00 -0.00000000000E+00 -0.61736212245E+03  0.61736212245E+03  0.00000000000E+00 0. -1.
         23    2    1    2    0    0 -0.83405587234E+02 -0.60362261597E+02 -0.54132866126E+03  0.55849145477E+03  0.90971923965E+02 0.  0.
         23    2    1    2    0    0  0.82318349356E+02  0.34798748046E+02  0.11228885351E+02  0.12767568885E+03  0.90486077116E+02 0.  0.
        -11    1    4    4    0    0  0.37741988512E+02 -0.60295700337E+01 -0.34806004083E+02  0.51694016403E+02  0.00000000000E+00 0. -1.
         11    1    4    4    0    0  0.44576360844E+02  0.40828318079E+02  0.46034889434E+02  0.75981672451E+02  0.00000000000E+00 0.  1.
        -13    1    3    3    0    0 -0.45218285975E+02 -0.79259250134E+02 -0.42286620087E+03  0.43259975260E+03  0.00000000000E+00 0. -1.
         13    1    3    3    0    0 -0.38187301259E+02  0.18896988537E+02 -0.11846246039E+03  0.12589170217E+03  0.00000000000E+00 0.  1.
          2    1    1    2  501    0  0.10872378781E+01  0.25563513551E+02  0.85061742531E+01  0.26963499619E+02  0.00000000000E+00 0. -1.
<scales pt_clust_5="13000.00000" pt_clust_6="13000.00000" pt_clust_7="13000.00000" pt_clust_8="13000.00000" pt_clust_9="25.58662"></scales>
<clustering>
<clus scale="   25.587">  1  9  2 -1</clus>
<clus scale="   90.486">  5  6 -1 -1</clus>
<clus scale="   90.972">  7  8 -1 -1</clus>
<clus scale="  135.781">  1  5  2 -1</clus>
<clus scale="   25.587">  1  5  2 -1</clus>
</clustering>
</event>
<event>
 9    1  0.1881049E-005  0.9292542E+02  0.7546771E-02  0.1296575E+00
         21   -1    0    0  501  502  0.00000000000E+00  0.00000000000E+00  0.89562047645E+02  0.89562047645E+02  0.00000000000E+00 0.  1.
          2   -1    0    0  502    0 -0.00000000000E+00 -0.00000000000E+00 -0.15807759445E+03  0.15807759445E+03  0.00000000000E+00 0. -1.
         23    2    1    2    0    0 -0.21662985134E+02  0.68316059827E+01 -0.86508843732E+02  0.12713347279E+03  0.90350340871E+02 0.  0.
         23    2    1    2    0    0  0.27596085683E+01  0.10550150871E+02  0.64938123365E+01  0.92368982823E+02  0.91492831775E+02 0.  0.
        -11    1    3    3    0    0  0.31753580568E+02  0.82110671374E+01 -0.57845426799E+02  0.66496653329E+02  0.00000000000E+00 0. -1.
         11    1    3    3    0    0 -0.53416565702E+02 -0.13794611547E+01 -0.28663416933E+02  0.60636819464E+02  0.00000000000E+00 0.  1.
        -11    1    4    4    0    0  0.17055685509E+00 -0.39648226715E+02  0.12906705298E+02  0.41696450843E+02  0.00000000000E+00 0.  1.
         11    1    4    4    0    0  0.25890517132E+01  0.50198377586E+02 -0.64128929616E+01  0.50672531979E+02  0.00000000000E+00 0. -1.
          2    1    1    2  501    0  0.18903376566E+02 -0.17381756854E+02  0.11499484593E+02  0.28137186477E+02  0.00000000000E+00 0. -1.
<scales pt_clust_5="13000.00000" pt_clust_6="13000.00000" pt_clust_7="13000.00000" pt_clust_8="13000.00000" pt_clust_9="25.68001"></scales>
<clustering>
<clus scale="   25.680">  1  9  2 -1</clus>
<clus scale="   90.350">  5  6 -1 -1</clus>
<clus scale="   91.493">  7  8 -1 -1</clus>
<clus scale="   91.801">  2  5  1 -1</clus>
<clus scale="   25.680">  1  5  2 -1</clus>
</clustering>
</event>
<event>
 9    1  0.1881049E-005  0.1168540E+03  0.7546771E-02  0.1250826E+00
          2   -1    0    0  502    0 -0.00000000000E+00  0.00000000000E+00  0.55786240345E+03  0.55786240345E+03  0.00000000000E+00 0.  1.
         21   -1    0    0  501  502  0.00000000000E+00 -0.00000000000E+00 -0.86691623737E+02  0.86691623737E+02  0.00000000000E+00 0.  1.
         23    2    1    2    0    0  0.79090223926E+02 -0.13726957988E+01  0.39912103186E+03  0.41761284779E+03  0.94051819481E+02 0.  0.
         23    2    1    2    0    0 -0.43368125497E+02 -0.44025207668E+02  0.11352932586E+03  0.15582442084E+03  0.87024876223E+02 0.  0.
        -11    1    4    4    0    0  0.17403915432E+02  0.13141905277E+02  0.13849062289E+02  0.25834133873E+02  0.00000000000E+00 0.  1.
         11    1    4    4    0    0 -0.60772040929E+02 -0.57167112945E+02  0.99680263570E+02  0.12999028697E+03  0.00000000000E+00 0. -1.
        -13    1    3    3    0    0  0.84651869933E+02 -0.24585275272E+02  0.36789738010E+03  0.37831053002E+03  0.00000000000E+00 0.  1.
         13    1    3    3    0    0 -0.55616460069E+01  0.23212579474E+02  0.31223651764E+02  0.39302317763E+02  0.00000000000E+00 0. -1.
          2    1    1    2  501    0 -0.35722098429E+02  0.45397903467E+02 -0.41479578011E+02  0.71116758555E+02  0.00000000000E+00 0.  1.
<scales pt_clust_5="13000.00000" pt_clust_6="13000.00000" pt_clust_7="13000.00000" pt_clust_8="13000.00000" pt_clust_9="57.76710"></scales>
<clustering>
<clus scale="   57.767">  2  9  1 -1</clus>
<clus scale="   87.025">  5  6 -1 -1</clus>
<clus scale="   94.052">  7  8 -1 -1</clus>
<clus scale="  111.276">  2  5  1 -1</clus>
<clus scale="   57.767">  2  5  1 -1</clus>
</clustering>
</event>
<event>
 9    1  0.1881049E-005  0.9987815E+02  0.7546771E-02  0.1282560E+00
         -2   -1    0    0    0  501 -0.00000000000E+00  0.00000000000E+00  0.14104996639E+03  0.14104996639E+03  0.00000000000E+00 0.  1.
         21   -1    0    0  501  502  0.00000000000E+00 -0.00000000000E+00 -0.11225531977E+03  0.11225531977E+03  0.00000000000E+00 0. -1.
         23    2    1    2    0    0  0.24821578546E+02 -0.55999436577E+01  0.56074522582E+02  0.11234823475E+03  0.93969695315E+02 0.  0.
         23    2    1    2    0    0 -0.47883637210E+02  0.83723659999E+01  0.35682254386E+01  0.10234163693E+03  0.89989661582E+02 0.  0.
        -13    1    4    4    0    0 -0.49032981567E+02  0.41892513358E+02 -0.11607555437E+02  0.65528248108E+02  0.00000000000E+00 0. -1.
         13    1    4    4    0    0  0.11493443568E+01 -0.33520147358E+02  0.15175780876E+02  0.36813388822E+02  0.00000000000E+00 0.  1.
        -13    1    3    3    0    0  0.56242400490E+02  0.11885949403E+02  0.18616496153E+02  0.60423979802E+02  0.00000000000E+00 0.  1.
         13    1    3    3    0    0 -0.31420821944E+02 -0.17485893060E+02  0.37458026429E+02  0.51924254946E+02  0.00000000000E+00 0. -1.
         -2    1    1    2    0  502  0.23062058664E+02 -0.27724223421E+01 -0.30848101401E+02  0.38615414481E+02  0.00000000000E+00 0.  1.
<scales pt_clust_5="13000.00000" pt_clust_6="13000.00000" pt_clust_7="13000.00000" pt_clust_8="13000.00000" pt_clust_9="23.22811"></scales>
<clustering>
<clus scale="   23.228">  2  9  1 -1</clus>
<clus scale="   89.990">  5  6 -1 -1</clus>
<clus scale="   93.970">  7  8 -1 -1</clus>
<clus scale="   96.143">  2  5  1 -1</clus>
<clus scale="   23.228">  2  5  1 -1</clus>
</clustering>
</event>
<event>
 9    1  0.1881049E-005  0.1210296E+03  0.7546771E-02  0.1241545E+00
         21   -1    0    0  501  502  0.00000000000E+00  0.00000000000E+00  0.97081302738E+02  0.97081302738E+02  0.00000000000E+00 0.  1.
          1   -1    0    0  502    0 -0.00000000000E+00 -0.00000000000E+00 -0.20816067610E+03  0.20816067610E+03  0.00000000000E+00 0. -1.
         23    2    1    2    0    0  0.81588105332E+02 -0.22298330082E+02 -0.81389804385E+02  0.14890990670E+03  0.91629829209E+02 0.  0.
         23    2    1    2    0    0 -0.74078300596E+02  0.33109259993E+00 -0.47852615100E+02  0.12685576073E+03  0.91185563644E+02 0.  0.
        -13    1    3    3    0    0 -0.48444094221E+01 -0.32635432539E+02 -0.55468153889E+01  0.33456044605E+02  0.00000000000E+00 0. -1.
         13    1    3    3    0    0  0.86432514754E+02  0.10337102457E+02 -0.75842988996E+02  0.11545386210E+03  0.00000000000E+00 0.  1.
        -13    1    4    4    0    0 -0.75596662299E+02 -0.21467972388E+02 -0.62618399487E+02  0.10048280024E+03  0.00000000000E+00 0. -1.
         13    1    4    4    0    0  0.15183617030E+01  0.21799064988E+02  0.14765784387E+02  0.26372960493E+02  0.00000000000E+00 0.  1.
          1    1    1    2  501    0 -0.75098047360E+01  0.21967237482E+02  0.18163046119E+02  0.29476311406E+02  0.00000000000E+00 0. -1.
<scales pt_clust_5="13000.00000" pt_clust_6="13000.00000" pt_clust_7="13000.00000" pt_clust_8="13000.00000" pt_clust_9="23.21544"></scales>
<clustering>
<clus scale="   23.215">  1  9  2 -1</clus>
<clus scale="   91.186">  7  8 -1 -1</clus>
<clus scale="   91.630">  5  6 -1 -1</clus>
<clus scale="  120.694">  1  7  2 -1</clus>
<clus scale="   23.215">  1  5  2 -1</clus>
</clustering>
</event>
<event>
 9    1  0.1881049E-005  0.1574223E+03  0.7546771E-02  0.1191748E+00
         21   -1    0    0  501  502  0.00000000000E+00  0.00000000000E+00  0.20723227961E+03  0.20723227961E+03  0.00000000000E+00 0. -1.
         -4   -1    0    0    0  501 -0.00000000000E+00 -0.00000000000E+00 -0.39893735929E+03  0.39893735929E+03  0.00000000000E+00 0.  1.
         23    2    1    2    0    0 -0.13243772936E+03  0.19463633652E+02 -0.32985634451E+03  0.36755732202E+03  0.91512795629E+02 0.  0.
         23    2    1    2    0    0  0.94120570424E+02 -0.31184741409E+02  0.53087081265E+02  0.14458304292E+03  0.90856195321E+02 0.  0.
        -11    1    4    4    0    0 -0.36965285260E+01  0.22448984997E+02  0.11822443741E+02  0.25639645601E+02  0.00000000000E+00 0.  1.
         11    1    4    4    0    0  0.97817098950E+02 -0.53633726406E+02  0.41264637523E+02  0.11894339732E+03  0.00000000000E+00 0. -1.
        -13    1    3    3    0    0 -0.52314213365E+01  0.30370368786E+02 -0.37495276844E+02  0.48534759245E+02  0.00000000000E+00 0. -1.
         13    1    3    3    0    0 -0.12720630803E+03 -0.10906735134E+02 -0.29236106767E+03  0.31902256278E+03  0.00000000000E+00 0.  1.
         -4    1    1    2    0  502  0.38317158938E+02  0.11721107757E+02  0.85064183564E+02  0.94029273961E+02  0.00000000000E+00 0.  1.
<scales pt_clust_5="13000.00000" pt_clust_6="13000.00000" pt_clust_7="13000.00000" pt_clust_8="13000.00000" pt_clust_9="40.06980"></scales>
<clustering>
<clus scale="   40.070">  1  9  2 -1</clus>
<clus scale="   90.856">  5  6 -1 -1</clus>
<clus scale="   91.513">  7  8 -1 -1</clus>
<clus scale="  157.042">  1  5  2 -1</clus>
<clus scale="   40.070">  1  5  2 -1</clus>
</clustering>
</event>
<event>
 9    1  0.1881049E-005  0.1315626E+03  0.7546771E-02  0.1225518E+00
         -1   -1    0    0    0  501 -0.00000000000E+00  0.00000000000E+00  0.14539674351E+03  0.14539674351E+03  0.00000000000E+00 0.  1.
         21   -1    0    0  501  502  0.00000000000E+00 -0.00000000000E+00 -0.26121549678E+03  0.26121549678E+03  0.00000000000E+00 0.  1.
         23    2    1    2    0    0  0.76265865532E+02  0.53554013220E+02  0.51761149972E+02  0.14188569869E+03  0.93636639570E+02 0.  0.
         23    2    1    2    0    0 -0.98764186165E+02 -0.10436945841E+02 -0.63158743126E+02  0.14953524587E+03  0.92241360664E+02 0.  0.
        -11    1    3    3    0    0  0.58102530808E+02  0.23947691286E+02  0.76676534897E+02  0.99139734759E+02  0.00000000000E+00 0.  1.
         11    1    3    3    0    0  0.18163334723E+02  0.29606321934E+02 -0.24915384925E+02  0.42745963934E+02  0.00000000000E+00 0. -1.
        -13    1    4    4    0    0 -0.37867112665E+02  0.40796994555E+02 -0.21145192662E+02  0.59543531630E+02  0.00000000000E+00 0. -1.
         13    1    4    4    0    0 -0.60897073500E+02 -0.51233940396E+02 -0.42013550464E+02  0.89991714241E+02  0.00000000000E+00 0.  1.
         -1    1    1    2    0  502  0.22498320633E+02 -0.43117067379E+02 -0.10442116012E+03  0.11519129573E+03  0.00000000000E+00 0.  1.
<scales pt_clust_5="13000.00000" pt_clust_6="13000.00000" pt_clust_7="13000.00000" pt_clust_8="13000.00000" pt_clust_9="48.63390"></scales>
<clustering>
<clus scale="   48.634">  2  9  1 -1</clus>
<clus scale="   92.241">  7  8 -1 -1</clus>
<clus scale="   93.637">  5  6 -1 -1</clus>
<clus scale="  130.573">  2  7  1 -1</clus>
<clus scale="   48.634">  2  5  1 -1</clus>
</clustering>
</event>
<event>
 9    1  0.1881049E-005  0.9275155E+02  0.7546771E-02  0.1297309E+00
         21   -1    0    0  501  502  0.00000000000E+00  0.00000000000E+00  0.22061977018E+03  0.22061977018E+03  0.00000000000E+00 0. -1.
         -4   -1    0    0    0  501 -0.00000000000E+00 -0.00000000000E+00 -0.86461384293E+02  0.86461384293E+02  0.00000000000E+00 0.  1.
         23    2    1    2    0    0 -0.11838369546E+01  0.21686342367E+02 -0.35065911580E+02  0.97409730896E+02  0.88245898506E+02 0.  0.
         23    2    1    2    0    0 -0.25621717307E+02 -0.24793754912E+02  0.13058711291E+03  0.16254366337E+03  0.89979140706E+02 0.  0.
        -11    1    3    3    0    0 -0.11443454818E+01  0.53178998940E+02 -0.42702191360E+01  0.53362442095E+02  0.00000000000E+00 0. -1.
         11    1    3    3    0    0 -0.39491472765E-01 -0.31492656573E+02 -0.30795692444E+02  0.44047288801E+02  0.00000000000E+00 0.  1.
        -13    1    4    4    0    0  0.54080807891E+01 -0.52665005361E+02  0.55844945676E+02  0.76951335824E+02  0.00000000000E+00 0. -1.
         13    1    4    4    0    0 -0.31029798096E+02  0.27871250449E+02  0.74742167234E+02  0.85592327544E+02  0.00000000000E+00 0.  1.
         -4    1    1    2    0  502  0.26805554261E+02  0.31074125446E+01  0.38637184556E+02  0.47127760210E+02  0.00000000000E+00 0.  1.
<scales pt_clust_5="13000.00000" pt_clust_6="13000.00000" pt_clust_7="13000.00000" pt_clust_8="13000.00000" pt_clust_9="26.98507"></scales>
<clustering>
<clus scale="   26.985">  1  9  2 -1</clus>
<clus scale="   88.246">  5  6 -1 -1</clus>
<clus scale="   89.979">  7  8 -1 -1</clus>
<clus scale="   91.071">  2  5  1 -1</clus>
<clus scale="   26.985">  1  5  2 -1</clus>
</clustering>
</event>
<event>
 9    1  0.1881049E-005  0.9976051E+02  0.7546771E-02  0.1283263E+00
         21   -1    0    0  501  502  0.00000000000E+00  0.00000000000E+00  0.65752950928E+02  0.65752950928E+02  0.00000000000E+00 0. -1.
         -1   -1    0    0    0  501 -0.00000000000E+00 -0.00000000000E+00 -0.19136627404E+03  0.19136627404E+03  0.00000000000E+00 0.  1.
         23    2    1    2    0    0  0.18137617489E+02 -0.53504134581E+01 -0.72354211908E+02  0.12281320256E+03  0.97418430754E+02 0.  0.
         23    2    1    2    0    0 -0.24353752882E+02 -0.14050418679E+02 -0.58585237137E+02  0.11324895128E+03  0.92750069600E+02 0.  0.
        -11    1    4    4    0    0 -0.59538814970E+02 -0.14500676183E+02 -0.42395736063E+02  0.74515357707E+02  0.00000000000E+00 0.  1.
         11    1    4    4    0    0  0.35185062088E+02  0.45025750353E+00 -0.16189501073E+02  0.38733593571E+02  0.00000000000E+00 0. -1.
        -13    1    3    3    0    0 -0.30034282355E+02 -0.26902652373E+02 -0.10818757026E+02  0.41747530763E+02  0.00000000000E+00 0.  1.
         13    1    3    3    0    0  0.48171899844E+02  0.21552238914E+02 -0.61535454882E+02  0.81065671800E+02  0.00000000000E+00 0. -1.
         -1    1    1    2    0  502  0.62161353931E+01  0.19400832137E+02  0.53261259361E+01  0.21057071124E+02  0.00000000000E+00 0.  1.
<scales pt_clust_5="13000.00000" pt_clust_6="13000.00000" pt_clust_7="13000.00000" pt_clust_8="13000.00000" pt_clust_9="20.37235"></scales>
<clustering>
<clus scale="   20.372">  1  9  2 -1</clus>
<clus scale="   92.750">  5  6 -1 -1</clus>
<clus scale="   95.207">  1  5  2 -1</clus>
<clus scale="   97.418">  7  8 -1 -1</clus>
<clus scale="   20.372">  1  5  2 -1</clus>
</clustering>
</event>
<event>
 9    1  0.1881049E-005  0.9343559E+02  0.7546771E-02  0.1295234E+00
         21   -1    0    0  501  502  0.00000000000E+00  0.00000000000E+00  0.19358416825E+03  0.19358416825E+03  0.00000000000E+00 0. -1.
         -3   -1    0    0    0  501 -0.00000000000E+00 -0.00000000000E+00 -0.76026844964E+02  0.76026844964E+02  0.00000000000E+00 0.  1.
         23    2    1    2    0    0  0.72063064413E+01  0.38141331648E+01 -0.75429915114E+01  0.92516136514E+02  0.91846939689E+02 0.  0.
         23    2    1    2    0    0 -0.24527785489E+02  0.16546520799E+02  0.10792587549E+03  0.14532144075E+03  0.92708828763E+02 0.  0.
        -11    1    3    3    0    0 -0.34701184480E+02 -0.17400948867E+02  0.13427196493E+02  0.41076207608E+02  0.00000000000E+00 0. -1.
         11    1    3    3    0    0  0.41907490921E+02  0.21215082031E+02 -0.20970188005E+02  0.51439928906E+02  0.00000000000E+00 0.  1.
        -13    1    4    4    0    0 -0.58812672010E+02  0.20262880591E+02  0.77113070908E+02  0.99075427951E+02  0.00000000000E+00 0. -1.
         13    1    4    4    0    0  0.34284886521E+02 -0.37163597927E+01  0.30812804585E+02  0.46246012804E+02  0.00000000000E+00 0.  1.
         -3    1    1    2    0  502  0.17321479048E+02 -0.20360653964E+02  0.17174439301E+02  0.31773435941E+02  0.00000000000E+00 0.  1.
<scales pt_clust_5="13000.00000" pt_clust_6="13000.00000" pt_clust_7="13000.00000" pt_clust_8="13000.00000" pt_clust_9="26.73181"></scales>
<clustering>
<clus scale="   26.732">  1  9  2 -1</clus>
<clus scale="   91.847">  5  6 -1 -1</clus>
<clus scale="   92.580">  2  5  1 -1</clus>
<clus scale="   92.709">  7  8 -1 -1</clus>
<clus scale="   26.732">  1  5  2 -1</clus>
</clustering>
</event>
<event>
 9    1  0.1881049E-005  0.1793714E+03  0.7546771E-02  0.1170099E+00
          2   -1    0    0  502    0 -0.00000000000E+00  0.00000000000E+00  0.87825281150E+03  0.87825281150E+03  0.00000000000E+00 0. -1.
         21   -1    0    0  501  502  0.00000000000E+00 -0.00000000000E+00 -0.65975959852E+02  0.65975959852E+02  0.00000000000E+00 0.  1.
         23    2    1    2    0    0 -0.62590728664E+02 -0.10810393496E+03  0.40588009573E+03  0.43698664412E+03  0.10302725352E+03 0.  0.
         23    2    1    2    0    0  0.11826656510E+03  0.14092554790E+03  0.38986995075E+03  0.44053236536E+03  0.90681839235E+02 0.  0.
        -11    1    4    4    0    0  0.61067049009E+02  0.12881211002E+03  0.31316699350E+03  0.34408619557E+03  0.00000000000E+00 0.  1.
         11    1    4    4    0    0  0.57199516086E+02  0.12113437879E+02  0.76702957246E+02  0.96446169795E+02  0.00000000000E+00 0. -1.
        -13    1    3    3    0    0 -0.54166123038E+02 -0.46116690094E+02  0.33490753965E+03  0.34237958190E+03  0.00000000000E+00 0. -1.
         13    1    3    3    0    0 -0.84246056265E+01 -0.61987244865E+02  0.70972556079E+02  0.94607062222E+02  0.00000000000E+00 0.  1.
          2    1    1    2  501    0 -0.55675836432E+02 -0.32821612942E+02  0.16526805172E+02  0.66709761862E+02  0.00000000000E+00 0. -1.
<scales pt_clust_5="13000.00000" pt_clust_6="13000.00000" pt_clust_7="13000.00000" pt_clust_8="13000.00000" pt_clust_9="64.63016"></scales>
<clustering>
<clus scale="   64.630">  2  9  1 -1</clus>
<clus scale="   90.682">  5  6 -1 -1</clus>
<clus scale="  103.027">  7  8 -1 -1</clus>
<clus scale="  172.577">  2  5  1 -1</clus>
<clus scale="   64.630">  2  5  1 -1</clus>
</clustering>
</event>
<event>
 9    1  0.1881049E-005  0.1031021E+03  0.7546771E-02  0.1274033E+00
         21   -1    0    0  501  502  0.00000000000E+00  0.00000000000E+00  0.10991028052E+03  0.10991028052E+03  0.00000000000E+00 0. -1.
          2   -1    0    0  502    0 -0.00000000000E+00 -0.00000000000E+00 -0.32688061411E+03  0.32688061411E+03  0.00000000000E+00 0. -1.
         23    2    1    2    0    0 -0.52701318993E+02 -0.33720219514E+02 -0.18844385903E+03  0.21903652786E+03  0.92473943924E+02 0.  0.
         23    2    1    2    0    0  0.29838238310E+02 -0.37585868646E+02 -0.75937570363E+02  0.12912541736E+03  0.92756891006E+02 0.  0.
        -11    1    3    3    0    0 -0.72883869427E+02 -0.13961634964E+02 -0.16948478278E+03  0.18501912676E+03  0.00000000000E+00 0. -1.
         11    1    3    3    0    0  0.20182550435E+02 -0.19758584550E+02 -0.18959076247E+02  0.34017401100E+02  0.00000000000E+00 0.  1.
        -11    1    4    4    0    0  0.58971157131E+02 -0.71950831241E+01 -0.59057168696E+02  0.83768226487E+02  0.00000000000E+00 0.  1.
         11    1    4    4    0    0 -0.29132918821E+02 -0.30390785522E+02 -0.16880401668E+02  0.45357190875E+02  0.00000000000E+00 0. -1.
          2    1    1    2  501    0  0.22863080683E+02  0.71306088160E+02  0.47411095798E+02  0.88628949400E+02  0.00000000000E+00 0. -1.
<scales pt_clust_5="13000.00000" pt_clust_6="13000.00000" pt_clust_7="13000.00000" pt_clust_8="13000.00000" pt_clust_9="74.88176"></scales>
<clustering>
<clus scale="   74.882">  1  9  2 -1</clus>
<clus scale="   92.474">  5  6 -1 -1</clus>
<clus scale="   92.757">  7  8 -1 -1</clus>
<clus scale="  102.848">  2  5  1 -1</clus>
<clus scale="   74.882">  1  5  2 -1</clus>
</clustering>
</event>
<event>
 9    1  0.1881049E-005  0.1263293E+03  0.7546771E-02  0.1233134E+00
         21   -1    0    0  501  502  0.00000000000E+00  0.00000000000E+00  0.54145648285E+02  0.54145648285E+02  0.00000000000E+00 0. -1.
          2   -1    0    0  502    0 -0.00000000000E+00 -0.00000000000E+00 -0.59145780732E+03  0.59145780732E+03  0.00000000000E+00 0. -1.
         23    2    1    2    0    0  0.70787761291E+02  0.44839716530E+02 -0.39670238836E+03  0.41553601123E+03  0.90971887831E+02 0.  0.
         23    2    1    2    0    0 -0.65288253856E+02 -0.79512944023E+02 -0.13860060408E+03  0.19490334283E+03  0.90511442584E+02 0.  0.
        -13    1    3    3    0    0  0.15224773953E+02  0.60561194076E+02 -0.15668665722E+03  0.16867175377E+03  0.00000000000E+00 0.  1.
         13    1    3    3    0    0  0.55562987338E+02 -0.15721477546E+02 -0.24001573114E+03  0.24686425746E+03  0.00000000000E+00 0. -1.
        -13    1    4    4    0    0 -0.38530916074E+02  0.73130784493E+01 -0.72905586378E+02  0.82784884701E+02  0.00000000000E+00 0. -1.
         13    1    4    4    0    0 -0.26757337783E+02 -0.86826022472E+02 -0.65695017698E+02  0.11211845813E+03  0.00000000000E+00 0.  1.
          2    1    1    2  501    0 -0.54995074350E+01  0.34673227493E+02 -0.20091666033E+01  0.35164101542E+02  0.00000000000E+00 0. -1.
<scales pt_clust_5="13000.00000" pt_clust_6="13000.00000" pt_clust_7="13000.00000" pt_clust_8="13000.00000" pt_clust_9="35.10666"></scales>
<clustering>
<clus scale="   35.107">  1  9  2 -1</clus>
<clus scale="   90.511">  7  8 -1 -1</clus>
<clus scale="   90.972">  5  6 -1 -1</clus>
<clus scale="  125.998">  1  7  2 -1</clus>
<clus scale="   35.107">  1  5  2 -1</clus>
</clustering>
</event>
<event>
 9    1  0.1881049E-005  0.1099883E+03  0.7546771E-02  0.1261501E+00
         21   -1    0    0  501  502  0.00000000000E+00  0.00000000000E+00  0.17054810667E+03  0.17054810667E+03  0.00000000000E+00 0. -1.
          1   -1    0    0  502    0 -0.00000000000E+00 -0.00000000000E+00 -0.90150452674E+03  0.90150452674E+03  0.00000000000E+00 0. -1.
         23    2    1    2    0    0  0.65369107476E+02 -0.52841228387E+02 -0.59363706884E+03  0.60685234904E+03  0.93805588379E+02 0.  0.
         23    2    1    2    0    0 -0.38938401868E+02 -0.30946403203E+02 -0.27938073301E+03  0.29816619924E+03  0.91518355423E+02 0.  0.
        -11    1    4    4    0    0 -0.65229659809E+02 -0.14160595399E+02 -0.13683333118E+03  0.15224582589E+03  0.00000000000E+00 0. -1.
         11    1    4    4    0    0  0.26291257941E+02 -0.16785807804E+02 -0.14254740183E+03  0.14592037334E+03  0.00000000000E+00 0.  1.
        -13    1    3    3    0    0  0.43152228319E+02  0.18422651366E+02 -0.15630676178E+03  0.16319715889E+03  0.00000000000E+00 0.  1.
         13    1    3    3    0    0  0.22216879158E+02 -0.71263879753E+02 -0.43733030705E+03  0.44365519015E+03  0.00000000000E+00 0. -1.
          1    1    1    2  501    0 -0.26430705608E+02  0.83787631590E+02  0.14206138178E+03  0.16703408514E+03  0.00000000000E+00 0. -1.
<scales pt_clust_5="13000.00000" pt_clust_6="13000.00000" pt_clust_7="13000.00000" pt_clust_8="13000.00000" pt_clust_9="87.85755"></scales>
<clustering>
<clus scale="   87.858">  1  9  2 -1</clus>
<clus scale="   91.518">  5  6 -1 -1</clus>
<clus scale="   93.806">  7  8 -1 -1</clus>
<clus scale="  108.044">  1  5  2 -1</clus>
<clus scale="   87.858">  1  5  2 -1</clus>
</clustering>
</event>
<event>
 9    1  0.1881049E-005  0.1158651E+03  0.7546771E-02  0.1250700E+00
         -1   -1    0    0    0  501 -0.00000000000E+00  0.00000000000E+00  0.46248195983E+03  0.46248195983E+03  0.00000000000E+00 0.  1.
         21   -1    0    0  501  502  0.00000000000E+00 -0.00000000000E+00 -0.80782664296E+02  0.80782664296E+02  0.00000000000E+00 0.  1.
         23    2    1    2    0    0 -0.97195335678E+01  0.75588555209E+02  0.36038206810E+03  0.37927935233E+03  0.90385248152E+02 0.  0.
         23    2    1    2    0    0 -0.18437435917E+02 -0.50195219043E+02  0.48742097049E+02  0.11719040109E+03  0.92186219279E+02 0.  0.
        -11    1    4    4    0    0 -0.22868472737E+02 -0.70695726073E+02  0.12542481005E+02  0.75353610133E+02  0.00000000000E+00 0.  1.
         11    1    4    4    0    0  0.44310368202E+01  0.20500507031E+02  0.36199616044E+02  0.41836790956E+02  0.00000000000E+00 0. -1.
        -13    1    3    3    0    0 -0.28394364085E+02  0.88179086877E+02  0.24973395928E+03  0.26636223774E+03  0.00000000000E+00 0.  1.
         13    1    3    3    0    0  0.18674830517E+02 -0.12590531667E+02  0.11064810881E+03  0.11291711459E+03  0.00000000000E+00 0. -1.
         -1    1    1    2    0  502  0.28156969485E+02 -0.25393336166E+02 -0.27424869608E+02  0.46794870715E+02  0.00000000000E+00 0.  1.
<scales pt_clust_5="13000.00000" pt_clust_6="13000.00000" pt_clust_7="13000.00000" pt_clust_8="13000.00000" pt_clust_9="37.91618"></scales>
<clustering>
<clus scale="   37.916">  2  9  1 -1</clus>
<clus scale="   90.385">  7  8 -1 -1</clus>
<clus scale="   92.186">  5  6 -1 -1</clus>
<clus scale="  114.437">  1  7  2 -1</clus>
<clus scale="   37.916">  2  5  1 -1</clus>
</clustering>
</event>
<event>
 9    1  0.1881049E-005  0.1283621E+03  0.7546771E-02  0.1230667E+00
          1   -1    0    0  502    0 -0.00000000000E+00  0.00000000000E+00  0.46174944975E+03  0.46174944975E+03  0.00000000000E+00 0. -1.
         21   -1    0    0  501  502  0.00000000000E+00 -0.00000000000E+00 -0.13917971040E+03  0.13917971040E+03  0.00000000000E+00 0. -1.
         23    2    1    2    0    0  0.33943452755E+02  0.94922272558E+02  0.38451865582E+03  0.40749967473E+03  0.89660428386E+02 0.  0.
         23    2    1    2    0    0 -0.29633646138E+02 -0.29815325524E+02  0.26673764410E+01  0.10159945604E+03  0.92456627406E+02 0.  0.
        -11    1    3    3    0    0  0.19479174079E+02 -0.11560663749E+02  0.11759310493E+03  0.11975485584E+03  0.00000000000E+00 0.  1.
         11    1    3    3    0    0  0.14464278676E+02  0.10648293631E+03  0.26692555089E+03  0.28774481889E+03  0.00000000000E+00 0. -1.
        -11    1    4    4    0    0 -0.53199495260E+02 -0.14216233004E+02  0.29636802150E+02  0.62535011141E+02  0.00000000000E+00 0. -1.
         11    1    4    4    0    0  0.23565849122E+02 -0.15599092520E+02 -0.26969425709E+02  0.39064444900E+02  0.00000000000E+00 0.  1.
          1    1    1    2  501    0 -0.43098066172E+01 -0.65106947035E+02 -0.64616292916E+02  0.91830029378E+02  0.00000000000E+00 0. -1.
<scales pt_clust_5="13000.00000" pt_clust_6="13000.00000" pt_clust_7="13000.00000" pt_clust_8="13000.00000" pt_clust_9="65.24944"></scales>
<clustering>
<clus scale="   65.249">  2  9  1 -1</clus>
<clus scale="   89.660">  5  6 -1 -1</clus>
<clus scale="   92.457">  7  8 -1 -1</clus>
<clus scale="  126.363">  1  5  2 -1</clus>
<clus scale="   65.249">  2  5  1 -1</clus>
</clustering>
</event>
<event>
 9    1  0.1881049E-005  0.9902307E+02  0.7546771E-02  0.1283999E+00
         21   -1    0    0  501  502  0.00000000000E+00  0.00000000000E+00  0.46994128076E+02  0.46994128076E+02  0.00000000000E+00 0.  1.
         -3   -1    0    0    0  501 -0.00000000000E+00 -0.00000000000E+00 -0.54772414290E+03  0.54772414290E+03  0.00000000000E+00 0.  1.
         23    2    1    2    0    0  0.37557328705E+02 -0.28069481244E+00 -0.38357741747E+03  0.39682806262E+03  0.94499970187E+02 0.  0.
         23    2    1    2    0    0 -0.11313478612E+02 -0.13163551496E+02 -0.13463243768E+03  0.16361146503E+03  0.91332055306E+02 0.  0.
        -11    1    4    4    0    0  0.22086928717E+02 -0.37474030038E+02 -0.35261473566E+02  0.55995596840E+02  0.00000000000E+00 0. -1.
         11    1    4    4    0    0 -0.33400407328E+02  0.24310478542E+02 -0.99370964116E+02  0.10761586819E+03  0.00000000000E+00 0.  1.
        -13    1    3    3    0    0  0.56952553995E+02 -0.27702367472E+02 -0.18782780017E+03  0.19821780214E+03  0.00000000000E+00 0. -1.
         13    1    3    3    0    0 -0.19395225290E+02  0.27421672659E+02 -0.19574961730E+03  0.19861026048E+03  0.00000000000E+00 0.  1.
         -3    1    1    2    0  502 -0.26243850093E+02  0.13444246308E+02  0.17479840322E+02  0.34278743328E+02  0.00000000000E+00 0.  1.
<scales pt_clust_5="13000.00000" pt_clust_6="13000.00000" pt_clust_7="13000.00000" pt_clust_8="13000.00000" pt_clust_9="29.48707"></scales>
<clustering>
<clus scale="   29.487">  1  9  2 -1</clus>
<clus scale="   91.332">  5  6 -1 -1</clus>
<clus scale="   94.500">  7  8 -1 -1</clus>
<clus scale="   96.005">  1  5  2 -1</clus>
<clus scale="   29.487">  1  5  2 -1</clus>
</clustering>
</event>
<event>
 9    1  0.1881049E-005  0.1629705E+03  0.7546771E-02  0.1185945E+00
         21   -1    0    0  501  502  0.00000000000E+00  0.00000000000E+00  0.29368276699E+03  0.29368276699E+03  0.00000000000E+00 0.  1.
          1   -1    0    0  502    0 -0.00000000000E+00 -0.00000000000E+00 -0.12011075661E+03  0.12011075661E+03  0.00000000000E+00 0. -1.
         23    2    1    2    0    0  0.11598439036E+03 -0.69269420350E+02  0.49920463793E+02  0.17019261824E+03  0.90679894102E+02 0.  0.
         23    2    1    2    0    0 -0.87606713198E+02  0.10165531369E+03  0.80605019531E+02  0.18271460033E+03  0.94226944137E+02 0.  0.
        -11    1    4    4    0    0 -0.74783134009E+02  0.30938060260E+02  0.92818594595E+01  0.81460626194E+02  0.00000000000E+00 0. -1.
         11    1    4    4    0    0 -0.12823579189E+02  0.70717253428E+02  0.71323160072E+02  0.10125397414E+03  0.00000000000E+00 0.  1.
        -13    1    3    3    0    0  0.10897706192E+03 -0.40452485701E+02  0.68761071443E+02  0.13505735289E+03  0.00000000000E+00 0.  1.
         13    1    3    3    0    0  0.70073284425E+01 -0.28816934649E+02 -0.18840607649E+02  0.35135265348E+02  0.00000000000E+00 0. -1.
          1    1    1    2  501    0 -0.28377677163E+02 -0.32385893338E+02  0.43046527058E+02  0.60886305030E+02  0.00000000000E+00 0. -1.
<scales pt_clust_5="13000.00000" pt_clust_6="13000.00000" pt_clust_7="13000.00000" pt_clust_8="13000.00000" pt_clust_9="43.05971"></scales>
<clustering>
<clus scale="   43.060">  1  9  2 -1</clus>
<clus scale="   90.680">  7  8 -1 -1</clus>
<clus scale="   94.227">  5  6 -1 -1</clus>
<clus scale="  160.946">  2  7  1 -1</clus>
<clus scale="   43.060">  1  5  2 -1</clus>
</clustering>
</event>
<event>
 9    1  0.1881049E-005  0.1193896E+03  0.7546771E-02  0.1245419E+00
          2   -1    0    0  502    0 -0.00000000000E+00  0.00000000000E+00  0.12386829862E+03  0.12386829862E+03  0.00000000000E+00 0. -1.
         21   -1    0    0  501  502  0.00000000000E+00 -0.00000000000E+00 -0.17299434058E+03  0.17299434058E+03  0.00000000000E+00 0. -1.
         23    2    1    2    0    0 -0.56192637733E+02 -0.39992082835E+02  0.24418189820E+02  0.11718289517E+03  0.91534713094E+02 0.  0.
         23    2    1    2    0    0  0.76148597408E+02  0.47051276819E+02 -0.26231659671E+02  0.12784778453E+03  0.87432971491E+02 0.  0.
        -11    1    3    3    0    0 -0.50796205240E+02 -0.13286975310E+02 -0.26964133681E+02  0.59024255055E+02  0.00000000000E+00 0.  1.
         11    1    3    3    0    0 -0.53964324933E+01 -0.26705107525E+02  0.51382323500E+02  0.58158640114E+02  0.00000000000E+00 0. -1.
        -13    1    4    4    0    0  0.75172733226E+02  0.27116728976E+01  0.20461077983E+01  0.75249448820E+02  0.00000000000E+00 0.  1.
         13    1    4    4    0    0  0.97586418147E+00  0.44339603921E+02 -0.28277767469E+02  0.52598335714E+02  0.00000000000E+00 0. -1.
          2    1    1    2  501    0 -0.19955959675E+02 -0.70591939840E+01 -0.47312572106E+02  0.51831959500E+02  0.00000000000E+00 0. -1.
<scales pt_clust_5="13000.00000" pt_clust_6="13000.00000" pt_clust_7="13000.00000" pt_clust_8="13000.00000" pt_clust_9="21.16772"></scales>
<clustering>
<clus scale="   21.168">  2  9  1 -1</clus>
<clus scale="   87.433">  7  8 -1 -1</clus>
<clus scale="   91.535">  5  6 -1 -1</clus>
<clus scale="  116.275">  2  7  1 -1</clus>
<clus scale="   21.168">  2  5  1 -1</clus>
</clustering>
</event>
<event>
 9    1  0.1881049E-005  0.1154188E+03  0.7546771E-02  0.1252233E+00
          1   -1    0    0  502    0 -0.00000000000E+00  0.00000000000E+00  0.15374020704E+03  0.15374020704E+03  0.00000000000E+00 0. -1.
         21   -1    0    0  501  502  0.00000000000E+00 -0.00000000000E+00 -0.18507631696E+03  0.18507631696E+03  0.00000000000E+00 0. -1.
         23    2    1    2    0    0 -0.24478337722E+02  0.88873205400E+02  0.13261348782E+02  0.12742359057E+03  0.86967076563E+02 0.  0.
         23    2    1    2    0    0  0.70242394853E+02 -0.11000678514E+02 -0.34493958110E+02  0.12050531000E+03  0.90976302576E+02 0.  0.
        -11    1    3    3    0    0  0.16440258367E+02  0.31623279639E+02  0.38686267209E+02  0.52601722224E+02  0.00000000000E+00 0. -1.
         11    1    3    3    0    0 -0.40918596089E+02  0.57249925761E+02 -0.25424918428E+02  0.74821868344E+02  0.00000000000E+00 0.  1.
        -11    1    4    4    0    0  0.61383351064E+02  0.19805594403E+02 -0.53009192949E+02  0.83487435550E+02  0.00000000000E+00 0. -1.
         11    1    4    4    0    0  0.88590437882E+01 -0.30806272917E+02  0.18515234839E+02  0.37017874453E+02  0.00000000000E+00 0.  1.
          1    1    1    2  501    0 -0.45764057130E+02 -0.77872526886E+02 -0.10103500584E+02  0.90887623429E+02  0.00000000000E+00 0. -1.
<scales pt_clust_5="13000.00000" pt_clust_6="13000.00000" pt_clust_7="13000.00000" pt_clust_8="13000.00000" pt_clust_9="90.32430"></scales>
<clustering>
<clus scale="   86.967">  5  6 -1 -1</clus>
<clus scale="   90.324">  2  9  1 -1</clus>
<clus scale="   90.976">  7  8 -1 -1</clus>
<clus scale="  112.286">  1  5  2 -1</clus>
<clus scale="   90.324">  2  5  1 -1</clus>
</clustering>
</event>
<event>
 9    1  0.1881049E-005  0.2285635E+03  0.7546771E-02  0.1164939E+00
         21   -1    0    0  501  502  0.00000000000E+00  0.00000000000E+00  0.35416149987E+03  0.35416149987E+03  0.00000000000E+00 0. -1.
          2   -1    0    0  502    0 -0.00000000000E+00 -0.00000000000E+00 -0.22759200205E+03  0.22759200205E+03  0.00000000000E+00 0. -1.
         23    2    1    2    0    0  0.22327894165E+02  0.23358365925E+01  0.59921850717E+02  0.11139651206E+03  0.91184229529E+02 0.  0.
         23    2    1    2    0    0 -0.11059191986E+02 -0.21165598958E+03 -0.42297266443E+02  0.23411367401E+03  0.89997721950E+02 0.  0.
        -11    1    3    3    0    0 -0.32596752419E+02  0.33227243850E+01  0.40035490037E+01  0.33009349739E+02  0.00000000000E+00 0.  1.
         11    1    3    3    0    0  0.54924646584E+02 -0.98688779246E+00  0.55918301713E+02  0.78387162319E+02  0.00000000000E+00 0. -1.
        -11    1    4    4    0    0  0.34686814069E+02 -0.13468630987E+03 -0.39294184581E+02  0.14452546515E+03  0.00000000000E+00 0.  1.
         11    1    4    4    0    0 -0.45746006055E+02 -0.76969679716E+02 -0.30030818627E+01  0.89588208857E+02  0.00000000000E+00 0. -1.
          2    1    1    2  501    0 -0.11268702179E+02  0.20932015299E+03  0.10894491354E+03  0.23624331585E+03  0.00000000000E+00 0. -1.
<scales pt_clust_5="13000.00000" pt_clust_6="13000.00000" pt_clust_7="13000.00000" pt_clust_8="13000.00000" pt_clust_9="210.09924"></scales>
<clustering>
<clus scale="   89.998">  7  8 -1 -1</clus>
<clus scale="   91.184">  5  6 -1 -1</clus>
<clus scale="   93.907">  2  5  1 -1</clus>
<clus scale="  210.099">  1  9  2 -1</clus>
<clus scale="  210.099">  1  5  2 -1</clus>
</clustering>
</event>
<event>
 9    1  0.1881049E-005  0.2015940E+03  0.7546771E-02  0.1168817E+00
         -2   -1    0    0    0  501 -0.00000000000E+00  0.00000000000E+00  0.12201073166E+03  0.12201073166E+03  0.00000000000E+00 0.  1.
         21   -1    0    0  501  502  0.00000000000E+00 -0.00000000000E+00 -0.86637067856E+03  0.86637067856E+03  0.00000000000E+00 0.  1.
         23    2    1    2    0    0  0.24338390931E+02 -0.82148695281E+02 -0.42945230789E+02  0.13234623239E+03  0.91271391854E+02 0.  0.
         23    2    1    2    0    0  0.14772966493E+02 -0.10804657161E+03 -0.16042981100E+02  0.14368810443E+03  0.92176959893E+02 0.  0.
        -11    1    3    3    0    0  0.47551189373E+02 -0.95659461363E+01 -0.11113037921E+02  0.49760652609E+02  0.00000000000E+00 0. -1.
         11    1    3    3    0    0 -0.23212798442E+02 -0.72582749144E+02 -0.31832192868E+02  0.82585579781E+02  0.00000000000E+00 0.  1.
        -11    1    4    4    0    0  0.11304358755E+02 -0.87619331514E+02 -0.51763489991E+02  0.10239333317E+03  0.00000000000E+00 0.  1.
         11    1    4    4    0    0  0.34686077375E+01 -0.20427240099E+02  0.35720508891E+02  0.41294771256E+02  0.00000000000E+00 0. -1.
         -2    1    1    2    0  502 -0.39111357424E+02  0.19019526689E+03 -0.68537173501E+03  0.71234707340E+03  0.00000000000E+00 0.  1.
<scales pt_clust_5="13000.00000" pt_clust_6="13000.00000" pt_clust_7="13000.00000" pt_clust_8="13000.00000" pt_clust_9="179.28621"></scales>
<clustering>
<clus scale="   91.271">  5  6 -1 -1</clus>
<clus scale="   92.177">  7  8 -1 -1</clus>
<clus scale="  125.185">  1  5  2 -1</clus>
<clus scale="  179.286">  2  9  1 -1</clus>
<clus scale="  179.286">  2  5  1 -1</clus>
</clustering>
</event>
<event>
 9    1  0.1881049E-005  0.1126574E+03  0.7546771E-02  0.1256302E+00
          1   -1    0    0  502    0 -0.00000000000E+00  0.00000000000E+00  0.30706292089E+03  0.30706292089E+03  0.00000000000E+00 0. -1.
         21   -1    0    0  501  502  0.00000000000E+00 -0.00000000000E+00 -0.97771822261E+02  0.97771822261E+02  0.00000000000E+00 0.  1.
         23    2    1    2    0    0  0.67998136827E+02 -0.37078227193E+02  0.21354968109E+03  0.24456151499E+03  0.90599816656E+02 0.  0.
         23    2    1    2    0    0 -0.34300550155E+02 -0.11037097566E+02 -0.22762366654E+02  0.98685876748E+02  0.89008042727E+02 0.  0.
        -11    1    4    4    0    0 -0.62490745739E+02 -0.17407183566E+02 -0.25398780449E+02  0.69664922242E+02  0.00000000000E+00 0.  1.
         11    1    4    4    0    0  0.28190195584E+02  0.63700859999E+01  0.26364137944E+01  0.29020954506E+02  0.00000000000E+00 0. -1.
        -13    1    3    3    0    0  0.30902621593E+02 -0.56813583441E+02  0.17846144558E+03  0.18981897388E+03  0.00000000000E+00 0.  1.
         13    1    3    3    0    0  0.37095515234E+02  0.19735356247E+02  0.35088235507E+02  0.54742541115E+02  0.00000000000E+00 0. -1.
          1    1    1    2  501    0 -0.33697586673E+02  0.48115324760E+02  0.18503784195E+02  0.61587351411E+02  0.00000000000E+00 0. -1.
<scales pt_clust_5="13000.00000" pt_clust_6="13000.00000" pt_clust_7="13000.00000" pt_clust_8="13000.00000" pt_clust_9="58.74191"></scales>
<clustering>
<clus scale="   58.742">  2  9  1 -1</clus>
<clus scale="   89.008">  5  6 -1 -1</clus>
<clus scale="   90.600">  7  8 -1 -1</clus>
<clus scale="  111.381">  2  5  1 -1</clus>
<clus scale="   58.742">  2  5  1 -1</clus>
</clustering>
</event>
<event>
 9    1  0.1881049E-005  0.9138860E+02  0.7546771E-02  0.1299747E+00
         -4   -1    0    0    0  501 -0.00000000000E+00  0.00000000000E+00  0.14888747398E+03  0.14888747398E+03  0.00000000000E+00 0.  1.
         21   -1    0    0  501  502  0.00000000000E+00 -0.00000000000E+00 -0.76361288067E+02  0.76361288067E+02  0.00000000000E+00 0. -1.
         23    2    1    2    0    0 -0.39670869203E+01  0.22469251525E+02  0.51036071810E+02  0.10632815816E+03  0.90445517026E+02 0.  0.
         23    2    1    2    0    0  0.77432024871E+00 -0.17869526567E+01  0.31873798023E+02  0.95558837314E+02  0.90065307510E+02 0.  0.
        -13    1    3    3    0    0  0.70885151832E+01 -0.26913901025E+02  0.48181362607E+02  0.55642149658E+02  0.00000000000E+00 0.  1.
         13    1    3    3    0    0 -0.11055602103E+02  0.49383152550E+02  0.28547092025E+01  0.50686008506E+02  0.00000000000E+00 0. -1.
        -13    1    4    4    0    0 -0.40044521392E+02  0.10114430050E+02  0.33242714046E+02  0.53018331037E+02  0.00000000000E+00 0. -1.
         13    1    4    4    0    0  0.40818841641E+02 -0.11901382707E+02 -0.13689160237E+01  0.42540506277E+02  0.00000000000E+00 0.  1.
         -4    1    1    2    0  502  0.31927666716E+01 -0.20682298868E+02 -0.10383683919E+02  0.23361766569E+02  0.00000000000E+00 0.  1.
<scales pt_clust_5="13000.00000" pt_clust_6="13000.00000" pt_clust_7="13000.00000" pt_clust_8="13000.00000" pt_clust_9="20.92728"></scales>
<clustering>
<clus scale="   20.927">  2  9  1 -1</clus>
<clus scale="   90.065">  7  8 -1 -1</clus>
<clus scale="   90.446">  5  6 -1 -1</clus>
<clus scale="   91.012">  2  7  1 -1</clus>
<clus scale="   20.927">  2  5  1 -1</clus>
</clustering>
</event>
<event>
 9    1  0.1881049E-005  0.1121302E+03  0.7546771E-02  0.1256972E+00
          2   -1    0    0  502    0 -0.00000000000E+00  0.00000000000E+00  0.25803070676E+03  0.25803070676E+03  0.00000000000E+00 0. -1.
         21   -1    0    0  501  502  0.00000000000E+00 -0.00000000000E+00 -0.92962569246E+02  0.92962569246E+02  0.00000000000E+00 0. -1.
         23    2    1    2    0    0 -0.34673591536E+02  0.55205776497E+02  0.12853167754E+03  0.17043239181E+03  0.90977317698E+02 0.  0.
         23    2    1    2    0    0 -0.43031527356E+01 -0.71237523194E+02  0.61552753850E+02  0.13155049290E+03  0.91779566585E+02 0.  0.
        -13    1    4    4    0    0  0.41794201007E+02 -0.33620821981E+02  0.44396092737E+02  0.69628499616E+02  0.00000000000E+00 0.  1.
         13    1    4    4    0    0 -0.46097353742E+02 -0.37616701213E+02  0.17156661113E+02  0.61921993288E+02  0.00000000000E+00 0. -1.
        -13    1    3    3    0    0  0.69915097332E+01  0.22275960147E+02 -0.74022616017E+01  0.24492714951E+02  0.00000000000E+00 0.  1.
         13    1    3    3    0    0 -0.41665101270E+02  0.32929816350E+02  0.13593393915E+03  0.14593967685E+03  0.00000000000E+00 0. -1.
          2    1    1    2  501    0  0.38976744272E+02  0.16031746696E+02 -0.25016293876E+02  0.49010391301E+02  0.00000000000E+00 0. -1.
<scales pt_clust_5="13000.00000" pt_clust_6="13000.00000" pt_clust_7="13000.00000" pt_clust_8="13000.00000" pt_clust_9="42.14503"></scales>
<clustering>
<clus scale="   42.145">  2  9  1 -1</clus>
<clus scale="   90.977">  7  8 -1 -1</clus>
<clus scale="   91.780">  5  6 -1 -1</clus>
<clus scale="  111.474">  1  7  2 -1</clus>
<clus scale="   42.145">  2  5  1 -1</clus>
</clustering>
</event>
<event>
 9    1  0.1881049E-005  0.1200527E+03  0.7546771E-02  0.1243568E+00
         21   -1    0    0  501  502  0.00000000000E+00  0.00000000000E+00  0.11612669508E+03  0.11612669508E+03  0.00000000000E+00 0.  1.
          2   -1    0    0  502    0 -0.00000000000E+00 -0.00000000000E+00 -0.44794591606E+03  0.44794591606E+03  0.00000000000E+00 0. -1.
         23    2    1    2    0    0 -0.76035126421E+02 -0.41283803275E+02 -0.37899066978E+03  0.39889387669E+03  0.89424293216E+02 0.  0.
         23    2    1    2    0    0  0.33793791063E+02  0.88659621795E+01  0.59591315858E+01  0.97845964389E+02  0.91201402939E+02 0.  0.
        -11    1    3    3    0    0  0.14779974659E+02 -0.28929222517E+02 -0.87617390197E+02  0.93445998476E+02  0.00000000000E+00 0.  1.
         11    1    3    3    0    0 -0.90815101080E+02 -0.12354580759E+02 -0.29137327958E+03  0.30544787821E+03  0.00000000000E+00 0. -1.
        -11    1    4    4    0    0 -0.25965718465E+00  0.35043440861E+02 -0.26560029465E+02  0.43972097226E+02  0.00000000000E+00 0. -1.
         11    1    4    4    0    0  0.34053448248E+02 -0.26177478682E+02  0.32519161050E+02  0.53873867163E+02  0.00000000000E+00 0.  1.
          2    1    1    2  501    0  0.42241335358E+02  0.32417841096E+02  0.41212317218E+02  0.67332770065E+02  0.00000000000E+00 0. -1.
<scales pt_clust_5="13000.00000" pt_clust_6="13000.00000" pt_clust_7="13000.00000" pt_clust_8="13000.00000" pt_clust_9="53.24704"></scales>
<clustering>
<clus scale="   53.247">  1  9  2 -1</clus>
<clus scale="   89.424">  5  6 -1 -1</clus>
<clus scale="   91.201">  7  8 -1 -1</clus>
<clus scale="  118.708">  2  5  1 -1</clus>
<clus scale="   53.247">  1  5  2 -1</clus>
</clustering>
</event>
<event>
 9    1  0.1881049E-005  0.9363724E+02  0.7546771E-02  0.1295011E+00
         21   -1    0    0  501  502  0.00000000000E+00  0.00000000000E+00  0.10789083505E+03  0.10789083505E+03  0.00000000000E+00 0.  1.
          1   -1    0    0  502    0 -0.00000000000E+00 -0.00000000000E+00 -0.35257950761E+03  0.35257950761E+03  0.00000000000E+00 0. -1.
         23    2    1    2    0    0 -0.41627963765E+01  0.95502597630E+01 -0.22632183957E+03  0.24414428280E+03  0.90974278892E+02 0.  0.
         23    2    1    2    0    0  0.39311633168E+02 -0.41935439605E+02 -0.83641955535E+02  0.13542437740E+03  0.89664930001E+02 0.  0.
        -11    1    3    3    0    0  0.36768191316E+02  0.26072594887E+02 -0.14178994772E+03  0.14878195244E+03  0.00000000000E+00 0. -1.
         11    1    3    3    0    0 -0.40930987692E+02 -0.16522335124E+02 -0.84531891850E+02  0.95362330357E+02  0.00000000000E+00 0.  1.
        -13    1    4    4    0    0  0.36832556716E+02  0.95382242230E+01 -0.73698884280E+02  0.82940584153E+02  0.00000000000E+00 0. -1.
         13    1    4    4    0    0  0.24790764522E+01 -0.51473663828E+02 -0.99430712549E+01  0.52483793250E+02  0.00000000000E+00 0.  1.
          1    1    1    2  501    0 -0.35148836791E+02  0.32385179842E+02  0.65275122551E+02  0.80901682463E+02  0.00000000000E+00 0. -1.
<scales pt_clust_5="13000.00000" pt_clust_6="13000.00000" pt_clust_7="13000.00000" pt_clust_8="13000.00000" pt_clust_9="47.79373"></scales>
<clustering>
<clus scale="   47.794">  1  9  2 -1</clus>
<clus scale="   89.665">  7  8 -1 -1</clus>
<clus scale="   90.974">  5  6 -1 -1</clus>
<clus scale="   92.366">  1  7  2 -1</clus>
<clus scale="   47.794">  1  5  2 -1</clus>
</clustering>
</event>
<event>
 9    1  0.1881049E-005  0.9821098E+02  0.7546771E-02  0.1284482E+00
         21   -1    0    0  501  502  0.00000000000E+00  0.00000000000E+00  0.42280245945E+02  0.42280245945E+02  0.00000000000E+00 0.  1.
          1   -1    0    0  502    0 -0.00000000000E+00 -0.00000000000E+00 -0.58860196955E+03  0.58860196955E+03  0.00000000000E+00 0. -1.
         23    2    1    2    0    0 -0.14347200361E+02  0.27221130004E+02 -0.46637062863E+03  0.47640788739E+03  0.92282608514E+02 0.  0.
         23    2    1    2    0    0  0.68213214541E+01 -0.52536017769E+02 -0.64384801836E+02  0.12381830296E+03  0.91536909775E+02 0.  0.
        -13    1    4    4    0    0 -0.20741815857E+02 -0.33026892790E+02  0.11582602164E+02  0.40683599217E+02  0.00000000000E+00 0.  1.
         13    1    4    4    0    0  0.27563137311E+02 -0.19509124979E+02 -0.75967404000E+02  0.83134703743E+02  0.00000000000E+00 0. -1.
        -13    1    3    3    0    0 -0.54054761279E+01  0.59702259542E+02 -0.35593924728E+03  0.36095197288E+03  0.00000000000E+00 0. -1.
         13    1    3    3    0    0 -0.89417242328E+01 -0.32481129537E+02 -0.11043138135E+03  0.11545591451E+03  0.00000000000E+00 0.  1.
          1    1    1    2  501    0  0.75258789067E+01  0.25314887764E+02 -0.15566293132E+02  0.30656025145E+02  0.00000000000E+00 0. -1.
<scales pt_clust_5="13000.00000" pt_clust_6="13000.00000" pt_clust_7="13000.00000" pt_clust_8="13000.00000" pt_clust_9="26.40989"></scales>
<clustering>
<clus scale="   26.410">  1  9  2 -1</clus>
<clus scale="   91.537">  5  6 -1 -1</clus>
<clus scale="   92.283">  7  8 -1 -1</clus>
<clus scale="   97.511">  1  5  2 -1</clus>
<clus scale="   26.410">  1  5  2 -1</clus>
</clustering>
</event>
<event>
 9    1  0.1881049E-005  0.1675015E+03  0.7546771E-02  0.1180798E+00
         -1   -1    0    0    0  501 -0.00000000000E+00  0.00000000000E+00  0.16371962508E+03  0.16371962508E+03  0.00000000000E+00 0.  1.
         21   -1    0    0  501  502  0.00000000000E+00 -0.00000000000E+00 -0.59583451852E+03  0.59583451852E+03  0.00000000000E+00 0.  1.
         23    2    1    2    0    0  0.13802110528E+03 -0.47840272821E+02  0.96519120918E+02  0.19605854695E+03  0.88229790447E+02 0.  0.
         23    2    1    2    0    0 -0.10067778049E+03  0.41189147209E+02 -0.29939806369E+03  0.33114267014E+03  0.90463838719E+02 0.  0.
        -11    1    3    3    0    0  0.77019452756E+02 -0.53542425516E+02  0.16442490205E+02  0.95232047742E+02  0.00000000000E+00 0. -1.
         11    1    3    3    0    0  0.61001652528E+02  0.57021526944E+01  0.80076630713E+02  0.10082649921E+03  0.00000000000E+00 0.  1.
        -13    1    4    4    0    0 -0.31706674764E+02  0.60707492017E+02 -0.16883080013E+03  0.18219372076E+03  0.00000000000E+00 0.  1.
         13    1    4    4    0    0 -0.68971105722E+02 -0.19518344807E+02 -0.13056726356E+03  0.14894894938E+03  0.00000000000E+00 0. -1.
         -1    1    1    2    0  502 -0.37343324798E+02  0.66511256117E+01 -0.22923595066E+03  0.23235292651E+03  0.00000000000E+00 0.  1.
<scales pt_clust_5="13000.00000" pt_clust_6="13000.00000" pt_clust_7="13000.00000" pt_clust_8="13000.00000" pt_clust_9="37.93101"></scales>
<clustering>
<clus scale="   37.931">  2  9  1 -1</clus>
<clus scale="   88.230">  5  6 -1 -1</clus>
<clus scale="   90.464">  7  8 -1 -1</clus>
<clus scale="  166.306">  1  5  2 -1</clus>
<clus scale="   37.931">  2  5  1 -1</clus>
</clustering>
</event>
<event>
 9    1  0.1881049E-005  0.1193755E+03  0.7546771E-02  0.1244724E+00
          2   -1    0    0  502    0 -0.00000000000E+00  0.00000000000E+00  0.23286228022E+03  0.23286228022E+03  0.00000000000E+00 0. -1.
         21   -1    0    0  501  502  0.00000000000E+00 -0.00000000000E+00 -0.80091677210E+02  0.80091677210E+02  0.00000000000E+00 0.  1.
         23    2    1    2    0    0  0.77501456470E+02  0.31027366361E+02  0.99383604005E+02  0.15902434084E+03  0.91882898393E+02 0.  0.
         23    2    1    2    0    0 -0.54599969210E+02 -0.42793762800E+02  0.58267830236E+02  0.12772372570E+03  0.90031923746E+02 0.  0.
        -11    1    3    3    0    0  0.23617065066E+02 -0.28024963859E+01 -0.15013254352E+02  0.28125034303E+02  0.00000000000E+00 0.  1.
         11    1    3    3    0    0  0.53884391404E+02  0.33829862747E+02  0.11439685836E+03  0.13089930654E+03  0.00000000000E+00 0. -1.
        -11    1    4    4    0    0  0.12264537236E+02 -0.27278484972E+02  0.50436196640E+02  0.58637398881E+02  0.00000000000E+00 0. -1.
         11    1    4    4    0    0 -0.66864506446E+02 -0.15515277828E+02  0.78316335962E+01  0.69086326817E+02  0.00000000000E+00 0.  1.
          2    1    1    2  501    0 -0.22901487260E+02  0.11766396438E+02 -0.48808312301E+01  0.26205890890E+02  0.00000000000E+00 0. -1.
<scales pt_clust_5="13000.00000" pt_clust_6="13000.00000" pt_clust_7="13000.00000" pt_clust_8="13000.00000" pt_clust_9="25.74735"></scales>
<clustering>
<clus scale="   25.747">  2  9  1 -1</clus>
<clus scale="   90.032">  7  8 -1 -1</clus>
<clus scale="   91.883">  5  6 -1 -1</clus>
<clus scale="  117.957">  2  7  1 -1</clus>
<clus scale="   25.747">  2  5  1 -1</clus>
</clustering>
</event>
<event>
 9    1  0.1881049E-005  0.1039463E+03  0.7546771E-02  0.1273121E+00
         -4   -1    0    0    0  501 -0.00000000000E+00  0.00000000000E+00  0.28981271776E+03  0.28981271776E+03  0.00000000000E+00 0.  1.
         21   -1    0    0  501  502  0.00000000000E+00 -0.00000000000E+00 -0.45853809423E+02  0.45853809423E+02  0.00000000000E+00 0. -1.
         23    2    1    2    0    0  0.27057194879E+02  0.18968071022E+02  0.10098319601E+03  0.14077962475E+03  0.92354844782E+02 0.  0.
         23    2    1    2    0    0 -0.41090101655E+02 -0.37120130716E+02  0.11541005092E+03  0.15902208078E+03  0.94351691892E+02 0.  0.
        -11    1    4    4    0    0  0.66518634358E+01 -0.53701985168E+02  0.36348255051E+02  0.65187009008E+02  0.00000000000E+00 0. -1.
         11    1    4    4    0    0 -0.47741965091E+02  0.16581854452E+02  0.79061795867E+02  0.93835071767E+02  0.00000000000E+00 0.  1.
        -13    1    3    3    0    0 -0.32392609721E+02 -0.59505404686E+01  0.42284840167E+02  0.53597554089E+02  0.00000000000E+00 0.  1.
         13    1    3    3    0    0  0.59449804600E+02  0.24918611491E+02  0.58698355843E+02  0.87182070659E+02  0.00000000000E+00 0. -1.
         -4    1    1    2    0  502  0.14032906776E+02  0.18152059694E+02  0.27565661408E+02  0.35864821658E+02  0.00000000000E+00 0.  1.
<scales pt_clust_5="13000.00000" pt_clust_6="13000.00000" pt_clust_7="13000.00000" pt_clust_8="13000.00000" pt_clust_9="22.94385"></scales>
<clustering>
<clus scale="   22.944">  2  9  1 -1</clus>
<clus scale="   92.355">  7  8 -1 -1</clus>
<clus scale="   94.352">  5  6 -1 -1</clus>
<clus scale="  102.137">  1  7  2 -1</clus>
<clus scale="   22.944">  2  5  1 -1</clus>
</clustering>
</event>
<event>
 9    1  0.1881049E-005  0.1983852E+03  0.7546771E-02  0.1151442E+00
         21   -1    0    0  501  502  0.00000000000E+00  0.00000000000E+00  0.95412773988E+02  0.95412773988E+02  0.00000000000E+00 0. -1.
          2   -1    0    0  502    0 -0.00000000000E+00 -0.00000000000E+00 -0.64097191950E+03  0.64097191950E+03  0.00000000000E+00 0. -1.
         23    2    1    2    0    0  0.11522677188E+03 -0.78668659829E+02 -0.17451458519E+03  0.24203667596E+03  0.93061512291E+02 0.  0.
         23    2    1    2    0    0 -0.18444272708E+03  0.96619667653E+02 -0.35232455345E+03  0.42043235076E+03  0.96313502945E+02 0.  0.
        -11    1    3    3    0    0  0.38134112227E+02  0.19334319572E+02 -0.50603032430E+02  0.66247213675E+02  0.00000000000E+00 0.  1.
         11    1    3    3    0    0  0.77092659651E+02 -0.98002979401E+02 -0.12391155276E+03  0.17578946228E+03  0.00000000000E+00 0. -1.
        -13    1    4    4    0    0 -0.12695781006E+03  0.96957049267E+02 -0.31101994531E+03  0.34964605148E+03  0.00000000000E+00 0. -1.
         13    1    4    4    0    0 -0.57484917023E+02 -0.33738161430E+00 -0.41304608144E+02  0.70786299278E+02  0.00000000000E+00 0.  1.
          2    1    1    2  501    0  0.69215955203E+02 -0.17951007824E+02 -0.18720006874E+02  0.73915666769E+02  0.00000000000E+00 0. -1.
<scales pt_clust_5="13000.00000" pt_clust_6="13000.00000" pt_clust_7="13000.00000" pt_clust_8="13000.00000" pt_clust_9="71.50585"></scales>
<clustering>
<clus scale="   71.506">  1  9  2 -1</clus>
<clus scale="   93.062">  5  6 -1 -1</clus>
<clus scale="   96.314">  7  8 -1 -1</clus>
<clus scale="  196.827">  2  5  1 -1</clus>
<clus scale="   71.506">  1  5  2 -1</clus>
</clustering>
</event>
<event>
 9    1  0.1881049E-005  0.9394467E+02  0.7546771E-02  0.1302035E+00
          2   -1    0    0  502    0 -0.00000000000E+00  0.00000000000E+00  0.25879592613E+03  0.25879592613E+03  0.00000000000E+00 0. -1.
         21   -1    0    0  501  502  0.00000000000E+00 -0.00000000000E+00 -0.11082735159E+03  0.11082735159E+03  0.00000000000E+00 0. -1.
         23    2    1    2    0    0 -0.22613337135E+02 -0.99370610317E+01  0.16043367772E+03  0.17995881773E+03  0.77692360826E+02 0.  0.
         23    2    1    2    0    0  0.39253675925E+00  0.17852939596E+02  0.61619903254E+02  0.11191477650E+03  0.91700726196E+02 0.  0.
        -11    1    3    3    0    0 -0.16537029649E+02 -0.39499076490E+02  0.13092524833E+03  0.13775003101E+03  0.00000000000E+00 0. -1.
         11    1    3    3    0    0 -0.60763074860E+01  0.29562015458E+02  0.29508429392E+02  0.42208786713E+02  0.00000000000E+00 0.  1.
        -13    1    4    4    0    0 -0.36376123418E+02 -0.17959336231E+02  0.17306565942E+02  0.44105298293E+02  0.00000000000E+00 0. -1.
         13    1    4    4    0    0  0.36768660177E+02  0.35812275827E+02  0.44313337312E+02  0.67809478209E+02  0.00000000000E+00 0.  1.
          2    1    1    2  501    0  0.22220800375E+02 -0.79158785642E+01 -0.74085006440E+02  0.77749683485E+02  0.00000000000E+00 0. -1.
<scales pt_clust_5="13000.00000" pt_clust_6="13000.00000" pt_clust_7="13000.00000" pt_clust_8="13000.00000" pt_clust_9="23.58866"></scales>
<clustering>
<clus scale="   23.589">  2  9  1 -1</clus>
<clus scale="   77.692">  5  6 -1 -1</clus>
<clus scale="   80.329">  1  5  2 -1</clus>
<clus scale="   91.701">  7  8 -1 -1</clus>
<clus scale="   23.589">  2  5  1 -1</clus>
</clustering>
</event>
<event>
 9    1  0.1881049E-005  0.1267162E+03  0.7546771E-02  0.1232508E+00
         21   -1    0    0  501  502  0.00000000000E+00  0.00000000000E+00  0.47881902242E+03  0.47881902242E+03  0.00000000000E+00 0.  1.
          4   -1    0    0  502    0 -0.00000000000E+00 -0.00000000000E+00 -0.26459282420E+03  0.26459282420E+03  0.00000000000E+00 0. -1.
         23    2    1    2    0    0  0.45156033386E+02  0.75017033716E+02 -0.23053523675E+03  0.26285012824E+03  0.90978414131E+02 0.  0.
         23    2    1    2    0    0 -0.33005533395E+02 -0.95390567306E+02  0.25063144031E+03  0.28498776728E+03  0.90626613439E+02 0.  0.
        -11    1    4    4    0    0 -0.34262770008E+02 -0.19236116852E+01  0.11685113838E+03  0.12178598536E+03  0.00000000000E+00 0.  1.
         11    1    4    4    0    0  0.12572366128E+01 -0.93466955621E+02  0.13378030193E+03  0.16320178192E+03  0.00000000000E+00 0. -1.
        -13    1    3    3    0    0  0.34885287400E+02  0.33721870796E+02 -0.28264753277E+02  0.56151973472E+02  0.00000000000E+00 0.  1.
         13    1    3    3    0    0  0.10270745987E+02  0.41295162920E+02 -0.20227048347E+03  0.20669815477E+03  0.00000000000E+00 0. -1.
          4    1    1    2  501    0 -0.12150499991E+02  0.20373533590E+02  0.19412999465E+03  0.19557395109E+03  0.00000000000E+00 0. -1.
<scales pt_clust_5="13000.00000" pt_clust_6="13000.00000" pt_clust_7="13000.00000" pt_clust_8="13000.00000" pt_clust_9="23.72163"></scales>
<clustering>
<clus scale="   23.722">  1  9  2 -1</clus>
<clus scale="   90.627">  5  6 -1 -1</clus>
<clus scale="   90.978">  7  8 -1 -1</clus>
<clus scale="  126.464">  1  5  2 -1</clus>
<clus scale="   23.722">  1  5  2 -1</clus>
</clustering>
</event>
<event>
 9    1  0.1881049E-005  0.1972744E+03  0.7546771E-02  0.1152174E+00
         21   -1    0    0  501  502  0.00000000000E+00  0.00000000000E+00  0.31889924789E+03  0.31889924789E+03  0.00000000000E+00 0. -1.
          3   -1    0    0  502    0 -0.00000000000E+00 -0.00000000000E+00 -0.17214410464E+03  0.17214410464E+03  0.00000000000E+00 0. -1.
         23    2    1    2    0    0  0.17401904507E+03 -0.67710368831E+02 -0.11448806323E+02  0.20809289203E+03  0.91127682137E+02 0.  0.
         23    2    1    2    0    0 -0.13129518238E+03  0.86776896614E+02  0.99244029534E+02  0.20768338206E+03  0.92273263113E+02 0.  0.
        -13    1    4    4    0    0 -0.20250708046E+02  0.40191649533E+02  0.70890984855E+02  0.83970182817E+02  0.00000000000E+00 0.  1.
         13    1    4    4    0    0 -0.11104447433E+03  0.46585247080E+02  0.28353044679E+02  0.12371319925E+03  0.00000000000E+00 0. -1.
        -13    1    3    3    0    0  0.56617022049E+02  0.16489818103E+02  0.15848603686E+02  0.61062095653E+02  0.00000000000E+00 0.  1.
         13    1    3    3    0    0  0.11740202302E+03 -0.84200186934E+02 -0.27297410009E+02  0.14703079638E+03  0.00000000000E+00 0. -1.
          3    1    1    2  501    0 -0.42723862694E+02 -0.19066527782E+02  0.58959920045E+02  0.75267078440E+02  0.00000000000E+00 0. -1.
<scales pt_clust_5="13000.00000" pt_clust_6="13000.00000" pt_clust_7="13000.00000" pt_clust_8="13000.00000" pt_clust_9="46.78526"></scales>
<clustering>
<clus scale="   46.785">  1  9  2 -1</clus>
<clus scale="   91.128">  7  8 -1 -1</clus>
<clus scale="   92.273">  5  6 -1 -1</clus>
<clus scale="  196.741">  2  7  1 -1</clus>
<clus scale="   46.785">  1  5  2 -1</clus>
</clustering>
</event>
<event>
 9    1  0.1881049E-005  0.1614123E+03  0.7546771E-02  0.1207580E+00
         -1   -1    0    0    0  501 -0.00000000000E+00  0.00000000000E+00  0.33846338465E+03  0.33846338465E+03  0.00000000000E+00 0.  1.
         21   -1    0    0  501  502  0.00000000000E+00 -0.00000000000E+00 -0.17752256926E+03  0.17752256926E+03  0.00000000000E+00 0.  1.
         23    2    1    2    0    0 -0.27929465777E+02 -0.39376195812E+02  0.15989853099E+03  0.19034785805E+03  0.91291987568E+02 0.  0.
         23    2    1    2    0    0  0.12453615373E+02 -0.12406266608E+03 -0.41709436222E+02  0.15599295700E+03  0.83949317513E+02 0.  0.
        -11    1    4    4    0    0  0.12287008204E+01 -0.55476900059E+02  0.23899300368E+02  0.60418314309E+02  0.00000000000E+00 0. -1.
         11    1    4    4    0    0  0.11224914553E+02 -0.68585766026E+02 -0.65608736590E+02  0.95574642688E+02  0.00000000000E+00 0.  1.
        -11    1    3    3    0    0  0.27240966925E+02 -0.17584876079E+02  0.19262673100E+02  0.37714038775E+02  0.00000000000E+00 0.  1.
         11    1    3    3    0    0 -0.55170432703E+02 -0.21791319733E+02  0.14063585789E+03  0.15263381927E+03  0.00000000000E+00 0. -1.
         -1    1    1    2    0  502  0.15475850404E+02  0.16343886190E+03  0.42751720626E+02  0.16964513886E+03  0.00000000000E+00 0.  1.
<scales pt_clust_5="13000.00000" pt_clust_6="13000.00000" pt_clust_7="13000.00000" pt_clust_8="13000.00000" pt_clust_9="137.86393"></scales>
<clustering>
<clus scale="   83.949">  5  6 -1 -1</clus>
<clus scale="   91.292">  7  8 -1 -1</clus>
<clus scale="  103.270">  1  7  2 -1</clus>
<clus scale="  137.864">  2  9  1 -1</clus>
<clus scale="  137.864">  2  5  1 -1</clus>
</clustering>
</event>
<event>
 9    1  0.1881049E-005  0.9972154E+02  0.7546771E-02  0.1283101E+00
          1   -1    0    0  502    0 -0.00000000000E+00  0.00000000000E+00  0.12303145360E+03  0.12303145360E+03  0.00000000000E+00 0. -1.
         21   -1    0    0  501  502  0.00000000000E+00 -0.00000000000E+00 -0.19927702944E+03  0.19927702944E+03  0.00000000000E+00 0. -1.
         23    2    1    2    0    0  0.23348583508E+01  0.31952636018E+02  0.42948189512E+02  0.10521789946E+03  0.90552950651E+02 0.  0.
         23    2    1    2    0    0  0.14336168360E+02 -0.83871465627E+02 -0.10632009721E+03  0.16106184693E+03  0.86005854426E+02 0.  0.
        -11    1    4    4    0    0 -0.44277242879E+01 -0.67982090103E+02 -0.11609070583E+03  0.13460394235E+03  0.00000000000E+00 0.  1.
         11    1    4    4    0    0  0.18763892648E+02 -0.15889375524E+02  0.97706086165E+01  0.26457904576E+02  0.00000000000E+00 0. -1.
        -11    1    3    3    0    0  0.28358461457E+02  0.47819151049E+02  0.39690544394E+01  0.55737123503E+02  0.00000000000E+00 0. -1.
         11    1    3    3    0    0 -0.26023603107E+02 -0.15866515031E+02  0.38979135073E+02  0.49480775953E+02  0.00000000000E+00 0.  1.
          1    1    1    2  501    0 -0.16671026711E+02  0.51918829609E+02 -0.12873668137E+02  0.56028736652E+02  0.00000000000E+00 0. -1.
<scales pt_clust_5="13000.00000" pt_clust_6="13000.00000" pt_clust_7="13000.00000" pt_clust_8="13000.00000" pt_clust_9="54.52973"></scales>
<clustering>
<clus scale="   54.530">  2  9  1 -1</clus>
<clus scale="   86.006">  5  6 -1 -1</clus>
<clus scale="   90.553">  7  8 -1 -1</clus>
<clus scale="   95.611">  2  5  1 -1</clus>
<clus scale="   54.530">  2  5  1 -1</clus>
</clustering>
</event>
<event>
 9    1  0.1881049E-005  0.2343366E+03  0.7546771E-02  0.1123659E+00
          1   -1    0    0  502    0 -0.00000000000E+00  0.00000000000E+00  0.11812504923E+04  0.11812504923E+04  0.00000000000E+00 0. -1.
         21   -1    0    0  501  502  0.00000000000E+00 -0.00000000000E+00 -0.14229135780E+03  0.14229135780E+03  0.00000000000E+00 0.  1.
         23    2    1    2    0    0 -0.20825365917E+03  0.50283142326E+02  0.89620802170E+03  0.92611624522E+03  0.92760447105E+02 0.  0.
         23    2    1    2    0    0  0.20727938693E+03 -0.71801805699E+02  0.21581281860E+03  0.32125464626E+03  0.92244953916E+02 0.  0.
        -11    1    3    3    0    0 -0.17804739147E+03  0.55210205194E+02  0.85322138675E+03  0.87334745386E+03  0.00000000000E+00 0. -1.
         11    1    3    3    0    0 -0.30206267702E+02 -0.49270628685E+01  0.42986634949E+02  0.52768791357E+02  0.00000000000E+00 0.  1.
        -11    1    4    4    0    0  0.29376789505E+02 -0.20479782067E+02  0.91442813869E+02  0.98204915577E+02  0.00000000000E+00 0. -1.
         11    1    4    4    0    0  0.17790259743E+03 -0.51322023632E+02  0.12437000473E+03  0.22304973068E+03  0.00000000000E+00 0.  1.
          1    1    1    2  501    0  0.97427223803E+00  0.21518663373E+02 -0.73061705805E+02  0.76170958605E+02  0.00000000000E+00 0. -1.
<scales pt_clust_5="13000.00000" pt_clust_6="13000.00000" pt_clust_7="13000.00000" pt_clust_8="13000.00000" pt_clust_9="21.54071"></scales>
<clustering>
<clus scale="   21.541">  2  9  1 -1</clus>
<clus scale="   92.245">  7  8 -1 -1</clus>
<clus scale="   92.760">  5  6 -1 -1</clus>
<clus scale="  234.133">  2  7  1 -1</clus>
<clus scale="   21.541">  2  5  1 -1</clus>
</clustering>
</event>
<event>
 9    1  0.1881049E-005  0.1454097E+03  0.7546771E-02  0.1206335E+00
          1   -1    0    0  502    0 -0.00000000000E+00  0.00000000000E+00  0.27510230158E+03  0.27510230158E+03  0.00000000000E+00 0. -1.
         21   -1    0    0  501  502  0.00000000000E+00 -0.00000000000E+00 -0.22891733000E+03  0.22891733000E+03  0.00000000000E+00 0. -1.
         23    2    1    2    0    0  0.12080380635E+03 -0.71194705363E+02  0.17992399447E+03  0.24691990379E+03  0.94522745420E+02 0.  0.
         23    2    1    2    0    0 -0.40755985417E+02  0.38131246475E+02 -0.15338261688E+02  0.11040417162E+03  0.94014767635E+02 0.  0.
        -11    1    3    3    0    0  0.48202785742E+02  0.15756551339E+02  0.29683196089E+02  0.58761123147E+02  0.00000000000E+00 0.  1.
         11    1    3    3    0    0  0.72601020603E+02 -0.86951256702E+02  0.15024079838E+03  0.18815878064E+03  0.00000000000E+00 0. -1.
        -13    1    4    4    0    0 -0.46411087857E+02 -0.31452640928E+01 -0.40547488248E+02  0.61708837013E+02  0.00000000000E+00 0. -1.
         13    1    4    4    0    0  0.56551024408E+01  0.41276510568E+02  0.25209226560E+02  0.48695334603E+02  0.00000000000E+00 0.  1.
          1    1    1    2  501    0 -0.80047820929E+02  0.33063458887E+02 -0.11840076120E+03  0.14669555618E+03  0.00000000000E+00 0. -1.
<scales pt_clust_5="13000.00000" pt_clust_6="13000.00000" pt_clust_7="13000.00000" pt_clust_8="13000.00000" pt_clust_9="86.60742"></scales>
<clustering>
<clus scale="   86.607">  2  9  1 -1</clus>
<clus scale="   94.015">  7  8 -1 -1</clus>
<clus scale="   94.523">  5  6 -1 -1</clus>
<clus scale="  145.080">  2  7  1 -1</clus>
<clus scale="   86.607">  2  5  1 -1</clus>
</clustering>
</event>
<event>
 9    1  0.1881049E-005  0.1028398E+03  0.7546771E-02  0.1275735E+00
         21   -1    0    0  501  502  0.00000000000E+00  0.00000000000E+00  0.12900568015E+03  0.12900568015E+03  0.00000000000E+00 0.  1.
          1   -1    0    0  502    0 -0.00000000000E+00 -0.00000000000E+00 -0.26174571720E+03  0.26174571720E+03  0.00000000000E+00 0. -1.
         23    2    1    2    0    0 -0.94421718470E+01  0.43717673699E+02 -0.21060157716E+03  0.23389900071E+03  0.91407486710E+02 0.  0.
         23    2    1    2    0    0  0.32977480829E+01 -0.22637217603E+02  0.25714018202E+02  0.10027056552E+03  0.94178855451E+02 0.  0.
        -11    1    4    4    0    0  0.45009015868E+02  0.70150144484E+01  0.15227956088E+02  0.48030329832E+02  0.00000000000E+00 0. -1.
         11    1    4    4    0    0 -0.41711267785E+02 -0.29652232052E+02  0.10486062114E+02  0.52240235686E+02  0.00000000000E+00 0.  1.
        -13    1    3    3    0    0 -0.13218025647E+02  0.66232876578E+02 -0.19468842189E+03  0.20607059897E+03  0.00000000000E+00 0. -1.
         13    1    3    3    0    0  0.37758538002E+01 -0.22515202879E+02 -0.15913155270E+02  0.27828401737E+02  0.00000000000E+00 0.  1.
          1    1    1    2  501    0  0.61444237641E+01 -0.21080456096E+02  0.52147521905E+02  0.56581831125E+02  0.00000000000E+00 0. -1.
<scales pt_clust_5="13000.00000" pt_clust_6="13000.00000" pt_clust_7="13000.00000" pt_clust_8="13000.00000" pt_clust_9="21.95768"></scales>
<clustering>
<clus scale="   21.958">  1  9  2 -1</clus>
<clus scale="   91.407">  7  8 -1 -1</clus>
<clus scale="   94.179">  5  6 -1 -1</clus>
<clus scale="  100.308">  2  7  1 -1</clus>
<clus scale="   21.958">  1  5  2 -1</clus>
</clustering>
</event>
<event>
 9    1  0.1881049E-005  0.1015944E+03  0.7546771E-02  0.1277255E+00
         -4   -1    0    0    0  501 -0.00000000000E+00  0.00000000000E+00  0.88793422536E+02  0.88793422536E+02  0.00000000000E+00 0.  1.
         21   -1    0    0  501  502  0.00000000000E+00 -0.00000000000E+00 -0.32563134446E+03  0.32563134446E+03  0.00000000000E+00 0. -1.
         23    2    1    2    0    0  0.67608743065E+02  0.22012198993E+02  0.22437705368E+01  0.11425729867E+03  0.89410383902E+02 0.  0.
         23    2    1    2    0    0 -0.73280556430E+01  0.28700687882E+02 -0.85836280603E+02  0.12786043299E+03  0.90016628310E+02 0.  0.
        -13    1    3    3    0    0  0.51499405620E+02 -0.27796113880E+02  0.14923920009E+02  0.60394835164E+02  0.00000000000E+00 0.  1.
         13    1    3    3    0    0  0.16109337445E+02  0.49808312873E+02 -0.12680149472E+02  0.53862463505E+02  0.00000000000E+00 0. -1.
        -13    1    4    4    0    0  0.21410171878E+02 -0.25525852321E+02 -0.32698820300E+02  0.46681660698E+02  0.00000000000E+00 0.  1.
         13    1    4    4    0    0 -0.28738227521E+02  0.54226540203E+02 -0.53137460303E+02  0.81178772292E+02  0.00000000000E+00 0. -1.
         -4    1    1    2    0  502 -0.60280687422E+02 -0.50712886875E+02 -0.15324541185E+03  0.17230703533E+03  0.00000000000E+00 0.  1.
<scales pt_clust_5="13000.00000" pt_clust_6="13000.00000" pt_clust_7="13000.00000" pt_clust_8="13000.00000" pt_clust_9="78.77537"></scales>
<clustering>
<clus scale="   78.775">  2  9  1 -1</clus>
<clus scale="   89.410">  5  6 -1 -1</clus>
<clus scale="   90.017">  7  8 -1 -1</clus>
<clus scale="  101.058">  1  5  2 -1</clus>
<clus scale="   78.775">  2  5  1 -1</clus>
</clustering>
</event>
<event>
 9    1  0.1881049E-005  0.1135425E+03  0.7546771E-02  0.1262693E+00
         21   -1    0    0  501  502  0.00000000000E+00  0.00000000000E+00  0.21244492014E+03  0.21244492014E+03  0.00000000000E+00 0. -1.
         -3   -1    0    0    0  501 -0.00000000000E+00 -0.00000000000E+00 -0.87576853508E+02  0.87576853508E+02  0.00000000000E+00 0.  1.
         23    2    1    2    0    0 -0.24166036050E+02 -0.25990063433E+02  0.14490691371E+02  0.98894649233E+02  0.91162990379E+02 0.  0.
         23    2    1    2    0    0 -0.92920806741E+01  0.31130881681E+02  0.36621808362E+02  0.11997444587E+03  0.10953189607E+03 0.  0.
        -11    1    4    4    0    0  0.34001697193E+01 -0.40868354012E+02  0.10431512294E+02  0.42315481357E+02  0.00000000000E+00 0.  1.
         11    1    4    4    0    0 -0.12692250393E+02  0.71999235693E+02  0.26190296068E+02  0.77658964509E+02  0.00000000000E+00 0. -1.
        -11    1    3    3    0    0  0.34480335991E+02 -0.82643596149E+01 -0.17889746496E+01  0.35502023044E+02  0.00000000000E+00 0.  1.
         11    1    3    3    0    0 -0.58646372041E+02 -0.17725703818E+02  0.16279666020E+02  0.63392626189E+02  0.00000000000E+00 0. -1.
         -3    1    1    2    0  502  0.33458116724E+02 -0.51408182481E+01  0.73755566904E+02  0.81152678553E+02  0.00000000000E+00 0.  1.
<scales pt_clust_5="13000.00000" pt_clust_6="13000.00000" pt_clust_7="13000.00000" pt_clust_8="13000.00000" pt_clust_9="33.85075"></scales>
<clustering>
<clus scale="   33.851">  1  9  2 -1</clus>
<clus scale="   91.163">  7  8 -1 -1</clus>
<clus scale="   95.945">  2  7  1 -1</clus>
<clus scale="  109.532">  5  6 -1 -1</clus>
<clus scale="   33.851">  1  5  2 -1</clus>
</clustering>
</event>
<event>
 9    1  0.1881049E-005  0.1546412E+03  0.7546771E-02  0.1194931E+00
          1   -1    0    0  502    0 -0.00000000000E+00  0.00000000000E+00  0.47104481800E+03  0.47104481800E+03  0.00000000000E+00 0. -1.
         21   -1    0    0  501  502  0.00000000000E+00 -0.00000000000E+00 -0.91655568954E+02  0.91655568954E+02  0.00000000000E+00 0. -1.
         23    2    1    2    0    0  0.10688086213E+03 -0.32304780836E+02  0.24691853084E+03  0.28579965736E+03  0.90805097451E+02 0.  0.
         23    2    1    2    0    0 -0.14272337045E+03  0.62101531818E+02  0.14174552467E+03  0.22937648518E+03  0.91078084430E+02 0.  0.
        -13    1    3    3    0    0 -0.12988455488E+02 -0.16971931622E+02  0.23302585360E+02  0.31618932989E+02  0.00000000000E+00 0.  1.
         13    1    3    3    0    0  0.11986931761E+03 -0.15332849214E+02  0.22361594548E+03  0.25418072437E+03  0.00000000000E+00 0. -1.
        -13    1    4    4    0    0 -0.88724168948E+02  0.79618832081E+02  0.71308334577E+02  0.13891009739E+03  0.00000000000E+00 0. -1.
         13    1    4    4    0    0 -0.53999201503E+02 -0.17517300262E+02  0.70437190097E+02  0.90466387792E+02  0.00000000000E+00 0.  1.
          1    1    1    2  501    0  0.35842508325E+02 -0.29796750983E+02 -0.92748064615E+01  0.47524244413E+02  0.00000000000E+00 0. -1.
<scales pt_clust_5="13000.00000" pt_clust_6="13000.00000" pt_clust_7="13000.00000" pt_clust_8="13000.00000" pt_clust_9="46.61043"></scales>
<clustering>
<clus scale="   46.610">  2  9  1 -1</clus>
<clus scale="   90.805">  5  6 -1 -1</clus>
<clus scale="   91.078">  7  8 -1 -1</clus>
<clus scale="  154.481">  1  5  2 -1</clus>
<clus scale="   46.610">  2  5  1 -1</clus>
</clustering>
</event>
<event>
 9    1  0.1881049E-005  0.2817436E+03  0.7546771E-02  0.1095040E+00
         21   -1    0    0  501  502  0.00000000000E+00  0.00000000000E+00  0.18188532017E+03  0.18188532017E+03  0.00000000000E+00 0. -1.
          3   -1    0    0  502    0 -0.00000000000E+00 -0.00000000000E+00 -0.11603345828E+04  0.11603345828E+04  0.00000000000E+00 0. -1.
         23    2    1    2    0    0  0.37263059834E+02  0.29794154161E+03 -0.80283550551E+03  0.86133788071E+03  0.84855158893E+02 0.  0.
         23    2    1    2    0    0 -0.16873860376E+03 -0.13270422659E+03 -0.64333390733E+02  0.24219287530E+03  0.91844844862E+02 0.  0.
        -11    1    4    4    0    0 -0.10285922020E+03 -0.12793875532E+03 -0.63849905733E+02  0.17613958883E+03  0.00000000000E+00 0.  1.
         11    1    4    4    0    0 -0.65879383565E+02 -0.47654712733E+01 -0.48348499978E+00  0.66053286467E+02  0.00000000000E+00 0. -1.
        -13    1    3    3    0    0  0.52761590057E+02  0.22526885459E+03 -0.52466454464E+03  0.57341322502E+03  0.00000000000E+00 0. -1.
         13    1    3    3    0    0 -0.15498530223E+02  0.72672687020E+02 -0.27817096087E+03  0.28792465569E+03  0.00000000000E+00 0.  1.
          3    1    1    2  501    0  0.13147554393E+03 -0.16523731502E+03 -0.11128036637E+03  0.23868914694E+03  0.00000000000E+00 0. -1.
<scales pt_clust_5="13000.00000" pt_clust_6="13000.00000" pt_clust_7="13000.00000" pt_clust_8="13000.00000" pt_clust_9="211.16152"></scales>
<clustering>
<clus scale="   84.855">  7  8 -1 -1</clus>
<clus scale="   91.845">  5  6 -1 -1</clus>
<clus scale="  211.162">  1  9  2 -1</clus>
<clus scale="  279.543">  2  7  1 -1</clus>
<clus scale="  211.162">  1  5  2 -1</clus>
</clustering>
</event>
<event>
 9    1  0.1881049E-005  0.1308591E+03  0.7546771E-02  0.1226655E+00
          3   -1    0    0  502    0 -0.00000000000E+00  0.00000000000E+00  0.15305398484E+03  0.15305398484E+03  0.00000000000E+00 0. -1.
         21   -1    0    0  501  502  0.00000000000E+00 -0.00000000000E+00 -0.43193484603E+03  0.43193484603E+03  0.00000000000E+00 0. -1.
         23    2    1    2    0    0 -0.34043027607E+01  0.10728506847E+03  0.65546696340E+02  0.15496977204E+03  0.90540519385E+02 0.  0.
         23    2    1    2    0    0 -0.90771137074E+02 -0.42326791870E+02 -0.12769366328E+03  0.18494320918E+03  0.88698152998E+02 0.  0.
        -11    1    3    3    0    0  0.27123062702E+02  0.10644574423E+03  0.52792478116E+02  0.12187453689E+03  0.00000000000E+00 0.  1.
         11    1    3    3    0    0 -0.30527365463E+02  0.83932423905E+00  0.12754218224E+02  0.33095235152E+02  0.00000000000E+00 0. -1.
        -11    1    4    4    0    0  0.13468292717E+02 -0.24123374650E+02 -0.21287221398E+02  0.34878043352E+02  0.00000000000E+00 0.  1.
         11    1    4    4    0    0 -0.10423942979E+03 -0.18203417220E+02 -0.10640644188E+03  0.15006516583E+03  0.00000000000E+00 0. -1.
          3    1    1    2  501    0  0.94175439835E+02 -0.64958276604E+02 -0.21673389424E+03  0.24507584965E+03  0.00000000000E+00 0. -1.
<scales pt_clust_5="13000.00000" pt_clust_6="13000.00000" pt_clust_7="13000.00000" pt_clust_8="13000.00000" pt_clust_9="114.40538"></scales>
<clustering>
<clus scale="   88.698">  7  8 -1 -1</clus>
<clus scale="   90.541">  5  6 -1 -1</clus>
<clus scale="  114.405">  2  9  1 -1</clus>
<clus scale="  129.591">  2  7  1 -1</clus>
<clus scale="  114.405">  2  5  1 -1</clus>
</clustering>
</event>
<event>
 9    1  0.1881049E-005  0.9682525E+02  0.7546771E-02  0.1287564E+00
         21   -1    0    0  501  502  0.00000000000E+00  0.00000000000E+00  0.52857981300E+03  0.52857981300E+03  0.00000000000E+00 0. -1.
          1   -1    0    0  502    0 -0.00000000000E+00 -0.00000000000E+00 -0.68241192853E+02  0.68241192853E+02  0.00000000000E+00 0. -1.
         23    2    1    2    0    0  0.30263371984E+02 -0.20057134896E+02 -0.15862064144E+02  0.10005112639E+03  0.91871989579E+02 0.  0.
         23    2    1    2    0    0  0.21099354844E+01 -0.16167794245E+02  0.29356483539E+03  0.30778276395E+03  0.91016854512E+02 0.  0.
        -11    1    3    3    0    0 -0.91426084144E+01 -0.40097397533E+02  0.17471236553E+02  0.44683695956E+02  0.00000000000E+00 0. -1.
         11    1    3    3    0    0  0.39405980399E+02  0.20040262637E+02 -0.33333300697E+02  0.55367430436E+02  0.00000000000E+00 0.  1.
        -13    1    4    4    0    0 -0.31523948335E+02  0.14777655630E+02  0.20686168334E+03  0.20977105248E+03  0.00000000000E+00 0.  1.
         13    1    4    4    0    0  0.33633883820E+02 -0.30945449875E+02  0.86703152055E+02  0.98011711469E+02  0.00000000000E+00 0. -1.
          1    1    1    2  501    0 -0.32373307469E+02  0.36224929141E+02  0.18263584890E+03  0.18898711552E+03  0.00000000000E+00 0. -1.
<scales pt_clust_5="13000.00000" pt_clust_6="13000.00000" pt_clust_7="13000.00000" pt_clust_8="13000.00000" pt_clust_9="48.58268"></scales>
<clustering>
<clus scale="   48.583">  1  9  2 -1</clus>
<clus scale="   91.017">  7  8 -1 -1</clus>
<clus scale="   91.872">  5  6 -1 -1</clus>
<clus scale="   96.014">  1  7  2 -1</clus>
<clus scale="   48.583">  1  5  2 -1</clus>
</clustering>
</event>
<event>
 9    1  0.1881049E-005  0.9444723E+02  0.7546771E-02  0.1299143E+00
         -1   -1    0    0    0  501 -0.00000000000E+00  0.00000000000E+00  0.61793500369E+02  0.61793500369E+02  0.00000000000E+00 0.  1.
         21   -1    0    0  501  502  0.00000000000E+00 -0.00000000000E+00 -0.28592358982E+03  0.28592358982E+03  0.00000000000E+00 0.  1.
         23    2    1    2    0    0  0.43106280203E+02  0.50514859014E+02 -0.75070169286E+02  0.13466051853E+03  0.89933434044E+02 0.  0.
         23    2    1    2    0    0 -0.41569670320E+01  0.11319267090E+02 -0.77588371784E+02  0.11083773595E+03  0.78228141299E+02 0.  0.
        -13    1    4    4    0    0 -0.23965375778E+02  0.27788426651E+02 -0.93047286037E+01  0.37856490412E+02  0.00000000000E+00 0.  1.
         13    1    4    4    0    0  0.19808408746E+02 -0.16469159561E+02 -0.68283643181E+02  0.72981245534E+02  0.00000000000E+00 0. -1.
        -13    1    3    3    0    0  0.40147937626E+02 -0.17278235506E+02 -0.33643998035E+02  0.55157165642E+02  0.00000000000E+00 0. -1.
         13    1    3    3    0    0  0.29583425765E+01  0.67793094520E+02 -0.41426171251E+02  0.79503352885E+02  0.00000000000E+00 0.  1.
         -1    1    1    2    0  502 -0.38949313171E+02 -0.61834126104E+02 -0.71471548382E+02  0.10221883572E+03  0.00000000000E+00 0.  1.
<scales pt_clust_5="13000.00000" pt_clust_6="13000.00000" pt_clust_7="13000.00000" pt_clust_8="13000.00000" pt_clust_9="73.07878"></scales>
<clustering>
<clus scale="   73.079">  2  9  1 -1</clus>
<clus scale="   78.228">  5  6 -1 -1</clus>
<clus scale="   83.378">  2  5  1 -1</clus>
<clus scale="   89.933">  7  8 -1 -1</clus>
<clus scale="   73.079">  2  5  1 -1</clus>
</clustering>
</event>
<event>
 9    1  0.1881049E-005  0.1055480E+03  0.7546771E-02  0.1274032E+00
          2   -1    0    0  502    0 -0.00000000000E+00  0.00000000000E+00  0.21801451389E+03  0.21801451389E+03  0.00000000000E+00 0. -1.
         21   -1    0    0  501  502  0.00000000000E+00 -0.00000000000E+00 -0.68062166361E+02  0.68062166361E+02  0.00000000000E+00 0. -1.
         23    2    1    2    0    0  0.26753991061E+02  0.30477569380E+02  0.99988270960E+02  0.14738356727E+03  0.10039722754E+03 0.  0.
         23    2    1    2    0    0 -0.25733285817E+02 -0.72734542492E+01  0.61892395879E+02  0.11258262467E+03  0.90161375183E+02 0.  0.
        -11    1    4    4    0    0 -0.27184092797E+02  0.17342382834E+02  0.77127969594E+02  0.83596990600E+02  0.00000000000E+00 0.  1.
         11    1    4    4    0    0  0.14508069808E+01 -0.24615837083E+02 -0.15235573715E+02  0.28985634073E+02  0.00000000000E+00 0. -1.
        -11    1    3    3    0    0 -0.15154945303E+02  0.53662993930E+02  0.32227470827E+02  0.64404962236E+02  0.00000000000E+00 0. -1.
         11    1    3    3    0    0  0.41908936364E+02 -0.23185424550E+02  0.67760800133E+02  0.82978605034E+02  0.00000000000E+00 0.  1.
          2    1    1    2  501    0 -0.10207052445E+01 -0.23204115131E+02 -0.11928319310E+02  0.26110488310E+02  0.00000000000E+00 0. -1.
<scales pt_clust_5="13000.00000" pt_clust_6="13000.00000" pt_clust_7="13000.00000" pt_clust_8="13000.00000" pt_clust_9="23.22655"></scales>
<clustering>
<clus scale="   23.227">  2  9  1 -1</clus>
<clus scale="   90.161">  5  6 -1 -1</clus>
<clus scale="   95.864">  2  5  1 -1</clus>
<clus scale="  100.397">  7  8 -1 -1</clus>
<clus scale="   23.227">  2  5  1 -1</clus>
</clustering>
</event>
<event>
 9    1  0.1881049E-005  0.1076919E+03  0.7546771E-02  0.1266026E+00
          1   -1    0    0  502    0 -0.00000000000E+00  0.00000000000E+00  0.59311371694E+03  0.59311371694E+03  0.00000000000E+00 0. -1.
         21   -1    0    0  501  502  0.00000000000E+00 -0.00000000000E+00 -0.37041133099E+02  0.37041133099E+02  0.00000000000E+00 0. -1.
         23    2    1    2    0    0  0.63830839600E+02  0.10786141294E+01  0.34401098054E+03  0.36091035439E+03  0.88527903395E+02 0.  0.
         23    2    1    2    0    0 -0.47245948870E+02 -0.13323510147E+02  0.22299778216E+03  0.24590791306E+03  0.91285241158E+02 0.  0.
        -11    1    3    3    0    0 -0.11111328436E+02  0.26490135816E+02  0.11800190385E+03  0.12144808861E+03  0.00000000000E+00 0.  1.
         11    1    3    3    0    0  0.74942168036E+02 -0.25411521687E+02  0.22600907670E+03  0.23946226578E+03  0.00000000000E+00 0. -1.
        -13    1    4    4    0    0 -0.61028235864E+02  0.22559031314E+02  0.13383292248E+03  0.14881064010E+03  0.00000000000E+00 0.  1.
         13    1    4    4    0    0  0.13782286994E+02 -0.35882541461E+02  0.89164859674E+02  0.97097272964E+02  0.00000000000E+00 0. -1.
          1    1    1    2  501    0 -0.16584890730E+02  0.12244896017E+02 -0.10936178854E+02  0.23336582589E+02  0.00000000000E+00 0. -1.
<scales pt_clust_5="13000.00000" pt_clust_6="13000.00000" pt_clust_7="13000.00000" pt_clust_8="13000.00000" pt_clust_9="20.61543"></scales>
<clustering>
<clus scale="   20.615">  2  9  1 -1</clus>
<clus scale="   88.528">  5  6 -1 -1</clus>
<clus scale="   91.285">  7  8 -1 -1</clus>
<clus scale="  105.365">  1  5  2 -1</clus>
<clus scale="   20.615">  2  5  1 -1</clus>
</clustering>
</event>
<event>
 9    1  0.1881049E-005  0.1561434E+03  0.7546771E-02  0.1195669E+00
         21   -1    0    0  501  502  0.00000000000E+00  0.00000000000E+00  0.10664641694E+03  0.10664641694E+03  0.00000000000E+00 0. -1.
          2   -1    0    0  502    0 -0.00000000000E+00 -0.00000000000E+00 -0.95865947049E+03  0.95865947049E+03  0.00000000000E+00 0. -1.
         23    2    1    2    0    0 -0.94782841839E+02  0.82110119930E+01 -0.40154188808E+03  0.42376933178E+03  0.96402027200E+02 0.  0.
         23    2    1    2    0    0  0.12445469530E+03 -0.58302803755E+02 -0.52120615499E+03  0.54992299097E+03  0.10895527472E+03 0.  0.
        -11    1    4    4    0    0  0.12619725575E+03 -0.95060221102E+01 -0.37694177215E+03  0.39761943037E+03  0.00000000000E+00 0. -1.
         11    1    4    4    0    0 -0.17425604457E+01 -0.48796781645E+02 -0.14426438284E+03  0.15230356060E+03  0.00000000000E+00 0.  1.
        -13    1    3    3    0    0 -0.27033501017E+02  0.10243274340E+02 -0.17502590679E+02  0.33794607956E+02  0.00000000000E+00 0.  1.
         13    1    3    3    0    0 -0.67749340823E+02 -0.20322623472E+01 -0.38403929741E+03  0.38997472383E+03  0.00000000000E+00 0. -1.
          2    1    1    2  501    0 -0.29671853464E+02  0.50091791762E+02  0.70734989521E+02  0.91613564675E+02  0.00000000000E+00 0. -1.
<scales pt_clust_5="13000.00000" pt_clust_6="13000.00000" pt_clust_7="13000.00000" pt_clust_8="13000.00000" pt_clust_9="58.22033"></scales>
<clustering>
<clus scale="   58.220">  1  9  2 -1</clus>
<clus scale="   96.402">  7  8 -1 -1</clus>
<clus scale="  108.955">  5  6 -1 -1</clus>
<clus scale="  147.658">  2  7  1 -1</clus>
<clus scale="   58.220">  1  5  2 -1</clus>
</clustering>
</event>
<event>
 9    1  0.1881049E-005  0.9409563E+02  0.7546771E-02  0.1294238E+00
          2   -1    0    0  502    0 -0.00000000000E+00  0.00000000000E+00  0.18014460101E+03  0.18014460101E+03  0.00000000000E+00 0. -1.
         21   -1    0    0  501  502  0.00000000000E+00 -0.00000000000E+00 -0.69012053224E+02  0.69012053224E+02  0.00000000000E+00 0.  1.
         23    2    1    2    0    0  0.15523165564E+02  0.22042742397E+01  0.87802047779E+02  0.12833711811E+03  0.92278864301E+02 0.  0.
         23    2    1    2    0    0 -0.21221511348E+02  0.18838515132E+02  0.27250297072E+02  0.98669255347E+02  0.90486468955E+02 0.  0.
        -11    1    3    3    0    0  0.44914532409E+01 -0.44378304665E+02  0.52301911848E+02  0.68739341429E+02  0.00000000000E+00 0. -1.
         11    1    3    3    0    0  0.11031712323E+02  0.46582578905E+02  0.35500135931E+02  0.59597776681E+02  0.00000000000E+00 0.  1.
        -11    1    4    4    0    0 -0.55095746183E+02 -0.80092747333E+00  0.10557984425E+02  0.56103955007E+02  0.00000000000E+00 0. -1.
         11    1    4    4    0    0  0.33874234835E+02  0.19639442605E+02  0.16692312647E+02  0.42565300340E+02  0.00000000000E+00 0.  1.
          2    1    1    2  501    0  0.56983457837E+01 -0.21042789372E+02 -0.39197970689E+01  0.22150280772E+02  0.00000000000E+00 0. -1.
<scales pt_clust_5="13000.00000" pt_clust_6="13000.00000" pt_clust_7="13000.00000" pt_clust_8="13000.00000" pt_clust_9="21.80069"></scales>
<clustering>
<clus scale="   21.801">  2  9  1 -1</clus>
<clus scale="   90.486">  7  8 -1 -1</clus>
<clus scale="   92.279">  5  6 -1 -1</clus>
<clus scale="   92.339">  2  7  1 -1</clus>
<clus scale="   21.801">  2  5  1 -1</clus>
</clustering>
</event>
<event>
 9    1  0.1881049E-005  0.2410441E+03  0.7546771E-02  0.1119379E+00
         21   -1    0    0  501  502  0.00000000000E+00  0.00000000000E+00  0.13519644945E+04  0.13519644945E+04  0.00000000000E+00 0. -1.
          3   -1    0    0  502    0 -0.00000000000E+00 -0.00000000000E+00 -0.11521250968E+03  0.11521250968E+03  0.00000000000E+00 0. -1.
         23    2    1    2    0    0 -0.26744125997E+02 -0.21493122182E+03  0.89875748821E+02  0.25033724843E+03  0.87637944616E+02 0.  0.
         23    2    1    2    0    0  0.11869362208E+03  0.24455790152E+03  0.10050862098E+04  0.10452680171E+04  0.92142255871E+02 0.  0.
        -11    1    3    3    0    0 -0.16590237757E+02 -0.15972262545E+03  0.10541594638E+03  0.19209131896E+03  0.00000000000E+00 0. -1.
         11    1    3    3    0    0 -0.10153888240E+02 -0.55208596366E+02 -0.15540197557E+02  0.58245929465E+02  0.00000000000E+00 0.  1.
        -11    1    4    4    0    0  0.10306923067E+03  0.15218345419E+03  0.78196107341E+03  0.80327217702E+03  0.00000000000E+00 0. -1.
         11    1    4    4    0    0  0.15624391403E+02  0.92374447333E+02  0.22312513638E+03  0.24199584007E+03  0.00000000000E+00 0.  1.
          3    1    1    2  501    0 -0.91949496080E+02 -0.29626679704E+02  0.14179002624E+03  0.17157173870E+03  0.00000000000E+00 0. -1.
<scales pt_clust_5="13000.00000" pt_clust_6="13000.00000" pt_clust_7="13000.00000" pt_clust_8="13000.00000" pt_clust_9="96.60465"></scales>
<clustering>
<clus scale="   87.638">  5  6 -1 -1</clus>
<clus scale="   92.142">  7  8 -1 -1</clus>
<clus scale="   96.605">  1  9  2 -1</clus>
<clus scale="  239.358">  2  5  1 -1</clus>
<clus scale="   96.605">  1  5  2 -1</clus>
</clustering>
</event>
<event>
 9    1  0.1881049E-005  0.1126657E+03  0.7546771E-02  0.1256621E+00
         21   -1    0    0  501  502  0.00000000000E+00  0.00000000000E+00  0.14749797384E+03  0.14749797384E+03  0.00000000000E+00 0. -1.
         -4   -1    0    0    0  501 -0.00000000000E+00 -0.00000000000E+00 -0.25464864721E+03  0.25464864721E+03  0.00000000000E+00 0.  1.
         23    2    1    2    0    0  0.20045194514E+02  0.61369304913E+02 -0.15721014780E+03  0.19238620782E+03  0.90163301736E+02 0.  0.
         23    2    1    2    0    0 -0.59023974310E+02 -0.42944950614E+02 -0.27441994281E+02  0.12107400076E+03  0.92616155626E+02 0.  0.
        -11    1    3    3    0    0  0.46550141993E+02  0.12815307091E+02 -0.10818870795E+03  0.11847339086E+03  0.00000000000E+00 0.  1.
         11    1    3    3    0    0 -0.26504947479E+02  0.48553997822E+02 -0.49021439853E+02  0.73912816958E+02  0.00000000000E+00 0. -1.
        -13    1    4    4    0    0 -0.28784651304E+02  0.12545991944E+02 -0.45560262522E+02  0.55332590628E+02  0.00000000000E+00 0. -1.
         13    1    4    4    0    0 -0.30239323007E+02 -0.55490942558E+02  0.18118268241E+02  0.65741410130E+02  0.00000000000E+00 0.  1.
         -4    1    1    2    0  502  0.38978779796E+02 -0.18424354299E+02  0.77501468708E+02  0.88686412475E+02  0.00000000000E+00 0.  1.
<scales pt_clust_5="13000.00000" pt_clust_6="13000.00000" pt_clust_7="13000.00000" pt_clust_8="13000.00000" pt_clust_9="43.11383"></scales>
<clustering>
<clus scale="   43.114">  1  9  2 -1</clus>
<clus scale="   90.163">  5  6 -1 -1</clus>
<clus scale="   92.616">  7  8 -1 -1</clus>
<clus scale="  110.658">  2  5  1 -1</clus>
<clus scale="   43.114">  1  5  2 -1</clus>
</clustering>
</event>
<event>
 9    1  0.1881049E-005  0.1029747E+03  0.7546771E-02  0.1280295E+00
         21   -1    0    0  501  502  0.00000000000E+00  0.00000000000E+00  0.45970829379E+03  0.45970829379E+03  0.00000000000E+00 0.  1.
         -4   -1    0    0    0  501 -0.00000000000E+00 -0.00000000000E+00 -0.32297505101E+02  0.32297505101E+02  0.00000000000E+00 0.  1.
         23    2    1    2    0    0 -0.54804777114E+01 -0.47275865947E+01  0.11311482491E+03  0.14504359760E+03  0.90500253474E+02 0.  0.
         23    2    1    2    0    0  0.23430880645E+02 -0.27431517671E+02  0.20791135011E+03  0.23438284716E+03  0.10201321094E+03 0.  0.
        -13    1    3    3    0    0 -0.11701326828E+02 -0.39660628612E+02  0.98205051664E+02  0.10655570695E+03  0.00000000000E+00 0.  1.
         13    1    3    3    0    0  0.62208491164E+01  0.34933042018E+02  0.14909773250E+02  0.38487890650E+02  0.00000000000E+00 0. -1.
        -13    1    4    4    0    0  0.43261942588E+02 -0.44222415070E+02  0.19648991084E+03  0.20599879304E+03  0.00000000000E+00 0.  1.
         13    1    4    4    0    0 -0.19831061943E+02  0.16790897399E+02  0.11421439273E+02  0.28384054120E+02  0.00000000000E+00 0. -1.
         -4    1    1    2    0  502 -0.17950402934E+02  0.32159104266E+02  0.10638461366E+03  0.11257935413E+03  0.00000000000E+00 0.  1.
<scales pt_clust_5="13000.00000" pt_clust_6="13000.00000" pt_clust_7="13000.00000" pt_clust_8="13000.00000" pt_clust_9="36.82967"></scales>
<clustering>
<clus scale="   36.830">  1  9  2 -1</clus>
<clus scale="   90.500">  5  6 -1 -1</clus>
<clus scale="   91.583">  2  5  1 -1</clus>
<clus scale="  102.013">  7  8 -1 -1</clus>
<clus scale="   36.830">  1  5  2 -1</clus>
</clustering>
</event>
<event>
 9    1  0.1881049E-005  0.9932770E+02  0.7546771E-02  0.1284871E+00
         21   -1    0    0  501  502  0.00000000000E+00  0.00000000000E+00  0.70623091244E+02  0.70623091244E+02  0.00000000000E+00 0.  1.
         -3   -1    0    0    0  501 -0.00000000000E+00 -0.00000000000E+00 -0.29307563274E+03  0.29307563274E+03  0.00000000000E+00 0.  1.
         23    2    1    2    0    0 -0.38087017188E+02  0.21294047290E+02 -0.17513743302E+03  0.20436456916E+03  0.95852487468E+02 0.  0.
         23    2    1    2    0    0  0.64409961997E+00  0.56243066449E+01 -0.63800715155E+02  0.11036125332E+03  0.89872283212E+02 0.  0.
        -13    1    3    3    0    0 -0.22016822190E+02  0.38325954018E+02 -0.17546430925E+03  0.18094569083E+03  0.00000000000E+00 0.  1.
         13    1    3    3    0    0 -0.16070194998E+02 -0.17031906728E+02  0.32687622589E+00  0.23418878327E+02  0.00000000000E+00 0. -1.
        -13    1    4    4    0    0  0.14660193458E+02  0.27681230093E+02  0.93444267569E+01  0.32687766567E+02  0.00000000000E+00 0. -1.
         13    1    4    4    0    0 -0.14016093838E+02 -0.22056923449E+02 -0.73145141912E+02  0.77673486749E+02  0.00000000000E+00 0.  1.
         -3    1    1    2    0  502  0.37442917568E+02 -0.26918353935E+02  0.16485606680E+02  0.48972901509E+02  0.00000000000E+00 0.  1.
<scales pt_clust_5="13000.00000" pt_clust_6="13000.00000" pt_clust_7="13000.00000" pt_clust_8="13000.00000" pt_clust_9="46.11475"></scales>
<clustering>
<clus scale="   46.115">  1  9  2 -1</clus>
<clus scale="   89.872">  7  8 -1 -1</clus>
<clus scale="   93.570">  1  7  2 -1</clus>
<clus scale="   95.852">  5  6 -1 -1</clus>
<clus scale="   46.115">  1  5  2 -1</clus>
</clustering>
</event>
<event>
 9    1  0.1881049E-005  0.1105616E+03  0.7546771E-02  0.1262081E+00
         -1   -1    0    0    0  501 -0.00000000000E+00  0.00000000000E+00  0.18057424573E+03  0.18057424573E+03  0.00000000000E+00 0.  1.
         21   -1    0    0  501  502  0.00000000000E+00 -0.00000000000E+00 -0.26723915309E+03  0.26723915309E+03  0.00000000000E+00 0.  1.
         23    2    1    2    0    0 -0.34735013712E+02 -0.28006549080E+02  0.10301705503E+03  0.14825032087E+03  0.96823323848E+02 0.  0.
         23    2    1    2    0    0  0.69025078733E+02  0.10011080705E+03 -0.13216954024E+03  0.20116332552E+03  0.90616008436E+02 0.  0.
        -11    1    3    3    0    0  0.20847960591E+02  0.53322943385E+01 -0.51721536446E+01  0.22131922579E+02  0.00000000000E+00 0.  1.
         11    1    3    3    0    0 -0.55582974303E+02 -0.33338843418E+02  0.10818920868E+03  0.12611839829E+03  0.00000000000E+00 0. -1.
        -13    1    4    4    0    0  0.28719717533E+02 -0.13010226118E+02 -0.29241636654E+02  0.43001877553E+02  0.00000000000E+00 0. -1.
         13    1    4    4    0    0  0.40305361200E+02  0.11312103317E+03 -0.10292790359E+03  0.15816144797E+03  0.00000000000E+00 0.  1.
         -1    1    1    2    0  502 -0.34290065021E+02 -0.72104257973E+02 -0.57512422148E+02  0.98399752430E+02  0.00000000000E+00 0.  1.
<scales pt_clust_5="13000.00000" pt_clust_6="13000.00000" pt_clust_7="13000.00000" pt_clust_8="13000.00000" pt_clust_9="79.84255"></scales>
<clustering>
<clus scale="   79.843">  2  9  1 -1</clus>
<clus scale="   90.616">  7  8 -1 -1</clus>
<clus scale="   96.823">  5  6 -1 -1</clus>
<clus scale="  105.168">  2  7  1 -1</clus>
<clus scale="   79.843">  2  5  1 -1</clus>
</clustering>
</event>
<event>
 9    1  0.1881049E-005  0.3959598E+03  0.7546771E-02  0.1072783E+00
         21   -1    0    0  501  502  0.00000000000E+00  0.00000000000E+00  0.38968578532E+03  0.38968578532E+03  0.00000000000E+00 0.  1.
          2   -1    0    0  502    0 -0.00000000000E+00 -0.00000000000E+00 -0.10080469528E+04  0.10080469528E+04  0.00000000000E+00 0. -1.
         23    2    1    2    0    0 -0.80371161407E+02 -0.13841884282E+03 -0.24383791136E+02  0.18424066521E+03  0.87924705357E+02 0.  0.
         23    2    1    2    0    0 -0.27733633995E+03 -0.22882586686E+03  0.67144717533E+02  0.37688836965E+03  0.90882931753E+02 0.  0.
        -13    1    3    3    0    0 -0.85713128428E+02 -0.62611833095E+02 -0.20775317241E+02  0.10816004731E+03  0.00000000000E+00 0.  1.
         13    1    3    3    0    0  0.53419670207E+01 -0.75807009728E+02 -0.36084738956E+01  0.76080617896E+02  0.00000000000E+00 0. -1.
        -13    1    4    4    0    0 -0.25085790359E+03 -0.22396023814E+03  0.82002073297E+02  0.34613901266E+03  0.00000000000E+00 0.  1.
         13    1    4    4    0    0 -0.26478436365E+02 -0.48656287206E+01 -0.14857355764E+02  0.30749356993E+02  0.00000000000E+00 0. -1.
          2    1    1    2  501    0  0.35770750136E+03  0.36724470968E+03 -0.66112209390E+03  0.83660370329E+03  0.00000000000E+00 0. -1.
<scales pt_clust_5="13000.00000" pt_clust_6="13000.00000" pt_clust_7="13000.00000" pt_clust_8="13000.00000" pt_clust_9="385.38889"></scales>
<clustering>
<clus scale="   87.925">  5  6 -1 -1</clus>
<clus scale="   90.883">  7  8 -1 -1</clus>
<clus scale="  182.620">  2  5  1 -1</clus>
<clus scale="  385.389">  1  9  2 -1</clus>
<clus scale="  385.389">  1  5  2 -1</clus>
</clustering>
</event>
<event>
 9    1  0.1881049E-005  0.1514850E+03  0.7546771E-02  0.1198785E+00
          2   -1    0    0  502    0 -0.00000000000E+00  0.00000000000E+00  0.76184379830E+03  0.76184379830E+03  0.00000000000E+00 0. -1.
         21   -1    0    0  501  502  0.00000000000E+00 -0.00000000000E+00 -0.43375994986E+02  0.43375994986E+02  0.00000000000E+00 0.  1.
         23    2    1    2    0    0  0.21195654490E+02  0.10363338493E+03  0.31944474552E+03  0.34859804069E+03  0.91030293260E+02 0.  0.
         23    2    1    2    0    0 -0.74348666169E+01 -0.13887318032E+03  0.37860015363E+03  0.41362992225E+03  0.91709316811E+02 0.  0.
        -11    1    4    4    0    0 -0.13317392758E+02 -0.25900779288E+02  0.14843087294E+02  0.32688232715E+02  0.00000000000E+00 0. -1.
         11    1    4    4    0    0  0.58825261409E+01 -0.11297240104E+03  0.36375706634E+03  0.38094168953E+03  0.00000000000E+00 0.  1.
        -11    1    3    3    0    0 -0.15471907063E+02  0.42466629745E+02  0.40522557096E+02  0.60703148055E+02  0.00000000000E+00 0. -1.
         11    1    3    3    0    0  0.36667561553E+02  0.61166755182E+02  0.27892218843E+03  0.28789489264E+03  0.00000000000E+00 0.  1.
          2    1    1    2  501    0 -0.13760787873E+02  0.35239795397E+02  0.20422904157E+02  0.42991830348E+02  0.00000000000E+00 0. -1.
<scales pt_clust_5="13000.00000" pt_clust_6="13000.00000" pt_clust_7="13000.00000" pt_clust_8="13000.00000" pt_clust_9="37.83124"></scales>
<clustering>
<clus scale="   37.831">  2  9  1 -1</clus>
<clus scale="   91.030">  7  8 -1 -1</clus>
<clus scale="   91.709">  5  6 -1 -1</clus>
<clus scale="  151.075">  1  7  2 -1</clus>
<clus scale="   37.831">  2  5  1 -1</clus>
</clustering>
</event>
<event>
 9    1  0.1881049E-005  0.1337855E+03  0.7546771E-02  0.1222263E+00
         -1   -1    0    0    0  501 -0.00000000000E+00  0.00000000000E+00  0.18650225394E+03  0.18650225394E+03  0.00000000000E+00 0.  1.
         21   -1    0    0  501  502  0.00000000000E+00 -0.00000000000E+00 -0.31357292882E+03  0.31357292882E+03  0.00000000000E+00 0. -1.
         23    2    1    2    0    0  0.48371286411E+02 -0.94826355054E+02  0.12253265094E+03  0.18711752430E+03  0.93096178172E+02 0.  0.
         23    2    1    2    0    0  0.17301801630E+01  0.64528857340E+02 -0.92977653511E+02  0.14574612613E+03  0.91815697328E+02 0.  0.
        -11    1    4    4    0    0  0.34278019176E+02 -0.14651650622E+01 -0.12043089271E+02  0.36361591088E+02  0.00000000000E+00 0.  1.
         11    1    4    4    0    0 -0.32547839013E+02  0.65994022402E+02 -0.80934564240E+02  0.10938453504E+03  0.00000000000E+00 0. -1.
        -13    1    3    3    0    0  0.62610209919E+02 -0.20737955736E+02  0.55697731541E+02  0.86326927971E+02  0.00000000000E+00 0. -1.
         13    1    3    3    0    0 -0.14238923508E+02 -0.74088399319E+02  0.66834919399E+02  0.10079059632E+03  0.00000000000E+00 0.  1.
         -1    1    1    2    0  502 -0.50101466574E+02  0.30297497715E+02 -0.15662567231E+03  0.16721153233E+03  0.00000000000E+00 0.  1.
<scales pt_clust_5="13000.00000" pt_clust_6="13000.00000" pt_clust_7="13000.00000" pt_clust_8="13000.00000" pt_clust_9="58.54994"></scales>
<clustering>
<clus scale="   58.550">  2  9  1 -1</clus>
<clus scale="   91.816">  5  6 -1 -1</clus>
<clus scale="   93.096">  7  8 -1 -1</clus>
<clus scale="  132.898">  2  5  1 -1</clus>
<clus scale="   58.550">  2  5  1 -1</clus>
</clustering>
</event>
<event>
 9    1  0.1881049E-005  0.9560041E+02  0.7546771E-02  0.1291818E+00
         21   -1    0    0  501  502  0.00000000000E+00  0.00000000000E+00  0.59719025733E+02  0.59719025733E+02  0.00000000000E+00 0.  1.
          1   -1    0    0  502    0 -0.00000000000E+00 -0.00000000000E+00 -0.59706035734E+03  0.59706035734E+03  0.00000000000E+00 0. -1.
         23    2    1    2    0    0 -0.14831080289E+02  0.34929198043E+01 -0.42764680492E+03  0.43737449225E+03  0.90457146126E+02 0.  0.
         23    2    1    2    0    0  0.20808968030E+02  0.54408172403E+02 -0.11669692095E+03  0.16077635556E+03  0.94008525015E+02 0.  0.
        -11    1    4    4    0    0 -0.34160032013E+02  0.15288517883E+02 -0.18798137029E+02  0.41880980432E+02  0.00000000000E+00 0. -1.
         11    1    4    4    0    0  0.54969000043E+02  0.39119654520E+02 -0.97898783916E+02  0.11889537513E+03  0.00000000000E+00 0.  1.
        -13    1    3    3    0    0  0.33870363894E+02  0.17593523710E+02 -0.13182038104E+03  0.13723464025E+03  0.00000000000E+00 0.  1.
         13    1    3    3    0    0 -0.48701444183E+02 -0.14100603906E+02 -0.29582642388E+03  0.30013985201E+03  0.00000000000E+00 0. -1.
          1    1    1    2  501    0 -0.59778877406E+01 -0.57901092208E+02  0.70023942593E+01  0.58628535254E+02  0.00000000000E+00 0. -1.
<scales pt_clust_5="13000.00000" pt_clust_6="13000.00000" pt_clust_7="13000.00000" pt_clust_8="13000.00000" pt_clust_9="58.20886"></scales>
<clustering>
<clus scale="   58.209">  1  9  2 -1</clus>
<clus scale="   90.457">  7  8 -1 -1</clus>
<clus scale="   92.110">  2  7  1 -1</clus>
<clus scale="   94.009">  5  6 -1 -1</clus>
<clus scale="   58.209">  1  5  2 -1</clus>
</clustering>
</event>
<event>
 9    1  0.1881049E-005  0.1433835E+03  0.7546771E-02  0.1227804E+00
         21   -1    0    0  501  502  0.00000000000E+00  0.00000000000E+00  0.18816589546E+03  0.18816589546E+03  0.00000000000E+00 0. -1.
          1   -1    0    0  502    0 -0.00000000000E+00 -0.00000000000E+00 -0.25657229480E+03  0.25657229480E+03  0.00000000000E+00 0. -1.
         23    2    1    2    0    0  0.33299404319E+02 -0.29726768370E+01 -0.39977694072E+02  0.10416833305E+03  0.90195002368E+02 0.  0.
         23    2    1    2    0    0 -0.13967820437E+03 -0.15357462715E+01 -0.11576499271E+03  0.20285855743E+03  0.90761784310E+02 0.  0.
        -11    1    3    3    0    0  0.32680082023E+02  0.40801486522E+02 -0.24523647359E+02  0.57742171272E+02  0.00000000000E+00 0.  1.
         11    1    3    3    0    0  0.61932229683E+00 -0.43774163359E+02 -0.15454046713E+02  0.46426161781E+02  0.00000000000E+00 0. -1.
        -13    1    4    4    0    0 -0.12952747071E+03  0.27371935673E+02 -0.75974057492E+02  0.15263893980E+03  0.00000000000E+00 0. -1.
         13    1    4    4    0    0 -0.10150733664E+02 -0.28907681944E+02 -0.39790935221E+02  0.50219617632E+02  0.00000000000E+00 0.  1.
          1    1    1    2  501    0  0.10637880006E+03  0.45084231085E+01  0.87336287446E+02  0.13771129977E+03  0.00000000000E+00 0. -1.
<scales pt_clust_5="13000.00000" pt_clust_6="13000.00000" pt_clust_7="13000.00000" pt_clust_8="13000.00000" pt_clust_9="111.00062"></scales>
<clustering>
<clus scale="   90.195">  5  6 -1 -1</clus>
<clus scale="   90.762">  7  8 -1 -1</clus>
<clus scale="   96.192">  2  5  1 -1</clus>
<clus scale="  111.001">  1  9  2 -1</clus>
<clus scale="  111.001">  1  5  2 -1</clus>
</clustering>
</event>
<event>
 9    1  0.1881049E-005  0.3915349E+03  0.7546771E-02  0.1046807E+00
          1   -1    0    0  502    0 -0.00000000000E+00  0.00000000000E+00  0.89986158178E+03  0.89986158178E+03  0.00000000000E+00 0. -1.
         21   -1    0    0  501  502  0.00000000000E+00 -0.00000000000E+00 -0.97193413371E+03  0.97193413371E+03  0.00000000000E+00 0. -1.
         23    2    1    2    0    0  0.16787664301E+03  0.29780489323E+03  0.49868161277E+03  0.61098675524E+03  0.88040572859E+02 0.  0.
         23    2    1    2    0    0 -0.30482559224E+03 -0.44548284597E+03  0.10353534036E+03  0.55708306967E+03  0.90820548720E+02 0.  0.
        -11    1    4    4    0    0 -0.29104552245E+03 -0.37576442833E+03  0.10135313545E+03  0.48598236573E+03  0.00000000000E+00 0. -1.
         11    1    4    4    0    0 -0.13780069785E+02 -0.69718417650E+02  0.21822049132E+01  0.71100703943E+02  0.00000000000E+00 0.  1.
        -11    1    3    3    0    0  0.57173291782E+02  0.10361440976E+03  0.10468814342E+03  0.15800107144E+03  0.00000000000E+00 0.  1.
         11    1    3    3    0    0  0.11070335123E+03  0.19419048348E+03  0.39399346935E+03  0.45298568381E+03  0.00000000000E+00 0. -1.
          1    1    1    2  501    0  0.13694894922E+03  0.14767795274E+03 -0.67428950506E+03  0.70372589057E+03  0.00000000000E+00 0. -1.
<scales pt_clust_5="13000.00000" pt_clust_6="13000.00000" pt_clust_7="13000.00000" pt_clust_8="13000.00000" pt_clust_9="201.40455"></scales>
<clustering>
<clus scale="   88.041">  7  8 -1 -1</clus>
<clus scale="   90.821">  5  6 -1 -1</clus>
<clus scale="  201.405">  2  9  1 -1</clus>
<clus scale="  390.899">  1  7  2 -1</clus>
<clus scale="  201.405">  2  5  1 -1</clus>
</clustering>
</event>
<event>
 9    1  0.1881049E-005  0.1625431E+03  0.7546771E-02  0.1186152E+00
         21   -1    0    0  501  502  0.00000000000E+00  0.00000000000E+00  0.33052590443E+03  0.33052590443E+03  0.00000000000E+00 0.  1.
          2   -1    0    0  502    0 -0.00000000000E+00 -0.00000000000E+00 -0.33075300813E+03  0.33075300813E+03  0.00000000000E+00 0. -1.
         23    2    1    2    0    0  0.78914935726E+02 -0.10552736706E+03 -0.26685458973E+03  0.31206188138E+03  0.93849099483E+02 0.  0.
         23    2    1    2    0    0 -0.93429828478E+02  0.90656658418E+02  0.12032406204E+03  0.20144520721E+03  0.95679303066E+02 0.  0.
        -11    1    3    3    0    0  0.39615744192E+01 -0.58451483027E+02 -0.17480823334E+03  0.18436428175E+03  0.00000000000E+00 0. -1.
         11    1    3    3    0    0  0.74953361307E+02 -0.47075884032E+02 -0.92046356386E+02  0.12769759964E+03  0.00000000000E+00 0.  1.
        -13    1    4    4    0    0 -0.24958024065E+02 -0.43681701975E+01 -0.90725402136E+01  0.26912726767E+02  0.00000000000E+00 0. -1.
         13    1    4    4    0    0 -0.68471804413E+02  0.95024828616E+02  0.12939660226E+03  0.17453248044E+03  0.00000000000E+00 0.  1.
          2    1    1    2  501    0  0.14514892751E+02  0.14870708640E+02  0.14630342399E+03  0.14777182396E+03  0.00000000000E+00 0. -1.
<scales pt_clust_5="13000.00000" pt_clust_6="13000.00000" pt_clust_7="13000.00000" pt_clust_8="13000.00000" pt_clust_9="20.78028"></scales>
<clustering>
<clus scale="   20.780">  1  9  2 -1</clus>
<clus scale="   93.849">  5  6 -1 -1</clus>
<clus scale="   95.679">  7  8 -1 -1</clus>
<clus scale="  161.473">  2  5  1 -1</clus>
<clus scale="   20.780">  1  5  2 -1</clus>
</clustering>
</event>
<event>
 9    1  0.1881049E-005  0.1232674E+03  0.7546771E-02  0.1246923E+00
         -2   -1    0    0    0  501 -0.00000000000E+00  0.00000000000E+00  0.93880321555E+02  0.93880321555E+02  0.00000000000E+00 0.  1.
         21   -1    0    0  501  502  0.00000000000E+00 -0.00000000000E+00 -0.24295579730E+03  0.24295579730E+03  0.00000000000E+00 0. -1.
         23    2    1    2    0    0 -0.24248426030E+02  0.21575343038E+02 -0.19145368829E+02  0.11968384959E+03  0.11359664217E+03 0.  0.
         23    2    1    2    0    0  0.19325677642E+02 -0.71184007084E+02 -0.60248686330E+02  0.13147407265E+03  0.90635991168E+02 0.  0.
        -11    1    3    3    0    0  0.22576267723E+02 -0.36545634335E+02 -0.12571781038E+02  0.44758473295E+02  0.00000000000E+00 0. -1.
         11    1    3    3    0    0 -0.46824693754E+02  0.58120977373E+02 -0.65735877918E+01  0.74925376291E+02  0.00000000000E+00 0.  1.
        -13    1    4    4    0    0 -0.33596386705E+02 -0.45352565699E+02 -0.40088577985E+02  0.69229087095E+02  0.00000000000E+00 0. -1.
         13    1    4    4    0    0  0.52922064348E+02 -0.25831441385E+02 -0.20160108345E+02  0.62244985560E+02  0.00000000000E+00 0.  1.
         -2    1    1    2    0  502  0.49227483880E+01  0.49608664046E+02 -0.69681420582E+02  0.85678196610E+02  0.00000000000E+00 0.  1.
<scales pt_clust_5="13000.00000" pt_clust_6="13000.00000" pt_clust_7="13000.00000" pt_clust_8="13000.00000" pt_clust_9="49.85231"></scales>
<clustering>
<clus scale="   49.852">  2  9  1 -1</clus>
<clus scale="   90.636">  7  8 -1 -1</clus>
<clus scale="  102.497">  2  7  1 -1</clus>
<clus scale="  113.597">  5  6 -1 -1</clus>
<clus scale="   49.852">  2  5  1 -1</clus>
</clustering>
</event>
<event>
 9    1  0.1881049E-005  0.9754238E+02  0.7546771E-02  0.1286798E+00
         21   -1    0    0  501  502  0.00000000000E+00  0.00000000000E+00  0.39858367631E+02  0.39858367631E+02  0.00000000000E+00 0.  1.
          1   -1    0    0  502    0 -0.00000000000E+00 -0.00000000000E+00 -0.33831385125E+03  0.33831385125E+03  0.00000000000E+00 0. -1.
         23    2    1    2    0    0 -0.18847623456E+02  0.11207852676E+02 -0.18164661404E+03  0.20410660696E+03  0.90460851984E+02 0.  0.
         23    2    1    2    0    0  0.34139805836E+02 -0.31063783238E+02 -0.98645726145E+02  0.14311389791E+03  0.92844620293E+02 0.  0.
        -11    1    4    4    0    0  0.10866583467E+01 -0.23741238937E+02  0.12551765516E+02  0.26877017510E+02  0.00000000000E+00 0.  1.
         11    1    4    4    0    0  0.33053147490E+02 -0.73225443009E+01 -0.11119749166E+03  0.11623688040E+03  0.00000000000E+00 0. -1.
        -13    1    3    3    0    0  0.26295346802E+02  0.15930939666E+02 -0.13711628672E+03  0.14052087455E+03  0.00000000000E+00 0. -1.
         13    1    3    3    0    0 -0.45142970259E+02 -0.47230869899E+01 -0.44530327323E+02  0.63585732409E+02  0.00000000000E+00 0.  1.
          1    1    1    2  501    0 -0.15292182380E+02  0.19855930563E+02 -0.18163143432E+02  0.30951714004E+02  0.00000000000E+00 0. -1.
<scales pt_clust_5="13000.00000" pt_clust_6="13000.00000" pt_clust_7="13000.00000" pt_clust_8="13000.00000" pt_clust_9="25.06210"></scales>
<clustering>
<clus scale="   25.062">  1  9  2 -1</clus>
<clus scale="   90.461">  7  8 -1 -1</clus>
<clus scale="   92.845">  5  6 -1 -1</clus>
<clus scale="   95.276">  2  7  1 -1</clus>
<clus scale="   25.062">  1  5  2 -1</clus>
</clustering>
</event>
<event>
 9    1  0.1881049E-005  0.1037171E+03  0.7546771E-02  0.1272881E+00
          1   -1    0    0  502    0 -0.00000000000E+00  0.00000000000E+00  0.91937656833E+02  0.91937656833E+02  0.00000000000E+00 0. -1.
         21   -1    0    0  501  502  0.00000000000E+00 -0.00000000000E+00 -0.29468143315E+03  0.29468143315E+03  0.00000000000E+00 0. -1.
         23    2    1    2    0    0 -0.52448365018E+02 -0.26559952417E+02 -0.11443414571E+02  0.10959354794E+03  0.91779801415E+02 0.  0.
         23    2    1    2    0    0  0.16296897264E+02  0.38189815119E+02 -0.22023063857E+02  0.10354071300E+03  0.92258403778E+02 0.  0.
        -11    1    4    4    0    0 -0.37250488753E+02  0.99121670969E+01 -0.18832987049E+02  0.42901414546E+02  0.00000000000E+00 0. -1.
         11    1    4    4    0    0  0.53547386017E+02  0.28277648022E+02 -0.31900768084E+01  0.60639298454E+02  0.00000000000E+00 0.  1.
        -13    1    3    3    0    0 -0.60287347467E+02 -0.49105298994E+02  0.88581910690E+01  0.78258304370E+02  0.00000000000E+00 0.  1.
         13    1    3    3    0    0  0.78389824488E+01  0.22545346577E+02 -0.20301605640E+02  0.31335243571E+02  0.00000000000E+00 0. -1.
          1    1    1    2  501    0  0.36151467754E+02 -0.11629862702E+02 -0.16927729789E+03  0.17348482904E+03  0.00000000000E+00 0. -1.
<scales pt_clust_5="13000.00000" pt_clust_6="13000.00000" pt_clust_7="13000.00000" pt_clust_8="13000.00000" pt_clust_9="37.97608"></scales>
<clustering>
<clus scale="   37.976">  2  9  1 -1</clus>
<clus scale="   91.780">  7  8 -1 -1</clus>
<clus scale="   92.258">  5  6 -1 -1</clus>
<clus scale="  103.292">  1  7  2 -1</clus>
<clus scale="   37.976">  2  5  1 -1</clus>
</clustering>
</event>
<event>
 9    1  0.1881049E-005  0.1184928E+03  0.7546771E-02  0.1246278E+00
         21   -1    0    0  501  502  0.00000000000E+00  0.00000000000E+00  0.87167471298E+02  0.87167471298E+02  0.00000000000E+00 0.  1.
          1   -1    0    0  502    0 -0.00000000000E+00 -0.00000000000E+00 -0.59821594929E+03  0.59821594929E+03  0.00000000000E+00 0. -1.
         23    2    1    2    0    0  0.60863529322E+02  0.26321655417E+02 -0.38195076265E+03  0.39858252670E+03  0.92652289536E+02 0.  0.
         23    2    1    2    0    0 -0.72443312565E+02 -0.11689086230E+03 -0.87101756230E+02  0.18629948496E+03  0.90605049162E+02 0.  0.
        -11    1    3    3    0    0 -0.24733871443E+02  0.14259039911E+01 -0.86001566798E+02  0.89498978153E+02  0.00000000000E+00 0.  1.
         11    1    3    3    0    0  0.85597400766E+02  0.24895751426E+02 -0.29594919585E+03  0.30908354855E+03  0.00000000000E+00 0. -1.
        -13    1    4    4    0    0 -0.18154178326E+02 -0.58344197185E+02  0.85548274632E+01  0.61699308009E+02  0.00000000000E+00 0.  1.
         13    1    4    4    0    0 -0.54289134239E+02 -0.58546665113E+02 -0.95656583693E+02  0.12460017695E+03  0.00000000000E+00 0. -1.
          1    1    1    2  501    0  0.11579783243E+02  0.90569206882E+02 -0.41995959116E+02  0.10050140893E+03  0.00000000000E+00 0. -1.
<scales pt_clust_5="13000.00000" pt_clust_6="13000.00000" pt_clust_7="13000.00000" pt_clust_8="13000.00000" pt_clust_9="91.30648"></scales>
<clustering>
<clus scale="   90.605">  7  8 -1 -1</clus>
<clus scale="   91.306">  1  9  2 -1</clus>
<clus scale="   92.652">  5  6 -1 -1</clus>
<clus scale="  116.899">  1  7  2 -1</clus>
<clus scale="   91.306">  1  5  2 -1</clus>
</clustering>
</event>
<event>
 9    1  0.1881049E-005  0.1032581E+03  0.7546771E-02  0.1275102E+00
          2   -1    0    0  502    0 -0.00000000000E+00  0.00000000000E+00  0.25438912621E+03  0.25438912621E+03  0.00000000000E+00 0. -1.
         21   -1    0    0  501  502  0.00000000000E+00 -0.00000000000E+00 -0.24417931023E+03  0.24417931023E+03  0.00000000000E+00 0.  1.
         23    2    1    2    0    0  0.28044713673E+02  0.33732580538E+02  0.21496564266E+03  0.23831643257E+03  0.93059666646E+02 0.  0.
         23    2    1    2    0    0 -0.57475266298E+02 -0.31105598184E+02 -0.20208843966E+03  0.23058428711E+03  0.89768655667E+02 0.  0.
        -13    1    3    3    0    0  0.35261807206E+02 -0.71393758503E+01  0.24854975924E+02  0.43727972319E+02  0.00000000000E+00 0.  1.
         13    1    3    3    0    0 -0.72170935324E+01  0.40871956389E+02  0.19011066673E+03  0.19458846025E+03  0.00000000000E+00 0. -1.
        -13    1    4    4    0    0 -0.42177571125E+02  0.33767981779E+01 -0.24208616935E+02  0.48748409265E+02  0.00000000000E+00 0.  1.
         13    1    4    4    0    0 -0.15297695173E+02 -0.34482396362E+02 -0.17787982273E+03  0.18183587784E+03  0.00000000000E+00 0. -1.
          2    1    1    2  501    0  0.29430552625E+02 -0.26269823541E+01 -0.26673870133E+01  0.29667716757E+02  0.00000000000E+00 0. -1.
<scales pt_clust_5="13000.00000" pt_clust_6="13000.00000" pt_clust_7="13000.00000" pt_clust_8="13000.00000" pt_clust_9="29.54756"></scales>
<clustering>
<clus scale="   29.548">  2  9  1 -1</clus>
<clus scale="   89.769">  7  8 -1 -1</clus>
<clus scale="   93.060">  5  6 -1 -1</clus>
<clus scale="  100.302">  2  7  1 -1</clus>
<clus scale="   29.548">  2  5  1 -1</clus>
</clustering>
</event>
<event>
 9    1  0.1881049E-005  0.2452136E+03  0.7546771E-02  0.1116393E+00
         21   -1    0    0  501  502  0.00000000000E+00  0.00000000000E+00  0.33157119792E+03  0.33157119792E+03  0.00000000000E+00 0. -1.
         -1   -1    0    0    0  501 -0.00000000000E+00 -0.00000000000E+00 -0.24903145125E+03  0.24903145125E+03  0.00000000000E+00 0.  1.
         23    2    1    2    0    0  0.16876053214E+03  0.11851023172E+03  0.15927221352E+01  0.22586755001E+03  0.92134798820E+02 0.  0.
         23    2    1    2    0    0 -0.21035190299E+03 -0.14073681160E+03  0.97948093258E+01  0.26937409687E+03  0.91715279757E+02 0.  0.
        -11    1    3    3    0    0  0.14523978366E+03  0.10920807208E+03 -0.31280859245E+02  0.18438950599E+03  0.00000000000E+00 0.  1.
         11    1    3    3    0    0  0.23520748488E+02  0.93021596425E+01  0.32873581380E+02  0.41478044026E+02  0.00000000000E+00 0. -1.
        -11    1    4    4    0    0 -0.69681989437E+02  0.63494101659E+00 -0.28271108305E+00  0.69685455639E+02  0.00000000000E+00 0.  1.
         11    1    4    4    0    0 -0.14066991355E+03 -0.14137175262E+03  0.10077520409E+02  0.19968864123E+03  0.00000000000E+00 0. -1.
         -1    1    1    2    0  502  0.41591370845E+02  0.22226579881E+02  0.71152215217E+02  0.85361002292E+02  0.00000000000E+00 0.  1.
<scales pt_clust_5="13000.00000" pt_clust_6="13000.00000" pt_clust_7="13000.00000" pt_clust_8="13000.00000" pt_clust_9="47.15785"></scales>
<clustering>
<clus scale="   47.158">  1  9  2 -1</clus>
<clus scale="   91.715">  7  8 -1 -1</clus>
<clus scale="   92.135">  5  6 -1 -1</clus>
<clus scale="  245.056">  1  7  2 -1</clus>
<clus scale="   47.158">  1  5  2 -1</clus>
</clustering>
</event>
<event>
 9    1  0.1881049E-005  0.9751706E+02  0.7546771E-02  0.1287317E+00
         21   -1    0    0  501  502  0.00000000000E+00  0.00000000000E+00  0.38976326788E+03  0.38976326788E+03  0.00000000000E+00 0.  1.
          2   -1    0    0  502    0 -0.00000000000E+00 -0.00000000000E+00 -0.58321139261E+02  0.58321139261E+02  0.00000000000E+00 0. -1.
         23    2    1    2    0    0 -0.14353096837E+02  0.60937607282E+01  0.21400298590E+02  0.97669242891E+02  0.94011504182E+02 0.  0.
         23    2    1    2    0    0  0.46304564166E+02 -0.22881148412E+02  0.12989071256E+03  0.16668400800E+03  0.90798137095E+02 0.  0.
        -11    1    3    3    0    0 -0.80994306266E+01 -0.41685133953E+02  0.25122029334E+02  0.49339310160E+02  0.00000000000E+00 0.  1.
         11    1    3    3    0    0 -0.62536662099E+01  0.47778894682E+02 -0.37217307440E+01  0.48329932731E+02  0.00000000000E+00 0. -1.
        -13    1    4    4    0    0  0.61677425661E+02 -0.24644155240E+01  0.40780486979E+02  0.73981256398E+02  0.00000000000E+00 0. -1.
         13    1    4    4    0    0 -0.15372861495E+02 -0.20416732888E+02  0.89110225579E+02  0.92702751605E+02  0.00000000000E+00 0.  1.
          2    1    1    2  501    0 -0.31951467329E+02  0.16787387684E+02  0.18015111747E+03  0.18373115625E+03  0.00000000000E+00 0. -1.
<scales pt_clust_5="13000.00000" pt_clust_6="13000.00000" pt_clust_7="13000.00000" pt_clust_8="13000.00000" pt_clust_9="36.09311"></scales>
<clustering>
<clus scale="   36.093">  1  9  2 -1</clus>
<clus scale="   90.798">  7  8 -1 -1</clus>
<clus scale="   94.012">  5  6 -1 -1</clus>
<clus scale="   94.423">  1  7  2 -1</clus>
<clus scale="   36.093">  1  5  2 -1</clus>
</clustering>
</event>
<event>
 9    1  0.1881049E-005  0.2036071E+03  0.7546771E-02  0.1146962E+00
         21   -1    0    0  501  502  0.00000000000E+00  0.00000000000E+00  0.53453676099E+03  0.53453676099E+03  0.00000000000E+00 0.  1.
         -1   -1    0    0    0  501 -0.00000000000E+00 -0.00000000000E+00 -0.14709375882E+03  0.14709375882E+03  0.00000000000E+00 0.  1.
         23    2    1    2    0    0 -0.11923610835E+03  0.20989393292E+03  0.98768021764E+02  0.27628964159E+03  0.91148951266E+02 0.  0.
         23    2    1    2    0    0  0.36343247101E+02 -0.10638903738E+03  0.19128777121E+03  0.24081501896E+03  0.93602366728E+02 0.  0.
        -13    1    3    3    0    0 -0.30333418207E+02  0.10517493527E+02  0.37885420109E+02  0.49659228619E+02  0.00000000000E+00 0. -1.
         13    1    3    3    0    0 -0.88902690140E+02  0.19937643940E+03  0.60882601655E+02  0.22663041297E+03  0.00000000000E+00 0.  1.
        -13    1    4    4    0    0  0.20161008481E+02 -0.80694131369E+02  0.19324654657E+03  0.21038592363E+03  0.00000000000E+00 0.  1.
         13    1    4    4    0    0  0.16182238620E+02 -0.25694906012E+02 -0.19587753582E+01  0.30429095331E+02  0.00000000000E+00 0. -1.
         -1    1    1    2    0  502  0.82892861246E+02 -0.10350489554E+03  0.97387209198E+02  0.16452585925E+03  0.00000000000E+00 0.  1.
<scales pt_clust_5="13000.00000" pt_clust_6="13000.00000" pt_clust_7="13000.00000" pt_clust_8="13000.00000" pt_clust_9="132.60652"></scales>
<clustering>
<clus scale="   91.149">  5  6 -1 -1</clus>
<clus scale="   93.602">  7  8 -1 -1</clus>
<clus scale="  132.607">  1  9  2 -1</clus>
<clus scale="  202.491">  2  5  1 -1</clus>
<clus scale="  132.607">  1  5  2 -1</clus>
</clustering>
</event>
<event>
 9    1  0.1881049E-005  0.1775830E+03  0.7546771E-02  0.1170525E+00
         21   -1    0    0  501  502  0.00000000000E+00  0.00000000000E+00  0.37798913544E+03  0.37798913544E+03  0.00000000000E+00 0.  1.
          2   -1    0    0  502    0 -0.00000000000E+00 -0.00000000000E+00 -0.14995511575E+03  0.14995511575E+03  0.00000000000E+00 0. -1.
         23    2    1    2    0    0 -0.10714474675E+03 -0.87889694259E+02  0.11385027178E+02  0.16755343335E+03  0.93487641275E+02 0.  0.
         23    2    1    2    0    0  0.14166059142E+03  0.93705967882E+02  0.62665128323E+02  0.20247880752E+03  0.90676444631E+02 0.  0.
        -11    1    3    3    0    0 -0.16295357395E+01 -0.20805468596E+02 -0.29382968678E+02  0.36040002200E+02  0.00000000000E+00 0.  1.
         11    1    3    3    0    0 -0.10551521101E+03 -0.67084225663E+02  0.40767995856E+02  0.13151343115E+03  0.00000000000E+00 0. -1.
        -13    1    4    4    0    0  0.14944575858E+03  0.68659343800E+02  0.43877849505E+02  0.17021576286E+03  0.00000000000E+00 0.  1.
         13    1    4    4    0    0 -0.77851671614E+01  0.25046624083E+02  0.18787278818E+02  0.32263044665E+02  0.00000000000E+00 0. -1.
          2    1    1    2  501    0 -0.34515844668E+02 -0.58162736230E+01  0.15398386418E+03  0.15791201031E+03  0.00000000000E+00 0. -1.
<scales pt_clust_5="13000.00000" pt_clust_6="13000.00000" pt_clust_7="13000.00000" pt_clust_8="13000.00000" pt_clust_9="35.00247"></scales>
<clustering>
<clus scale="   35.002">  1  9  2 -1</clus>
<clus scale="   90.676">  7  8 -1 -1</clus>
<clus scale="   93.488">  5  6 -1 -1</clus>
<clus scale="  176.119">  1  7  2 -1</clus>
<clus scale="   35.002">  1  5  2 -1</clus>
</clustering>
</event>
<event>
 9    1  0.1881049E-005  0.1396482E+03  0.7546771E-02  0.1232896E+00
          2   -1    0    0  502    0 -0.00000000000E+00  0.00000000000E+00  0.80963029338E+03  0.80963029338E+03  0.00000000000E+00 0. -1.
         21   -1    0    0  501  502  0.00000000000E+00 -0.00000000000E+00 -0.86975893540E+02  0.86975893540E+02  0.00000000000E+00 0. -1.
         23    2    1    2    0    0 -0.34955163892E+01  0.20743217300E+02  0.27576485664E+03  0.29125963767E+03  0.91342326860E+02 0.  0.
         23    2    1    2    0    0  0.56036107054E+02 -0.11058371823E+03  0.47350246241E+03  0.49792180003E+03  0.91393287563E+02 0.  0.
        -11    1    3    3    0    0 -0.46397072779E+02  0.18586075569E+02  0.16701693035E+03  0.17433526778E+03  0.00000000000E+00 0.  1.
         11    1    3    3    0    0  0.42901556390E+02  0.21571417304E+01  0.10874792629E+03  0.11692436989E+03  0.00000000000E+00 0. -1.
        -13    1    4    4    0    0  0.77427742006E+01 -0.85248996593E+02  0.17902498834E+03  0.19843711453E+03  0.00000000000E+00 0.  1.
         13    1    4    4    0    0  0.48293332854E+02 -0.25334721635E+02  0.29447747407E+03  0.29948468551E+03  0.00000000000E+00 0. -1.
          2    1    1    2  501    0 -0.52540590665E+02  0.89840500928E+02 -0.26612919217E+02  0.10742474921E+03  0.00000000000E+00 0. -1.
<scales pt_clust_5="13000.00000" pt_clust_6="13000.00000" pt_clust_7="13000.00000" pt_clust_8="13000.00000" pt_clust_9="105.58833"></scales>
<clustering>
<clus scale="   91.342">  5  6 -1 -1</clus>
<clus scale="   91.393">  7  8 -1 -1</clus>
<clus scale="   93.733">  1  5  2 -1</clus>
<clus scale="  105.588">  2  9  1 -1</clus>
<clus scale="  105.588">  2  5  1 -1</clus>
</clustering>
</event>
<event>
 9    1  0.1881049E-005  0.9636863E+02  0.7546771E-02  0.1288629E+00
         21   -1    0    0  501  502  0.00000000000E+00  0.00000000000E+00  0.24203277221E+02  0.24203277221E+02  0.00000000000E+00 0.  1.
          2   -1    0    0  502    0 -0.00000000000E+00 -0.00000000000E+00 -0.56402009870E+03  0.56402009870E+03  0.00000000000E+00 0. -1.
         23    2    1    2    0    0 -0.42769942799E+02 -0.96109678982E+01 -0.28375721349E+03  0.30115664469E+03  0.90859945643E+02 0.  0.
         23    2    1    2    0    0  0.14120955232E+02  0.60099585651E+00 -0.22701261398E+03  0.24528549207E+03  0.91817662470E+02 0.  0.
        -11    1    4    4    0    0 -0.22653189988E+02  0.21025139265E+02 -0.17814698589E+03  0.18080810844E+03  0.00000000000E+00 0. -1.
         11    1    4    4    0    0  0.36774145219E+02 -0.20424143409E+02 -0.48865628092E+02  0.64477383627E+02  0.00000000000E+00 0.  1.
        -13    1    3    3    0    0 -0.10810490286E+02 -0.47705299759E+02 -0.10919625074E+03  0.11965150856E+03  0.00000000000E+00 0.  1.
         13    1    3    3    0    0 -0.31959452513E+02  0.38094331861E+02 -0.17456096275E+03  0.18150513613E+03  0.00000000000E+00 0. -1.
          2    1    1    2  501    0  0.28648987568E+02  0.90099720417E+01 -0.29046994007E+02  0.41781239159E+02  0.00000000000E+00 0. -1.
<scales pt_clust_5="13000.00000" pt_clust_6="13000.00000" pt_clust_7="13000.00000" pt_clust_8="13000.00000" pt_clust_9="30.03238"></scales>
<clustering>
<clus scale="   30.032">  1  9  2 -1</clus>
<clus scale="   90.860">  7  8 -1 -1</clus>
<clus scale="   91.818">  5  6 -1 -1</clus>
<clus scale="   95.457">  2  7  1 -1</clus>
<clus scale="   30.032">  1  5  2 -1</clus>
</clustering>
</event>
<event>
 9    1  0.1881049E-005  0.1040699E+03  0.7546771E-02  0.1273050E+00
         21   -1    0    0  501  502  0.00000000000E+00  0.00000000000E+00  0.47643153711E+03  0.47643153711E+03  0.00000000000E+00 0. -1.
         -3   -1    0    0    0  501 -0.00000000000E+00 -0.00000000000E+00 -0.39212542237E+02  0.39212542237E+02  0.00000000000E+00 0.  1.
         23    2    1    2    0    0 -0.52446553502E+02 -0.17142976371E+02  0.82832718839E+02  0.13487451956E+03  0.91023920502E+02 0.  0.
         23    2    1    2    0    0  0.22407390913E+02  0.20524133704E+02  0.19290942369E+03  0.21648761508E+03  0.93431849507E+02 0.  0.
        -11    1    4    4    0    0 -0.16578495970E+02  0.46994339713E+02  0.11657727626E+03  0.12678160684E+03  0.00000000000E+00 0.  1.
         11    1    4    4    0    0  0.38985886883E+02 -0.26470206009E+02  0.76332147431E+02  0.89706008236E+02  0.00000000000E+00 0. -1.
        -13    1    3    3    0    0 -0.66500923249E+02  0.17581740494E+02  0.49682967450E+02  0.84852151690E+02  0.00000000000E+00 0.  1.
         13    1    3    3    0    0  0.14054369747E+02 -0.34724716864E+02  0.33149751389E+02  0.50022367871E+02  0.00000000000E+00 0. -1.
         -3    1    1    2    0  502  0.30039162588E+02 -0.33811573335E+01  0.16147685234E+03  0.16428194470E+03  0.00000000000E+00 0.  1.
<scales pt_clust_5="13000.00000" pt_clust_6="13000.00000" pt_clust_7="13000.00000" pt_clust_8="13000.00000" pt_clust_9="30.22885"></scales>
<clustering>
<clus scale="   30.229">  1  9  2 -1</clus>
<clus scale="   91.024">  7  8 -1 -1</clus>
<clus scale="   93.432">  5  6 -1 -1</clus>
<clus scale="  101.914">  2  7  1 -1</clus>
<clus scale="   30.229">  1  5  2 -1</clus>
</clustering>
</event>
<event>
 9    1  0.1881049E-005  0.1801821E+03  0.7546771E-02  0.1168469E+00
         21   -1    0    0  501  502  0.00000000000E+00  0.00000000000E+00  0.15331749751E+03  0.15331749751E+03  0.00000000000E+00 0. -1.
         -3   -1    0    0    0  501 -0.00000000000E+00 -0.00000000000E+00 -0.37214520386E+03  0.37214520386E+03  0.00000000000E+00 0.  1.
         23    2    1    2    0    0 -0.52796987194E+02 -0.14849819516E+03 -0.14797813574E+03  0.23313140994E+03  0.87255313989E+02 0.  0.
         23    2    1    2    0    0  0.76381763781E+02  0.13027505767E+03 -0.13385225144E+03  0.22263436023E+03  0.94041845215E+02 0.  0.
        -11    1    4    4    0    0  0.35818194690E+02  0.96124579459E+02 -0.31409617606E+02  0.10728206712E+03  0.00000000000E+00 0.  1.
         11    1    4    4    0    0  0.40563569091E+02  0.34150478209E+02 -0.10244263384E+03  0.11535229312E+03  0.00000000000E+00 0. -1.
        -13    1    3    3    0    0  0.44225825548E+01 -0.57248152245E+02 -0.99804313254E+02  0.11514256865E+03  0.00000000000E+00 0.  1.
         13    1    3    3    0    0 -0.57219569749E+02 -0.91250042918E+02 -0.48173822483E+02  0.11798884128E+03  0.00000000000E+00 0. -1.
         -3    1    1    2    0  502 -0.23584776587E+02  0.18223137495E+02  0.63002680831E+02  0.69696931200E+02  0.00000000000E+00 0.  1.
<scales pt_clust_5="13000.00000" pt_clust_6="13000.00000" pt_clust_7="13000.00000" pt_clust_8="13000.00000" pt_clust_9="29.80477"></scales>
<clustering>
<clus scale="   29.805">  1  9  2 -1</clus>
<clus scale="   87.255">  7  8 -1 -1</clus>
<clus scale="   94.042">  5  6 -1 -1</clus>
<clus scale="  176.735">  2  7  1 -1</clus>
<clus scale="   29.805">  1  5  2 -1</clus>
</clustering>
</event>
<event>
 9    1  0.1881049E-005  0.9760688E+02  0.7546771E-02  0.1285704E+00
         21   -1    0    0  501  502  0.00000000000E+00  0.00000000000E+00  0.59523111623E+02  0.59523111623E+02  0.00000000000E+00 0.  1.
          1   -1    0    0  502    0 -0.00000000000E+00 -0.00000000000E+00 -0.40719705557E+03  0.40719705557E+03  0.00000000000E+00 0. -1.
         23    2    1    2    0    0 -0.29009533254E+02  0.54730711095E+01 -0.23177534988E+03  0.25044723761E+03  0.90180366399E+02 0.  0.
         23    2    1    2    0    0  0.64220780345E+02  0.40394441278E+02 -0.49520117843E+02  0.12824019295E+03  0.90759492630E+02 0.  0.
        -11    1    4    4    0    0  0.42341363834E+02  0.42358699794E+02  0.13591421378E+02  0.61414796870E+02  0.00000000000E+00 0.  1.
         11    1    4    4    0    0  0.21879416511E+02 -0.19642585159E+01 -0.63111539221E+02  0.66825396080E+02  0.00000000000E+00 0. -1.
        -11    1    3    3    0    0 -0.30645512714E+02  0.44548206927E+02 -0.11046869187E+03  0.12299195938E+03  0.00000000000E+00 0.  1.
         11    1    3    3    0    0  0.16359794605E+01 -0.39075135817E+02 -0.12130665801E+03  0.12745527822E+03  0.00000000000E+00 0. -1.
          1    1    1    2  501    0 -0.35211247091E+02 -0.45867512387E+02 -0.66378476217E+02  0.88032736633E+02  0.00000000000E+00 0. -1.
<scales pt_clust_5="13000.00000" pt_clust_6="13000.00000" pt_clust_7="13000.00000" pt_clust_8="13000.00000" pt_clust_9="57.82442"></scales>
<clustering>
<clus scale="   57.824">  1  9  2 -1</clus>
<clus scale="   90.180">  7  8 -1 -1</clus>
<clus scale="   90.759">  5  6 -1 -1</clus>
<clus scale="   97.069">  2  7  1 -1</clus>
<clus scale="   57.824">  1  5  2 -1</clus>
</clustering>
</event>
<event>
 9    1  0.1881049E-005  0.1512590E+03  0.7546771E-02  0.1199078E+00
          2   -1    0    0  502    0 -0.00000000000E+00  0.00000000000E+00  0.89297912101E+02  0.89297912101E+02  0.00000000000E+00 0. -1.
         21   -1    0    0  501  502  0.00000000000E+00 -0.00000000000E+00 -0.58091798214E+03  0.58091798214E+03  0.00000000000E+00 0. -1.
         23    2    1    2    0    0  0.12989151018E+03  0.10204880422E+03 -0.91943536823E+02  0.21032135926E+03  0.92172107158E+02 0.  0.
         23    2    1    2    0    0 -0.67525046898E+02 -0.12868217241E+02 -0.16797094815E+03  0.20390580283E+03  0.92941454870E+02 0.  0.
        -11    1    4    4    0    0 -0.31004013492E+01  0.35014478469E+02 -0.56468460205E+02  0.66515510890E+02  0.00000000000E+00 0. -1.
         11    1    4    4    0    0 -0.64424645549E+02 -0.47882695710E+02 -0.11150248794E+03  0.13739029194E+03  0.00000000000E+00 0.  1.
        -13    1    3    3    0    0  0.68950860486E+02  0.75747041928E+02 -0.10037716460E+03  0.14341342578E+03  0.00000000000E+00 0.  1.
         13    1    3    3    0    0  0.60940649692E+02  0.26301762293E+02  0.84336277730E+01  0.66907933476E+02  0.00000000000E+00 0. -1.
          2    1    1    2  501    0 -0.62366463281E+02 -0.89180586979E+02 -0.23170558506E+03  0.25598873215E+03  0.00000000000E+00 0. -1.
<scales pt_clust_5="13000.00000" pt_clust_6="13000.00000" pt_clust_7="13000.00000" pt_clust_8="13000.00000" pt_clust_9="108.82441"></scales>
<clustering>
<clus scale="   92.172">  7  8 -1 -1</clus>
<clus scale="   92.941">  5  6 -1 -1</clus>
<clus scale="  108.824">  2  9  1 -1</clus>
<clus scale="  150.788">  1  7  2 -1</clus>
<clus scale="  108.824">  2  5  1 -1</clus>
</clustering>
</event>
<event>
 9    1  0.1881049E-005  0.3813610E+03  0.7546771E-02  0.1084379E+00
          1   -1    0    0  502    0 -0.00000000000E+00  0.00000000000E+00  0.82810199652E+03  0.82810199652E+03  0.00000000000E+00 0. -1.
         21   -1    0    0  501  502  0.00000000000E+00 -0.00000000000E+00 -0.30515624226E+03  0.30515624226E+03  0.00000000000E+00 0. -1.
         23    2    1    2    0    0  0.53438850818E+02 -0.10553563658E+03  0.28434763752E+03  0.32122531443E+03  0.91316166720E+02 0.  0.
         23    2    1    2    0    0 -0.36812493879E+03 -0.91611979409E+02  0.20007013597E+03  0.43869805891E+03  0.92299524649E+02 0.  0.
        -11    1    3    3    0    0  0.29247850736E+02  0.16595538320E+01  0.11999333751E+03  0.12351757745E+03  0.00000000000E+00 0.  1.
         11    1    3    3    0    0  0.24191000083E+02 -0.10719519041E+03  0.16435430001E+03  0.19770773699E+03  0.00000000000E+00 0. -1.
        -13    1    4    4    0    0 -0.79134278481E+02 -0.17282116059E+02  0.29146445980E+01  0.81051839704E+02  0.00000000000E+00 0.  1.
         13    1    4    4    0    0 -0.28899066031E+03 -0.74329863349E+02  0.19715549138E+03  0.35764621920E+03  0.00000000000E+00 0. -1.
          1    1    1    2  501    0  0.31468608797E+03  0.19714761599E+03  0.38527980757E+02  0.37333486544E+03  0.00000000000E+00 0. -1.
<scales pt_clust_5="13000.00000" pt_clust_6="13000.00000" pt_clust_7="13000.00000" pt_clust_8="13000.00000" pt_clust_9="370.02295"></scales>
<clustering>
<clus scale="   91.316">  5  6 -1 -1</clus>
<clus scale="   92.300">  7  8 -1 -1</clus>
<clus scale="  149.439">  1  5  2 -1</clus>
<clus scale="  370.023">  2  9  1 -1</clus>
<clus scale="  370.023">  2  5  1 -1</clus>
</clustering>
</event>
<event>
 9    1  0.1881049E-005  0.1449402E+03  0.7546771E-02  0.1209450E+00
         21   -1    0    0  501  502  0.00000000000E+00  0.00000000000E+00  0.12512662817E+03  0.12512662817E+03  0.00000000000E+00 0.  1.
         -3   -1    0    0    0  501 -0.00000000000E+00 -0.00000000000E+00 -0.33016207761E+03  0.33016207761E+03  0.00000000000E+00 0.  1.
         23    2    1    2    0    0 -0.29827352663E+01  0.14301467597E+03 -0.13724856902E+03  0.21880569413E+03  0.92610300898E+02 0.  0.
         23    2    1    2    0    0 -0.31225323550E+02 -0.44487286361E+02 -0.11225367234E+02  0.11783629840E+03  0.10394827980E+03 0.  0.
        -13    1    4    4    0    0 -0.68638484488E+02 -0.40447866246E+02 -0.76720316302E+01  0.80038312739E+02  0.00000000000E+00 0.  1.
         13    1    4    4    0    0  0.37413160938E+02 -0.40394201145E+01 -0.35533356034E+01  0.37797985662E+02  0.00000000000E+00 0. -1.
        -13    1    3    3    0    0 -0.18158993102E+02  0.64384935846E+02 -0.11924190849E+03  0.13672527833E+03  0.00000000000E+00 0.  1.
         13    1    3    3    0    0  0.15176257836E+02  0.78629740125E+02 -0.18006660529E+02  0.82080415797E+02  0.00000000000E+00 0. -1.
         -3    1    1    2    0  502  0.34208058817E+02 -0.98527389610E+02 -0.56561513192E+02  0.11864671325E+03  0.00000000000E+00 0.  1.
<scales pt_clust_5="13000.00000" pt_clust_6="13000.00000" pt_clust_7="13000.00000" pt_clust_8="13000.00000" pt_clust_9="104.29693"></scales>
<clustering>
<clus scale="   92.610">  7  8 -1 -1</clus>
<clus scale="  103.948">  5  6 -1 -1</clus>
<clus scale="  104.297">  1  9  2 -1</clus>
<clus scale="  137.037">  2  7  1 -1</clus>
<clus scale="  104.297">  1  5  2 -1</clus>
</clustering>
</event>
<event>
 9    1  0.1881049E-005  0.2335823E+03  0.7546771E-02  0.1124165E+00
          1   -1    0    0  502    0 -0.00000000000E+00  0.00000000000E+00  0.41531276932E+03  0.41531276932E+03  0.00000000000E+00 0. -1.
         21   -1    0    0  501  502  0.00000000000E+00 -0.00000000000E+00 -0.60176844581E+03  0.60176844581E+03  0.00000000000E+00 0. -1.
         23    2    1    2    0    0 -0.21938147427E+03  0.49488007012E+02  0.26517531618E+03  0.35930495435E+03  0.90580394219E+02 0.  0.
         23    2    1    2    0    0  0.19698597152E+03  0.12622595383E+02 -0.16511322211E+02  0.21767580283E+03  0.90262553076E+02 0.  0.
        -11    1    4    4    0    0  0.17732169359E+03  0.51353898474E+01 -0.44276772405E+02  0.18283814651E+03  0.00000000000E+00 0.  1.
         11    1    4    4    0    0  0.19664277931E+02  0.74872055361E+01  0.27765450194E+02  0.34837656318E+02  0.00000000000E+00 0. -1.
        -13    1    3    3    0    0 -0.69132147058E+01  0.19473653168E+02  0.35963528514E+01  0.20974972208E+02  0.00000000000E+00 0.  1.
         13    1    3    3    0    0 -0.21246825957E+03  0.30014353844E+02  0.26157896333E+03  0.33832998214E+03  0.00000000000E+00 0. -1.
          1    1    1    2  501    0  0.22395502751E+02 -0.62110602396E+02 -0.43511967046E+03  0.44010045795E+03  0.00000000000E+00 0. -1.
<scales pt_clust_5="13000.00000" pt_clust_6="13000.00000" pt_clust_7="13000.00000" pt_clust_8="13000.00000" pt_clust_9="66.02489"></scales>
<clustering>
<clus scale="   66.025">  2  9  1 -1</clus>
<clus scale="   90.263">  5  6 -1 -1</clus>
<clus scale="   90.580">  7  8 -1 -1</clus>
<clus scale="  233.459">  2  5  1 -1</clus>
<clus scale="   66.025">  2  5  1 -1</clus>
</clustering>
</event>
<event>
 9    1  0.1881049E-005  0.1102937E+03  0.7546771E-02  0.1261507E+00
         21   -1    0    0  501  502  0.00000000000E+00  0.00000000000E+00  0.25452474316E+03  0.25452474316E+03  0.00000000000E+00 0. -1.
         -3   -1    0    0    0  501 -0.00000000000E+00 -0.00000000000E+00 -0.10624318126E+03  0.10624318126E+03  0.00000000000E+00 0.  1.
         23    2    1    2    0    0  0.56891404512E+02  0.23545794798E+02 -0.51075582810E+02  0.12351816739E+03  0.94111562283E+02 0.  0.
         23    2    1    2    0    0 -0.35090837367E+02 -0.23341158904E+02  0.12584309511E+03  0.16057106317E+03  0.90390293587E+02 0.  0.
        -11    1    3    3    0    0  0.61179452504E+02  0.29994874480E+01 -0.71556266008E+02  0.94192470711E+02  0.00000000000E+00 0.  1.
         11    1    3    3    0    0 -0.42880479921E+01  0.20546307350E+02  0.20480683198E+02  0.29325696677E+02  0.00000000000E+00 0. -1.
        -13    1    4    4    0    0 -0.57258551638E+02  0.17170879760E+01  0.10894983988E+03  0.12309166397E+03  0.00000000000E+00 0. -1.
         13    1    4    4    0    0  0.22167714271E+02 -0.25058246880E+02  0.16893255227E+02  0.37479399206E+02  0.00000000000E+00 0.  1.
         -3    1    1    2    0  502 -0.21800567145E+02 -0.20463589380E+00  0.73514049601E+02  0.76678693862E+02  0.00000000000E+00 0.  1.
<scales pt_clust_5="13000.00000" pt_clust_6="13000.00000" pt_clust_7="13000.00000" pt_clust_8="13000.00000" pt_clust_9="21.80153"></scales>
<clustering>
<clus scale="   21.802">  1  9  2 -1</clus>
<clus scale="   90.390">  7  8 -1 -1</clus>
<clus scale="   94.112">  5  6 -1 -1</clus>
<clus scale="  107.136">  1  7  2 -1</clus>
<clus scale="   21.802">  1  5  2 -1</clus>
</clustering>
</event>
<event>
 9    1  0.1881049E-005  0.1124339E+03  0.7546771E-02  0.1256851E+00
          3   -1    0    0  502    0 -0.00000000000E+00  0.00000000000E+00  0.55500125313E+02  0.55500125313E+02  0.00000000000E+00 0. -1.
         21   -1    0    0  501  502  0.00000000000E+00 -0.00000000000E+00 -0.39882153752E+03  0.39882153752E+03  0.00000000000E+00 0.  1.
         23    2    1    2    0    0 -0.12720247414E+01  0.62700973006E+02 -0.37409424204E+02  0.11780781864E+03  0.92445589670E+02 0.  0.
         23    2    1    2    0    0  0.21216514983E+02 -0.66608719129E+02 -0.21676449735E+03  0.24507901352E+03  0.90498693834E+02 0.  0.
        -11    1    3    3    0    0 -0.31778484826E+02 -0.90620767012E+01 -0.17199300418E+02  0.37253312159E+02  0.00000000000E+00 0.  1.
         11    1    3    3    0    0  0.30506460084E+02  0.71763049708E+02 -0.20210123785E+02  0.80554506476E+02  0.00000000000E+00 0. -1.
        -11    1    4    4    0    0 -0.21279604581E+02 -0.19975394708E+02 -0.15157068889E+03  0.15435514794E+03  0.00000000000E+00 0.  1.
         11    1    4    4    0    0  0.42496119564E+02 -0.46633324422E+02 -0.65193808454E+02  0.90723865578E+02  0.00000000000E+00 0. -1.
          3    1    1    2  501    0 -0.19944490242E+02  0.39077461230E+01 -0.89147490662E+02  0.91434830683E+02  0.00000000000E+00 0. -1.
<scales pt_clust_5="13000.00000" pt_clust_6="13000.00000" pt_clust_7="13000.00000" pt_clust_8="13000.00000" pt_clust_9="20.32371"></scales>
<clustering>
<clus scale="   20.324">  2  9  1 -1</clus>
<clus scale="   90.499">  7  8 -1 -1</clus>
<clus scale="   92.446">  5  6 -1 -1</clus>
<clus scale="  110.839">  2  7  1 -1</clus>
<clus scale="   20.324">  2  5  1 -1</clus>
</clustering>
</event>
<event>
 9    1  0.1881049E-005  0.9546936E+02  0.7546771E-02  0.1293318E+00
         21   -1    0    0  501  502  0.00000000000E+00  0.00000000000E+00  0.18834826381E+03  0.18834826381E+03  0.00000000000E+00 0. -1.
          1   -1    0    0  502    0 -0.00000000000E+00 -0.00000000000E+00 -0.14042353838E+03  0.14042353838E+03  0.00000000000E+00 0. -1.
         23    2    1    2    0    0 -0.10867193792E+02  0.84727657788E+01 -0.68311449749E+02  0.11277607605E+03  0.88668514711E+02 0.  0.
         23    2    1    2    0    0  0.28225135577E+02  0.54427762660E+02  0.50178988491E+02  0.12314462743E+03  0.94274221033E+02 0.  0.
        -11    1    4    4    0    0  0.32712366808E+02 -0.18173192605E+02  0.56175592773E+01  0.37840729959E+02  0.00000000000E+00 0.  1.
         11    1    4    4    0    0 -0.44872312314E+01  0.72600955264E+02  0.44561429214E+02  0.85303897467E+02  0.00000000000E+00 0. -1.
        -13    1    3    3    0    0 -0.41172214762E+02 -0.13602763876E+02 -0.60571978043E+02  0.74492623645E+02  0.00000000000E+00 0. -1.
         13    1    3    3    0    0  0.30305020971E+02  0.22075529654E+02 -0.77394717060E+01  0.38283452402E+02  0.00000000000E+00 0.  1.
          1    1    1    2  501    0 -0.17357941785E+02 -0.62900528438E+02  0.66057186678E+02  0.92851098716E+02  0.00000000000E+00 0. -1.
<scales pt_clust_5="13000.00000" pt_clust_6="13000.00000" pt_clust_7="13000.00000" pt_clust_8="13000.00000" pt_clust_9="65.25163"></scales>
<clustering>
<clus scale="   65.252">  1  9  2 -1</clus>
<clus scale="   88.669">  7  8 -1 -1</clus>
<clus scale="   89.938">  2  7  1 -1</clus>
<clus scale="   94.274">  5  6 -1 -1</clus>
<clus scale="   65.252">  1  5  2 -1</clus>
</clustering>
</event>
<event>
 9    1  0.1881049E-005  0.1262192E+03  0.7546771E-02  0.1233959E+00
         21   -1    0    0  501  502  0.00000000000E+00  0.00000000000E+00  0.63855839716E+02  0.63855839716E+02  0.00000000000E+00 0.  1.
          3   -1    0    0  502    0 -0.00000000000E+00 -0.00000000000E+00 -0.39220683388E+03  0.39220683388E+03  0.00000000000E+00 0. -1.
         23    2    1    2    0    0  0.83713383794E+02  0.17724050281E+02 -0.20891479698E+03  0.24399502508E+03  0.92553267254E+02 0.  0.
         23    2    1    2    0    0 -0.71645345142E+02 -0.59025194364E+02 -0.10573562446E+03  0.16691094633E+03  0.89789825013E+02 0.  0.
        -11    1    4    4    0    0 -0.39903743903E+02  0.17760208757E+02 -0.21835832163E+02  0.48831724922E+02  0.00000000000E+00 0. -1.
         11    1    4    4    0    0 -0.31741601239E+02 -0.76785403122E+02 -0.83899792296E+02  0.11807922141E+03  0.00000000000E+00 0.  1.
        -13    1    3    3    0    0 -0.34848029941E+00  0.39181408499E+02 -0.69744829462E+02  0.79997784014E+02  0.00000000000E+00 0.  1.
         13    1    3    3    0    0  0.84061864093E+02 -0.21457358217E+02 -0.13916996752E+03  0.16399724106E+03  0.00000000000E+00 0. -1.
          3    1    1    2  501    0 -0.12068038652E+02  0.41301144083E+02 -0.13700572725E+02  0.45156702188E+02  0.00000000000E+00 0. -1.
<scales pt_clust_5="13000.00000" pt_clust_6="13000.00000" pt_clust_7="13000.00000" pt_clust_8="13000.00000" pt_clust_9="43.02815"></scales>
<clustering>
<clus scale="   43.028">  1  9  2 -1</clus>
<clus scale="   89.790">  5  6 -1 -1</clus>
<clus scale="   92.553">  7  8 -1 -1</clus>
<clus scale="  124.207">  1  5  2 -1</clus>
<clus scale="   43.028">  1  5  2 -1</clus>
</clustering>
</event>
<event>
 9    1  0.1881049E-005  0.1119703E+03  0.7546771E-02  0.1260687E+00
         -3   -1    0    0    0  501 -0.00000000000E+00  0.00000000000E+00  0.23696254200E+03  0.23696254200E+03  0.00000000000E+00 0.  1.
         21   -1    0    0  501  502  0.00000000000E+00 -0.00000000000E+00 -0.10637349226E+03  0.10637349226E+03  0.00000000000E+00 0.  1.
         23    2    1    2    0    0  0.11406457629E+01  0.50569472502E+02  0.11024049789E+03  0.14977910057E+03  0.87876270799E+02 0.  0.
         23    2    1    2    0    0  0.53583242534E+02 -0.68410480682E+02 -0.55524566237E+01  0.13043904587E+03  0.97120323132E+02 0.  0.
        -11    1    3    3    0    0  0.28871739423E+02  0.41318473604E+02  0.10949036809E+03  0.12053602907E+03  0.00000000000E+00 0.  1.
         11    1    3    3    0    0 -0.27731093660E+02  0.92509988981E+01  0.75012980119E+00  0.29243071502E+02  0.00000000000E+00 0. -1.
        -11    1    4    4    0    0  0.72972433321E+02 -0.73466538055E+02  0.11423960526E+02  0.10417684538E+03  0.00000000000E+00 0.  1.
         11    1    4    4    0    0 -0.19389190787E+02  0.50560573730E+01 -0.16976417149E+02  0.26262200493E+02  0.00000000000E+00 0. -1.
         -3    1    1    2    0  502 -0.54723888297E+02  0.17841008180E+02  0.25901008475E+02  0.63117887823E+02  0.00000000000E+00 0.  1.
<scales pt_clust_5="13000.00000" pt_clust_6="13000.00000" pt_clust_7="13000.00000" pt_clust_8="13000.00000" pt_clust_9="57.55874"></scales>
<clustering>
<clus scale="   57.559">  2  9  1 -1</clus>
<clus scale="   87.876">  5  6 -1 -1</clus>
<clus scale="   97.120">  7  8 -1 -1</clus>
<clus scale="  104.054">  1  5  2 -1</clus>
<clus scale="   57.559">  2  5  1 -1</clus>
</clustering>
</event>
<event>
 9    1  0.1881049E-005  0.1331763E+03  0.7546771E-02  0.1222973E+00
         21   -1    0    0  501  502  0.00000000000E+00  0.00000000000E+00  0.41972682266E+03  0.41972682266E+03  0.00000000000E+00 0.  1.
          3   -1    0    0  502    0 -0.00000000000E+00 -0.00000000000E+00 -0.80007074475E+02  0.80007074475E+02  0.00000000000E+00 0. -1.
         23    2    1    2    0    0 -0.78637156548E+02 -0.39630135735E+02  0.25796961567E+02  0.13028088401E+03  0.92483920033E+02 0.  0.
         23    2    1    2    0    0  0.98854153435E+02  0.74733495987E+02  0.24572461397E+03  0.29013111440E+03  0.91859885475E+02 0.  0.
        -13    1    4    4    0    0  0.53908083194E+01  0.48533180741E+02  0.13127229900E+03  0.14006051168E+03  0.00000000000E+00 0. -1.
         13    1    4    4    0    0  0.93463345116E+02  0.26200315246E+02  0.11445231497E+03  0.15007060272E+03  0.00000000000E+00 0.  1.
        -13    1    3    3    0    0 -0.40341640143E+02 -0.38370452945E+02  0.57876686399E+02  0.80308470395E+02  0.00000000000E+00 0.  1.
         13    1    3    3    0    0 -0.38295516405E+02 -0.12596827895E+01 -0.32079724832E+02  0.49972413618E+02  0.00000000000E+00 0. -1.
          3    1    1    2  501    0 -0.20216996887E+02 -0.35103360252E+02  0.68198172651E+02  0.79321898724E+02  0.00000000000E+00 0. -1.
<scales pt_clust_5="13000.00000" pt_clust_6="13000.00000" pt_clust_7="13000.00000" pt_clust_8="13000.00000" pt_clust_9="40.50892"></scales>
<clustering>
<clus scale="   40.509">  1  9  2 -1</clus>
<clus scale="   91.860">  5  6 -1 -1</clus>
<clus scale="   92.484">  7  8 -1 -1</clus>
<clus scale="  132.744">  1  5  2 -1</clus>
<clus scale="   40.509">  1  5  2 -1</clus>
</clustering>
</event>
<event>
 9    1  0.1881049E-005  0.1466107E+03  0.7546771E-02  0.1205486E+00
          1   -1    0    0  502    0 -0.00000000000E+00  0.00000000000E+00  0.33922876948E+03  0.33922876948E+03  0.00000000000E+00 0. -1.
         21   -1    0    0  501  502  0.00000000000E+00 -0.00000000000E+00 -0.14745656484E+03  0.14745656484E+03  0.00000000000E+00 0. -1.
         23    2    1    2    0    0 -0.83009583824E+02  0.30221197955E+02  0.52908723416E+02  0.13836341612E+03  0.92418559258E+02 0.  0.
         23    2    1    2    0    0  0.17246632276E+03  0.61296462758E+01  0.19670790710E+02  0.19492442967E+03  0.88466876420E+02 0.  0.
        -13    1    3    3    0    0 -0.26105007202E+02  0.38798990053E+00  0.67589689241E+02  0.72456801122E+02  0.00000000000E+00 0.  1.
         13    1    3    3    0    0 -0.56904576622E+02  0.29833208055E+02 -0.14680965825E+02  0.65906615002E+02  0.00000000000E+00 0. -1.
        -13    1    4    4    0    0  0.10581277890E+03 -0.39710399563E+02  0.12678894303E+02  0.11372780826E+03  0.00000000000E+00 0.  1.
         13    1    4    4    0    0  0.66653543862E+02  0.45840045839E+02  0.69918964070E+01  0.81196621402E+02  0.00000000000E+00 0. -1.
          1    1    1    2  501    0 -0.89456738936E+02 -0.36350844231E+02  0.11919269051E+03  0.15339748853E+03  0.00000000000E+00 0. -1.
<scales pt_clust_5="13000.00000" pt_clust_6="13000.00000" pt_clust_7="13000.00000" pt_clust_8="13000.00000" pt_clust_9="96.56035"></scales>
<clustering>
<clus scale="   88.467">  7  8 -1 -1</clus>
<clus scale="   92.419">  5  6 -1 -1</clus>
<clus scale="   96.560">  2  9  1 -1</clus>
<clus scale="  144.152">  2  7  1 -1</clus>
<clus scale="   96.560">  2  5  1 -1</clus>
</clustering>
</event>
<event>
 9    1  0.1881049E-005  0.1423291E+03  0.7546771E-02  0.1226276E+00
         21   -1    0    0  501  502  0.00000000000E+00  0.00000000000E+00  0.70326593079E+03  0.70326593079E+03  0.00000000000E+00 0.  1.
         -2   -1    0    0    0  501 -0.00000000000E+00 -0.00000000000E+00 -0.49434943678E+02  0.49434943678E+02  0.00000000000E+00 0.  1.
         23    2    1    2    0    0 -0.13653463097E+02 -0.47254346960E+02  0.19364475740E+03  0.21864016944E+03  0.88802259324E+02 0.  0.
         23    2    1    2    0    0 -0.87060848080E+02 -0.13210693604E+02  0.12439681869E+03  0.17831652425E+03  0.92564035276E+02 0.  0.
        -11    1    4    4    0    0 -0.50134484900E+01 -0.34325778425E+02  0.10265037819E+02  0.36176853534E+02  0.00000000000E+00 0.  1.
         11    1    4    4    0    0 -0.82047399590E+02  0.21115084821E+02  0.11413178087E+03  0.14213967072E+03  0.00000000000E+00 0. -1.
        -13    1    3    3    0    0 -0.31691168767E+02 -0.67332610393E+02  0.14643044839E+03  0.16425555338E+03  0.00000000000E+00 0. -1.
         13    1    3    3    0    0  0.18037705670E+02  0.20078263433E+02  0.47214309015E+02  0.54384616061E+02  0.00000000000E+00 0.  1.
         -2    1    1    2    0  502  0.10071431118E+03  0.60465040563E+02  0.33578941102E+03  0.35574418078E+03  0.00000000000E+00 0.  1.
<scales pt_clust_5="13000.00000" pt_clust_6="13000.00000" pt_clust_7="13000.00000" pt_clust_8="13000.00000" pt_clust_9="108.11784"></scales>
<clustering>
<clus scale="   88.802">  7  8 -1 -1</clus>
<clus scale="   92.564">  5  6 -1 -1</clus>
<clus scale="  101.515">  2  7  1 -1</clus>
<clus scale="  108.118">  1  9  2 -1</clus>
<clus scale="  108.118">  1  5  2 -1</clus>
</clustering>
</event>
<event>
 9    1  0.1881049E-005  0.1446740E+03  0.7546771E-02  0.1208641E+00
         21   -1    0    0  501  502  0.00000000000E+00  0.00000000000E+00  0.85842934952E+02  0.85842934952E+02  0.00000000000E+00 0. -1.
          2   -1    0    0  502    0 -0.00000000000E+00 -0.00000000000E+00 -0.41894046511E+03  0.41894046511E+03  0.00000000000E+00 0. -1.
         23    2    1    2    0    0  0.11761567077E+03 -0.31609233837E+02 -0.28674833271E+03  0.32292392041E+03  0.84986248195E+02 0.  0.
         23    2    1    2    0    0 -0.71539901900E+02  0.48531601886E+02 -0.27891380389E+02  0.12941871280E+03  0.92184598375E+02 0.  0.
        -11    1    3    3    0    0  0.95740921278E+02 -0.52185557470E+02 -0.26276513332E+03  0.28449107491E+03  0.00000000000E+00 0. -1.
         11    1    3    3    0    0  0.21874749494E+02  0.20576323633E+02 -0.23983199390E+02  0.38432845493E+02  0.00000000000E+00 0.  1.
        -11    1    4    4    0    0  0.79134696238E+01  0.32877988295E+02 -0.34322330017E+02  0.48183061895E+02  0.00000000000E+00 0. -1.
         11    1    4    4    0    0 -0.79453371524E+02  0.15653613590E+02  0.64309496280E+01  0.81235650906E+02  0.00000000000E+00 0.  1.
          2    1    1    2  501    0 -0.46075768872E+02 -0.16922368048E+02 -0.18457817053E+02  0.52440766850E+02  0.00000000000E+00 0. -1.
<scales pt_clust_5="13000.00000" pt_clust_6="13000.00000" pt_clust_7="13000.00000" pt_clust_8="13000.00000" pt_clust_9="49.08506"></scales>
<clustering>
<clus scale="   49.085">  1  9  2 -1</clus>
<clus scale="   84.986">  5  6 -1 -1</clus>
<clus scale="   92.185">  7  8 -1 -1</clus>
<clus scale="  140.197">  2  5  1 -1</clus>
<clus scale="   49.085">  1  5  2 -1</clus>
</clustering>
</event>
<event>
 9    1  0.1881049E-005  0.1014413E+03  0.7546771E-02  0.1277489E+00
         21   -1    0    0  501  502  0.00000000000E+00  0.00000000000E+00  0.21472956699E+03  0.21472956699E+03  0.00000000000E+00 0.  1.
         -3   -1    0    0    0  501 -0.00000000000E+00 -0.00000000000E+00 -0.31227738105E+03  0.31227738105E+03  0.00000000000E+00 0.  1.
         23    2    1    2    0    0  0.42365149995E+02 -0.16021584496E+02 -0.16681274707E+03  0.19530012251E+03  0.90907360341E+02 0.  0.
         23    2    1    2    0    0 -0.45442542774E+02 -0.63950973235E+01 -0.11050110619E+03  0.15052237028E+03  0.91326707617E+02 0.  0.
        -13    1    3    3    0    0  0.68707786647E+02 -0.66357340715E+01 -0.14210879269E+03  0.15798639775E+03  0.00000000000E+00 0.  1.
         13    1    3    3    0    0 -0.26342636652E+02 -0.93858504250E+01 -0.24703954379E+02  0.37313724766E+02  0.00000000000E+00 0. -1.
        -13    1    4    4    0    0 -0.25635160059E+02 -0.14693634786E+02  0.75798590651E+01  0.30504402927E+02  0.00000000000E+00 0. -1.
         13    1    4    4    0    0 -0.19807382716E+02  0.82985374625E+01 -0.11808096525E+03  0.12001796736E+03  0.00000000000E+00 0.  1.
         -3    1    1    2    0  502  0.30773927794E+01  0.22416681820E+02  0.17976603920E+03  0.18118445524E+03  0.00000000000E+00 0.  1.
<scales pt_clust_5="13000.00000" pt_clust_6="13000.00000" pt_clust_7="13000.00000" pt_clust_8="13000.00000" pt_clust_9="22.62693"></scales>
<clustering>
<clus scale="   22.627">  1  9  2 -1</clus>
<clus scale="   90.907">  5  6 -1 -1</clus>
<clus scale="   91.327">  7  8 -1 -1</clus>
<clus scale="  101.064">  2  5  1 -1</clus>
<clus scale="   22.627">  1  5  2 -1</clus>
</clustering>
</event>
<event>
 9    1  0.1881049E-005  0.1005465E+03  0.7546771E-02  0.1279293E+00
         21   -1    0    0  501  502  0.00000000000E+00  0.00000000000E+00  0.19829182577E+03  0.19829182577E+03  0.00000000000E+00 0. -1.
         -2   -1    0    0    0  501 -0.00000000000E+00 -0.00000000000E+00 -0.11578318890E+03  0.11578318890E+03  0.00000000000E+00 0.  1.
         23    2    1    2    0    0 -0.41736396277E+02 -0.81447824050E+01 -0.50491564824E+02  0.11313085286E+03  0.91874520390E+02 0.  0.
         23    2    1    2    0    0  0.25167585277E+02  0.33910316391E+02  0.51165263836E+02  0.11356369893E+03  0.92171104935E+02 0.  0.
        -11    1    3    3    0    0 -0.26397107928E+02  0.25422239249E+02 -0.64066215470E+02  0.73807706373E+02  0.00000000000E+00 0.  1.
         11    1    3    3    0    0 -0.15339288349E+02 -0.33567021654E+02  0.13574650646E+02  0.39323146491E+02  0.00000000000E+00 0. -1.
        -13    1    4    4    0    0  0.59362241020E+01  0.62945740485E+02  0.18651660885E+02  0.65918809573E+02  0.00000000000E+00 0.  1.
         13    1    4    4    0    0  0.19231361175E+02 -0.29035424094E+02  0.32513602951E+02  0.47644889357E+02  0.00000000000E+00 0. -1.
         -2    1    1    2    0  502  0.16568811000E+02 -0.25765533986E+02  0.81834937851E+02  0.87380462877E+02  0.00000000000E+00 0.  1.
<scales pt_clust_5="13000.00000" pt_clust_6="13000.00000" pt_clust_7="13000.00000" pt_clust_8="13000.00000" pt_clust_9="30.63312"></scales>
<clustering>
<clus scale="   30.633">  1  9  2 -1</clus>
<clus scale="   91.875">  5  6 -1 -1</clus>
<clus scale="   92.171">  7  8 -1 -1</clus>
<clus scale="  100.275">  2  5  1 -1</clus>
<clus scale="   30.633">  1  5  2 -1</clus>
</clustering>
</event>
<event>
 9    1  0.1881049E-005  0.9557684E+02  0.7546771E-02  0.1289978E+00
          2   -1    0    0  502    0 -0.00000000000E+00  0.00000000000E+00  0.30868528396E+03  0.30868528396E+03  0.00000000000E+00 0. -1.
         21   -1    0    0  501  502  0.00000000000E+00 -0.00000000000E+00 -0.32796482207E+03  0.32796482207E+03  0.00000000000E+00 0.  1.
         23    2    1    2    0    0  0.15098904440E+01  0.32876564407E+02  0.28231655252E+03  0.29819087207E+03  0.90177669652E+02 0.  0.
         23    2    1    2    0    0 -0.12393520443E+02 -0.34880960843E+01 -0.10390740036E+03  0.13830191150E+03  0.90359862278E+02 0.  0.
        -11    1    3    3    0    0 -0.14371484314E+02 -0.23729356175E+02  0.38924747964E+02  0.47799141309E+02  0.00000000000E+00 0.  1.
         11    1    3    3    0    0  0.15881374758E+02  0.56605920582E+02  0.24339180456E+03  0.25039173076E+03  0.00000000000E+00 0. -1.
        -13    1    4    4    0    0 -0.19152375307E+02 -0.44211885211E+02 -0.69466647728E+02  0.84540637686E+02  0.00000000000E+00 0.  1.
         13    1    4    4    0    0  0.67588548640E+01  0.40723789127E+02 -0.34440752633E+02  0.53761273812E+02  0.00000000000E+00 0. -1.
          2    1    1    2  501    0  0.10883629999E+02 -0.29388468323E+02 -0.19768869027E+03  0.20015732246E+03  0.00000000000E+00 0. -1.
<scales pt_clust_5="13000.00000" pt_clust_6="13000.00000" pt_clust_7="13000.00000" pt_clust_8="13000.00000" pt_clust_9="31.33904"></scales>
<clustering>
<clus scale="   31.339">  2  9  1 -1</clus>
<clus scale="   90.178">  5  6 -1 -1</clus>
<clus scale="   90.360">  7  8 -1 -1</clus>
<clus scale="   95.405">  1  5  2 -1</clus>
<clus scale="   31.339">  2  5  1 -1</clus>
</clustering>
</event>
<event>
 9    1  0.1881049E-005  0.9356812E+02  0.7546771E-02  0.1296430E+00
         21   -1    0    0  501  502  0.00000000000E+00  0.00000000000E+00  0.70427148561E+02  0.70427148561E+02  0.00000000000E+00 0.  1.
          1   -1    0    0  502    0 -0.00000000000E+00 -0.00000000000E+00 -0.18568195788E+03  0.18568195788E+03  0.00000000000E+00 0. -1.
         23    2    1    2    0    0 -0.24777003261E+01 -0.44548565489E+01 -0.77883406120E+02  0.11904068532E+03  0.89882562639E+02 0.  0.
         23    2    1    2    0    0  0.38934689160E+01 -0.21791127372E+02 -0.49737886721E+02  0.10802042657E+03  0.93298139581E+02 0.  0.
        -11    1    3    3    0    0  0.29370528469E+02  0.27521159641E+02 -0.18092287855E+02  0.44129049960E+02  0.00000000000E+00 0.  1.
         11    1    3    3    0    0 -0.31848228795E+02 -0.31976016190E+02 -0.59791118265E+02  0.74911635359E+02  0.00000000000E+00 0. -1.
        -13    1    4    4    0    0 -0.11484285992E+02 -0.53904854952E+02 -0.46781860523E+02  0.72292217327E+02  0.00000000000E+00 0. -1.
         13    1    4    4    0    0  0.15377754908E+02  0.32113727579E+02 -0.29560261982E+01  0.35728209246E+02  0.00000000000E+00 0.  1.
          1    1    1    2  501    0 -0.14157685898E+01  0.26245983921E+02  0.12366483521E+02  0.29047994550E+02  0.00000000000E+00 0. -1.
<scales pt_clust_5="13000.00000" pt_clust_6="13000.00000" pt_clust_7="13000.00000" pt_clust_8="13000.00000" pt_clust_9="26.28414"></scales>
<clustering>
<clus scale="   26.284">  1  9  2 -1</clus>
<clus scale="   89.883">  5  6 -1 -1</clus>
<clus scale="   90.163">  2  5  1 -1</clus>
<clus scale="   93.298">  7  8 -1 -1</clus>
<clus scale="   26.284">  1  5  2 -1</clus>
</clustering>
</event>
<event>
 9    1  0.1881049E-005  0.9221146E+02  0.7546771E-02  0.1299451E+00
          2   -1    0    0  502    0 -0.00000000000E+00  0.00000000000E+00  0.24100581503E+03  0.24100581503E+03  0.00000000000E+00 0. -1.
         21   -1    0    0  501  502  0.00000000000E+00 -0.00000000000E+00 -0.68849419061E+02  0.68849419061E+02  0.00000000000E+00 0.  1.
         23    2    1    2    0    0 -0.11166619306E+02  0.68064588823E+01  0.16493464582E+03  0.18736513078E+03  0.87927433547E+02 0.  0.
         23    2    1    2    0    0  0.26092678924E+02  0.14638387814E+02  0.23480843434E+01  0.95911515618E+02  0.91095526986E+02 0.  0.
        -13    1    4    4    0    0  0.48682151316E+02  0.27328693201E+02 -0.22331148669E+02  0.60128940867E+02  0.00000000000E+00 0.  1.
         13    1    4    4    0    0 -0.22589472393E+02 -0.12690305387E+02  0.24679233012E+02  0.35782574752E+02  0.00000000000E+00 0. -1.
        -13    1    3    3    0    0 -0.27319588733E+02 -0.34810865433E+02  0.81572353513E+02  0.92801967319E+02  0.00000000000E+00 0.  1.
         13    1    3    3    0    0  0.16152969427E+02  0.41617324315E+02  0.83362292311E+02  0.94563163461E+02  0.00000000000E+00 0. -1.
          2    1    1    2  501    0 -0.14926059618E+02 -0.21444846696E+02  0.48736658061E+01  0.26578587696E+02  0.00000000000E+00 0. -1.
<scales pt_clust_5="13000.00000" pt_clust_6="13000.00000" pt_clust_7="13000.00000" pt_clust_8="13000.00000" pt_clust_9="26.12793"></scales>
<clustering>
<clus scale="   26.128">  2  9  1 -1</clus>
<clus scale="   87.927">  7  8 -1 -1</clus>
<clus scale="   89.083">  1  7  2 -1</clus>
<clus scale="   91.096">  5  6 -1 -1</clus>
<clus scale="   26.128">  2  5  1 -1</clus>
</clustering>
</event>
<event>
 9    1  0.1881049E-005  0.1839522E+03  0.7546771E-02  0.1164059E+00
         21   -1    0    0  501  502  0.00000000000E+00  0.00000000000E+00  0.25560121053E+03  0.25560121053E+03  0.00000000000E+00 0.  1.
         -1   -1    0    0    0  501 -0.00000000000E+00 -0.00000000000E+00 -0.23517206728E+03  0.23517206728E+03  0.00000000000E+00 0.  1.
         23    2    1    2    0    0  0.11177386180E+02  0.16676319789E+03 -0.10593947515E+03  0.21784733384E+03  0.91100989740E+02 0.  0.
         23    2    1    2    0    0  0.37895253178E+02 -0.14437816159E+03  0.54934222686E+02  0.18341568380E+03  0.91336961217E+02 0.  0.
        -11    1    3    3    0    0  0.36679453895E+02  0.44256241314E+02 -0.63645686936E+02  0.85759959764E+02  0.00000000000E+00 0.  1.
         11    1    3    3    0    0 -0.25502067715E+02  0.12250695658E+03 -0.42293788216E+02  0.13208737407E+03  0.00000000000E+00 0. -1.
        -13    1    4    4    0    0  0.19860297063E+02  0.72254934996E+01  0.14001273413E+02  0.25351031792E+02  0.00000000000E+00 0. -1.
         13    1    4    4    0    0  0.18034956116E+02 -0.15160365508E+03  0.40932949273E+02  0.15806465200E+03  0.00000000000E+00 0.  1.
         -1    1    1    2    0  502 -0.49072639358E+02 -0.22385036309E+02  0.71434395718E+02  0.89510260170E+02  0.00000000000E+00 0.  1.
<scales pt_clust_5="13000.00000" pt_clust_6="13000.00000" pt_clust_7="13000.00000" pt_clust_8="13000.00000" pt_clust_9="53.93713"></scales>
<clustering>
<clus scale="   53.937">  1  9  2 -1</clus>
<clus scale="   91.101">  5  6 -1 -1</clus>
<clus scale="   91.337">  7  8 -1 -1</clus>
<clus scale="  183.835">  2  5  1 -1</clus>
<clus scale="   53.937">  1  5  2 -1</clus>
</clustering>
</event>
<event>
 9    1  0.1881049E-005  0.1489153E+03  0.7546771E-02  0.1209699E+00
          1   -1    0    0  502    0 -0.00000000000E+00  0.00000000000E+00  0.26181630026E+03  0.26181630026E+03  0.00000000000E+00 0. -1.
         21   -1    0    0  501  502  0.00000000000E+00 -0.00000000000E+00 -0.14066058716E+03  0.14066058716E+03  0.00000000000E+00 0. -1.
         23    2    1    2    0    0 -0.76022379918E+02  0.22982673440E+02  0.14951422092E+03  0.20823047438E+03  0.12123457706E+03 0.  0.
         23    2    1    2    0    0  0.96988010437E+02 -0.24968419497E+02  0.24223045565E+02  0.13760437383E+03  0.91203682055E+02 0.  0.
        -13    1    3    3    0    0 -0.99788370952E+02  0.21266337762E+02  0.15325415738E+03  0.18411087109E+03  0.00000000000E+00 0.  1.
         13    1    3    3    0    0  0.23765991034E+02  0.17163356775E+01 -0.37399364605E+01  0.24119603287E+02  0.00000000000E+00 0. -1.
        -13    1    4    4    0    0  0.16482765491E+02  0.30013506192E+02 -0.75580241316E+01  0.35065878585E+02  0.00000000000E+00 0.  1.
         13    1    4    4    0    0  0.80505244946E+02 -0.54981925689E+02  0.31781069696E+02  0.10253849525E+03  0.00000000000E+00 0. -1.
          1    1    1    2  501    0 -0.20965630519E+02  0.19857460567E+01 -0.52581553383E+02  0.56642039217E+02  0.00000000000E+00 0. -1.
<scales pt_clust_5="13000.00000" pt_clust_6="13000.00000" pt_clust_7="13000.00000" pt_clust_8="13000.00000" pt_clust_9="21.05946"></scales>
<clustering>
<clus scale="   21.059">  2  9  1 -1</clus>
<clus scale="   91.204">  7  8 -1 -1</clus>
<clus scale="  121.235">  5  6 -1 -1</clus>
<clus scale="  125.682">  2  7  1 -1</clus>
<clus scale="   21.059">  2  5  1 -1</clus>
</clustering>
</event>
<event>
 9    1  0.1881049E-005  0.1162928E+03  0.7546771E-02  0.1249443E+00
          1   -1    0    0  502    0 -0.00000000000E+00  0.00000000000E+00  0.10609878149E+03  0.10609878149E+03  0.00000000000E+00 0. -1.
         21   -1    0    0  501  502  0.00000000000E+00 -0.00000000000E+00 -0.36094560256E+03  0.36094560256E+03  0.00000000000E+00 0. -1.
         23    2    1    2    0    0 -0.60302837016E+02  0.33907568355E+02  0.40930573954E+02  0.12163095329E+03  0.91283194347E+02 0.  0.
         23    2    1    2    0    0  0.57104738042E+02 -0.63744353718E+02 -0.14495265714E+03  0.19163253742E+03  0.91583092580E+02 0.  0.
        -13    1    3    3    0    0  0.42529322222E+01  0.36589710559E+02  0.43459065889E+02  0.56970033871E+02  0.00000000000E+00 0.  1.
         13    1    3    3    0    0 -0.64555769238E+02 -0.26821422042E+01 -0.25284919347E+01  0.64660919420E+02  0.00000000000E+00 0. -1.
        -13    1    4    4    0    0  0.69433088861E+02 -0.15944122937E+02 -0.11035105638E+03  0.13134886573E+03  0.00000000000E+00 0.  1.
         13    1    4    4    0    0 -0.12328350819E+02 -0.47800230781E+02 -0.34601600767E+02  0.60283671688E+02  0.00000000000E+00 0. -1.
          1    1    1    2  501    0  0.31980989739E+01  0.29836785362E+02 -0.15082473789E+03  0.15378089334E+03  0.00000000000E+00 0. -1.
<scales pt_clust_5="13000.00000" pt_clust_6="13000.00000" pt_clust_7="13000.00000" pt_clust_8="13000.00000" pt_clust_9="30.00769"></scales>
<clustering>
<clus scale="   30.008">  2  9  1 -1</clus>
<clus scale="   91.283">  5  6 -1 -1</clus>
<clus scale="   91.583">  7  8 -1 -1</clus>
<clus scale="  116.057">  1  5  2 -1</clus>
<clus scale="   30.008">  2  5  1 -1</clus>
</clustering>
</event>
<event>
 9    1  0.1881049E-005  0.1058875E+03  0.7546771E-02  0.1269120E+00
          2   -1    0    0  502    0 -0.00000000000E+00  0.00000000000E+00  0.37333225666E+03  0.37333225666E+03  0.00000000000E+00 0. -1.
         21   -1    0    0  501  502  0.00000000000E+00 -0.00000000000E+00 -0.11677990575E+03  0.11677990575E+03  0.00000000000E+00 0.  1.
         23    2    1    2    0    0 -0.30920520313E+02  0.36494609102E+02  0.31370301165E+03  0.33026512296E+03  0.91528885354E+02 0.  0.
         23    2    1    2    0    0  0.57550128524E+02 -0.46574384131E+02 -0.36020837570E+02  0.12438991992E+03  0.93242484348E+02 0.  0.
        -11    1    3    3    0    0 -0.20751466372E+02 -0.29649607239E+02  0.11908636809E+03  0.12446399331E+03  0.00000000000E+00 0.  1.
         11    1    3    3    0    0 -0.10169053941E+02  0.66144216341E+02  0.19461664356E+03  0.20580112965E+03  0.00000000000E+00 0. -1.
        -11    1    4    4    0    0  0.42737183883E+02 -0.10176910105E+02 -0.62941150205E+02  0.76756920045E+02  0.00000000000E+00 0.  1.
         11    1    4    4    0    0  0.14812944640E+02 -0.36397474027E+02  0.26920312635E+02  0.47632999872E+02  0.00000000000E+00 0. -1.
          2    1    1    2  501    0 -0.26629608210E+02  0.10079775029E+02 -0.21129823171E+02  0.35457119529E+02  0.00000000000E+00 0. -1.
<scales pt_clust_5="13000.00000" pt_clust_6="13000.00000" pt_clust_7="13000.00000" pt_clust_8="13000.00000" pt_clust_9="28.47346"></scales>
<clustering>
<clus scale="   28.473">  2  9  1 -1</clus>
<clus scale="   91.529">  5  6 -1 -1</clus>
<clus scale="   93.242">  7  8 -1 -1</clus>
<clus scale="  104.382">  1  5  2 -1</clus>
<clus scale="   28.473">  2  5  1 -1</clus>
</clustering>
</event>
<event>
 9    1  0.1881049E-005  0.1008642E+03  0.7546771E-02  0.1278617E+00
          1   -1    0    0  502    0 -0.00000000000E+00  0.00000000000E+00  0.60242981510E+03  0.60242981510E+03  0.00000000000E+00 0. -1.
         21   -1    0    0  501  502  0.00000000000E+00 -0.00000000000E+00 -0.30454511231E+02  0.30454511231E+02  0.00000000000E+00 0.  1.
         23    2    1    2    0    0  0.44987677735E+02 -0.49897657218E+01  0.26689334958E+03  0.28532614159E+03  0.90167389428E+02 0.  0.
         23    2    1    2    0    0 -0.40277130368E+02 -0.45796085085E+02  0.15682206229E+03  0.19077047006E+03  0.89892626984E+02 0.  0.
        -13    1    3    3    0    0 -0.93483091659E+01 -0.26220540467E+02  0.28267902999E+02  0.39673441578E+02  0.00000000000E+00 0.  1.
         13    1    3    3    0    0  0.54335986901E+02  0.21230774745E+02  0.23862544658E+03  0.24565270002E+03  0.00000000000E+00 0. -1.
        -13    1    4    4    0    0  0.41019984269E+00 -0.55693367549E+02  0.12896405108E+03  0.14047649598E+03  0.00000000000E+00 0.  1.
         13    1    4    4    0    0 -0.40687330211E+02  0.98972824639E+01  0.27858011212E+02  0.50293974078E+02  0.00000000000E+00 0. -1.
          1    1    1    2  501    0 -0.47105473668E+01  0.50785850806E+02  0.14825989200E+03  0.15678771468E+03  0.00000000000E+00 0. -1.
<scales pt_clust_5="13000.00000" pt_clust_6="13000.00000" pt_clust_7="13000.00000" pt_clust_8="13000.00000" pt_clust_9="51.00387"></scales>
<clustering>
<clus scale="   51.004">  2  9  1 -1</clus>
<clus scale="   89.893">  7  8 -1 -1</clus>
<clus scale="   90.167">  5  6 -1 -1</clus>
<clus scale="  100.619">  2  7  1 -1</clus>
<clus scale="   51.004">  2  5  1 -1</clus>
</clustering>
</event>
<event>
 9    1  0.1881049E-005  0.9974384E+02  0.7546771E-02  0.1283170E+00
         -1   -1    0    0    0  501 -0.00000000000E+00  0.00000000000E+00  0.98514311297E+02  0.98514311297E+02  0.00000000000E+00 0.  1.
         21   -1    0    0  501  502  0.00000000000E+00 -0.00000000000E+00 -0.19981984284E+03  0.19981984284E+03  0.00000000000E+00 0.  1.
         23    2    1    2    0    0  0.20331853473E+01 -0.63592961068E+01 -0.71344544845E+01  0.93793076320E+02  0.93282722061E+02 0.  0.
         23    2    1    2    0    0 -0.48612252626E+02 -0.39532510336E+02 -0.63793765826E+02  0.13244081121E+03  0.97698277551E+02 0.  0.
        -13    1    4    4    0    0 -0.18700649905E+02  0.29848651916E+02 -0.27903356128E+01  0.35333303000E+02  0.00000000000E+00 0. -1.
         13    1    4    4    0    0 -0.29911602721E+02 -0.69381162252E+02 -0.61003430213E+02  0.97107508209E+02  0.00000000000E+00 0.  1.
        -13    1    3    3    0    0  0.43628414031E+02  0.65982652877E+01 -0.19885860642E+02  0.48398585404E+02  0.00000000000E+00 0.  1.
         13    1    3    3    0    0 -0.41595228683E+02 -0.12957561395E+02  0.12751406158E+02  0.45394490916E+02  0.00000000000E+00 0. -1.
         -1    1    1    2    0  502  0.46579067279E+02  0.45891806443E+02 -0.30377311229E+02  0.72100266606E+02  0.00000000000E+00 0.  1.
<scales pt_clust_5="13000.00000" pt_clust_6="13000.00000" pt_clust_7="13000.00000" pt_clust_8="13000.00000" pt_clust_9="65.38859"></scales>
<clustering>
<clus scale="   65.389">  2  9  1 -1</clus>
<clus scale="   93.283">  7  8 -1 -1</clus>
<clus scale="   95.423">  1  7  2 -1</clus>
<clus scale="   97.698">  5  6 -1 -1</clus>
<clus scale="   65.389">  2  5  1 -1</clus>
</clustering>
</event>
<event>
 9    1  0.1881049E-005  0.1275386E+03  0.7546771E-02  0.1231450E+00
         21   -1    0    0  501  502  0.00000000000E+00  0.00000000000E+00  0.64214005198E+02  0.64214005198E+02  0.00000000000E+00 0. -1.
          1   -1    0    0  502    0 -0.00000000000E+00 -0.00000000000E+00 -0.53673600266E+03  0.53673600266E+03  0.00000000000E+00 0. -1.
         23    2    1    2    0    0 -0.10178555052E+03  0.85231641246E+01 -0.34459443140E+03  0.37064433316E+03  0.90548091835E+02 0.  0.
         23    2    1    2    0    0  0.71818254565E+02 -0.45797760201E+00 -0.15242280067E+03  0.19076958258E+03  0.89455307509E+02 0.  0.
        -11    1    4    4    0    0  0.18706544272E+02  0.42435087455E+02 -0.58312805379E+02  0.74505400590E+02  0.00000000000E+00 0. -1.
         11    1    4    4    0    0  0.53111710293E+02 -0.42893065057E+02 -0.94109995295E+02  0.11626418199E+03  0.00000000000E+00 0.  1.
        -11    1    3    3    0    0 -0.32384406003E+02  0.31867776686E+02 -0.23149402653E+03  0.23591055352E+03  0.00000000000E+00 0.  1.
         11    1    3    3    0    0 -0.69401144519E+02 -0.23344612561E+02 -0.11310040487E+03  0.13473377965E+03  0.00000000000E+00 0. -1.
          1    1    1    2  501    0  0.29967295956E+02 -0.80651865225E+01  0.24495234611E+02  0.39536092108E+02  0.00000000000E+00 0. -1.
<scales pt_clust_5="13000.00000" pt_clust_6="13000.00000" pt_clust_7="13000.00000" pt_clust_8="13000.00000" pt_clust_9="31.03363"></scales>
<clustering>
<clus scale="   31.034">  1  9  2 -1</clus>
<clus scale="   89.455">  5  6 -1 -1</clus>
<clus scale="   90.548">  7  8 -1 -1</clus>
<clus scale="  126.765">  1  5  2 -1</clus>
<clus scale="   31.034">  1  5  2 -1</clus>
</clustering>
</event>
<event>
 9    1  0.1881049E-005  0.1479332E+03  0.7546771E-02  0.1203957E+00
         21   -1    0    0  501  502  0.00000000000E+00  0.00000000000E+00  0.98991989701E+02  0.98991989701E+02  0.00000000000E+00 0.  1.
          2   -1    0    0  502    0 -0.00000000000E+00 -0.00000000000E+00 -0.35672064461E+03  0.35672064461E+03  0.00000000000E+00 0. -1.
         23    2    1    2    0    0 -0.25615287663E+02  0.14047884088E+03 -0.13663521329E+03  0.21819001167E+03  0.92451349294E+02 0.  0.
         23    2    1    2    0    0  0.26528276779E+02 -0.78802886734E+02 -0.25131733184E+02  0.12344630452E+03  0.87713976423E+02 0.  0.
        -11    1    3    3    0    0  0.10130067836E+02  0.13274713403E+03 -0.11320455889E+03  0.17475609294E+03  0.00000000000E+00 0.  1.
         11    1    3    3    0    0 -0.35745355499E+02  0.77317068494E+01 -0.23430654404E+02  0.43433918731E+02  0.00000000000E+00 0. -1.
        -13    1    4    4    0    0  0.40191689435E+02 -0.52284020396E+02 -0.51467127428E+02  0.83653188188E+02  0.00000000000E+00 0.  1.
         13    1    4    4    0    0 -0.13663412656E+02 -0.26518866339E+02  0.26335394244E+02  0.39793116330E+02  0.00000000000E+00 0. -1.
          2    1    1    2  501    0 -0.91298911614E+00 -0.61675954149E+02 -0.95961708434E+02  0.11407631812E+03  0.00000000000E+00 0. -1.
<scales pt_clust_5="13000.00000" pt_clust_6="13000.00000" pt_clust_7="13000.00000" pt_clust_8="13000.00000" pt_clust_9="61.68274"></scales>
<clustering>
<clus scale="   61.683">  1  9  2 -1</clus>
<clus scale="   87.714">  7  8 -1 -1</clus>
<clus scale="   92.451">  5  6 -1 -1</clus>
<clus scale="  145.020">  1  7  2 -1</clus>
<clus scale="   61.683">  1  5  2 -1</clus>
</clustering>
</event>
<event>
 9    1  0.1881049E-005  0.9768371E+02  0.7546771E-02  0.1287318E+00
         21   -1    0    0  501  502  0.00000000000E+00  0.00000000000E+00  0.23989800100E+03  0.23989800100E+03  0.00000000000E+00 0. -1.
          1   -1    0    0  502    0 -0.00000000000E+00 -0.00000000000E+00 -0.15503059772E+03  0.15503059772E+03  0.00000000000E+00 0. -1.
         23    2    1    2    0    0  0.17425684567E+02  0.21210599351E+02 -0.42754243752E+02  0.10426003477E+03  0.91042218146E+02 0.  0.
         23    2    1    2    0    0 -0.25315722430E+02  0.55560211620E+02 -0.28609625729E+02  0.11641524058E+03  0.94900867425E+02 0.  0.
        -11    1    4    4    0    0  0.10212926844E+02  0.70216999876E+02 -0.31989971764E+02  0.77833728163E+02  0.00000000000E+00 0. -1.
         11    1    4    4    0    0 -0.35528649274E+02 -0.14656788256E+02  0.33803460345E+01  0.38581512419E+02  0.00000000000E+00 0.  1.
        -13    1    3    3    0    0 -0.28832562575E+02  0.36325696305E+02 -0.19206784295E+02  0.50197344946E+02  0.00000000000E+00 0.  1.
         13    1    3    3    0    0  0.46258247142E+02 -0.15115096955E+02 -0.23547459457E+02  0.54062689828E+02  0.00000000000E+00 0. -1.
          1    1    1    2  501    0  0.78900378628E+01 -0.76770810971E+02  0.15623127276E+03  0.17425332336E+03  0.00000000000E+00 0. -1.
<scales pt_clust_5="13000.00000" pt_clust_6="13000.00000" pt_clust_7="13000.00000" pt_clust_8="13000.00000" pt_clust_9="77.17519"></scales>
<clustering>
<clus scale="   77.175">  1  9  2 -1</clus>
<clus scale="   91.042">  7  8 -1 -1</clus>
<clus scale="   93.939">  2  7  1 -1</clus>
<clus scale="   94.901">  5  6 -1 -1</clus>
<clus scale="   77.175">  1  5  2 -1</clus>
</clustering>
</event>
<event>
 9    1  0.1881049E-005  0.1388534E+03  0.7546771E-02  0.1231050E+00
         21   -1    0    0  501  502  0.00000000000E+00  0.00000000000E+00  0.56718133999E+02  0.56718133999E+02  0.00000000000E+00 0. -1.
          3   -1    0    0  502    0 -0.00000000000E+00 -0.00000000000E+00 -0.53353672935E+03  0.53353672935E+03  0.00000000000E+00 0. -1.
         23    2    1    2    0    0 -0.36252697548E+02  0.67112875142E+01 -0.16578043321E+03  0.19311409404E+03  0.91927154971E+02 0.  0.
         23    2    1    2    0    0 -0.74040071205E+02 -0.49444837734E+02 -0.18406938141E+03  0.22361347338E+03  0.90524715853E+02 0.  0.
        -11    1    3    3    0    0  0.12911798430E+02 -0.30585568582E+02 -0.33585567828E+02  0.47224801858E+02  0.00000000000E+00 0.  1.
         11    1    3    3    0    0 -0.49164495978E+02  0.37296856096E+02 -0.13219486538E+03  0.14588929218E+03  0.00000000000E+00 0. -1.
        -13    1    4    4    0    0 -0.55468976880E+02 -0.85963004771E+01 -0.16601173624E+03  0.17524440176E+03  0.00000000000E+00 0.  1.
         13    1    4    4    0    0 -0.18571094325E+02 -0.40848537257E+02 -0.18057645176E+02  0.48369071624E+02  0.00000000000E+00 0. -1.
          3    1    1    2  501    0  0.11029276875E+03  0.42733550220E+02 -0.12696878073E+03  0.17352729593E+03  0.00000000000E+00 0. -1.
<scales pt_clust_5="13000.00000" pt_clust_6="13000.00000" pt_clust_7="13000.00000" pt_clust_8="13000.00000" pt_clust_9="105.28795"></scales>
<clustering>
<clus scale="   90.525">  7  8 -1 -1</clus>
<clus scale="   91.927">  5  6 -1 -1</clus>
<clus scale="   99.045">  2  5  1 -1</clus>
<clus scale="  105.288">  1  9  2 -1</clus>
<clus scale="  105.288">  1  5  2 -1</clus>
</clustering>
</event>
<event>
 9    1  0.1881049E-005  0.1606739E+03  0.7546771E-02  0.1187946E+00
         21   -1    0    0  501  502  0.00000000000E+00  0.00000000000E+00  0.22296739793E+03  0.22296739793E+03  0.00000000000E+00 0.  1.
          2   -1    0    0  502    0 -0.00000000000E+00 -0.00000000000E+00 -0.20552188562E+03  0.20552188562E+03  0.00000000000E+00 0. -1.
         23    2    1    2    0    0 -0.12484349035E+03 -0.60890472185E+02 -0.54778471333E+02  0.17582168519E+03  0.92838770869E+02 0.  0.
         23    2    1    2    0    0  0.98319691458E+02  0.75174191111E+02 -0.19696459626E+02  0.15593650498E+03  0.92791822521E+02 0.  0.
        -11    1    4    4    0    0  0.38449214613E+02 -0.18237529022E+02  0.30975601179E+01  0.42667838565E+02  0.00000000000E+00 0.  1.
         11    1    4    4    0    0  0.59870476845E+02  0.93411720133E+02 -0.22794019744E+02  0.11326866642E+03  0.00000000000E+00 0. -1.
        -13    1    3    3    0    0 -0.73340688564E+02  0.56746030132E+01 -0.54682778852E+02  0.91658409442E+02  0.00000000000E+00 0. -1.
         13    1    3    3    0    0 -0.51502801784E+02 -0.66565075198E+02 -0.95692480930E-01  0.84163275749E+02  0.00000000000E+00 0.  1.
          2    1    1    2  501    0  0.26523798890E+02 -0.14283718926E+02  0.91920443275E+02  0.96731093377E+02  0.00000000000E+00 0. -1.
<scales pt_clust_5="13000.00000" pt_clust_6="13000.00000" pt_clust_7="13000.00000" pt_clust_8="13000.00000" pt_clust_9="30.12535"></scales>
<clustering>
<clus scale="   30.125">  1  9  2 -1</clus>
<clus scale="   92.792">  5  6 -1 -1</clus>
<clus scale="   92.839">  7  8 -1 -1</clus>
<clus scale="  160.647">  1  5  2 -1</clus>
<clus scale="   30.125">  1  5  2 -1</clus>
</clustering>
</event>
<event>
 9    1  0.1881049E-005  0.2051173E+03  0.7546771E-02  0.1145754E+00
         -3   -1    0    0    0  501 -0.00000000000E+00  0.00000000000E+00  0.20587793681E+03  0.20587793681E+03  0.00000000000E+00 0.  1.
         21   -1    0    0  501  502  0.00000000000E+00 -0.00000000000E+00 -0.26251537760E+03  0.26251537760E+03  0.00000000000E+00 0. -1.
         23    2    1    2    0    0  0.16391463176E+03 -0.93630372344E+02  0.98131672960E+01  0.20942445135E+03  0.90153477145E+02 0.  0.
         23    2    1    2    0    0 -0.17112327901E+03  0.47705296623E+02 -0.69887733479E+02  0.21235458406E+03  0.93011838687E+02 0.  0.
        -11    1    4    4    0    0 -0.10441991293E+03  0.50960255694E+02 -0.69959231369E+00  0.11619361130E+03  0.00000000000E+00 0.  1.
         11    1    4    4    0    0 -0.66703366078E+02 -0.32549590716E+01 -0.69188141165E+02  0.96160972762E+02  0.00000000000E+00 0. -1.
        -11    1    3    3    0    0  0.15201867614E+03 -0.48830216926E+02  0.22796610961E+02  0.16128779697E+03  0.00000000000E+00 0.  1.
         11    1    3    3    0    0  0.11895955620E+02 -0.44800155418E+02 -0.12983443665E+02  0.48136654381E+02  0.00000000000E+00 0. -1.
         -3    1    1    2    0  502  0.72086472498E+01  0.45925075721E+02  0.34371253952E+01  0.46614278994E+02  0.00000000000E+00 0.  1.
<scales pt_clust_5="13000.00000" pt_clust_6="13000.00000" pt_clust_7="13000.00000" pt_clust_8="13000.00000" pt_clust_9="46.48741"></scales>
<clustering>
<clus scale="   46.487">  2  9  1 -1</clus>
<clus scale="   90.153">  7  8 -1 -1</clus>
<clus scale="   93.012">  5  6 -1 -1</clus>
<clus scale="  203.837">  1  7  2 -1</clus>
<clus scale="   46.487">  2  5  1 -1</clus>
</clustering>
</event>
<event>
 9    1  0.1881049E-005  0.8995022E+02  0.7546771E-02  0.1304295E+00
         21   -1    0    0  501  502  0.00000000000E+00  0.00000000000E+00  0.16064213128E+03  0.16064213128E+03  0.00000000000E+00 0.  1.
         -3   -1    0    0    0  501 -0.00000000000E+00 -0.00000000000E+00 -0.27333836705E+03  0.27333836705E+03  0.00000000000E+00 0.  1.
         23    2    1    2    0    0  0.19826187989E+01  0.13247044527E+02 -0.20927667791E+03  0.22811009162E+03  0.89766758968E+02 0.  0.
         23    2    1    2    0    0  0.26352858155E+02  0.51206433388E+02  0.30195865123E+02  0.10910232243E+03  0.87606817864E+02 0.  0.
        -11    1    4    4    0    0 -0.44133251178E+01  0.56089930311E+02  0.47353426570E+02  0.73538457482E+02  0.00000000000E+00 0.  1.
         11    1    4    4    0    0  0.30766183273E+02 -0.48834969228E+01 -0.17157561447E+02  0.35563864950E+02  0.00000000000E+00 0. -1.
        -11    1    3    3    0    0 -0.34174408698E+02  0.33335886714E+02 -0.90216131349E+02  0.10206920157E+03  0.00000000000E+00 0. -1.
         11    1    3    3    0    0  0.36157027497E+02 -0.20088842187E+02 -0.11906054656E+03  0.12604089005E+03  0.00000000000E+00 0.  1.
         -3    1    1    2    0  502 -0.28335476954E+02 -0.64453477915E+02  0.66384577010E+02  0.96768084276E+02  0.00000000000E+00 0.  1.
<scales pt_clust_5="13000.00000" pt_clust_6="13000.00000" pt_clust_7="13000.00000" pt_clust_8="13000.00000" pt_clust_9="70.40703"></scales>
<clustering>
<clus scale="   70.407">  1  9  2 -1</clus>
<clus scale="   87.607">  5  6 -1 -1</clus>
<clus scale="   87.795">  1  5  2 -1</clus>
<clus scale="   89.767">  7  8 -1 -1</clus>
<clus scale="   70.407">  1  5  2 -1</clus>
</clustering>
</event>
<event>
 9    1  0.1881049E-005  0.1596528E+03  0.7546771E-02  0.1198432E+00
         21   -1    0    0  501  502  0.00000000000E+00  0.00000000000E+00  0.42472139479E+02  0.42472139479E+02  0.00000000000E+00 0. -1.
          1   -1    0    0  502    0 -0.00000000000E+00 -0.00000000000E+00 -0.17411135884E+04  0.17411135884E+04  0.00000000000E+00 0. -1.
         23    2    1    2    0    0  0.12589308571E+02  0.94241967646E+02 -0.54459143203E+03  0.55990419694E+03  0.88729041229E+02 0.  0.
         23    2    1    2    0    0 -0.87212800192E+02  0.38454084570E+02 -0.18145966184E+03  0.23924823887E+03  0.12339903481E+03 0.  0.
        -11    1    4    4    0    0 -0.36620163732E+02  0.43968385980E+02 -0.71559412262E+01  0.57666826272E+02  0.00000000000E+00 0. -1.
         11    1    4    4    0    0 -0.50592636460E+02 -0.55143014097E+01 -0.17430372061E+03  0.18158141260E+03  0.00000000000E+00 0.  1.
        -13    1    3    3    0    0 -0.19999531363E+02  0.94423320901E+02 -0.37588785313E+03  0.38808172196E+03  0.00000000000E+00 0. -1.
         13    1    3    3    0    0  0.32588839934E+02 -0.18135325528E+00 -0.16870357889E+03  0.17182247498E+03  0.00000000000E+00 0.  1.
          1    1    1    2  501    0  0.74623491621E+02 -0.13269605222E+03 -0.97259035506E+03  0.98443329207E+03  0.00000000000E+00 0. -1.
<scales pt_clust_5="13000.00000" pt_clust_6="13000.00000" pt_clust_7="13000.00000" pt_clust_8="13000.00000" pt_clust_9="101.30010"></scales>
<clustering>
<clus scale="   88.729">  7  8 -1 -1</clus>
<clus scale="  123.399">  5  6 -1 -1</clus>
<clus scale="  130.050">  2  7  1 -1</clus>
<clus scale="  101.300">  1  9  2 -1</clus>
<clus scale="  101.300">  1  5  2 -1</clus>
</clustering>
</event>
<event>
 9    1  0.1881049E-005  0.1162645E+03  0.7546771E-02  0.1251567E+00
         -2   -1    0    0    0  501 -0.00000000000E+00  0.00000000000E+00  0.28339291744E+03  0.28339291744E+03  0.00000000000E+00 0.  1.
         21   -1    0    0  501  502  0.00000000000E+00 -0.00000000000E+00 -0.66519303554E+02  0.66519303554E+02  0.00000000000E+00 0.  1.
         23    2    1    2    0    0  0.56199563047E+02 -0.37260982140E+02  0.11556298060E+03  0.16006442554E+03  0.87858102421E+02 0.  0.
         23    2    1    2    0    0 -0.72445347651E+02  0.10598717437E+02  0.10443889542E+03  0.15846965178E+03  0.94045129873E+02 0.  0.
        -11    1    3    3    0    0  0.27045829058E+02 -0.47646332171E+02  0.11688475465E+03  0.12908793789E+03  0.00000000000E+00 0.  1.
         11    1    3    3    0    0  0.29153733989E+02  0.10385350031E+02 -0.13217740442E+01  0.30976487654E+02  0.00000000000E+00 0. -1.
        -13    1    4    4    0    0 -0.47037032968E+02  0.51940744053E+02  0.53896225765E+02  0.88403204212E+02  0.00000000000E+00 0.  1.
         13    1    4    4    0    0 -0.25408314683E+02 -0.41342026616E+02  0.50542669650E+02  0.70066447570E+02  0.00000000000E+00 0. -1.
         -2    1    1    2    0  502  0.16245784604E+02  0.26662264703E+02 -0.31282621289E+01  0.31378143674E+02  0.00000000000E+00 0.  1.
<scales pt_clust_5="13000.00000" pt_clust_6="13000.00000" pt_clust_7="13000.00000" pt_clust_8="13000.00000" pt_clust_9="31.22182"></scales>
<clustering>
<clus scale="   31.222">  2  9  1 -1</clus>
<clus scale="   87.858">  5  6 -1 -1</clus>
<clus scale="   94.045">  7  8 -1 -1</clus>
<clus scale="  111.319">  1  5  2 -1</clus>
<clus scale="   31.222">  2  5  1 -1</clus>
</clustering>
</event>
<event>
 9    1  0.1881049E-005  0.2021445E+03  0.7546771E-02  0.1148614E+00
         21   -1    0    0  501  502  0.00000000000E+00  0.00000000000E+00  0.49948597589E+02  0.49948597589E+02  0.00000000000E+00 0. -1.
          2   -1    0    0  502    0 -0.00000000000E+00 -0.00000000000E+00 -0.12470822680E+04  0.12470822680E+04  0.00000000000E+00 0. -1.
         23    2    1    2    0    0 -0.53841548841E+02  0.15503852261E+03 -0.60458726606E+03  0.63196614257E+03  0.83184056155E+02 0.  0.
         23    2    1    2    0    0  0.42839880509E+02 -0.20399632075E+03 -0.56225270348E+03  0.60645063752E+03  0.90578799595E+02 0.  0.
        -11    1    4    4    0    0  0.61192745520E+02 -0.15465625151E+03 -0.34624482916E+03  0.38412054092E+03  0.00000000000E+00 0. -1.
         11    1    4    4    0    0 -0.18352865011E+02 -0.49340069243E+02 -0.21600787432E+03  0.22233009660E+03  0.00000000000E+00 0.  1.
        -11    1    3    3    0    0 -0.73114421629E+02  0.11777661472E+03 -0.50977670991E+03  0.52828907199E+03  0.00000000000E+00 0. -1.
         11    1    3    3    0    0  0.19272872787E+02  0.37261907894E+02 -0.94810556157E+02  0.10367707058E+03  0.00000000000E+00 0.  1.
          2    1    1    2  501    0  0.11001668332E+02  0.48957798145E+02 -0.30293700855E+02  0.58614085481E+02  0.00000000000E+00 0. -1.
<scales pt_clust_5="13000.00000" pt_clust_6="13000.00000" pt_clust_7="13000.00000" pt_clust_8="13000.00000" pt_clust_9="50.17871"></scales>
<clustering>
<clus scale="   50.179">  1  9  2 -1</clus>
<clus scale="   83.184">  7  8 -1 -1</clus>
<clus scale="   90.579">  5  6 -1 -1</clus>
<clus scale="  198.941">  2  7  1 -1</clus>
<clus scale="   50.179">  1  5  2 -1</clus>
</clustering>
</event>
<event>
 9    1  0.1881049E-005  0.1014906E+03  0.7546771E-02  0.1278159E+00
         21   -1    0    0  501  502  0.00000000000E+00  0.00000000000E+00  0.12475915411E+03  0.12475915411E+03  0.00000000000E+00 0. -1.
          2   -1    0    0  502    0 -0.00000000000E+00 -0.00000000000E+00 -0.25499192122E+03  0.25499192122E+03  0.00000000000E+00 0. -1.
         23    2    1    2    0    0  0.17433879209E+02  0.28523207314E+02 -0.12994635844E+03  0.16127860862E+03  0.89483071172E+02 0.  0.
         23    2    1    2    0    0 -0.54225117635E+02 -0.38923552076E+02 -0.74077131526E+02  0.13536510737E+03  0.91547171391E+02 0.  0.
        -13    1    3    3    0    0  0.12070941948E+02  0.54293022038E+02 -0.42617745798E+02  0.70069338076E+02  0.00000000000E+00 0.  1.
         13    1    3    3    0    0  0.53629372611E+01 -0.25769814724E+02 -0.87328612642E+02  0.91209270542E+02  0.00000000000E+00 0. -1.
        -13    1    4    4    0    0 -0.25355801342E+02 -0.55110508330E+02 -0.81349207922E+02  0.10147797012E+03  0.00000000000E+00 0. -1.
         13    1    4    4    0    0 -0.28869316292E+02  0.16186956254E+02  0.72720763958E+01  0.33887137251E+02  0.00000000000E+00 0.  1.
          2    1    1    2  501    0  0.36791238425E+02  0.10400344761E+02  0.73790722859E+02  0.83107359337E+02  0.00000000000E+00 0. -1.
<scales pt_clust_5="13000.00000" pt_clust_6="13000.00000" pt_clust_7="13000.00000" pt_clust_8="13000.00000" pt_clust_9="38.23300"></scales>
<clustering>
<clus scale="   38.233">  1  9  2 -1</clus>
<clus scale="   89.483">  5  6 -1 -1</clus>
<clus scale="   91.547">  7  8 -1 -1</clus>
<clus scale="   99.633">  2  5  1 -1</clus>
<clus scale="   38.233">  1  5  2 -1</clus>
</clustering>
</event>
<event>
 9    1  0.1881049E-005  0.1059275E+03  0.7546771E-02  0.1269421E+00
         21   -1    0    0  501  502  0.00000000000E+00  0.00000000000E+00  0.14230715358E+03  0.14230715358E+03  0.00000000000E+00 0. -1.
         -1   -1    0    0    0  501 -0.00000000000E+00 -0.00000000000E+00 -0.38485418115E+03  0.38485418115E+03  0.00000000000E+00 0.  1.
         23    2    1    2    0    0  0.38407634796E+02 -0.40113978155E+01 -0.34251995125E+03  0.35881711456E+03  0.99692361662E+02 0.  0.
         23    2    1    2    0    0 -0.67862298317E+01  0.82010935382E+01  0.52222585106E+02  0.11091982087E+03  0.97276397016E+02 0.  0.
        -11    1    3    3    0    0 -0.23588808539E+01 -0.46910627979E+02 -0.17306179149E+03  0.17932248885E+03  0.00000000000E+00 0.  1.
         11    1    3    3    0    0  0.40766515650E+02  0.42899230163E+02 -0.16945815976E+03  0.17949462570E+03  0.00000000000E+00 0. -1.
        -11    1    4    4    0    0 -0.29195492265E+02 -0.22370673713E+02  0.61715038136E+02  0.71844065469E+02  0.00000000000E+00 0. -1.
         11    1    4    4    0    0  0.22409262433E+02  0.30571767252E+02 -0.94924530303E+01  0.39075755402E+02  0.00000000000E+00 0.  1.
         -1    1    1    2    0  502 -0.31621404965E+02 -0.41896957227E+01  0.47750338568E+02  0.57424399305E+02  0.00000000000E+00 0.  1.
<scales pt_clust_5="13000.00000" pt_clust_6="13000.00000" pt_clust_7="13000.00000" pt_clust_8="13000.00000" pt_clust_9="31.89776"></scales>
<clustering>
<clus scale="   31.898">  1  9  2 -1</clus>
<clus scale="   97.276">  7  8 -1 -1</clus>
<clus scale="   99.692">  5  6 -1 -1</clus>
<clus scale="  103.657">  1  7  2 -1</clus>
<clus scale="   31.898">  1  5  2 -1</clus>
</clustering>
</event>
<event>
 9    1  0.1881049E-005  0.1332974E+03  0.7546771E-02  0.1228161E+00
          3   -1    0    0  502    0 -0.00000000000E+00  0.00000000000E+00  0.70156821462E+03  0.70156821462E+03  0.00000000000E+00 0. -1.
         21   -1    0    0  501  502  0.00000000000E+00 -0.00000000000E+00 -0.37791628428E+02  0.37791628428E+02  0.00000000000E+00 0.  1.
         23    2    1    2    0    0  0.68909577924E+02  0.23916263168E+02  0.47719095121E+03  0.49444845407E+03  0.10699323455E+03 0.  0.
         23    2    1    2    0    0 -0.93963110632E+02 -0.22725749012E+02  0.17100468803E+03  0.21538406717E+03  0.88329877369E+02 0.  0.
        -11    1    3    3    0    0  0.77675525840E+02 -0.20181275026E+02  0.24085181808E+03  0.25387077313E+03  0.00000000000E+00 0.  1.
         11    1    3    3    0    0 -0.87659479163E+01  0.44097538194E+02  0.23633913313E+03  0.24057768094E+03  0.00000000000E+00 0. -1.
        -11    1    4    4    0    0  0.11506280596E+02 -0.17439922721E+02  0.10837610217E+02  0.23537187446E+02  0.00000000000E+00 0.  1.
         11    1    4    4    0    0 -0.10546939123E+03 -0.52858262909E+01  0.16016707781E+03  0.19184687972E+03  0.00000000000E+00 0. -1.
          3    1    1    2  501    0  0.25053532708E+02 -0.11905141559E+01  0.15580946952E+02  0.29527321806E+02  0.00000000000E+00 0. -1.
<scales pt_clust_5="13000.00000" pt_clust_6="13000.00000" pt_clust_7="13000.00000" pt_clust_8="13000.00000" pt_clust_9="25.08180"></scales>
<clustering>
<clus scale="   25.082">  2  9  1 -1</clus>
<clus scale="   88.330">  7  8 -1 -1</clus>
<clus scale="  106.993">  5  6 -1 -1</clus>
<clus scale="  118.839">  2  7  1 -1</clus>
<clus scale="   25.082">  2  5  1 -1</clus>
</clustering>
</event>
<event>
 9    1  0.1881049E-005  0.2029836E+03  0.7546771E-02  0.1169607E+00
         21   -1    0    0  501  502  0.00000000000E+00  0.00000000000E+00  0.18620476457E+03  0.18620476457E+03  0.00000000000E+00 0.  1.
         -2   -1    0    0    0  501 -0.00000000000E+00 -0.00000000000E+00 -0.36591988692E+03  0.36591988692E+03  0.00000000000E+00 0.  1.
         23    2    1    2    0    0  0.35787316885E+02  0.72455599080E+02 -0.71642157272E+02  0.14013216444E+03  0.89296578450E+02 0.  0.
         23    2    1    2    0    0 -0.13719802824E+03 -0.18378449321E+03 -0.61154130737E+02  0.25425970015E+03  0.91148935916E+02 0.  0.
        -11    1    3    3    0    0  0.41729732834E+02  0.27747434444E+02 -0.79867038403E+02  0.94286979715E+02  0.00000000000E+00 0. -1.
         11    1    3    3    0    0 -0.59424159486E+01  0.44708164636E+02  0.82248811310E+01  0.45845184720E+02  0.00000000000E+00 0.  1.
        -13    1    4    4    0    0 -0.95438314984E+02 -0.16483344898E+03 -0.77418950673E+02  0.20560212011E+03  0.00000000000E+00 0.  1.
         13    1    4    4    0    0 -0.41759713251E+02 -0.18951044233E+02  0.16264819936E+02  0.48657580046E+02  0.00000000000E+00 0. -1.
         -2    1    1    2    0  502  0.10141071135E+03  0.11132889413E+03 -0.46918834342E+02  0.15773278689E+03  0.00000000000E+00 0.  1.
<scales pt_clust_5="13000.00000" pt_clust_6="13000.00000" pt_clust_7="13000.00000" pt_clust_8="13000.00000" pt_clust_9="181.36767"></scales>
<clustering>
<clus scale="   89.297">  5  6 -1 -1</clus>
<clus scale="   91.149">  7  8 -1 -1</clus>
<clus scale="  120.434">  2  5  1 -1</clus>
<clus scale="  181.368">  1  9  2 -1</clus>
<clus scale="  181.368">  1  5  2 -1</clus>
</clustering>
</event>
<event>
 9    1  0.1881049E-005  0.9929717E+02  0.7546771E-02  0.1282994E+00
         21   -1    0    0  501  502  0.00000000000E+00  0.00000000000E+00  0.32762329993E+03  0.32762329993E+03  0.00000000000E+00 0. -1.
          2   -1    0    0  502    0 -0.00000000000E+00 -0.00000000000E+00 -0.20450600841E+03  0.20450600841E+03  0.00000000000E+00 0. -1.
         23    2    1    2    0    0  0.63817011015E+01 -0.34695778681E+02 -0.17740858892E+03  0.20261105614E+03  0.91284771343E+02 0.  0.
         23    2    1    2    0    0  0.36973392601E+01 -0.44319373428E+01  0.19196660921E+03  0.21368353985E+03  0.93681181491E+02 0.  0.
        -11    1    3    3    0    0 -0.27004274175E+02 -0.31908117509E+02 -0.15896176646E+03  0.16436606093E+03  0.00000000000E+00 0. -1.
         11    1    3    3    0    0  0.33385975276E+02 -0.27876611719E+01 -0.18446822453E+02  0.38244995210E+02  0.00000000000E+00 0.  1.
        -11    1    4    4    0    0 -0.43480325781E+02 -0.10989117436E+02  0.74931808977E+02  0.87327403652E+02  0.00000000000E+00 0. -1.
         11    1    4    4    0    0  0.47177665041E+02  0.65571800933E+01  0.11703480023E+03  0.12635613620E+03  0.00000000000E+00 0.  1.
          2    1    1    2  501    0 -0.10079040362E+02  0.39127716023E+02  0.10855927123E+03  0.11583471236E+03  0.00000000000E+00 0. -1.
<scales pt_clust_5="13000.00000" pt_clust_6="13000.00000" pt_clust_7="13000.00000" pt_clust_8="13000.00000" pt_clust_9="40.40501"></scales>
<clustering>
<clus scale="   40.405">  1  9  2 -1</clus>
<clus scale="   91.285">  5  6 -1 -1</clus>
<clus scale="   93.681">  7  8 -1 -1</clus>
<clus scale="   97.040">  2  5  1 -1</clus>
<clus scale="   40.405">  1  5  2 -1</clus>
</clustering>
</event>
