<event>
 9    1  0.1435532E-005  0.9962750E+02  0.7546771E-02  0.1284761E+00
         -2   -1    0    0    0  501 -0.00000000000E+00  0.00000000000E+00  0.20934511082E+03  0.20934511082E+03  0.00000000000E+00 0.  1.
          2   -1    0    0  502    0  0.00000000000E+00 -0.00000000000E+00 -0.67896289095E+02  0.67896289095E+02  0.00000000000E+00 0. -1.
         23    2    1    2    0    0  0.28107456866E+02  0.27734758706E+02  0.79691575843E+02  0.12360081893E+03  0.85832215450E+02 0.  0.
         23    2    1    2    0    0 -0.27099104298E+01 -0.36149825355E+02  0.73924465083E+02  0.12424857638E+03  0.93052290169E+02 0.  0.
        -13    1    4    4    0    0 -0.19305980773E+02 -0.62820648253E+02  0.62864659560E+02  0.90945698975E+02  0.00000000000E+00 0. -1.
         13    1    4    4    0    0  0.16596070343E+02  0.26670822898E+02  0.11059805523E+02  0.33302877400E+02  0.00000000000E+00 0.  1.
        -13    1    3    3    0    0  0.32675825980E+01  0.49941816519E+02  0.74690301358E+02  0.89908304679E+02  0.00000000000E+00 0.  1.
         13    1    3    3    0    0  0.24839874268E+02 -0.22207057814E+02  0.50012744852E+01  0.33692514256E+02  0.00000000000E+00 0. -1.
         21    1    1    2  502  501 -0.25397546437E+02  0.84150666497E+01 -0.12167219200E+02  0.29392004606E+02  0.00000000000E+00 0.  1.
<scales pt_clust_5="13000.00000" pt_clust_6="13000.00000" pt_clust_7="13000.00000" pt_clust_8="13000.00000" pt_clust_9="26.75535"></scales>
<clustering>
<clus scale="   26.755">  2  9  1 -1</clus>
<clus scale="   85.832">  7  8 -1 -1</clus>
<clus scale="   92.920">  1  7  2 -1</clus>
<clus scale="   93.052">  5  6 -1 -1</clus>
<clus scale="   26.755">  2  5  1 -1</clus>
</clustering>
</event>
<event>
 9    1  0.1435532E-005  0.1657309E+03  0.7546771E-02  0.1185403E+00
          1   -1    0    0  502    0  0.00000000000E+00  0.00000000000E+00  0.67684278452E+03  0.67684278452E+03  0.00000000000E+00 0. -1.
         -1   -1    0    0    0  501 -0.00000000000E+00 -0.00000000000E+00 -0.10261950858E+03  0.10261950858E+03  0.00000000000E+00 0.  1.
         23    2    1    2    0    0 -0.88732437106E+02  0.10079441918E+03 -0.17091083190E+01  0.17243101210E+03  0.10815069372E+03 0.  0.
         23    2    1    2    0    0  0.71979501954E+02 -0.61819961551E+02  0.29450651390E+03  0.32242595832E+03  0.90673345168E+02 0.  0.
        -11    1    3    3    0    0 -0.74047053751E+02  0.12773115590E+02  0.25151225743E+02  0.79238266056E+02  0.00000000000E+00 0. -1.
         11    1    3    3    0    0 -0.14685383354E+02  0.88021303592E+02 -0.26860334062E+02  0.93192746049E+02  0.00000000000E+00 0.  1.
        -13    1    4    4    0    0  0.13089638410E+02  0.23070199331E+02  0.42966673142E+02  0.50494630722E+02  0.00000000000E+00 0.  1.
         13    1    4    4    0    0  0.58889863544E+02 -0.84890160882E+02  0.25153984075E+03  0.27193132760E+03  0.00000000000E+00 0. -1.
         21    1    1    2  502  501  0.16752935152E+02 -0.38974457630E+02  0.28142587036E+03  0.28460532267E+03  0.00000000000E+00 0. -1.
<scales pt_clust_5="13000.00000" pt_clust_6="13000.00000" pt_clust_7="13000.00000" pt_clust_8="13000.00000" pt_clust_9="42.42251"></scales>
<clustering>
<clus scale="   42.423">  1  9  2 -1</clus>
<clus scale="   90.673">  7  8 -1 -1</clus>
<clus scale="  108.151">  5  6 -1 -1</clus>
<clus scale="  154.893">  1  7  2 -1</clus>
<clus scale="   42.423">  1  5  2 -1</clus>
</clustering>
</event>
<event>
 9    1  0.1435532E-005  0.9489328E+02  0.7546771E-02  0.1292266E+00
         -2   -1    0    0    0  501 -0.00000000000E+00  0.00000000000E+00  0.32272507020E+03  0.32272507020E+03  0.00000000000E+00 0.  1.
          2   -1    0    0  502    0  0.00000000000E+00 -0.00000000000E+00 -0.71677704230E+02  0.71677704230E+02  0.00000000000E+00 0. -1.
         23    2    1    2    0    0 -0.52485053510E+02 -0.29007427390E+02  0.18787698428E+03  0.21541419700E+03  0.86656813705E+02 0.  0.
         23    2    1    2    0    0 -0.29467779020E+01 -0.28276391195E+00  0.74179569997E+02  0.11533478361E+03  0.88265170080E+02 0.  0.
        -11    1    4    4    0    0 -0.16293579760E+02 -0.41125834971E+02  0.46730217485E+02  0.64346936754E+02  0.00000000000E+00 0. -1.
         11    1    4    4    0    0  0.13346801858E+02  0.40843071059E+02  0.27449352512E+02  0.50987846853E+02  0.00000000000E+00 0.  1.
        -13    1    3    3    0    0 -0.63923615580E+02  0.54093434459E+01  0.86124651149E+02  0.10739155070E+03  0.00000000000E+00 0. -1.
         13    1    3    3    0    0  0.11438562070E+02 -0.34416770836E+02  0.10175233313E+03  0.10802264631E+03  0.00000000000E+00 0.  1.
         21    1    1    2  502  501  0.55431831412E+02  0.29290191302E+02 -0.11009188311E+02  0.63653793818E+02  0.00000000000E+00 0. -1.
<scales pt_clust_5="13000.00000" pt_clust_6="13000.00000" pt_clust_7="13000.00000" pt_clust_8="13000.00000" pt_clust_9="62.69452"></scales>
<clustering>
<clus scale="   62.695">  2  9  1 -1</clus>
<clus scale="   86.657">  7  8 -1 -1</clus>
<clus scale="   88.265">  5  6 -1 -1</clus>
<clus scale="   93.399">  1  7  2 -1</clus>
<clus scale="   62.695">  2  5  1 -1</clus>
</clustering>
</event>
<event>
 9    1  0.1435532E-005  0.1069208E+03  0.7546771E-02  0.1266451E+00
         -1   -1    0    0    0  501 -0.00000000000E+00  0.00000000000E+00  0.41634129354E+02  0.41634129354E+02  0.00000000000E+00 0.  1.
          1   -1    0    0  502    0  0.00000000000E+00 -0.00000000000E+00 -0.37593424784E+03  0.37593424784E+03  0.00000000000E+00 0. -1.
         23    2    1    2    0    0 -0.21812238687E+01  0.43410136185E+02 -0.13232279102E+03  0.16652878053E+03  0.91286998300E+02 0.  0.
         23    2    1    2    0    0  0.25165807742E+02 -0.65330506751E+02 -0.13772074823E+03  0.17936183361E+03  0.91116792482E+02 0.  0.
        -11    1    3    3    0    0 -0.35266166317E+02  0.49557693686E+02 -0.54212180709E+02  0.81477776279E+02  0.00000000000E+00 0. -1.
         11    1    3    3    0    0  0.33084942448E+02 -0.61475575008E+01 -0.78110610312E+02  0.85051004246E+02  0.00000000000E+00 0.  1.
        -13    1    4    4    0    0 -0.29743553568E+02 -0.44842153689E+02 -0.47495079300E+02  0.71772420080E+02  0.00000000000E+00 0. -1.
         13    1    4    4    0    0  0.54909361310E+02 -0.20488353062E+02 -0.90225668926E+02  0.10758941353E+03  0.00000000000E+00 0.  1.
         21    1    1    2  502  501 -0.22984583873E+02  0.21920370566E+02 -0.64256579242E+02  0.71677763062E+02  0.00000000000E+00 0.  1.
<scales pt_clust_5="13000.00000" pt_clust_6="13000.00000" pt_clust_7="13000.00000" pt_clust_8="13000.00000" pt_clust_9="31.76151"></scales>
<clustering>
<clus scale="   31.762">  2  9  1 -1</clus>
<clus scale="   91.117">  7  8 -1 -1</clus>
<clus scale="   91.287">  5  6 -1 -1</clus>
<clus scale="  106.776">  2  7  1 -1</clus>
<clus scale="   31.762">  2  5  1 -1</clus>
</clustering>
</event>
<event>
 9    1  0.1435532E-005  0.1377440E+03  0.7546771E-02  0.1216809E+00
         -1   -1    0    0    0  501 -0.00000000000E+00  0.00000000000E+00  0.36733205352E+03  0.36733205352E+03  0.00000000000E+00 0.  1.
          1   -1    0    0  502    0  0.00000000000E+00 -0.00000000000E+00 -0.92888297932E+02  0.92888297932E+02  0.00000000000E+00 0. -1.
         23    2    1    2    0    0 -0.61404753836E+02  0.69837355162E+02  0.20048521180E+03  0.23941006132E+03  0.92060074617E+02 0.  0.
         23    2    1    2    0    0  0.89990119104E+02 -0.84127636997E+02  0.97435599935E+02  0.18115543636E+03  0.90265802746E+02 0.  0.
        -11    1    4    4    0    0  0.76155254102E+02 -0.36509309959E+02  0.10074057418E+03  0.13145803790E+03  0.00000000000E+00 0.  1.
         11    1    4    4    0    0  0.13834865002E+02 -0.47618327038E+02 -0.33049742454E+01  0.49697398466E+02  0.00000000000E+00 0. -1.
        -13    1    3    3    0    0 -0.43851722133E+02  0.91403813921E+02  0.17164389753E+03  0.19934707997E+03  0.00000000000E+00 0.  1.
         13    1    3    3    0    0 -0.17553031703E+02 -0.21566458759E+02  0.28841314273E+02  0.40062981347E+02  0.00000000000E+00 0. -1.
         21    1    1    2  502  501 -0.28585365267E+02  0.14290281835E+02 -0.23477056150E+02  0.39654853774E+02  0.00000000000E+00 0.  1.
<scales pt_clust_5="13000.00000" pt_clust_6="13000.00000" pt_clust_7="13000.00000" pt_clust_8="13000.00000" pt_clust_9="31.95834"></scales>
<clustering>
<clus scale="   31.958">  2  9  1 -1</clus>
<clus scale="   90.266">  5  6 -1 -1</clus>
<clus scale="   92.060">  7  8 -1 -1</clus>
<clus scale="  136.551">  2  5  1 -1</clus>
<clus scale="   31.958">  2  5  1 -1</clus>
</clustering>
</event>
<event>
 9    1  0.1435532E-005  0.9465540E+02  0.7546771E-02  0.1292033E+00
          1   -1    0    0  502    0  0.00000000000E+00  0.00000000000E+00  0.15880461121E+03  0.15880461121E+03  0.00000000000E+00 0. -1.
         -1   -1    0    0    0  501 -0.00000000000E+00 -0.00000000000E+00 -0.10531947551E+03  0.10531947551E+03  0.00000000000E+00 0.  1.
         23    2    1    2    0    0 -0.26094630117E+02 -0.36009374703E+02 -0.36672570586E+02  0.10766163879E+03  0.90931547038E+02 0.  0.
         23    2    1    2    0    0  0.16175041756E+02  0.14346365583E+02  0.93848751187E+02  0.13235211799E+03  0.90785708432E+02 0.  0.
        -11    1    4    4    0    0  0.56323376781E+01  0.51867581342E+02  0.67476093142E+02  0.85293565804E+02  0.00000000000E+00 0. -1.
         11    1    4    4    0    0  0.10542704078E+02 -0.37521215759E+02  0.26372658045E+02  0.47058552184E+02  0.00000000000E+00 0.  1.
        -13    1    3    3    0    0 -0.53284748528E+02 -0.80546565393E+01 -0.41971437597E+02  0.68306247823E+02  0.00000000000E+00 0.  1.
         13    1    3    3    0    0  0.27190118411E+02 -0.27954718163E+02  0.52988670109E+01  0.39355390970E+02  0.00000000000E+00 0. -1.
         21    1    1    2  502  501  0.99195883605E+01  0.21663009120E+02 -0.36910449026E+01  0.24110329941E+02  0.00000000000E+00 0. -1.
<scales pt_clust_5="13000.00000" pt_clust_6="13000.00000" pt_clust_7="13000.00000" pt_clust_8="13000.00000" pt_clust_9="23.82612"></scales>
<clustering>
<clus scale="   23.826">  2  9  1 -1</clus>
<clus scale="   90.786">  5  6 -1 -1</clus>
<clus scale="   90.932">  7  8 -1 -1</clus>
<clus scale="   94.515">  1  5  2 -1</clus>
<clus scale="   94.515">  1  5  2 -1</clus>
</clustering>
</event>
<event>
 9    1  0.1435532E-005  0.1005415E+03  0.7546771E-02  0.1281891E+00
          1   -1    0    0  502    0  0.00000000000E+00  0.00000000000E+00  0.88919890849E+02  0.88919890849E+02  0.00000000000E+00 0. -1.
         -1   -1    0    0    0  501 -0.00000000000E+00 -0.00000000000E+00 -0.20500006464E+03  0.20500006464E+03  0.00000000000E+00 0.  1.
         23    2    1    2    0    0  0.22900550661E+02  0.55905490845E+01 -0.12870858939E+03  0.16239767498E+03  0.96184273115E+02 0.  0.
         23    2    1    2    0    0 -0.44189535603E+02 -0.22713190932E+02  0.11325576412E+02  0.10417080645E+03  0.90855292284E+02 0.  0.
        -11    1    4    4    0    0 -0.27652722033E+02 -0.42268188831E+02 -0.27613057239E+02  0.57565213045E+02  0.00000000000E+00 0.  1.
         11    1    4    4    0    0 -0.16536813569E+02  0.19554997899E+02  0.38938633651E+02  0.46605593403E+02  0.00000000000E+00 0. -1.
        -13    1    3    3    0    0  0.26843006053E+00 -0.44232715212E+02 -0.60677064522E+02  0.75088689619E+02  0.00000000000E+00 0. -1.
         13    1    3    3    0    0  0.22632120600E+02  0.49823264296E+02 -0.68031524871E+02  0.87308985358E+02  0.00000000000E+00 0.  1.
         21    1    1    2  502  501  0.21288984942E+02  0.17122641848E+02  0.13028391870E+01  0.27351474067E+02  0.00000000000E+00 0.  1.
<scales pt_clust_5="13000.00000" pt_clust_6="13000.00000" pt_clust_7="13000.00000" pt_clust_8="13000.00000" pt_clust_9="27.32043"></scales>
<clustering>
<clus scale="   27.320">  1  9  2 -1</clus>
<clus scale="   90.855">  5  6 -1 -1</clus>
<clus scale="   95.456">  1  5  2 -1</clus>
<clus scale="   96.184">  7  8 -1 -1</clus>
<clus scale="   27.320">  1  5  2 -1</clus>
</clustering>
</event>
<event>
 9    1  0.1435532E-005  0.9280491E+02  0.7546771E-02  0.1297720E+00
          1   -1    0    0  502    0  0.00000000000E+00  0.00000000000E+00  0.28662039090E+02  0.28662039090E+02  0.00000000000E+00 0. -1.
         -1   -1    0    0    0  501 -0.00000000000E+00 -0.00000000000E+00 -0.48341355389E+03  0.48341355389E+03  0.00000000000E+00 0.  1.
         23    2    1    2    0    0 -0.83669862360E+01  0.14094555959E+02 -0.25858297898E+03  0.27386010975E+03  0.88687878120E+02 0.  0.
         23    2    1    2    0    0 -0.22341271940E+02 -0.19578724136E+02 -0.17764656236E+03  0.20193688456E+03  0.91311255362E+02 0.  0.
        -13    1    3    3    0    0  0.76081624695E+01  0.49800183944E+02 -0.12847302655E+03  0.13799732246E+03  0.00000000000E+00 0. -1.
         13    1    3    3    0    0 -0.15975148705E+02 -0.35705627985E+02 -0.13010995244E+03  0.13586278729E+03  0.00000000000E+00 0.  1.
        -13    1    4    4    0    0  0.20814723318E+02 -0.11917787701E+02 -0.59198865382E+01  0.24704886705E+02  0.00000000000E+00 0. -1.
         13    1    4    4    0    0 -0.43155995259E+02 -0.76609364353E+01 -0.17172667582E+03  0.17723199785E+03  0.00000000000E+00 0.  1.
         21    1    1    2  502  501  0.30708258176E+02  0.54841681774E+01 -0.18521973450E+02  0.36278598667E+02  0.00000000000E+00 0. -1.
<scales pt_clust_5="13000.00000" pt_clust_6="13000.00000" pt_clust_7="13000.00000" pt_clust_8="13000.00000" pt_clust_9="31.19412"></scales>
<clustering>
<clus scale="   31.194">  1  9  2 -1</clus>
<clus scale="   88.688">  5  6 -1 -1</clus>
<clus scale="   90.225">  2  5  1 -1</clus>
<clus scale="   91.311">  7  8 -1 -1</clus>
<clus scale="   31.194">  1  5  2 -1</clus>
</clustering>
</event>
<event>
 9    1  0.1435532E-005  0.1116424E+03  0.7546771E-02  0.1258560E+00
          1   -1    0    0  502    0  0.00000000000E+00  0.00000000000E+00  0.32086848695E+03  0.32086848695E+03  0.00000000000E+00 0. -1.
         -1   -1    0    0    0  501 -0.00000000000E+00 -0.00000000000E+00 -0.72550932235E+02  0.72550932235E+02  0.00000000000E+00 0.  1.
         23    2    1    2    0    0  0.76360848434E+02 -0.10349433034E+02  0.35357791901E+02  0.12399964848E+03  0.90485631111E+02 0.  0.
         23    2    1    2    0    0 -0.21019693122E+02  0.34145722726E+02  0.15885676669E+03  0.18845038721E+03  0.93114543630E+02 0.  0.
        -11    1    4    4    0    0 -0.11478122767E+02  0.65733942570E+02  0.12141138867E+03  0.13854033278E+03  0.00000000000E+00 0. -1.
         11    1    4    4    0    0 -0.95415703546E+01 -0.31588219844E+02  0.37445378021E+02  0.49910054426E+02  0.00000000000E+00 0.  1.
        -13    1    3    3    0    0  0.94247169977E+02  0.62345349334E+01  0.27554941233E+02  0.98390412444E+02  0.00000000000E+00 0. -1.
         13    1    3    3    0    0 -0.17886321543E+02 -0.16583967967E+02  0.78028506680E+01  0.25609236037E+02  0.00000000000E+00 0.  1.
         21    1    1    2  502  501 -0.55341155312E+02 -0.23796289693E+02  0.54102996120E+02  0.80969383495E+02  0.00000000000E+00 0.  1.
<scales pt_clust_5="13000.00000" pt_clust_6="13000.00000" pt_clust_7="13000.00000" pt_clust_8="13000.00000" pt_clust_9="60.24041"></scales>
<clustering>
<clus scale="   60.240">  1  9  2 -1</clus>
<clus scale="   90.486">  7  8 -1 -1</clus>
<clus scale="   93.115">  5  6 -1 -1</clus>
<clus scale="  109.459">  2  7  1 -1</clus>
<clus scale="   60.240">  1  5  2 -1</clus>
</clustering>
</event>
<event>
 9    1  0.1435532E-005  0.9248868E+02  0.7546771E-02  0.1297195E+00
         -1   -1    0    0    0  501 -0.00000000000E+00  0.00000000000E+00  0.64148212448E+03  0.64148212448E+03  0.00000000000E+00 0.  1.
          1   -1    0    0  502    0  0.00000000000E+00 -0.00000000000E+00 -0.94244381911E+02  0.94244381911E+02  0.00000000000E+00 0. -1.
         23    2    1    2    0    0 -0.77489709291E+01 -0.80649964045E+01  0.45887964375E+03  0.46823298187E+03  0.92447320906E+02 0.  0.
         23    2    1    2    0    0 -0.13451322276E+02 -0.29345388616E+02  0.15799046700E+03  0.18565431609E+03  0.92002432122E+02 0.  0.
        -13    1    4    4    0    0 -0.45442289909E+02 -0.17582558312E+02  0.40623940477E+02  0.63438573509E+02  0.00000000000E+00 0.  1.
         13    1    4    4    0    0  0.31990967633E+02 -0.11762830304E+02  0.11736652652E+03  0.12221574258E+03  0.00000000000E+00 0. -1.
        -13    1    3    3    0    0 -0.47848820868E+02 -0.19042345210E+02  0.26130689410E+03  0.26633327519E+03  0.00000000000E+00 0.  1.
         13    1    3    3    0    0  0.40099849939E+02  0.10977348805E+02  0.19757274965E+03  0.20189970668E+03  0.00000000000E+00 0. -1.
         21    1    1    2  502  501  0.21200293205E+02  0.37410385021E+02 -0.69632368178E+02  0.81839208436E+02  0.00000000000E+00 0. -1.
<scales pt_clust_5="13000.00000" pt_clust_6="13000.00000" pt_clust_7="13000.00000" pt_clust_8="13000.00000" pt_clust_9="42.99988"></scales>
<clustering>
<clus scale="   43.000">  2  9  1 -1</clus>
<clus scale="   92.002">  5  6 -1 -1</clus>
<clus scale="   92.044">  2  5  1 -1</clus>
<clus scale="   92.447">  7  8 -1 -1</clus>
<clus scale="   43.000">  2  5  1 -1</clus>
</clustering>
</event>
<event>
 9    1  0.1435532E-005  0.9393715E+02  0.7546771E-02  0.1295531E+00
         -1   -1    0    0    0  501 -0.00000000000E+00  0.00000000000E+00  0.52462539718E+03  0.52462539718E+03  0.00000000000E+00 0.  1.
          1   -1    0    0  502    0  0.00000000000E+00 -0.00000000000E+00 -0.14424729081E+03  0.14424729081E+03  0.00000000000E+00 0. -1.
         23    2    1    2    0    0 -0.15296261418E+02 -0.14063163567E+02  0.46111288571E+03  0.47005548248E+03  0.88855585416E+02 0.  0.
         23    2    1    2    0    0 -0.44540941933E+02  0.13730552298E+02 -0.66306891267E+01  0.10357006528E+03  0.92251660203E+02 0.  0.
        -13    1    4    4    0    0 -0.38270112080E+02 -0.22657772995E+02 -0.35333463043E+02  0.56801670453E+02  0.00000000000E+00 0.  1.
         13    1    4    4    0    0 -0.62708298528E+01  0.36388325292E+02  0.28702773916E+02  0.46768394831E+02  0.00000000000E+00 0. -1.
        -13    1    3    3    0    0 -0.24785092678E+02 -0.48790578570E+02  0.25289792142E+03  0.25875119330E+03  0.00000000000E+00 0.  1.
         13    1    3    3    0    0  0.94888312602E+01  0.34727415003E+02  0.20821496429E+03  0.21130428918E+03  0.00000000000E+00 0. -1.
         21    1    1    2  502  501  0.59837203351E+02  0.33261126931E+00 -0.74104090215E+02  0.95247140228E+02  0.00000000000E+00 0. -1.
<scales pt_clust_5="13000.00000" pt_clust_6="13000.00000" pt_clust_7="13000.00000" pt_clust_8="13000.00000" pt_clust_9="59.83813"></scales>
<clustering>
<clus scale="   59.838">  2  9  1 -1</clus>
<clus scale="   88.856">  7  8 -1 -1</clus>
<clus scale="   90.604">  1  7  2 -1</clus>
<clus scale="   92.252">  5  6 -1 -1</clus>
<clus scale="   59.838">  2  5  1 -1</clus>
</clustering>
</event>
<event>
 9    1  0.1435532E-005  0.1081562E+03  0.7546771E-02  0.1266111E+00
          2   -1    0    0  502    0  0.00000000000E+00  0.00000000000E+00  0.52324086582E+03  0.52324086582E+03  0.00000000000E+00 0. -1.
         -2   -1    0    0    0  501 -0.00000000000E+00 -0.00000000000E+00 -0.49011989288E+02  0.49011989288E+02  0.00000000000E+00 0.  1.
         23    2    1    2    0    0  0.61655358371E+02 -0.37581135728E+01  0.57700925681E+02  0.12486243518E+03  0.91900621663E+02 0.  0.
         23    2    1    2    0    0 -0.39958979813E+02 -0.48154247144E+02  0.26862073514E+03  0.28914323828E+03  0.86782263811E+02 0.  0.
        -11    1    3    3    0    0 -0.21492202322E+02  0.83351889646E+01  0.26770555418E+02  0.35327790380E+02  0.00000000000E+00 0. -1.
         11    1    3    3    0    0  0.83147560694E+02 -0.12093302537E+02  0.30930370263E+02  0.89534644804E+02  0.00000000000E+00 0.  1.
        -13    1    4    4    0    0  0.25422462911E+02 -0.29341902662E+01  0.91288012982E+02  0.94807238158E+02  0.00000000000E+00 0.  1.
         13    1    4    4    0    0 -0.65381442724E+02 -0.45220056878E+02  0.17733272216E+03  0.19433600013E+03  0.00000000000E+00 0. -1.
         21    1    1    2  502  501 -0.21696378558E+02  0.51912360717E+02  0.14790721571E+03  0.15824718164E+03  0.00000000000E+00 0.  1.
<scales pt_clust_5="13000.00000" pt_clust_6="13000.00000" pt_clust_7="13000.00000" pt_clust_8="13000.00000" pt_clust_9="56.26390"></scales>
<clustering>
<clus scale="   56.264">  1  9  2 -1</clus>
<clus scale="   86.782">  7  8 -1 -1</clus>
<clus scale="   91.901">  5  6 -1 -1</clus>
<clus scale="  103.842">  1  7  2 -1</clus>
<clus scale="   56.264">  1  5  2 -1</clus>
</clustering>
</event>
<event>
 9    1  0.1435532E-005  0.1039156E+03  0.7546771E-02  0.1273124E+00
         -1   -1    0    0    0  501 -0.00000000000E+00  0.00000000000E+00  0.98452458757E+02  0.98452458757E+02  0.00000000000E+00 0.  1.
          1   -1    0    0  502    0  0.00000000000E+00 -0.00000000000E+00 -0.19247547779E+03  0.19247547779E+03  0.00000000000E+00 0. -1.
         23    2    1    2    0    0 -0.52755564567E+02 -0.11241568588E+01  0.30383366046E+02  0.10737352129E+03  0.88439305852E+02 0.  0.
         23    2    1    2    0    0  0.45061227023E+02  0.25709289037E+02 -0.76928112173E+02  0.12953758499E+03  0.90391203990E+02 0.  0.
        -11    1    3    3    0    0 -0.46508504839E+02 -0.39293244253E+02  0.31762331115E+02  0.68672015728E+02  0.00000000000E+00 0. -1.
         11    1    3    3    0    0 -0.62470597281E+01  0.38169087394E+02 -0.13789650690E+01  0.38701505558E+02  0.00000000000E+00 0.  1.
        -11    1    4    4    0    0  0.29813901786E+02  0.40733769680E+02 -0.82949964699E+00  0.50485609847E+02  0.00000000000E+00 0.  1.
         11    1    4    4    0    0  0.15247325238E+02 -0.15024480643E+02 -0.76098612526E+02  0.79051975142E+02  0.00000000000E+00 0. -1.
         21    1    1    2  502  501  0.76943375435E+01 -0.24585132178E+02 -0.47478272903E+02  0.54016830269E+02  0.00000000000E+00 0. -1.
<scales pt_clust_5="13000.00000" pt_clust_6="13000.00000" pt_clust_7="13000.00000" pt_clust_8="13000.00000" pt_clust_9="25.76105"></scales>
<clustering>
<clus scale="   25.761">  2  9  1 -1</clus>
<clus scale="   88.439">  5  6 -1 -1</clus>
<clus scale="   90.391">  7  8 -1 -1</clus>
<clus scale="  102.222">  1  5  2 -1</clus>
<clus scale="   25.761">  2  5  1 -1</clus>
</clustering>
</event>
<event>
 9    1  0.1435532E-005  0.1085040E+03  0.7546771E-02  0.1263406E+00
          1   -1    0    0  502    0  0.00000000000E+00  0.00000000000E+00  0.66112594345E+03  0.66112594345E+03  0.00000000000E+00 0. -1.
         -1   -1    0    0    0  501 -0.00000000000E+00 -0.00000000000E+00 -0.28290991876E+02  0.28290991876E+02  0.00000000000E+00 0.  1.
         23    2    1    2    0    0  0.14816827908E+02  0.67121337591E+02  0.17758949055E+03  0.21130585547E+03  0.91582340283E+02 0.  0.
         23    2    1    2    0    0 -0.28129508959E+02 -0.37506539341E+02  0.24993113014E+03  0.27024516582E+03  0.91481528569E+02 0.  0.
        -11    1    3    3    0    0  0.44034450718E+02  0.98429500898E+01  0.10528485157E+03  0.11454613257E+03  0.00000000000E+00 0. -1.
         11    1    3    3    0    0 -0.29217622810E+02  0.57278387501E+02  0.72304638986E+02  0.96759722903E+02  0.00000000000E+00 0.  1.
        -11    1    4    4    0    0 -0.25915618499E+02  0.26879549943E+02  0.73934731808E+02  0.82827978696E+02  0.00000000000E+00 0. -1.
         11    1    4    4    0    0 -0.22138904604E+01 -0.64386089284E+02  0.17599639833E+03  0.18741718713E+03  0.00000000000E+00 0.  1.
         21    1    1    2  502  501  0.13312681051E+02 -0.29614798250E+02  0.20531433088E+03  0.20786591403E+03  0.00000000000E+00 0.  1.
<scales pt_clust_5="13000.00000" pt_clust_6="13000.00000" pt_clust_7="13000.00000" pt_clust_8="13000.00000" pt_clust_9="32.46943"></scales>
<clustering>
<clus scale="   32.469">  1  9  2 -1</clus>
<clus scale="   91.482">  7  8 -1 -1</clus>
<clus scale="   91.582">  5  6 -1 -1</clus>
<clus scale="  108.419">  1  7  2 -1</clus>
<clus scale="   32.469">  1  5  2 -1</clus>
</clustering>
</event>
<event>
 9    1  0.1435532E-005  0.1346716E+03  0.7546771E-02  0.1222149E+00
         -1   -1    0    0    0  501 -0.00000000000E+00  0.00000000000E+00  0.28827811777E+03  0.28827811777E+03  0.00000000000E+00 0.  1.
          1   -1    0    0  502    0  0.00000000000E+00 -0.00000000000E+00 -0.14706138082E+03  0.14706138082E+03  0.00000000000E+00 0. -1.
         23    2    1    2    0    0 -0.56139033945E+02 -0.62796439856E+02  0.11294845495E+03  0.16920887123E+03  0.93697943604E+02 0.  0.
         23    2    1    2    0    0  0.96366403745E+02  0.62812065200E+02  0.10549501184E+03  0.17905474478E+03  0.87747164060E+02 0.  0.
        -11    1    3    3    0    0  0.12049351502E+02 -0.46162120710E+02  0.17685217583E+02  0.50881186906E+02  0.00000000000E+00 0. -1.
         11    1    3    3    0    0 -0.68188385446E+02 -0.16634319147E+02  0.95263237367E+02  0.11832768432E+03  0.00000000000E+00 0.  1.
        -13    1    4    4    0    0  0.65113230646E+02  0.28704575610E+01  0.16383924762E+02  0.67204206136E+02  0.00000000000E+00 0. -1.
         13    1    4    4    0    0  0.31253173099E+02  0.59941607639E+02  0.89111087082E+02  0.11185053865E+03  0.00000000000E+00 0.  1.
         21    1    1    2  502  501 -0.40227369800E+02 -0.15625343531E-01 -0.77226729846E+02  0.87075882585E+02  0.00000000000E+00 0. -1.
<scales pt_clust_5="13000.00000" pt_clust_6="13000.00000" pt_clust_7="13000.00000" pt_clust_8="13000.00000" pt_clust_9="40.22737"></scales>
<clustering>
<clus scale="   40.227">  2  9  1 -1</clus>
<clus scale="   87.747">  7  8 -1 -1</clus>
<clus scale="   93.698">  5  6 -1 -1</clus>
<clus scale="  130.601">  2  7  1 -1</clus>
<clus scale="   40.227">  2  5  1 -1</clus>
</clustering>
</event>
<event>
 9    1  0.1435532E-005  0.9554505E+02  0.7546771E-02  0.1290593E+00
         -1   -1    0    0    0  501 -0.00000000000E+00  0.00000000000E+00  0.24386085974E+02  0.24386085974E+02  0.00000000000E+00 0.  1.
          1   -1    0    0  502    0  0.00000000000E+00 -0.00000000000E+00 -0.49731919936E+03  0.49731919936E+03  0.00000000000E+00 0. -1.
         23    2    1    2    0    0  0.14156424860E+02  0.17851654478E+02 -0.16227033520E+03  0.18834274063E+03  0.92856019348E+02 0.  0.
         23    2    1    2    0    0 -0.29012881145E+02  0.17602900942E+01 -0.24112158467E+03  0.25959723945E+03  0.91685670879E+02 0.  0.
        -11    1    3    3    0    0 -0.30141094966E+02  0.36356246499E+02 -0.72115405317E+02  0.86202633076E+02  0.00000000000E+00 0.  1.
         11    1    3    3    0    0  0.44297519826E+02 -0.18504592021E+02 -0.90154929886E+02  0.10214010756E+03  0.00000000000E+00 0. -1.
        -11    1    4    4    0    0  0.24183886491E+02  0.20476847693E+02 -0.14259190646E+03  0.14607057693E+03  0.00000000000E+00 0. -1.
         11    1    4    4    0    0 -0.53196767636E+02 -0.18716557598E+02 -0.98529678213E+02  0.11352666252E+03  0.00000000000E+00 0.  1.
         21    1    1    2  502  501  0.14856456285E+02 -0.19611944572E+02 -0.69541193516E+02  0.73765305252E+02  0.00000000000E+00 0.  1.
<scales pt_clust_5="13000.00000" pt_clust_6="13000.00000" pt_clust_7="13000.00000" pt_clust_8="13000.00000" pt_clust_9="24.60371"></scales>
<clustering>
<clus scale="   24.604">  2  9  1 -1</clus>
<clus scale="   91.686">  7  8 -1 -1</clus>
<clus scale="   92.856">  5  6 -1 -1</clus>
<clus scale="   94.408">  2  7  1 -1</clus>
<clus scale="   24.604">  2  5  1 -1</clus>
</clustering>
</event>
<event>
 9    1  0.1435532E-005  0.1039431E+03  0.7546771E-02  0.1272338E+00
          4   -1    0    0  502    0  0.00000000000E+00  0.00000000000E+00  0.16172711241E+03  0.16172711241E+03  0.00000000000E+00 0. -1.
         -4   -1    0    0    0  501 -0.00000000000E+00 -0.00000000000E+00 -0.15813583892E+03  0.15813583892E+03  0.00000000000E+00 0.  1.
         23    2    1    2    0    0  0.96476585185E+01 -0.45941982298E+02 -0.65252776398E+02  0.12108643202E+03  0.90555265659E+02 0.  0.
         23    2    1    2    0    0  0.10507599661E+02  0.58025098293E+02 -0.17135667838E+02  0.10964320352E+03  0.90833249883E+02 0.  0.
        -11    1    4    4    0    0 -0.30454392046E+02  0.22676373911E+02  0.21055136062E+02  0.43416663658E+02  0.00000000000E+00 0. -1.
         11    1    4    4    0    0  0.40961991707E+02  0.35348724382E+02 -0.38190803900E+02  0.66226539866E+02  0.00000000000E+00 0.  1.
        -13    1    3    3    0    0 -0.34468403169E+02 -0.80042989682E+01 -0.24461440345E+01  0.35470032980E+02  0.00000000000E+00 0.  1.
         13    1    3    3    0    0  0.44116061687E+02 -0.37937683330E+02 -0.62806632364E+02  0.85616399037E+02  0.00000000000E+00 0. -1.
         21    1    1    2  502  501 -0.20155258180E+02 -0.12083115995E+02  0.85979717721E+02  0.89133315790E+02  0.00000000000E+00 0. -1.
<scales pt_clust_5="13000.00000" pt_clust_6="13000.00000" pt_clust_7="13000.00000" pt_clust_8="13000.00000" pt_clust_9="23.49970"></scales>
<clustering>
<clus scale="   23.500">  1  9  2 -1</clus>
<clus scale="   90.555">  7  8 -1 -1</clus>
<clus scale="   90.833">  5  6 -1 -1</clus>
<clus scale="  103.700">  2  7  1 -1</clus>
<clus scale="   23.500">  1  5  2 -1</clus>
</clustering>
</event>
<event>
 9    1  0.1435532E-005  0.1147949E+03  0.7546771E-02  0.1254466E+00
         -2   -1    0    0    0  501 -0.00000000000E+00  0.00000000000E+00  0.17732547186E+03  0.17732547186E+03  0.00000000000E+00 0.  1.
          2   -1    0    0  502    0  0.00000000000E+00 -0.00000000000E+00 -0.55777790722E+03  0.55777790722E+03  0.00000000000E+00 0. -1.
         23    2    1    2    0    0 -0.33331053058E+02  0.53966579777E+02  0.13501321918E+03  0.17855651484E+03  0.98135155819E+02 0.  0.
         23    2    1    2    0    0 -0.38882479022E+02 -0.51367103554E+02 -0.16943954949E+03  0.20305624646E+03  0.91496731044E+02 0.  0.
        -11    1    3    3    0    0 -0.38910750021E+02 -0.19216062511E+02  0.52894649435E+02  0.68418911600E+02  0.00000000000E+00 0. -1.
         11    1    3    3    0    0  0.55796969637E+01  0.73182642288E+02  0.82118569743E+02  0.11013760324E+03  0.00000000000E+00 0.  1.
        -13    1    4    4    0    0 -0.29802142367E+02  0.19277082630E+02 -0.29977110777E+02  0.46458592046E+02  0.00000000000E+00 0.  1.
         13    1    4    4    0    0 -0.90803366554E+01 -0.70644186184E+02 -0.13946243871E+03  0.15659765441E+03  0.00000000000E+00 0. -1.
         21    1    1    2  502  501  0.72213532080E+02 -0.25994762228E+01 -0.34602610505E+03  0.35349061779E+03  0.00000000000E+00 0.  1.
<scales pt_clust_5="13000.00000" pt_clust_6="13000.00000" pt_clust_7="13000.00000" pt_clust_8="13000.00000" pt_clust_9="72.26030"></scales>
<clustering>
<clus scale="   72.260">  2  9  1 -1</clus>
<clus scale="   91.497">  7  8 -1 -1</clus>
<clus scale="   98.135">  5  6 -1 -1</clus>
<clus scale="  109.174">  2  7  1 -1</clus>
<clus scale="   72.260">  2  5  1 -1</clus>
</clustering>
</event>
<event>
 9    1  0.1435532E-005  0.1280098E+03  0.7546771E-02  0.1235239E+00
         -1   -1    0    0    0  501 -0.00000000000E+00  0.00000000000E+00  0.23638780156E+03  0.23638780156E+03  0.00000000000E+00 0.  1.
          1   -1    0    0  502    0  0.00000000000E+00 -0.00000000000E+00 -0.13200394167E+03  0.13200394167E+03  0.00000000000E+00 0. -1.
         23    2    1    2    0    0 -0.24261893855E+02  0.41145464267E+02  0.10653132055E+03  0.14751011515E+03  0.90159431501E+02 0.  0.
         23    2    1    2    0    0 -0.76493846730E+01 -0.11056928655E+03 -0.36431214359E+02  0.13713574719E+03  0.72075651668E+02 0.  0.
        -13    1    4    4    0    0 -0.20502744681E+02 -0.12335589474E+02  0.12103824347E+02  0.26814769642E+02  0.00000000000E+00 0.  1.
         13    1    4    4    0    0  0.12853360008E+02 -0.98233697077E+02 -0.48535038707E+02  0.11032097755E+03  0.00000000000E+00 0. -1.
        -13    1    3    3    0    0  0.22959613648E+02  0.12392893093E+02 -0.15210874423E+01  0.26135060075E+02  0.00000000000E+00 0.  1.
         13    1    3    3    0    0 -0.47221507504E+02  0.28752571174E+02  0.10805240800E+03  0.12137505507E+03  0.00000000000E+00 0. -1.
         21    1    1    2  502  501  0.31911278528E+02  0.69423822283E+02  0.34283753694E+02  0.83745880884E+02  0.00000000000E+00 0.  1.
<scales pt_clust_5="13000.00000" pt_clust_6="13000.00000" pt_clust_7="13000.00000" pt_clust_8="13000.00000" pt_clust_9="76.40679"></scales>
<clustering>
<clus scale="   72.076">  5  6 -1 -1</clus>
<clus scale="   76.407">  1  9  2 -1</clus>
<clus scale="   90.159">  7  8 -1 -1</clus>
<clus scale="  115.986">  2  5  1 -1</clus>
<clus scale="  115.986">  2  5  1 -1</clus>
</clustering>
</event>
<event>
 9    1  0.1435532E-005  0.9292592E+02  0.7546771E-02  0.1296708E+00
          1   -1    0    0  502    0  0.00000000000E+00  0.00000000000E+00  0.13311387547E+03  0.13311387547E+03  0.00000000000E+00 0. -1.
         -1   -1    0    0    0  501 -0.00000000000E+00 -0.00000000000E+00 -0.12884964776E+03  0.12884964776E+03  0.00000000000E+00 0.  1.
         23    2    1    2    0    0 -0.27696506205E+02  0.14808040274E+02 -0.29430623664E+02  0.10186402557E+03  0.92324122440E+02 0.  0.
         23    2    1    2    0    0 -0.16976456931E+02 -0.12620457457E+01 -0.13729750679E+02  0.93554321401E+02  0.90962146795E+02 0.  0.
        -11    1    4    4    0    0 -0.16959004792E+01  0.27989090506E+02 -0.41729141668E+02  0.50275108455E+02  0.00000000000E+00 0.  1.
         11    1    4    4    0    0 -0.15280556452E+02 -0.29251136252E+02  0.27999390989E+02  0.43279212946E+02  0.00000000000E+00 0. -1.
        -11    1    3    3    0    0  0.11715020485E+01 -0.24503891352E+02 -0.44501912326E+02  0.50815679757E+02  0.00000000000E+00 0. -1.
         11    1    3    3    0    0 -0.28868008253E+02  0.39311931627E+02  0.15071288663E+02  0.51048345817E+02  0.00000000000E+00 0.  1.
         21    1    1    2  502  501  0.44672963136E+02 -0.13545994529E+02  0.47424602053E+02  0.66545176257E+02  0.00000000000E+00 0. -1.
<scales pt_clust_5="13000.00000" pt_clust_6="13000.00000" pt_clust_7="13000.00000" pt_clust_8="13000.00000" pt_clust_9="46.68156"></scales>
<clustering>
<clus scale="   46.682">  1  9  2 -1</clus>
<clus scale="   90.962">  5  6 -1 -1</clus>
<clus scale="   91.573">  1  5  2 -1</clus>
<clus scale="   92.324">  7  8 -1 -1</clus>
<clus scale="   46.682">  1  5  2 -1</clus>
</clustering>
</event>
<event>
 9    1  0.1435532E-005  0.1352872E+03  0.7546771E-02  0.1220516E+00
         -2   -1    0    0    0  501 -0.00000000000E+00  0.00000000000E+00  0.30932532630E+03  0.30932532630E+03  0.00000000000E+00 0.  1.
          2   -1    0    0  502    0  0.00000000000E+00 -0.00000000000E+00 -0.45477707581E+03  0.45477707581E+03  0.00000000000E+00 0. -1.
         23    2    1    2    0    0 -0.63511923314E+02 -0.85625654354E+02  0.26870144029E+03  0.30302778439E+03  0.90883755491E+02 0.  0.
         23    2    1    2    0    0  0.76937879086E+02  0.59612381984E+02 -0.40976320650E+03  0.43147362819E+03  0.93757842856E+02 0.  0.
        -11    1    4    4    0    0  0.49732330517E+02  0.84639116799E+02 -0.29979770045E+03  0.31546116399E+03  0.00000000000E+00 0. -1.
         11    1    4    4    0    0  0.27205548568E+02 -0.25026734815E+02 -0.10996550605E+03  0.11601246420E+03  0.00000000000E+00 0.  1.
        -13    1    3    3    0    0 -0.23570866598E+02 -0.32446119263E+02  0.18550838990E+02  0.44186763116E+02  0.00000000000E+00 0. -1.
         13    1    3    3    0    0 -0.39941056716E+02 -0.53179535091E+02  0.25015060130E+03  0.25884102127E+03  0.00000000000E+00 0.  1.
         21    1    1    2  502  501 -0.13425955771E+02  0.26013272370E+02 -0.43899832881E+01  0.29600989528E+02  0.00000000000E+00 0. -1.
<scales pt_clust_5="13000.00000" pt_clust_6="13000.00000" pt_clust_7="13000.00000" pt_clust_8="13000.00000" pt_clust_9="29.27365"></scales>
<clustering>
<clus scale="   29.274">  1  9  2 -1</clus>
<clus scale="   90.884">  7  8 -1 -1</clus>
<clus scale="   93.758">  5  6 -1 -1</clus>
<clus scale="  133.312">  1  7  2 -1</clus>
<clus scale="  135.287">  2  5  1 -1</clus>
</clustering>
</event>
<event>
 9    1  0.1435532E-005  0.1051680E+03  0.7546771E-02  0.1271248E+00
          1   -1    0    0  502    0  0.00000000000E+00  0.00000000000E+00  0.49281357105E+03  0.49281357105E+03  0.00000000000E+00 0. -1.
         -1   -1    0    0    0  501 -0.00000000000E+00 -0.00000000000E+00 -0.39677948210E+02  0.39677948210E+02  0.00000000000E+00 0.  1.
         23    2    1    2    0    0 -0.26315070821E+02  0.55168468221E+02  0.70078350239E+02  0.12790321233E+03  0.87819210398E+02 0.  0.
         23    2    1    2    0    0  0.18769569669E+02 -0.21807028092E+02  0.26792857383E+03  0.28448611063E+03  0.91207363988E+02 0.  0.
        -13    1    4    4    0    0 -0.23003481598E+02 -0.35305285094E+02  0.69641350893E+02  0.81397426712E+02  0.00000000000E+00 0.  1.
         13    1    4    4    0    0  0.41773051268E+02  0.13498257002E+02  0.19828722294E+03  0.20308868392E+03  0.00000000000E+00 0. -1.
        -13    1    3    3    0    0 -0.45707979842E+02  0.44893419780E+02  0.11162769399E+02  0.65032653194E+02  0.00000000000E+00 0.  1.
         13    1    3    3    0    0  0.19392909022E+02  0.10275048440E+02  0.58915580840E+02  0.62870559139E+02  0.00000000000E+00 0. -1.
         21    1    1    2  502  501  0.75455011513E+01 -0.33361440128E+02  0.11512869877E+03  0.12010219630E+03  0.00000000000E+00 0.  1.
<scales pt_clust_5="13000.00000" pt_clust_6="13000.00000" pt_clust_7="13000.00000" pt_clust_8="13000.00000" pt_clust_9="34.20410"></scales>
<clustering>
<clus scale="   34.204">  1  9  2 -1</clus>
<clus scale="   87.819">  7  8 -1 -1</clus>
<clus scale="   91.207">  5  6 -1 -1</clus>
<clus scale="  102.244">  2  7  1 -1</clus>
<clus scale="   34.204">  1  5  2 -1</clus>
</clustering>
</event>
<event>
 9    1  0.1435532E-005  0.1545100E+03  0.7546771E-02  0.1196099E+00
         -2   -1    0    0    0  501 -0.00000000000E+00  0.00000000000E+00  0.34596920586E+03  0.34596920586E+03  0.00000000000E+00 0.  1.
          2   -1    0    0  502    0  0.00000000000E+00 -0.00000000000E+00 -0.14843456433E+03  0.14843456433E+03  0.00000000000E+00 0. -1.
         23    2    1    2    0    0 -0.11866407264E+03  0.10364912315E+02  0.20427201370E+03  0.25006724087E+03  0.81350942439E+02 0.  0.
         23    2    1    2    0    0  0.14982461262E+03 -0.13573807852E+02  0.48540634293E+02  0.18079965607E+03  0.87753402507E+02 0.  0.
        -13    1    3    3    0    0 -0.93017178726E+02 -0.10739242720E+02  0.19381186515E+03  0.21524536219E+03  0.00000000000E+00 0.  1.
         13    1    3    3    0    0 -0.25646893916E+02  0.21104155035E+02  0.10460148545E+02  0.34821878681E+02  0.00000000000E+00 0. -1.
        -13    1    4    4    0    0  0.11720686672E+03  0.10668924916E+02  0.26038092538E+00  0.11769173022E+03  0.00000000000E+00 0. -1.
         13    1    4    4    0    0  0.32617745906E+02 -0.24242732768E+02  0.48280253368E+02  0.63107925852E+02  0.00000000000E+00 0.  1.
         21    1    1    2  502  501 -0.31160539982E+02  0.32088955375E+01 -0.55278006459E+02  0.63536873236E+02  0.00000000000E+00 0. -1.
<scales pt_clust_5="13000.00000" pt_clust_6="13000.00000" pt_clust_7="13000.00000" pt_clust_8="13000.00000" pt_clust_9="31.32533"></scales>
<clustering>
<clus scale="   31.325">  2  9  1 -1</clus>
<clus scale="   81.351">  5  6 -1 -1</clus>
<clus scale="   87.753">  7  8 -1 -1</clus>
<clus scale="  150.966">  1  5  2 -1</clus>
<clus scale="   31.325">  2  5  1 -1</clus>
</clustering>
</event>
<event>
 9    1  0.1435532E-005  0.1445697E+03  0.7546771E-02  0.1208140E+00
          2   -1    0    0  502    0  0.00000000000E+00  0.00000000000E+00  0.14196604344E+03  0.14196604344E+03  0.00000000000E+00 0. -1.
         -2   -1    0    0    0  501 -0.00000000000E+00 -0.00000000000E+00 -0.25591596499E+03  0.25591596499E+03  0.00000000000E+00 0.  1.
         23    2    1    2    0    0  0.83162855365E+02 -0.78527262453E+02 -0.13591395662E+03  0.19846231168E+03  0.88499119154E+02 0.  0.
         23    2    1    2    0    0 -0.88151936486E+02  0.58916308500E+02 -0.29790525171E+02  0.14384978628E+03  0.92538588215E+02 0.  0.
        -11    1    4    4    0    0 -0.10049111155E+03  0.41255640662E+02 -0.44891333158E+02  0.11754030449E+03  0.00000000000E+00 0.  1.
         11    1    4    4    0    0  0.12339175069E+02  0.17660667838E+02  0.15100807987E+02  0.26309481783E+02  0.00000000000E+00 0. -1.
        -11    1    3    3    0    0 -0.15381709830E+02 -0.14631934699E+02 -0.45621947048E+02  0.50319504795E+02  0.00000000000E+00 0.  1.
         11    1    3    3    0    0  0.98544565195E+02 -0.63895327754E+02 -0.90292009570E+02  0.14814280688E+03  0.00000000000E+00 0. -1.
         21    1    1    2  502  501  0.49890811202E+01  0.19610953954E+02  0.51754560232E+02  0.55569910475E+02  0.00000000000E+00 0.  1.
<scales pt_clust_5="13000.00000" pt_clust_6="13000.00000" pt_clust_7="13000.00000" pt_clust_8="13000.00000" pt_clust_9="20.23562"></scales>
<clustering>
<clus scale="   20.236">  1  9  2 -1</clus>
<clus scale="   88.499">  7  8 -1 -1</clus>
<clus scale="   92.539">  5  6 -1 -1</clus>
<clus scale="  142.018">  2  7  1 -1</clus>
<clus scale="   20.236">  1  5  2 -1</clus>
</clustering>
</event>
<event>
 9    1  0.1435532E-005  0.1481402E+03  0.7546771E-02  0.1215667E+00
          1   -1    0    0  502    0  0.00000000000E+00  0.00000000000E+00  0.56310238746E+03  0.56310238746E+03  0.00000000000E+00 0. -1.
         -1   -1    0    0    0  501 -0.00000000000E+00 -0.00000000000E+00 -0.27535445727E+03  0.27535445727E+03  0.00000000000E+00 0.  1.
         23    2    1    2    0    0  0.52995676471E+02 -0.99376413914E+02 -0.19336464801E+03  0.24148765255E+03  0.90786485052E+02 0.  0.
         23    2    1    2    0    0 -0.44225350370E+02 -0.47650934826E+02  0.42455418254E+03  0.43919463144E+03  0.91756074266E+02 0.  0.
        -11    1    4    4    0    0 -0.71525910804E+02 -0.45912978368E+02  0.32905973696E+03  0.33985918847E+03  0.00000000000E+00 0. -1.
         11    1    4    4    0    0  0.27300560435E+02 -0.17379564581E+01  0.95494445583E+02  0.99335442970E+02  0.00000000000E+00 0.  1.
        -11    1    3    3    0    0 -0.11333067563E+02 -0.55973731207E+02 -0.12748865628E+03  0.13969557790E+03  0.00000000000E+00 0.  1.
         11    1    3    3    0    0  0.64328744034E+02 -0.43402682707E+02 -0.65875991734E+02  0.10179207465E+03  0.00000000000E+00 0. -1.
         21    1    1    2  502  501 -0.87703261008E+01  0.14702734874E+03  0.56558395648E+02  0.15777456074E+03  0.00000000000E+00 0. -1.
<scales pt_clust_5="13000.00000" pt_clust_6="13000.00000" pt_clust_7="13000.00000" pt_clust_8="13000.00000" pt_clust_9="117.06130"></scales>
<clustering>
<clus scale="   90.786">  7  8 -1 -1</clus>
<clus scale="   91.756">  5  6 -1 -1</clus>
<clus scale="  112.453">  1  5  2 -1</clus>
<clus scale="  117.061">  1  9  2 -1</clus>
<clus scale="  112.453">  1  5  2 -1</clus>
</clustering>
</event>
<event>
 9    1  0.1435532E-005  0.2568837E+03  0.7546771E-02  0.1109308E+00
          3   -1    0    0  502    0  0.00000000000E+00  0.00000000000E+00  0.15317806864E+04  0.15317806864E+04  0.00000000000E+00 0. -1.
         -3   -1    0    0    0  501 -0.00000000000E+00 -0.00000000000E+00 -0.51097730641E+02  0.51097730641E+02  0.00000000000E+00 0.  1.
         23    2    1    2    0    0  0.44585362235E+02  0.23750082480E+03  0.47315445348E+03  0.54008499029E+03  0.97067829820E+02 0.  0.
         23    2    1    2    0    0 -0.58937918863E+02 -0.22343435849E+03  0.93577258767E+03  0.96827649822E+03  0.92154491677E+02 0.  0.
        -11    1    4    4    0    0 -0.84142893146E+02 -0.17358988256E+03  0.72161881227E+03  0.74695862269E+03  0.00000000000E+00 0. -1.
         11    1    4    4    0    0  0.25204974283E+02 -0.49844475936E+02  0.21415377540E+03  0.22131787553E+03  0.00000000000E+00 0.  1.
        -11    1    3    3    0    0 -0.13383838221E+02  0.67574544138E+02  0.21399073346E+03  0.22480542731E+03  0.00000000000E+00 0. -1.
         11    1    3    3    0    0  0.57969200456E+02  0.16992628066E+03  0.25916372002E+03  0.31527956298E+03  0.00000000000E+00 0.  1.
         21    1    1    2  502  501  0.14352556628E+02 -0.14066466304E+02  0.71755914604E+02  0.74516928525E+02  0.00000000000E+00 0. -1.
<scales pt_clust_5="13000.00000" pt_clust_6="13000.00000" pt_clust_7="13000.00000" pt_clust_8="13000.00000" pt_clust_9="20.09630"></scales>
<clustering>
<clus scale="   20.096">  1  9  2 -1</clus>
<clus scale="   92.154">  5  6 -1 -1</clus>
<clus scale="   97.068">  7  8 -1 -1</clus>
<clus scale="  255.068">  1  5  2 -1</clus>
<clus scale="   20.096">  1  5  2 -1</clus>
</clustering>
</event>
<event>
 9    1  0.1435532E-005  0.1104129E+03  0.7546771E-02  0.1259983E+00
         -3   -1    0    0    0  501 -0.00000000000E+00  0.00000000000E+00  0.10753161050E+03  0.10753161050E+03  0.00000000000E+00 0.  1.
          3   -1    0    0  502    0  0.00000000000E+00 -0.00000000000E+00 -0.24551825318E+03  0.24551825318E+03  0.00000000000E+00 0. -1.
         23    2    1    2    0    0  0.20147444368E+02  0.61212886523E+02  0.50286505805E+02  0.12251654948E+03  0.91261356776E+02 0.  0.
         23    2    1    2    0    0 -0.35100893742E+02 -0.38598930598E+02 -0.14218656635E+03  0.17706397996E+03  0.91720680140E+02 0.  0.
        -11    1    3    3    0    0 -0.14802255003E+02  0.63938589644E+02  0.56877604519E+02  0.86846484642E+02  0.00000000000E+00 0.  1.
         11    1    3    3    0    0  0.34949699371E+02 -0.27257031210E+01 -0.65910987142E+01  0.35670064843E+02  0.00000000000E+00 0. -1.
        -13    1    4    4    0    0 -0.57824513617E+02 -0.10895312910E+02 -0.12316038144E+03  0.13649491484E+03  0.00000000000E+00 0. -1.
         13    1    4    4    0    0  0.22723619876E+02 -0.27703617688E+02 -0.19026184905E+02  0.40569065127E+02  0.00000000000E+00 0.  1.
         21    1    1    2  502  501  0.14953449373E+02 -0.22613955925E+02 -0.46086582136E+02  0.53469334237E+02  0.00000000000E+00 0.  1.
<scales pt_clust_5="13000.00000" pt_clust_6="13000.00000" pt_clust_7="13000.00000" pt_clust_8="13000.00000" pt_clust_9="27.11082"></scales>
<clustering>
<clus scale="   27.111">  2  9  1 -1</clus>
<clus scale="   91.261">  5  6 -1 -1</clus>
<clus scale="   91.721">  7  8 -1 -1</clus>
<clus scale="  110.032">  1  5  2 -1</clus>
<clus scale="   27.111">  2  5  1 -1</clus>
</clustering>
</event>
<event>
 9    1  0.1435532E-005  0.1234959E+03  0.7546771E-02  0.1242281E+00
         -4   -1    0    0    0  501 -0.00000000000E+00  0.00000000000E+00  0.41496035712E+02  0.41496035712E+02  0.00000000000E+00 0.  1.
          4   -1    0    0  502    0  0.00000000000E+00 -0.00000000000E+00 -0.47401820455E+03  0.47401820455E+03  0.00000000000E+00 0. -1.
         23    2    1    2    0    0 -0.44614459652E+02  0.23555813787E+02 -0.15403629358E+03  0.19316764343E+03  0.10507726849E+03 0.  0.
         23    2    1    2    0    0  0.78340844378E+02 -0.23318905264E+02 -0.17571360192E+03  0.21418160564E+03  0.91199950964E+02 0.  0.
        -13    1    3    3    0    0  0.19512547320E+01  0.23777791043E+02  0.75353693042E+01  0.25019443088E+02  0.00000000000E+00 0.  1.
         13    1    3    3    0    0 -0.46565714383E+02 -0.22197725517E+00 -0.16157166288E+03  0.16814820034E+03  0.00000000000E+00 0. -1.
        -13    1    4    4    0    0  0.99144605574E+02 -0.17410725588E+02 -0.14003671493E+03  0.17246178623E+03  0.00000000000E+00 0.  1.
         13    1    4    4    0    0 -0.20803761195E+02 -0.59081796759E+01 -0.35676886985E+02  0.41719819414E+02  0.00000000000E+00 0. -1.
         21    1    1    2  502  501 -0.33726384727E+02 -0.23690852320E+00 -0.10277227334E+03  0.10816499119E+03  0.00000000000E+00 0. -1.
<scales pt_clust_5="13000.00000" pt_clust_6="13000.00000" pt_clust_7="13000.00000" pt_clust_8="13000.00000" pt_clust_9="33.72722"></scales>
<clustering>
<clus scale="   33.727">  2  9  1 -1</clus>
<clus scale="   91.200">  7  8 -1 -1</clus>
<clus scale="  105.077">  5  6 -1 -1</clus>
<clus scale="  111.926">  2  7  1 -1</clus>
<clus scale="   33.727">  2  5  1 -1</clus>
</clustering>
</event>
<event>
 9    1  0.1435532E-005  0.1292056E+03  0.7546771E-02  0.1231616E+00
          2   -1    0    0  502    0  0.00000000000E+00  0.00000000000E+00  0.41883010974E+03  0.41883010974E+03  0.00000000000E+00 0. -1.
         -2   -1    0    0    0  501 -0.00000000000E+00 -0.00000000000E+00 -0.16644047380E+03  0.16644047380E+03  0.00000000000E+00 0.  1.
         23    2    1    2    0    0 -0.36986886690E+02 -0.68679823936E+02 -0.12017885522E+03  0.17009127686E+03  0.91668627228E+02 0.  0.
         23    2    1    2    0    0  0.71785540040E+02  0.73901727246E+02  0.26429537398E+03  0.30133167846E+03  0.10165680835E+03 0.  0.
        -11    1    4    4    0    0  0.25092336455E+02  0.84691626110E+02  0.11807745330E+03  0.14746044168E+03  0.00000000000E+00 0.  1.
         11    1    4    4    0    0  0.46693203584E+02 -0.10789898864E+02  0.14621792069E+03  0.15387123678E+03  0.00000000000E+00 0. -1.
        -13    1    3    3    0    0 -0.60287207248E+02 -0.74224517124E+02 -0.87808512861E+02  0.12982357733E+03  0.00000000000E+00 0.  1.
         13    1    3    3    0    0  0.23300320558E+02  0.55446931876E+01 -0.32370342364E+02  0.40267699530E+02  0.00000000000E+00 0. -1.
         21    1    1    2  502  501 -0.34798653350E+02 -0.52219033099E+01  0.10827311718E+03  0.11384762823E+03  0.00000000000E+00 0. -1.
<scales pt_clust_5="13000.00000" pt_clust_6="13000.00000" pt_clust_7="13000.00000" pt_clust_8="13000.00000" pt_clust_9="35.18827"></scales>
<clustering>
<clus scale="   35.188">  1  9  2 -1</clus>
<clus scale="   91.669">  7  8 -1 -1</clus>
<clus scale="  101.657">  5  6 -1 -1</clus>
<clus scale="  121.504">  2  7  1 -1</clus>
<clus scale="   35.188">  1  5  2 -1</clus>
</clustering>
</event>
<event>
 9    1  0.1435532E-005  0.1023905E+03  0.7546771E-02  0.1275530E+00
          2   -1    0    0  502    0  0.00000000000E+00  0.00000000000E+00  0.60014799183E+03  0.60014799183E+03  0.00000000000E+00 0. -1.
         -2   -1    0    0    0  501 -0.00000000000E+00 -0.00000000000E+00 -0.18899924248E+03  0.18899924248E+03  0.00000000000E+00 0.  1.
         23    2    1    2    0    0  0.33926794255E+02 -0.38940583562E+02 -0.15389956695E+03  0.18645371374E+03  0.91719759282E+02 0.  0.
         23    2    1    2    0    0  0.28101359815E+01 -0.11397612966E+02  0.11250091099E+03  0.14587551510E+03  0.92116276991E+02 0.  0.
        -11    1    4    4    0    0  0.14044709626E+01 -0.38993349377E+02  0.11160537228E+03  0.11822949275E+03  0.00000000000E+00 0.  1.
         11    1    4    4    0    0  0.14056650189E+01  0.27595736411E+02  0.89553871127E+00  0.27646022350E+02  0.00000000000E+00 0. -1.
        -13    1    3    3    0    0  0.15586878763E+02 -0.48335807953E+02 -0.15754387751E+03  0.16552756405E+03  0.00000000000E+00 0.  1.
         13    1    3    3    0    0  0.18339915491E+02  0.93952243910E+01  0.36443105523E+01  0.20926149693E+02  0.00000000000E+00 0. -1.
         21    1    1    2  502  501 -0.36736930236E+02  0.50338196528E+02  0.45254740531E+03  0.45681800547E+03  0.00000000000E+00 0. -1.
<scales pt_clust_5="13000.00000" pt_clust_6="13000.00000" pt_clust_7="13000.00000" pt_clust_8="13000.00000" pt_clust_9="62.31802"></scales>
<clustering>
<clus scale="   62.318">  1  9  2 -1</clus>
<clus scale="   91.720">  7  8 -1 -1</clus>
<clus scale="   92.116">  5  6 -1 -1</clus>
<clus scale="  102.034">  2  7  1 -1</clus>
<clus scale="   62.318">  1  5  2 -1</clus>
</clustering>
</event>
<event>
 9    1  0.1435532E-005  0.1073516E+03  0.7546771E-02  0.1265835E+00
          1   -1    0    0  502    0  0.00000000000E+00  0.00000000000E+00  0.53872007524E+03  0.53872007524E+03  0.00000000000E+00 0. -1.
         -1   -1    0    0    0  501 -0.00000000000E+00 -0.00000000000E+00 -0.50276387417E+02  0.50276387417E+02  0.00000000000E+00 0.  1.
         23    2    1    2    0    0  0.44488253270E+02  0.32925815508E+02  0.65347477326E+02  0.12532569622E+03  0.91503679344E+02 0.  0.
         23    2    1    2    0    0 -0.67496277340E+02  0.13642234103E+02  0.16987278336E+03  0.20517500928E+03  0.92185486394E+02 0.  0.
        -11    1    4    4    0    0 -0.28498495508E+02 -0.14748645279E+02  0.38884979354E+01  0.32323477535E+02  0.00000000000E+00 0.  1.
         11    1    4    4    0    0 -0.38997781833E+02  0.28390879382E+02  0.16598428542E+03  0.17285153174E+03  0.00000000000E+00 0. -1.
        -13    1    3    3    0    0  0.54104045476E+02  0.55798208889E+02  0.63645069522E+02  0.10045587452E+03  0.00000000000E+00 0.  1.
         13    1    3    3    0    0 -0.96157922054E+01 -0.22872393381E+02  0.17024078035E+01  0.24869821693E+02  0.00000000000E+00 0. -1.
         21    1    1    2  502  501  0.23008024070E+02 -0.46568049611E+02  0.25322342714E+03  0.25849575716E+03  0.00000000000E+00 0. -1.
<scales pt_clust_5="13000.00000" pt_clust_6="13000.00000" pt_clust_7="13000.00000" pt_clust_8="13000.00000" pt_clust_9="51.94182"></scales>
<clustering>
<clus scale="   51.942">  1  9  2 -1</clus>
<clus scale="   91.504">  7  8 -1 -1</clus>
<clus scale="   92.185">  5  6 -1 -1</clus>
<clus scale="  106.767">  2  7  1 -1</clus>
<clus scale="   51.942">  1  5  2 -1</clus>
</clustering>
</event>
<event>
 9    1  0.1435532E-005  0.9256416E+02  0.7546771E-02  0.1297530E+00
         -2   -1    0    0    0  501 -0.00000000000E+00  0.00000000000E+00  0.14740404315E+03  0.14740404315E+03  0.00000000000E+00 0.  1.
          2   -1    0    0  502    0  0.00000000000E+00 -0.00000000000E+00 -0.10210043357E+03  0.10210043357E+03  0.00000000000E+00 0. -1.
         23    2    1    2    0    0 -0.22936733730E+01  0.85320309440E+01  0.75871527983E+02  0.11885744819E+03  0.91063427024E+02 0.  0.
         23    2    1    2    0    0  0.15154899465E+02  0.17472797666E+02 -0.34673270129E+02  0.10134658211E+03  0.92379242305E+02 0.  0.
        -11    1    3    3    0    0 -0.22713367781E+02 -0.20732797042E+02  0.77249874237E+02  0.83146190645E+02  0.00000000000E+00 0.  1.
         11    1    3    3    0    0  0.20419694408E+02  0.29264827986E+02 -0.13783462540E+01  0.35711257541E+02  0.00000000000E+00 0. -1.
        -13    1    4    4    0    0  0.26089994753E+02  0.45829765189E+02 -0.44919563968E+02  0.69273533406E+02  0.00000000000E+00 0. -1.
         13    1    4    4    0    0 -0.10935095288E+02 -0.28356967523E+02  0.10246293839E+02  0.32073048709E+02  0.00000000000E+00 0.  1.
         21    1    1    2  502  501 -0.12861226092E+02 -0.26004828610E+02  0.41053517239E+01  0.29300446420E+02  0.00000000000E+00 0.  1.
<scales pt_clust_5="13000.00000" pt_clust_6="13000.00000" pt_clust_7="13000.00000" pt_clust_8="13000.00000" pt_clust_9="29.01142"></scales>
<clustering>
<clus scale="   29.011">  2  9  1 -1</clus>
<clus scale="   91.063">  5  6 -1 -1</clus>
<clus scale="   91.251">  1  5  2 -1</clus>
<clus scale="   92.379">  7  8 -1 -1</clus>
<clus scale="   29.011">  2  5  1 -1</clus>
</clustering>
</event>
<event>
 9    1  0.1435532E-005  0.1880610E+03  0.7546771E-02  0.1160380E+00
         -1   -1    0    0    0  501 -0.00000000000E+00  0.00000000000E+00  0.25030580261E+03  0.25030580261E+03  0.00000000000E+00 0.  1.
          1   -1    0    0  502    0  0.00000000000E+00 -0.00000000000E+00 -0.31754574699E+03  0.31754574699E+03  0.00000000000E+00 0. -1.
         23    2    1    2    0    0  0.15803350686E+03  0.71779200597E+02  0.15021192886E+03  0.24661212742E+03  0.90150290556E+02 0.  0.
         23    2    1    2    0    0 -0.94466164605E+02 -0.80343777229E+02 -0.20400843487E+03  0.25570404998E+03  0.91575875002E+02 0.  0.
        -13    1    4    4    0    0 -0.25338281901E+02 -0.45204531966E+01 -0.12105353719E+03  0.12375953253E+03  0.00000000000E+00 0.  1.
         13    1    4    4    0    0 -0.69127882704E+02 -0.75823324032E+02 -0.82954897680E+02  0.13194451744E+03  0.00000000000E+00 0. -1.
        -13    1    3    3    0    0  0.12303795196E+03  0.43751636210E+02  0.15364938144E+03  0.20164492483E+03  0.00000000000E+00 0.  1.
         13    1    3    3    0    0  0.34995554902E+02  0.28027564387E+02 -0.34374525743E+01  0.44967202588E+02  0.00000000000E+00 0. -1.
         21    1    1    2  502  501 -0.63567342255E+02  0.85645766320E+01 -0.13443438376E+02  0.65535372201E+02  0.00000000000E+00 0. -1.
<scales pt_clust_5="13000.00000" pt_clust_6="13000.00000" pt_clust_7="13000.00000" pt_clust_8="13000.00000" pt_clust_9="64.14171"></scales>
<clustering>
<clus scale="   64.142">  2  9  1 -1</clus>
<clus scale="   90.150">  7  8 -1 -1</clus>
<clus scale="   91.576">  5  6 -1 -1</clus>
<clus scale="  187.371">  1  7  2 -1</clus>
<clus scale="   64.142">  2  5  1 -1</clus>
</clustering>
</event>
<event>
 9    1  0.1435532E-005  0.9984383E+02  0.7546771E-02  0.1282184E+00
          2   -1    0    0  502    0  0.00000000000E+00  0.00000000000E+00  0.50164088466E+03  0.50164088466E+03  0.00000000000E+00 0. -1.
         -2   -1    0    0    0  501 -0.00000000000E+00 -0.00000000000E+00 -0.53786104037E+02  0.53786104037E+02  0.00000000000E+00 0.  1.
         23    2    1    2    0    0 -0.32422177065E+02  0.49283570160E+01  0.17421121073E+02  0.96104596902E+02  0.88640350957E+02 0.  0.
         23    2    1    2    0    0  0.72564577316E+02 -0.15156227151E+02  0.29618581428E+03  0.31882859981E+03  0.91816721662E+02 0.  0.
        -11    1    3    3    0    0  0.21802767573E+02  0.23035887223E+02 -0.92239688562E+01  0.33031717719E+02  0.00000000000E+00 0. -1.
         11    1    3    3    0    0 -0.54224944638E+02 -0.18107530207E+02  0.26645089929E+02  0.63072879184E+02  0.00000000000E+00 0.  1.
        -11    1    4    4    0    0  0.33205465290E+02  0.11787442199E+02  0.24328137905E+02  0.42818278955E+02  0.00000000000E+00 0.  1.
         11    1    4    4    0    0  0.39359112026E+02 -0.26943669350E+02  0.27185767637E+03  0.27601032086E+03  0.00000000000E+00 0. -1.
         21    1    1    2  502  501 -0.40142400251E+02  0.10227870135E+02  0.13424784527E+03  0.14049379198E+03  0.00000000000E+00 0. -1.
<scales pt_clust_5="13000.00000" pt_clust_6="13000.00000" pt_clust_7="13000.00000" pt_clust_8="13000.00000" pt_clust_9="41.42489"></scales>
<clustering>
<clus scale="   41.425">  1  9  2 -1</clus>
<clus scale="   88.640">  5  6 -1 -1</clus>
<clus scale="   91.817">  7  8 -1 -1</clus>
<clus scale="   96.931">  2  5  1 -1</clus>
<clus scale="   41.425">  1  5  2 -1</clus>
</clustering>
</event>
<event>
 9    1  0.1435532E-005  0.1228967E+03  0.7546771E-02  0.1238405E+00
         -2   -1    0    0    0  501 -0.00000000000E+00  0.00000000000E+00  0.54580049704E+02  0.54580049704E+02  0.00000000000E+00 0.  1.
          2   -1    0    0  502    0  0.00000000000E+00 -0.00000000000E+00 -0.44791053093E+03  0.44791053093E+03  0.00000000000E+00 0. -1.
         23    2    1    2    0    0  0.85248983874E+02 -0.46008510474E+01 -0.60747488957E+02  0.13885245330E+03  0.91110862644E+02 0.  0.
         23    2    1    2    0    0 -0.74255712782E+02 -0.20715488019E+02 -0.27415257180E+03  0.29901705438E+03  0.91151104556E+02 0.  0.
        -11    1    3    3    0    0  0.38007601569E+02  0.34606691369E+02  0.14997355379E+01  0.51424216778E+02  0.00000000000E+00 0.  1.
         11    1    3    3    0    0  0.47241382304E+02 -0.39207542417E+02 -0.62247224495E+02  0.87428236524E+02  0.00000000000E+00 0. -1.
        -11    1    4    4    0    0 -0.73742381067E+02  0.14883641028E+02 -0.23172419746E+03  0.24362997603E+03  0.00000000000E+00 0.  1.
         11    1    4    4    0    0 -0.51333171430E+00 -0.35599129047E+02 -0.42428374342E+02  0.55387078345E+02  0.00000000000E+00 0. -1.
         21    1    1    2  502  501 -0.10993271092E+02  0.25316339066E+02 -0.58430420469E+02  0.64621072950E+02  0.00000000000E+00 0. -1.
<scales pt_clust_5="13000.00000" pt_clust_6="13000.00000" pt_clust_7="13000.00000" pt_clust_8="13000.00000" pt_clust_9="27.60016"></scales>
<clustering>
<clus scale="   27.600">  2  9  1 -1</clus>
<clus scale="   91.111">  5  6 -1 -1</clus>
<clus scale="   91.151">  7  8 -1 -1</clus>
<clus scale="  122.867">  1  5  2 -1</clus>
<clus scale="   27.600">  2  5  1 -1</clus>
</clustering>
</event>
<event>
 9    1  0.1435532E-005  0.9368608E+02  0.7546771E-02  0.1296201E+00
          3   -1    0    0  502    0  0.00000000000E+00  0.00000000000E+00  0.22910782416E+03  0.22910782416E+03  0.00000000000E+00 0. -1.
         -3   -1    0    0    0  501 -0.00000000000E+00 -0.00000000000E+00 -0.12186897934E+03  0.12186897934E+03  0.00000000000E+00 0.  1.
         23    2    1    2    0    0  0.76839615542E+01 -0.13516059306E+01 -0.64299259165E+02  0.11258642500E+03  0.92089295036E+02 0.  0.
         23    2    1    2    0    0 -0.60015469381E+02 -0.28176324417E+00  0.82451943657E+02  0.13505791233E+03  0.88545924321E+02 0.  0.
        -13    1    4    4    0    0 -0.22571113671E+02  0.33724555691E+02  0.27674713975E+01  0.40675050422E+02  0.00000000000E+00 0.  1.
         13    1    4    4    0    0 -0.37444355709E+02 -0.34006318935E+02  0.79684472260E+02  0.94382861905E+02  0.00000000000E+00 0. -1.
        -13    1    3    3    0    0  0.82655284094E+01 -0.23932311169E+02  0.15476221935E+02  0.29674701736E+02  0.00000000000E+00 0. -1.
         13    1    3    3    0    0 -0.58156685521E+00  0.22580705238E+02 -0.79775481100E+02  0.82911723259E+02  0.00000000000E+00 0.  1.
         21    1    1    2  502  501  0.52331507826E+02  0.16333691748E+01  0.89086160323E+02  0.10333246618E+03  0.00000000000E+00 0.  1.
<scales pt_clust_5="13000.00000" pt_clust_6="13000.00000" pt_clust_7="13000.00000" pt_clust_8="13000.00000" pt_clust_9="52.35699"></scales>
<clustering>
<clus scale="   52.357">  1  9  2 -1</clus>
<clus scale="   88.546">  5  6 -1 -1</clus>
<clus scale="   90.205">  1  5  2 -1</clus>
<clus scale="   92.089">  7  8 -1 -1</clus>
<clus scale="   52.357">  1  5  2 -1</clus>
</clustering>
</event>
<event>
 9    1  0.1435532E-005  0.1101527E+03  0.7546771E-02  0.1267091E+00
         -2   -1    0    0    0  501 -0.00000000000E+00  0.00000000000E+00  0.31841265333E+02  0.31841265333E+02  0.00000000000E+00 0.  1.
          2   -1    0    0  502    0  0.00000000000E+00 -0.00000000000E+00 -0.45581549331E+03  0.45581549331E+03  0.00000000000E+00 0. -1.
         23    2    1    2    0    0  0.39041889699E+02  0.56968688666E+01 -0.13064151503E+03  0.16493432782E+03  0.92625069932E+02 0.  0.
         23    2    1    2    0    0 -0.16205523849E+02 -0.12095028454E+02 -0.25996933672E+03  0.28178893689E+03  0.10682715107E+03 0.  0.
        -11    1    3    3    0    0  0.46145321448E+02 -0.24625972613E+02 -0.12180612400E+03  0.13256153689E+03  0.00000000000E+00 0. -1.
         11    1    3    3    0    0 -0.71034317492E+01  0.30322841479E+02 -0.88353910210E+01  0.32372790928E+02  0.00000000000E+00 0.  1.
        -13    1    4    4    0    0 -0.60924029417E+02 -0.16446242970E+02 -0.16719763824E+03  0.17871000672E+03  0.00000000000E+00 0.  1.
         13    1    4    4    0    0  0.44718505568E+02  0.43512145158E+01 -0.92771698479E+02  0.10307893018E+03  0.00000000000E+00 0. -1.
         21    1    1    2  502  501 -0.22836365850E+02  0.63981595877E+01 -0.33363376238E+02  0.40933493930E+02  0.00000000000E+00 0.  1.
<scales pt_clust_5="13000.00000" pt_clust_6="13000.00000" pt_clust_7="13000.00000" pt_clust_8="13000.00000" pt_clust_9="23.71573"></scales>
<clustering>
<clus scale="   23.716">  1  9  2 -1</clus>
<clus scale="   92.625">  5  6 -1 -1</clus>
<clus scale="   96.442">  1  5  2 -1</clus>
<clus scale="  106.827">  7  8 -1 -1</clus>
<clus scale="  110.153">  2  5  1 -1</clus>
</clustering>
</event>
<event>
 9    1  0.1435532E-005  0.1871270E+03  0.7546771E-02  0.1161394E+00
         -2   -1    0    0    0  501 -0.00000000000E+00  0.00000000000E+00  0.45401903588E+03  0.45401903588E+03  0.00000000000E+00 0.  1.
          2   -1    0    0  502    0  0.00000000000E+00 -0.00000000000E+00 -0.27119636155E+03  0.27119636155E+03  0.00000000000E+00 0. -1.
         23    2    1    2    0    0  0.59970137484E+02  0.14700072044E+03  0.32050698574E+03  0.36920332407E+03  0.91546367474E+02 0.  0.
         23    2    1    2    0    0 -0.31126441685E+02 -0.17279560673E+03  0.13696190877E+02  0.19976422084E+03  0.94291999705E+02 0.  0.
        -13    1    3    3    0    0  0.16844317135E+02  0.97065759458E+02  0.26587872341E+03  0.28354362669E+03  0.00000000000E+00 0.  1.
         13    1    3    3    0    0  0.43125820349E+02  0.49934960983E+02  0.54628262331E+02  0.85659697375E+02  0.00000000000E+00 0. -1.
        -13    1    4    4    0    0  0.15820743348E+02 -0.10797524961E+03  0.38899702361E+02  0.11585394811E+03  0.00000000000E+00 0. -1.
         13    1    4    4    0    0 -0.46947185033E+02 -0.64820357116E+02 -0.25203511484E+02  0.83910272734E+02  0.00000000000E+00 0.  1.
         21    1    1    2  502  501 -0.28843695799E+02  0.25794886287E+02 -0.15138050228E+03  0.15624785252E+03  0.00000000000E+00 0. -1.
<scales pt_clust_5="13000.00000" pt_clust_6="13000.00000" pt_clust_7="13000.00000" pt_clust_8="13000.00000" pt_clust_9="38.69541"></scales>
<clustering>
<clus scale="   38.695">  2  9  1 -1</clus>
<clus scale="   91.546">  5  6 -1 -1</clus>
<clus scale="   94.292">  7  8 -1 -1</clus>
<clus scale="  185.759">  1  5  2 -1</clus>
<clus scale="   38.695">  2  5  1 -1</clus>
</clustering>
</event>
<event>
 9    1  0.1435532E-005  0.2102373E+03  0.7546771E-02  0.1172570E+00
          1   -1    0    0  502    0  0.00000000000E+00  0.00000000000E+00  0.80501791292E+03  0.80501791292E+03  0.00000000000E+00 0. -1.
         -1   -1    0    0    0  501 -0.00000000000E+00 -0.00000000000E+00 -0.11968096931E+03  0.11968096931E+03  0.00000000000E+00 0.  1.
         23    2    1    2    0    0 -0.40663927226E+02  0.15143319929E+02  0.66394265934E+02  0.12112162210E+03  0.91538918917E+02 0.  0.
         23    2    1    2    0    0 -0.12820931064E+03 -0.11156374383E+03  0.45262279584E+02  0.19783451954E+03  0.90585467355E+02 0.  0.
        -11    1    4    4    0    0 -0.98410231648E+02 -0.96484249365E+02 -0.45146788235E+01  0.13789186486E+03  0.00000000000E+00 0.  1.
         11    1    4    4    0    0 -0.29799078987E+02 -0.15079494465E+02  0.49776958408E+02  0.59942654680E+02  0.00000000000E+00 0. -1.
        -11    1    3    3    0    0  0.14667909590E+02  0.17888247136E+02  0.61262479678E+02  0.65484565919E+02  0.00000000000E+00 0.  1.
         11    1    3    3    0    0 -0.55331836816E+02 -0.27449272069E+01  0.51317862567E+01  0.55637056186E+02  0.00000000000E+00 0. -1.
         21    1    1    2  502  501  0.16887323786E+03  0.96420423901E+02  0.57368039809E+03  0.60574274058E+03  0.00000000000E+00 0. -1.
<scales pt_clust_5="13000.00000" pt_clust_6="13000.00000" pt_clust_7="13000.00000" pt_clust_8="13000.00000" pt_clust_9="189.72082"></scales>
<clustering>
<clus scale="   90.585">  5  6 -1 -1</clus>
<clus scale="   91.539">  7  8 -1 -1</clus>
<clus scale="  101.303">  2  7  1 -1</clus>
<clus scale="  189.721">  1  9  2 -1</clus>
<clus scale="  189.721">  1  5  2 -1</clus>
</clustering>
</event>
<event>
 9    1  0.1435532E-005  0.1128656E+03  0.7546771E-02  0.1256648E+00
         -3   -1    0    0    0  501 -0.00000000000E+00  0.00000000000E+00  0.66671171125E+02  0.66671171125E+02  0.00000000000E+00 0.  1.
          3   -1    0    0  502    0  0.00000000000E+00 -0.00000000000E+00 -0.42309527025E+03  0.42309527025E+03  0.00000000000E+00 0. -1.
         23    2    1    2    0    0 -0.38720215665E+02 -0.25454463328E+02 -0.75738947045E+02  0.12947195581E+03  0.94230644897E+02 0.  0.
         23    2    1    2    0    0  0.70918645198E+02 -0.61069452202E+02 -0.19335620507E+03  0.23321391345E+03  0.90791933334E+02 0.  0.
        -11    1    3    3    0    0  0.21389476429E+02 -0.34646455050E+02 -0.14637166784E+02  0.43268154581E+02  0.00000000000E+00 0.  1.
         11    1    3    3    0    0 -0.60109692094E+02  0.91919917220E+01 -0.61101780261E+02  0.86203801230E+02  0.00000000000E+00 0. -1.
        -11    1    4    4    0    0  0.47788782674E+02 -0.11157257975E+01 -0.27050799176E+02  0.54925024621E+02  0.00000000000E+00 0. -1.
         11    1    4    4    0    0  0.23129862523E+02 -0.59953726404E+02 -0.16630540590E+03  0.17828888883E+03  0.00000000000E+00 0.  1.
         21    1    1    2  502  501 -0.32198429533E+02  0.86523915530E+02 -0.87328947010E+02  0.12708057211E+03  0.00000000000E+00 0. -1.
<scales pt_clust_5="13000.00000" pt_clust_6="13000.00000" pt_clust_7="13000.00000" pt_clust_8="13000.00000" pt_clust_9="92.32078"></scales>
<clustering>
<clus scale="   90.792">  7  8 -1 -1</clus>
<clus scale="   92.321">  1  9  2 -1</clus>
<clus scale="   94.231">  5  6 -1 -1</clus>
<clus scale="  110.011">  2  7  1 -1</clus>
<clus scale="  110.011">  2  5  1 -1</clus>
</clustering>
</event>
<event>
 9    1  0.1435532E-005  0.9581466E+02  0.7546771E-02  0.1289518E+00
         -2   -1    0    0    0  501 -0.00000000000E+00  0.00000000000E+00  0.27915168580E+03  0.27915168580E+03  0.00000000000E+00 0.  1.
          2   -1    0    0  502    0  0.00000000000E+00 -0.00000000000E+00 -0.53989824770E+02  0.53989824770E+02  0.00000000000E+00 0. -1.
         23    2    1    2    0    0  0.56428754651E+01 -0.20800428064E+02  0.10381792648E+03  0.14040342212E+03  0.92035097841E+02 0.  0.
         23    2    1    2    0    0  0.40550662445E+02  0.24974456879E+02  0.84864666678E+02  0.13372959375E+03  0.91725203047E+02 0.  0.
        -13    1    4    4    0    0  0.35044003165E+02  0.50221317640E+02  0.88513127093E+02  0.10763287867E+03  0.00000000000E+00 0. -1.
         13    1    4    4    0    0  0.55066592802E+01 -0.25246860760E+02 -0.36484604156E+01  0.26096715082E+02  0.00000000000E+00 0.  1.
        -13    1    3    3    0    0 -0.14378032051E+02 -0.41833854971E+02  0.10215019930E+03  0.11131694590E+03  0.00000000000E+00 0.  1.
         13    1    3    3    0    0  0.20020907516E+02  0.21033426907E+02  0.16677271786E+01  0.29086476225E+02  0.00000000000E+00 0. -1.
         21    1    1    2  502  501 -0.46193537910E+02 -0.41740288151E+01  0.36479267874E+02  0.59008494692E+02  0.00000000000E+00 0.  1.
<scales pt_clust_5="13000.00000" pt_clust_6="13000.00000" pt_clust_7="13000.00000" pt_clust_8="13000.00000" pt_clust_9="46.38174"></scales>
<clustering>
<clus scale="   46.382">  2  9  1 -1</clus>
<clus scale="   91.725">  5  6 -1 -1</clus>
<clus scale="   92.035">  7  8 -1 -1</clus>
<clus scale="   95.517">  2  5  1 -1</clus>
<clus scale="   46.382">  2  5  1 -1</clus>
</clustering>
</event>
<event>
 9    1  0.1435532E-005  0.1301098E+03  0.7546771E-02  0.1227639E+00
         -1   -1    0    0    0  501 -0.00000000000E+00  0.00000000000E+00  0.94157179936E+02  0.94157179936E+02  0.00000000000E+00 0.  1.
          1   -1    0    0  502    0  0.00000000000E+00 -0.00000000000E+00 -0.27868324534E+03  0.27868324534E+03  0.00000000000E+00 0. -1.
         23    2    1    2    0    0 -0.61959873579E+01  0.82644224334E+02 -0.48551270530E+02  0.13198173511E+03  0.90517923400E+02 0.  0.
         23    2    1    2    0    0 -0.51604733955E+01 -0.10460813959E+03 -0.42208550085E+02  0.14388708899E+03  0.89176450491E+02 0.  0.
        -11    1    4    4    0    0 -0.29935046432E+02 -0.13568193718E+01 -0.18081742300E+02  0.34998533802E+02  0.00000000000E+00 0. -1.
         11    1    4    4    0    0  0.24774573036E+02 -0.10325132022E+03 -0.24126807785E+02  0.10888855518E+03  0.00000000000E+00 0.  1.
        -11    1    3    3    0    0 -0.24250097630E+02 -0.93367936913E+01  0.90024103459E+00  0.26001026623E+02  0.00000000000E+00 0.  1.
         11    1    3    3    0    0  0.18054110273E+02  0.91981018026E+02 -0.49451511565E+02  0.10598070848E+03  0.00000000000E+00 0. -1.
         21    1    1    2  502  501  0.11356460753E+02  0.21963915257E+02 -0.93766244786E+02  0.96971601180E+02  0.00000000000E+00 0. -1.
<scales pt_clust_5="13000.00000" pt_clust_6="13000.00000" pt_clust_7="13000.00000" pt_clust_8="13000.00000" pt_clust_9="24.72616"></scales>
<clustering>
<clus scale="   24.726">  2  9  1 -1</clus>
<clus scale="   89.176">  5  6 -1 -1</clus>
<clus scale="   90.518">  7  8 -1 -1</clus>
<clus scale="  129.180">  2  5  1 -1</clus>
<clus scale="   24.726">  2  5  1 -1</clus>
</clustering>
</event>
<event>
 9    1  0.1435532E-005  0.1005344E+03  0.7546771E-02  0.1279407E+00
          1   -1    0    0  502    0  0.00000000000E+00  0.00000000000E+00  0.18577734991E+03  0.18577734991E+03  0.00000000000E+00 0. -1.
         -1   -1    0    0    0  501 -0.00000000000E+00 -0.00000000000E+00 -0.77266631027E+02  0.77266631027E+02  0.00000000000E+00 0.  1.
         23    2    1    2    0    0  0.32820506428E+01 -0.27286956503E+02  0.27843478101E+02  0.97040469779E+02  0.88804524944E+02 0.  0.
         23    2    1    2    0    0 -0.21367556014E+01  0.62510743224E+02  0.68302277648E+02  0.12865489452E+03  0.89301299028E+02 0.  0.
        -11    1    3    3    0    0 -0.59476964648E+01 -0.55773011010E+02  0.35182304272E+02  0.66210258904E+02  0.00000000000E+00 0.  1.
         11    1    3    3    0    0  0.92297471076E+01  0.28486054506E+02 -0.73388261712E+01  0.30830210875E+02  0.00000000000E+00 0. -1.
        -11    1    4    4    0    0 -0.43963136037E+02  0.41146528417E+02  0.26531717871E+02  0.65800654892E+02  0.00000000000E+00 0. -1.
         11    1    4    4    0    0  0.41826380436E+02  0.21364214807E+02  0.41770559776E+02  0.62854239624E+02  0.00000000000E+00 0.  1.
         21    1    1    2  502  501 -0.11452950414E+01 -0.35223786721E+02  0.12364963134E+02  0.37348616641E+02  0.00000000000E+00 0. -1.
<scales pt_clust_5="13000.00000" pt_clust_6="13000.00000" pt_clust_7="13000.00000" pt_clust_8="13000.00000" pt_clust_9="35.24240"></scales>
<clustering>
<clus scale="   35.242">  2  9  1 -1</clus>
<clus scale="   88.805">  5  6 -1 -1</clus>
<clus scale="   89.301">  7  8 -1 -1</clus>
<clus scale="  100.093">  2  5  1 -1</clus>
<clus scale="  100.534">  1  5  2 -1</clus>
</clustering>
</event>
<event>
 9    1  0.1435532E-005  0.9257171E+02  0.7546771E-02  0.1297993E+00
          1   -1    0    0  502    0  0.00000000000E+00  0.00000000000E+00  0.33194154348E+03  0.33194154348E+03  0.00000000000E+00 0. -1.
         -1   -1    0    0    0  501 -0.00000000000E+00 -0.00000000000E+00 -0.76298193222E+02  0.76298193222E+02  0.00000000000E+00 0.  1.
         23    2    1    2    0    0  0.15057395016E+02 -0.20182175348E+01 -0.11339310127E+02  0.91923550268E+02  0.89947544675E+02 0.  0.
         23    2    1    2    0    0  0.30315129754E+01 -0.11192001062E+02  0.27673766793E+03  0.29188508659E+03  0.92079943327E+02 0.  0.
        -11    1    4    4    0    0  0.19862584027E+02 -0.47640511727E+02  0.17694536925E+03  0.18431984240E+03  0.00000000000E+00 0.  1.
         11    1    4    4    0    0 -0.16831071052E+02  0.36448510665E+02  0.99792298678E+02  0.10756524419E+03  0.00000000000E+00 0. -1.
        -13    1    3    3    0    0 -0.35174390693E+02 -0.46260617270E+00 -0.20681739332E+02  0.40806691937E+02  0.00000000000E+00 0. -1.
         13    1    3    3    0    0  0.50231785708E+02 -0.15556113621E+01  0.93424292054E+01  0.51116858331E+02  0.00000000000E+00 0.  1.
         21    1    1    2  502  501 -0.18088907991E+02  0.13210218597E+02 -0.97550075419E+01  0.24431099849E+02  0.00000000000E+00 0.  1.
<scales pt_clust_5="13000.00000" pt_clust_6="13000.00000" pt_clust_7="13000.00000" pt_clust_8="13000.00000" pt_clust_9="22.39907"></scales>
<clustering>
<clus scale="   22.399">  2  9  1 -1</clus>
<clus scale="   89.948">  7  8 -1 -1</clus>
<clus scale="   90.451">  2  7  1 -1</clus>
<clus scale="   92.080">  5  6 -1 -1</clus>
<clus scale="   92.572">  1  5  2 -1</clus>
</clustering>
</event>
<event>
 9    1  0.1435532E-005  0.1543663E+03  0.7546771E-02  0.1197015E+00
          1   -1    0    0  502    0  0.00000000000E+00  0.00000000000E+00  0.45873034642E+03  0.45873034642E+03  0.00000000000E+00 0. -1.
         -1   -1    0    0    0  501 -0.00000000000E+00 -0.00000000000E+00 -0.80674252080E+02  0.80674252080E+02  0.00000000000E+00 0.  1.
         23    2    1    2    0    0 -0.12204428376E+03  0.34058169271E+02  0.47588469896E+02  0.16223150534E+03  0.89440666176E+02 0.  0.
         23    2    1    2    0    0  0.92224259826E+02 -0.40468243723E+02  0.21132199322E+03  0.25418527132E+03  0.99046324944E+02 0.  0.
        -13    1    3    3    0    0 -0.83819281143E+02  0.11118604125E+02 -0.14508589704E+02  0.85789244222E+02  0.00000000000E+00 0.  1.
         13    1    3    3    0    0 -0.38225002616E+02  0.22939565147E+02  0.62097059600E+02  0.76442261119E+02  0.00000000000E+00 0. -1.
        -13    1    4    4    0    0  0.51373677981E+02  0.30158846143E+02  0.93771706255E+02  0.11109430086E+03  0.00000000000E+00 0. -1.
         13    1    4    4    0    0  0.40850581845E+02 -0.70627089865E+02  0.11755028697E+03  0.14309097045E+03  0.00000000000E+00 0.  1.
         21    1    1    2  502  501  0.29820023933E+02  0.64100744510E+01  0.11914563123E+03  0.12298782185E+03  0.00000000000E+00 0. -1.
<scales pt_clust_5="13000.00000" pt_clust_6="13000.00000" pt_clust_7="13000.00000" pt_clust_8="13000.00000" pt_clust_9="30.50119"></scales>
<clustering>
<clus scale="   30.501">  1  9  2 -1</clus>
<clus scale="   89.441">  5  6 -1 -1</clus>
<clus scale="   99.046">  7  8 -1 -1</clus>
<clus scale="  148.386">  2  5  1 -1</clus>
<clus scale="   30.501">  1  5  2 -1</clus>
</clustering>
</event>
<event>
 9    1  0.1435532E-005  0.1361208E+03  0.7546771E-02  0.1219221E+00
          1   -1    0    0  502    0  0.00000000000E+00  0.00000000000E+00  0.36064294636E+03  0.36064294636E+03  0.00000000000E+00 0. -1.
         -1   -1    0    0    0  501 -0.00000000000E+00 -0.00000000000E+00 -0.90412290945E+02  0.90412290945E+02  0.00000000000E+00 0.  1.
         23    2    1    2    0    0  0.59100319150E+01 -0.91185696728E+02  0.21219326106E+02  0.13223521198E+03  0.93199419105E+02 0.  0.
         23    2    1    2    0    0  0.33862542666E+01  0.11605429811E+03  0.12887738114E+03  0.19578737204E+03  0.90792339181E+02 0.  0.
        -11    1    4    4    0    0 -0.43582063877E+02  0.50114273170E+02  0.56613312866E+02  0.87269146099E+02  0.00000000000E+00 0. -1.
         11    1    4    4    0    0  0.46968318144E+02  0.65940024941E+02  0.72264068277E+02  0.10851822595E+03  0.00000000000E+00 0.  1.
        -13    1    3    3    0    0  0.17418615109E+02 -0.72279279170E+02  0.54557637614E+02  0.92218426422E+02  0.00000000000E+00 0. -1.
         13    1    3    3    0    0 -0.11508583194E+02 -0.18906417557E+02 -0.33338311509E+02  0.40016785556E+02  0.00000000000E+00 0.  1.
         21    1    1    2  502  501 -0.92962861816E+01 -0.24868601383E+02  0.12013394816E+03  0.12303265328E+03  0.00000000000E+00 0.  1.
<scales pt_clust_5="13000.00000" pt_clust_6="13000.00000" pt_clust_7="13000.00000" pt_clust_8="13000.00000" pt_clust_9="26.54936"></scales>
<clustering>
<clus scale="   26.549">  1  9  2 -1</clus>
<clus scale="   90.792">  5  6 -1 -1</clus>
<clus scale="   93.199">  7  8 -1 -1</clus>
<clus scale="  134.484">  1  5  2 -1</clus>
<clus scale="   26.549">  1  5  2 -1</clus>
</clustering>
</event>
<event>
 9    1  0.1435532E-005  0.1137181E+03  0.7546771E-02  0.1254042E+00
         -2   -1    0    0    0  501 -0.00000000000E+00  0.00000000000E+00  0.22056042860E+03  0.22056042860E+03  0.00000000000E+00 0.  1.
          2   -1    0    0  502    0  0.00000000000E+00 -0.00000000000E+00 -0.25555430989E+03  0.25555430989E+03  0.00000000000E+00 0. -1.
         23    2    1    2    0    0 -0.67813658352E+02 -0.85356093051E+01  0.14467923539E+03  0.18427196187E+03  0.91392154441E+02 0.  0.
         23    2    1    2    0    0  0.63932625313E+02 -0.13030264615E+02 -0.19552727163E+01  0.11277915273E+03  0.91968178324E+02 0.  0.
        -13    1    3    3    0    0 -0.21499783108E+02  0.32542373607E+02  0.10166224278E+03  0.10888736548E+03  0.00000000000E+00 0.  1.
         13    1    3    3    0    0 -0.46313875243E+02 -0.41077982913E+02  0.43016992615E+02  0.75384596396E+02  0.00000000000E+00 0. -1.
        -13    1    4    4    0    0  0.46080449772E+02 -0.32317663766E+02  0.35853720253E+02  0.66733263808E+02  0.00000000000E+00 0.  1.
         13    1    4    4    0    0  0.17852175541E+02  0.19287399150E+02 -0.37808992969E+02  0.46045888925E+02  0.00000000000E+00 0. -1.
         21    1    1    2  502  501  0.38810330392E+01  0.21565873920E+02 -0.17771784397E+03  0.17906362389E+03  0.00000000000E+00 0. -1.
<scales pt_clust_5="13000.00000" pt_clust_6="13000.00000" pt_clust_7="13000.00000" pt_clust_8="13000.00000" pt_clust_9="21.91231"></scales>
<clustering>
<clus scale="   21.912">  2  9  1 -1</clus>
<clus scale="   91.392">  5  6 -1 -1</clus>
<clus scale="   91.968">  7  8 -1 -1</clus>
<clus scale="  113.253">  1  5  2 -1</clus>
<clus scale="   21.912">  2  5  1 -1</clus>
</clustering>
</event>
<event>
 9    1  0.1435532E-005  0.1235680E+03  0.7546771E-02  0.1240790E+00
         -2   -1    0    0    0  501 -0.00000000000E+00  0.00000000000E+00  0.57201987859E+02  0.57201987859E+02  0.00000000000E+00 0.  1.
          2   -1    0    0  502    0  0.00000000000E+00 -0.00000000000E+00 -0.42045875668E+03  0.42045875668E+03  0.00000000000E+00 0. -1.
         23    2    1    2    0    0 -0.44164985741E+02 -0.52109857774E+02 -0.11250238259E+03  0.16063513668E+03  0.92091681527E+02 0.  0.
         23    2    1    2    0    0  0.28308761563E+02  0.96625039300E+02 -0.11304880089E+03  0.17143766376E+03  0.80455310402E+02 0.  0.
        -11    1    4    4    0    0  0.93817903864E+01  0.10667217517E+03 -0.98836970653E+02  0.14572480130E+03  0.00000000000E+00 0. -1.
         11    1    4    4    0    0  0.18926971177E+02 -0.10047135871E+02 -0.14211830239E+02  0.25712862460E+02  0.00000000000E+00 0.  1.
        -11    1    3    3    0    0 -0.71711182751E+02 -0.26821149731E+02 -0.67003642350E+02  0.10174161338E+03  0.00000000000E+00 0.  1.
         11    1    3    3    0    0  0.27546197010E+02 -0.25288708042E+02 -0.45498740239E+02  0.58893523306E+02  0.00000000000E+00 0. -1.
         21    1    1    2  502  501  0.15856224178E+02 -0.44515181527E+02 -0.13770558534E+03  0.14558794409E+03  0.00000000000E+00 0. -1.
<scales pt_clust_5="13000.00000" pt_clust_6="13000.00000" pt_clust_7="13000.00000" pt_clust_8="13000.00000" pt_clust_9="47.25485"></scales>
<clustering>
<clus scale="   47.255">  2  9  1 -1</clus>
<clus scale="   80.455">  5  6 -1 -1</clus>
<clus scale="   92.092">  7  8 -1 -1</clus>
<clus scale="  115.157">  2  5  1 -1</clus>
<clus scale="   47.255">  2  5  1 -1</clus>
</clustering>
</event>
<event>
 9    1  0.1435532E-005  0.9758569E+02  0.7546771E-02  0.1286508E+00
          1   -1    0    0  502    0  0.00000000000E+00  0.00000000000E+00  0.22025972472E+03  0.22025972472E+03  0.00000000000E+00 0. -1.
         -1   -1    0    0    0  501 -0.00000000000E+00 -0.00000000000E+00 -0.91610821834E+02  0.91610821834E+02  0.00000000000E+00 0.  1.
         23    2    1    2    0    0  0.29331863360E+02 -0.18915794226E+02 -0.28215447324E+02  0.10354542878E+03  0.93313337069E+02 0.  0.
         23    2    1    2    0    0 -0.17894272473E+02 -0.53817151188E+01  0.67672022719E+02  0.11517760718E+03  0.91308327617E+02 0.  0.
        -13    1    4    4    0    0 -0.32807144488E+02  0.28964179664E+02  0.64030341945E+02  0.77557186145E+02  0.00000000000E+00 0. -1.
         13    1    4    4    0    0  0.14912872015E+02 -0.34345894782E+02  0.36416807736E+01  0.37620421037E+02  0.00000000000E+00 0.  1.
        -13    1    3    3    0    0 -0.30083159056E+02 -0.12681654012E+02  0.80943788194E+01  0.33635394687E+02  0.00000000000E+00 0. -1.
         13    1    3    3    0    0  0.59415022416E+02 -0.62341402144E+01 -0.36309826143E+02  0.69910034097E+02  0.00000000000E+00 0.  1.
         21    1    1    2  502  501 -0.11437590887E+02  0.24297509345E+02  0.89192327493E+02  0.93147510591E+02  0.00000000000E+00 0. -1.
<scales pt_clust_5="13000.00000" pt_clust_6="13000.00000" pt_clust_7="13000.00000" pt_clust_8="13000.00000" pt_clust_9="26.85493"></scales>
<clustering>
<clus scale="   26.855">  1  9  2 -1</clus>
<clus scale="   91.308">  5  6 -1 -1</clus>
<clus scale="   93.313">  7  8 -1 -1</clus>
<clus scale="   95.670">  1  5  2 -1</clus>
<clus scale="   26.855">  1  5  2 -1</clus>
</clustering>
</event>
<event>
 9    1  0.1435532E-005  0.1018345E+03  0.7546771E-02  0.1281164E+00
         -1   -1    0    0    0  501 -0.00000000000E+00  0.00000000000E+00  0.14483802166E+03  0.14483802166E+03  0.00000000000E+00 0.  1.
          1   -1    0    0  502    0  0.00000000000E+00 -0.00000000000E+00 -0.21736469330E+03  0.21736469330E+03  0.00000000000E+00 0. -1.
         23    2    1    2    0    0 -0.73175613673E+01  0.10159977283E+02  0.86872730947E+02  0.13337560294E+03  0.10042613323E+03 0.  0.
         23    2    1    2    0    0 -0.26765798147E+02 -0.53210985705E+02 -0.10555752135E+03  0.15192449245E+03  0.91601550975E+02 0.  0.
        -13    1    4    4    0    0  0.11930835994E+02  0.21555095090E+02 -0.29845023805E+02  0.38700031237E+02  0.00000000000E+00 0. -1.
         13    1    4    4    0    0 -0.38696634141E+02 -0.74766080796E+02 -0.75712497547E+02  0.11322446121E+03  0.00000000000E+00 0.  1.
        -13    1    3    3    0    0 -0.70118791336E+01 -0.33988883630E+02 -0.13408637501E+01  0.34730513601E+02  0.00000000000E+00 0. -1.
         13    1    3    3    0    0 -0.30568223371E+00  0.44148860913E+02  0.88213594697E+02  0.98645089340E+02  0.00000000000E+00 0.  1.
         21    1    1    2  502  501  0.34083359515E+02  0.43051008422E+02 -0.53841881235E+02  0.76902619571E+02  0.00000000000E+00 0. -1.
<scales pt_clust_5="13000.00000" pt_clust_6="13000.00000" pt_clust_7="13000.00000" pt_clust_8="13000.00000" pt_clust_9="54.90961"></scales>
<clustering>
<clus scale="   54.910">  2  9  1 -1</clus>
<clus scale="   91.602">  5  6 -1 -1</clus>
<clus scale="   93.143">  2  5  1 -1</clus>
<clus scale="  100.426">  7  8 -1 -1</clus>
<clus scale="   54.910">  2  5  1 -1</clus>
</clustering>
</event>
<event>
 9    1  0.1435532E-005  0.2232665E+03  0.7546771E-02  0.1132099E+00
          2   -1    0    0  502    0  0.00000000000E+00  0.00000000000E+00  0.10273239040E+04  0.10273239040E+04  0.00000000000E+00 0. -1.
         -2   -1    0    0    0  501 -0.00000000000E+00 -0.00000000000E+00 -0.98339364991E+02  0.98339364991E+02  0.00000000000E+00 0.  1.
         23    2    1    2    0    0  0.19541981333E+03  0.87119286039E+02  0.86650259430E+02  0.24976751952E+03  0.95377528319E+02 0.  0.
         23    2    1    2    0    0 -0.13593915353E+03 -0.70100620244E+02  0.67216771126E+03  0.69483154857E+03  0.87108543787E+02 0.  0.
        -11    1    3    3    0    0  0.10313710592E+02  0.36486934474E+02  0.33605125201E+02  0.50665308183E+02  0.00000000000E+00 0. -1.
         11    1    3    3    0    0  0.18510610274E+03  0.50632351564E+02  0.53045134229E+02  0.19910221134E+03  0.00000000000E+00 0.  1.
        -13    1    4    4    0    0 -0.94723403182E+02 -0.87909516185E+02  0.45086200392E+03  0.46901722007E+03  0.00000000000E+00 0.  1.
         13    1    4    4    0    0 -0.41215750350E+02  0.17808895941E+02  0.22130570734E+03  0.22581432849E+03  0.00000000000E+00 0. -1.
         21    1    1    2  502  501 -0.59480659796E+02 -0.17018665794E+02  0.17016656832E+03  0.18106420091E+03  0.00000000000E+00 0.  1.
<scales pt_clust_5="13000.00000" pt_clust_6="13000.00000" pt_clust_7="13000.00000" pt_clust_8="13000.00000" pt_clust_9="61.86747"></scales>
<clustering>
<clus scale="   61.867">  1  9  2 -1</clus>
<clus scale="   87.109">  7  8 -1 -1</clus>
<clus scale="   95.378">  5  6 -1 -1</clus>
<clus scale="  219.861">  1  7  2 -1</clus>
<clus scale="   61.867">  1  5  2 -1</clus>
</clustering>
</event>
<event>
 9    1  0.1435532E-005  0.1745229E+03  0.7546771E-02  0.1173770E+00
         -3   -1    0    0    0  501 -0.00000000000E+00  0.00000000000E+00  0.62302449775E+02  0.62302449775E+02  0.00000000000E+00 0.  1.
          3   -1    0    0  502    0  0.00000000000E+00 -0.00000000000E+00 -0.74546288718E+03  0.74546288718E+03  0.00000000000E+00 0. -1.
         23    2    1    2    0    0 -0.99141145974E+02  0.88689980325E+02 -0.18904525582E+03  0.24658867195E+03  0.85866087305E+02 0.  0.
         23    2    1    2    0    0  0.15470051575E+03 -0.85713613691E+02 -0.30399449260E+03  0.36308179201E+03  0.90203453450E+02 0.  0.
        -11    1    4    4    0    0  0.16150934132E+03 -0.61189250853E+02 -0.25709800632E+03  0.30972371012E+03  0.00000000000E+00 0.  1.
         11    1    4    4    0    0 -0.68088255722E+01 -0.24524362838E+02 -0.46896486275E+02  0.53358081892E+02  0.00000000000E+00 0. -1.
        -11    1    3    3    0    0 -0.14314380214E+02  0.69317600277E+02 -0.74769064679E+02  0.10295748745E+03  0.00000000000E+00 0.  1.
         11    1    3    3    0    0 -0.84826765761E+02  0.19372380048E+02 -0.11427619114E+03  0.14363118450E+03  0.00000000000E+00 0. -1.
         21    1    1    2  502  501 -0.55559369772E+02 -0.29763666342E+01 -0.19012068899E+03  0.19809487300E+03  0.00000000000E+00 0. -1.
<scales pt_clust_5="13000.00000" pt_clust_6="13000.00000" pt_clust_7="13000.00000" pt_clust_8="13000.00000" pt_clust_9="55.63904"></scales>
<clustering>
<clus scale="   55.639">  2  9  1 -1</clus>
<clus scale="   85.866">  7  8 -1 -1</clus>
<clus scale="   90.203">  5  6 -1 -1</clus>
<clus scale="  172.321">  1  7  2 -1</clus>
<clus scale="   55.639">  2  5  1 -1</clus>
</clustering>
</event>
<event>
 9    1  0.1435532E-005  0.1044843E+03  0.7546771E-02  0.1274379E+00
          1   -1    0    0  502    0  0.00000000000E+00  0.00000000000E+00  0.18936665402E+03  0.18936665402E+03  0.00000000000E+00 0. -1.
         -1   -1    0    0    0  501 -0.00000000000E+00 -0.00000000000E+00 -0.14031104072E+03  0.14031104072E+03  0.00000000000E+00 0.  1.
         23    2    1    2    0    0 -0.51467380377E+02  0.28565476337E+02 -0.87066238690E+02  0.13878812652E+03  0.90646215924E+02 0.  0.
         23    2    1    2    0    0  0.33616325354E+02  0.41513835092E+01  0.66186872897E+02  0.11164340501E+03  0.83284190720E+02 0.  0.
        -11    1    4    4    0    0  0.57777703722E+02  0.18736408260E+02  0.52468335425E+02  0.80263579936E+02  0.00000000000E+00 0. -1.
         11    1    4    4    0    0 -0.24161378367E+02 -0.14585024751E+02  0.13718537472E+02  0.31379825078E+02  0.00000000000E+00 0.  1.
        -13    1    3    3    0    0  0.32962054765E+01 -0.27113451611E+02 -0.37118097154E+02  0.46084242048E+02  0.00000000000E+00 0. -1.
         13    1    3    3    0    0 -0.54763585853E+02  0.55678927948E+02 -0.49948141536E+02  0.92703884470E+02  0.00000000000E+00 0.  1.
         21    1    1    2  502  501  0.17851055022E+02 -0.32716859846E+02  0.69934979085E+02  0.79246163208E+02  0.00000000000E+00 0. -1.
<scales pt_clust_5="13000.00000" pt_clust_6="13000.00000" pt_clust_7="13000.00000" pt_clust_8="13000.00000" pt_clust_9="37.27000"></scales>
<clustering>
<clus scale="   37.270">  1  9  2 -1</clus>
<clus scale="   83.284">  5  6 -1 -1</clus>
<clus scale="   90.646">  7  8 -1 -1</clus>
<clus scale="   98.166">  1  5  2 -1</clus>
<clus scale="   37.270">  1  5  2 -1</clus>
</clustering>
</event>
<event>
 9    1  0.1435532E-005  0.9431968E+02  0.7546771E-02  0.1293246E+00
         -3   -1    0    0    0  501 -0.00000000000E+00  0.00000000000E+00  0.84652876535E+02  0.84652876535E+02  0.00000000000E+00 0.  1.
          3   -1    0    0  502    0  0.00000000000E+00 -0.00000000000E+00 -0.19567681930E+03  0.19567681930E+03  0.00000000000E+00 0. -1.
         23    2    1    2    0    0 -0.36890018664E+02 -0.16554829989E+02  0.13945194170E+02  0.10144278046E+03  0.91984962871E+02 0.  0.
         23    2    1    2    0    0  0.16261149071E+02 -0.12719341303E+01 -0.11945272085E+03  0.15107011063E+03  0.91033966300E+02 0.  0.
        -11    1    3    3    0    0 -0.30098504196E+02  0.12307584426E+02  0.46926962705E+02  0.57092349908E+02  0.00000000000E+00 0.  1.
         11    1    3    3    0    0 -0.67915144680E+01 -0.28862414415E+02 -0.32981768535E+02  0.44350430554E+02  0.00000000000E+00 0. -1.
        -11    1    4    4    0    0 -0.18901604505E+02  0.30253662149E+02 -0.19814393244E+02  0.40806432163E+02  0.00000000000E+00 0.  1.
         11    1    4    4    0    0  0.35162753576E+02 -0.31525596279E+02 -0.99638327609E+02  0.11026367846E+03  0.00000000000E+00 0. -1.
         21    1    1    2  502  501  0.20628869593E+02  0.17826764119E+02 -0.55164160778E+01  0.27816804741E+02  0.00000000000E+00 0. -1.
<scales pt_clust_5="13000.00000" pt_clust_6="13000.00000" pt_clust_7="13000.00000" pt_clust_8="13000.00000" pt_clust_9="27.26433"></scales>
<clustering>
<clus scale="   27.264">  1  9  2 -1</clus>
<clus scale="   91.034">  7  8 -1 -1</clus>
<clus scale="   91.985">  5  6 -1 -1</clus>
<clus scale="   93.392">  2  7  1 -1</clus>
<clus scale="   93.392">  2  5  1 -1</clus>
</clustering>
</event>
<event>
 9    1  0.1435532E-005  0.1250053E+03  0.7546771E-02  0.1235775E+00
          3   -1    0    0  502    0  0.00000000000E+00  0.00000000000E+00  0.84707452931E+03  0.84707452931E+03  0.00000000000E+00 0. -1.
         -3   -1    0    0    0  501 -0.00000000000E+00 -0.00000000000E+00 -0.25150982494E+02  0.25150982494E+02  0.00000000000E+00 0.  1.
         23    2    1    2    0    0 -0.92435472845E+02 -0.15375742473E+02  0.26647227837E+03  0.29741612351E+03  0.93102874747E+02 0.  0.
         23    2    1    2    0    0  0.70216088733E+02  0.99904393586E+00  0.36667605948E+03  0.38418811453E+03  0.90652509870E+02 0.  0.
        -11    1    3    3    0    0 -0.11056064303E+03 -0.39162585518E+01  0.22125665972E+03  0.24737320457E+03  0.00000000000E+00 0.  1.
         11    1    3    3    0    0  0.18125170186E+02 -0.11459483921E+02  0.45215618649E+02  0.50042918938E+02  0.00000000000E+00 0. -1.
        -11    1    4    4    0    0  0.67662891401E+02  0.32495462664E+02  0.18270642471E+03  0.19752432659E+03  0.00000000000E+00 0. -1.
         11    1    4    4    0    0  0.25531973321E+01 -0.31496418728E+02  0.18396963478E+03  0.18666378794E+03  0.00000000000E+00 0.  1.
         21    1    1    2  502  501  0.22219384111E+02  0.14376698537E+02  0.18877520896E+03  0.19062127376E+03  0.00000000000E+00 0. -1.
<scales pt_clust_5="13000.00000" pt_clust_6="13000.00000" pt_clust_7="13000.00000" pt_clust_8="13000.00000" pt_clust_9="26.46489"></scales>
<clustering>
<clus scale="   26.465">  1  9  2 -1</clus>
<clus scale="   90.653">  7  8 -1 -1</clus>
<clus scale="   93.103">  5  6 -1 -1</clus>
<clus scale="  123.191">  1  7  2 -1</clus>
<clus scale="   26.465">  1  5  2 -1</clus>
</clustering>
</event>
<event>
 9    1  0.1435532E-005  0.9164292E+02  0.7546771E-02  0.1299293E+00
         -1   -1    0    0    0  501 -0.00000000000E+00  0.00000000000E+00  0.15017855416E+02  0.15017855416E+02  0.00000000000E+00 0.  1.
          1   -1    0    0  502    0  0.00000000000E+00 -0.00000000000E+00 -0.82735521441E+03  0.82735521441E+03  0.00000000000E+00 0. -1.
         23    2    1    2    0    0  0.31384841785E+01 -0.25660880952E+02 -0.28222350316E+03  0.29759733015E+03  0.90806025562E+02 0.  0.
         23    2    1    2    0    0  0.98469849903E+01 -0.63608476267E+01 -0.39104906583E+03  0.40148223205E+03  0.90173096153E+02 0.  0.
        -11    1    3    3    0    0 -0.81176690391E+01  0.32722664542E+02 -0.12627614237E+03  0.13069940114E+03  0.00000000000E+00 0. -1.
         11    1    3    3    0    0  0.11256153218E+02 -0.58383545494E+02 -0.15594736079E+03  0.16689792901E+03  0.00000000000E+00 0.  1.
        -13    1    4    4    0    0 -0.13001031660E+02 -0.44432319239E+02 -0.18515666325E+03  0.19085661571E+03  0.00000000000E+00 0.  1.
         13    1    4    4    0    0  0.22848016650E+02  0.38071471612E+02 -0.20589240258E+03  0.21062561633E+03  0.00000000000E+00 0. -1.
         21    1    1    2  502  501 -0.12985469169E+02  0.32021728579E+02 -0.13906479000E+03  0.14329350763E+03  0.00000000000E+00 0. -1.
<scales pt_clust_5="13000.00000" pt_clust_6="13000.00000" pt_clust_7="13000.00000" pt_clust_8="13000.00000" pt_clust_9="34.55450"></scales>
<clustering>
<clus scale="   34.555">  2  9  1 -1</clus>
<clus scale="   90.173">  7  8 -1 -1</clus>
<clus scale="   90.806">  5  6 -1 -1</clus>
<clus scale="   91.016">  2  7  1 -1</clus>
<clus scale="   34.555">  2  5  1 -1</clus>
</clustering>
</event>
<event>
 9    1  0.1435532E-005  0.1705720E+03  0.7546771E-02  0.1177991E+00
          1   -1    0    0  502    0  0.00000000000E+00  0.00000000000E+00  0.51314449573E+03  0.51314449573E+03  0.00000000000E+00 0. -1.
         -1   -1    0    0    0  501 -0.00000000000E+00 -0.00000000000E+00 -0.13313318185E+03  0.13313318185E+03  0.00000000000E+00 0.  1.
         23    2    1    2    0    0  0.12131287704E+03  0.72885333529E+02 -0.41021822105E+02  0.17106254266E+03  0.86893714586E+02 0.  0.
         23    2    1    2    0    0 -0.15022068358E+03 -0.49710541698E+02  0.35697659051E+03  0.40121531551E+03  0.92217414260E+02 0.  0.
        -13    1    4    4    0    0 -0.61748331997E+02 -0.38981689966E+02  0.71688706235E+02  0.10233132101E+03  0.00000000000E+00 0.  1.
         13    1    4    4    0    0 -0.88472351584E+02 -0.10728851732E+02  0.28528788428E+03  0.29888399450E+03  0.00000000000E+00 0. -1.
        -13    1    3    3    0    0  0.95407876318E+02  0.85389620988E+02 -0.54671905497E+02  0.13922308532E+03  0.00000000000E+00 0.  1.
         13    1    3    3    0    0  0.25905000719E+02 -0.12504287459E+02  0.13650083392E+02  0.31839457340E+02  0.00000000000E+00 0. -1.
         21    1    1    2  502  501  0.28907806544E+02 -0.23174791831E+02  0.64056545470E+02  0.73999819413E+02  0.00000000000E+00 0. -1.
<scales pt_clust_5="13000.00000" pt_clust_6="13000.00000" pt_clust_7="13000.00000" pt_clust_8="13000.00000" pt_clust_9="37.05040"></scales>
<clustering>
<clus scale="   37.050">  1  9  2 -1</clus>
<clus scale="   86.894">  7  8 -1 -1</clus>
<clus scale="   92.217">  5  6 -1 -1</clus>
<clus scale="  167.754">  2  7  1 -1</clus>
<clus scale="   37.050">  1  5  2 -1</clus>
</clustering>
</event>
<event>
 9    1  0.1435532E-005  0.2556725E+03  0.7546771E-02  0.1109772E+00
         -2   -1    0    0    0  501 -0.00000000000E+00  0.00000000000E+00  0.26154463099E+03  0.26154463099E+03  0.00000000000E+00 0.  1.
          2   -1    0    0  502    0  0.00000000000E+00 -0.00000000000E+00 -0.38639040097E+03  0.38639040097E+03  0.00000000000E+00 0. -1.
         23    2    1    2    0    0  0.20871669999E+03  0.15141431680E+03 -0.10237697652E+01  0.27373446044E+03  0.91872468888E+02 0.  0.
         23    2    1    2    0    0 -0.21717303628E+03 -0.63497167636E+02 -0.31147429582E+02  0.24617904683E+03  0.91858275315E+02 0.  0.
        -11    1    3    3    0    0  0.17773182148E+03  0.16067091792E+03  0.93503283873E+01  0.23977316963E+03  0.00000000000E+00 0.  1.
         11    1    3    3    0    0  0.30984878512E+02 -0.92566011270E+01 -0.10374098153E+02  0.33961290808E+02  0.00000000000E+00 0. -1.
        -13    1    4    4    0    0 -0.15988154978E+03 -0.86898962537E+02 -0.28897757053E+02  0.18425151292E+03  0.00000000000E+00 0. -1.
         13    1    4    4    0    0 -0.57291486502E+02  0.23401794901E+02 -0.22496725295E+01  0.61927533914E+02  0.00000000000E+00 0.  1.
         21    1    1    2  502  501  0.84563362882E+01 -0.87917149161E+02 -0.92674570634E+02  0.12802152468E+03  0.00000000000E+00 0. -1.
<scales pt_clust_5="13000.00000" pt_clust_6="13000.00000" pt_clust_7="13000.00000" pt_clust_8="13000.00000" pt_clust_9="88.32290"></scales>
<clustering>
<clus scale="   88.323">  2  9  1 -1</clus>
<clus scale="   91.858">  7  8 -1 -1</clus>
<clus scale="   91.872">  5  6 -1 -1</clus>
<clus scale="  255.667">  2  7  1 -1</clus>
<clus scale="   88.323">  2  5  1 -1</clus>
</clustering>
</event>
<event>
 9    1  0.1435532E-005  0.9725810E+02  0.7546771E-02  0.1294398E+00
          3   -1    0    0  502    0  0.00000000000E+00  0.00000000000E+00  0.62821406593E+02  0.62821406593E+02  0.00000000000E+00 0. -1.
         -3   -1    0    0    0  501 -0.00000000000E+00 -0.00000000000E+00 -0.28364493613E+03  0.28364493613E+03  0.00000000000E+00 0.  1.
         23    2    1    2    0    0 -0.24836003499E+01 -0.92115534870E+01 -0.13910130777E+03  0.16172589842E+03  0.81945539272E+02 0.  0.
         23    2    1    2    0    0 -0.51558071880E+02  0.96226118068E+01 -0.68518846994E+02  0.12910771642E+03  0.96037183489E+02 0.  0.
        -11    1    3    3    0    0  0.26635449988E+02  0.19961792527E+02 -0.98075503942E+02  0.10356990311E+03  0.00000000000E+00 0. -1.
         11    1    3    3    0    0 -0.29119050338E+02 -0.29173346014E+02 -0.41025803832E+02  0.58155995308E+02  0.00000000000E+00 0.  1.
        -13    1    4    4    0    0 -0.13922782976E+02  0.36535431817E+02  0.77909449808E+01  0.39867035099E+02  0.00000000000E+00 0. -1.
         13    1    4    4    0    0 -0.37635288904E+02 -0.26912820011E+02 -0.76309791975E+02  0.89240681323E+02  0.00000000000E+00 0.  1.
         21    1    1    2  502  501  0.54041672230E+02 -0.41105831982E+00 -0.13203374769E+02  0.55632727882E+02  0.00000000000E+00 0. -1.
<scales pt_clust_5="13000.00000" pt_clust_6="13000.00000" pt_clust_7="13000.00000" pt_clust_8="13000.00000" pt_clust_9="54.04324"></scales>
<clustering>
<clus scale="   54.043">  1  9  2 -1</clus>
<clus scale="   81.946">  5  6 -1 -1</clus>
<clus scale="   83.373">  2  5  1 -1</clus>
<clus scale="   96.037">  7  8 -1 -1</clus>
<clus scale="   54.043">  1  5  2 -1</clus>
</clustering>
</event>
<event>
 9    1  0.1435532E-005  0.1159120E+03  0.7546771E-02  0.1251736E+00
          3   -1    0    0  502    0  0.00000000000E+00  0.00000000000E+00  0.19657704228E+03  0.19657704228E+03  0.00000000000E+00 0. -1.
         -3   -1    0    0    0  501 -0.00000000000E+00 -0.00000000000E+00 -0.47074732992E+03  0.47074732992E+03  0.00000000000E+00 0.  1.
         23    2    1    2    0    0 -0.57557687148E+02 -0.31659783395E+02 -0.43011647239E+03  0.44451180604E+03  0.90968877360E+02 0.  0.
         23    2    1    2    0    0  0.30088189320E+02  0.61497236758E+02  0.12561652182E+03  0.17216934957E+03  0.95789170119E+02 0.  0.
        -11    1    3    3    0    0 -0.18494340433E+02 -0.55489238450E+02 -0.31941584072E+03  0.32472692453E+03  0.00000000000E+00 0.  1.
         11    1    3    3    0    0 -0.39063346715E+02  0.23829455055E+02 -0.11070063167E+03  0.11978488150E+03  0.00000000000E+00 0. -1.
        -13    1    4    4    0    0 -0.29716210346E+02 -0.11922489045E+01  0.44226861222E+02  0.53296246288E+02  0.00000000000E+00 0.  1.
         13    1    4    4    0    0  0.59804399666E+02  0.62689485662E+02  0.81389660600E+02  0.11887310328E+03  0.00000000000E+00 0. -1.
         21    1    1    2  502  501  0.27469497828E+02 -0.29837453363E+02  0.30329662930E+02  0.50643216600E+02  0.00000000000E+00 0.  1.
<scales pt_clust_5="13000.00000" pt_clust_6="13000.00000" pt_clust_7="13000.00000" pt_clust_8="13000.00000" pt_clust_9="40.55671"></scales>
<clustering>
<clus scale="   40.557">  1  9  2 -1</clus>
<clus scale="   90.969">  5  6 -1 -1</clus>
<clus scale="   95.789">  7  8 -1 -1</clus>
<clus scale="  111.961">  2  5  1 -1</clus>
<clus scale="   40.557">  1  5  2 -1</clus>
</clustering>
</event>
<event>
 9    1  0.1435532E-005  0.1103727E+03  0.7546771E-02  0.1260689E+00
         -2   -1    0    0    0  501 -0.00000000000E+00  0.00000000000E+00  0.13758976039E+03  0.13758976039E+03  0.00000000000E+00 0.  1.
          2   -1    0    0  502    0  0.00000000000E+00 -0.00000000000E+00 -0.21956585913E+03  0.21956585913E+03  0.00000000000E+00 0. -1.
         23    2    1    2    0    0 -0.62860581215E+02  0.10259163545E+02  0.86501294811E+02  0.14040244462E+03  0.90408347763E+02 0.  0.
         23    2    1    2    0    0  0.41505985046E+02 -0.21154995419E+02 -0.99044328326E+02  0.14329782468E+03  0.92488955869E+02 0.  0.
        -13    1    4    4    0    0 -0.25157939662E+02 -0.23257866672E+02 -0.49553816157E+02  0.60244758991E+02  0.00000000000E+00 0.  1.
         13    1    4    4    0    0  0.66663924708E+02  0.21028712528E+01 -0.49490512169E+02  0.83053065686E+02  0.00000000000E+00 0. -1.
        -13    1    3    3    0    0  0.16505424866E+02 -0.17185224279E+02  0.71797605634E+01  0.24885938706E+02  0.00000000000E+00 0. -1.
         13    1    3    3    0    0 -0.79366006080E+02  0.27444387824E+02  0.79321534248E+02  0.11551650592E+03  0.00000000000E+00 0.  1.
         21    1    1    2  502  501  0.21354596169E+02  0.10895831874E+02 -0.69433065221E+02  0.73455350218E+02  0.00000000000E+00 0.  1.
<scales pt_clust_5="13000.00000" pt_clust_6="13000.00000" pt_clust_7="13000.00000" pt_clust_8="13000.00000" pt_clust_9="23.97369"></scales>
<clustering>
<clus scale="   23.974">  2  9  1 -1</clus>
<clus scale="   90.408">  7  8 -1 -1</clus>
<clus scale="   92.489">  5  6 -1 -1</clus>
<clus scale="  108.635">  1  7  2 -1</clus>
<clus scale="   23.974">  2  5  1 -1</clus>
</clustering>
</event>
<event>
 9    1  0.1435532E-005  0.1478467E+03  0.7546771E-02  0.1204347E+00
         -1   -1    0    0    0  501 -0.00000000000E+00  0.00000000000E+00  0.76657530573E+02  0.76657530573E+02  0.00000000000E+00 0.  1.
          1   -1    0    0  502    0  0.00000000000E+00 -0.00000000000E+00 -0.48855637005E+03  0.48855637005E+03  0.00000000000E+00 0. -1.
         23    2    1    2    0    0 -0.10713971572E+03 -0.27084268034E+02 -0.31295471546E+02  0.14572881313E+03  0.89693947269E+02 0.  0.
         23    2    1    2    0    0  0.10290109997E+03  0.48412306645E+02 -0.36026930585E+03  0.38971387363E+03  0.95658469311E+02 0.  0.
        -11    1    4    4    0    0  0.55860748484E+02 -0.25015096557E+02 -0.15846632807E+03  0.16987570576E+03  0.00000000000E+00 0. -1.
         11    1    4    4    0    0  0.47040351487E+02  0.73427403202E+02 -0.20180297778E+03  0.21983816787E+03  0.00000000000E+00 0.  1.
        -13    1    3    3    0    0 -0.11662981260E+02 -0.20760978195E+02 -0.43176879748E+02  0.49308075325E+02  0.00000000000E+00 0. -1.
         13    1    3    3    0    0 -0.95476734459E+02 -0.63232898389E+01  0.11881408202E+02  0.96420737801E+02  0.00000000000E+00 0.  1.
         21    1    1    2  502  501  0.42386157476E+01 -0.21328038611E+02 -0.20334062083E+02  0.29771213869E+02  0.00000000000E+00 0.  1.
<scales pt_clust_5="13000.00000" pt_clust_6="13000.00000" pt_clust_7="13000.00000" pt_clust_8="13000.00000" pt_clust_9="21.74514"></scales>
<clustering>
<clus scale="   21.745">  1  9  2 -1</clus>
<clus scale="   89.694">  7  8 -1 -1</clus>
<clus scale="   95.658">  5  6 -1 -1</clus>
<clus scale="  144.059">  1  7  2 -1</clus>
<clus scale="  147.847">  2  5  1 -1</clus>
</clustering>
</event>
<event>
 9    1  0.1435532E-005  0.9741697E+02  0.7546771E-02  0.1286157E+00
         -1   -1    0    0    0  501 -0.00000000000E+00  0.00000000000E+00  0.58681445865E+02  0.58681445865E+02  0.00000000000E+00 0.  1.
          1   -1    0    0  502    0  0.00000000000E+00 -0.00000000000E+00 -0.24852774662E+03  0.24852774662E+03  0.00000000000E+00 0. -1.
         23    2    1    2    0    0  0.19032067271E+02  0.22202840534E+02 -0.30823759604E+02  0.10202777117E+03  0.92759776963E+02 0.  0.
         23    2    1    2    0    0 -0.36334309425E+02 -0.42904138483E+01 -0.98513666815E+02  0.13974789407E+03  0.92119170948E+02 0.  0.
        -13    1    4    4    0    0 -0.12194213595E+02 -0.34779310055E+02 -0.34244218993E+01  0.37013861167E+02  0.00000000000E+00 0.  1.
         13    1    4    4    0    0 -0.24140095831E+02  0.30488896207E+02 -0.95089244916E+02  0.10273403291E+03  0.00000000000E+00 0. -1.
        -13    1    3    3    0    0  0.34725529792E+02 -0.28027501230E+02 -0.14884810841E+02  0.47042117706E+02  0.00000000000E+00 0.  1.
         13    1    3    3    0    0 -0.15693462521E+02  0.50230341764E+02 -0.15938948763E+02  0.54985653468E+02  0.00000000000E+00 0. -1.
         21    1    1    2  502  501  0.17302242154E+02 -0.17912426686E+02 -0.60508874337E+02  0.65433527239E+02  0.00000000000E+00 0.  1.
<scales pt_clust_5="13000.00000" pt_clust_6="13000.00000" pt_clust_7="13000.00000" pt_clust_8="13000.00000" pt_clust_9="24.90427"></scales>
<clustering>
<clus scale="   24.904">  2  9  1 -1</clus>
<clus scale="   92.119">  5  6 -1 -1</clus>
<clus scale="   92.760">  7  8 -1 -1</clus>
<clus scale="   96.807">  2  5  1 -1</clus>
<clus scale="   24.904">  2  5  1 -1</clus>
</clustering>
</event>
<event>
 9    1  0.1435532E-005  0.1004852E+03  0.7546771E-02  0.1302661E+00
         -2   -1    0    0    0  501 -0.00000000000E+00  0.00000000000E+00  0.82074887800E+02  0.82074887800E+02  0.00000000000E+00 0.  1.
          2   -1    0    0  502    0  0.00000000000E+00 -0.00000000000E+00 -0.33933403164E+03  0.33933403164E+03  0.00000000000E+00 0. -1.
         23    2    1    2    0    0 -0.34207722930E+02  0.19345443179E+02  0.22050184278E+02  0.10701030115E+03  0.97059669516E+02 0.  0.
         23    2    1    2    0    0  0.91263880870E+01  0.26645273331E+02 -0.24014386049E+03  0.24899102533E+03  0.59449099316E+02 0.  0.
        -11    1    3    3    0    0 -0.19409838063E+02  0.54977282274E+02 -0.69894539636E+01  0.58720489154E+02  0.00000000000E+00 0.  1.
         11    1    3    3    0    0 -0.14797884867E+02 -0.35631839094E+02  0.29039638241E+02  0.48289812000E+02  0.00000000000E+00 0. -1.
        -13    1    4    4    0    0  0.27991337640E+02  0.35172845696E+02 -0.17149055654E+03  0.17728410825E+03  0.00000000000E+00 0.  1.
         13    1    4    4    0    0 -0.18864949553E+02 -0.85275723651E+01 -0.68653303955E+02  0.71706917073E+02  0.00000000000E+00 0. -1.
         21    1    1    2  502  501  0.25081334843E+02 -0.45990716511E+02 -0.39165467626E+02  0.65407592962E+02  0.00000000000E+00 0.  1.
<scales pt_clust_5="13000.00000" pt_clust_6="13000.00000" pt_clust_7="13000.00000" pt_clust_8="13000.00000" pt_clust_9="52.38530"></scales>
<clustering>
<clus scale="   52.385">  1  9  2 -1</clus>
<clus scale="   59.449">  7  8 -1 -1</clus>
<clus scale="   64.891">  2  7  1 -1</clus>
<clus scale="   97.060">  5  6 -1 -1</clus>
<clus scale="   64.891">  2  5  1 -1</clus>
</clustering>
</event>
<event>
 9    1  0.1435532E-005  0.1050459E+03  0.7546771E-02  0.1270939E+00
          1   -1    0    0  502    0  0.00000000000E+00  0.00000000000E+00  0.54703004476E+03  0.54703004476E+03  0.00000000000E+00 0. -1.
         -1   -1    0    0    0  501 -0.00000000000E+00 -0.00000000000E+00 -0.26073025847E+02  0.26073025847E+02  0.00000000000E+00 0.  1.
         23    2    1    2    0    0 -0.42014659299E+02 -0.31555906403E+02  0.19338720621E+03  0.22049140068E+03  0.91961075599E+02 0.  0.
         23    2    1    2    0    0  0.41968662556E+02  0.84569492385E+01  0.22663199729E+03  0.24906454771E+03  0.94011691316E+02 0.  0.
        -11    1    4    4    0    0 -0.21493352148E+02 -0.13239752329E+02  0.21211224949E+02  0.32972280663E+02  0.00000000000E+00 0.  1.
         11    1    4    4    0    0  0.63462014704E+02  0.21696701567E+02  0.20542077234E+03  0.21609226705E+03  0.00000000000E+00 0. -1.
        -13    1    3    3    0    0 -0.21411344820E+02 -0.63932865741E+02  0.12811639631E+03  0.14477454201E+03  0.00000000000E+00 0.  1.
         13    1    3    3    0    0 -0.20603314479E+02  0.32376959338E+02  0.65270809892E+02  0.75716858674E+02  0.00000000000E+00 0. -1.
         21    1    1    2  502  501  0.45996743263E-01  0.23098957164E+02  0.10093781542E+03  0.10354712221E+03  0.00000000000E+00 0.  1.
<scales pt_clust_5="13000.00000" pt_clust_6="13000.00000" pt_clust_7="13000.00000" pt_clust_8="13000.00000" pt_clust_9="23.09900"></scales>
<clustering>
<clus scale="   23.099">  1  9  2 -1</clus>
<clus scale="   91.961">  7  8 -1 -1</clus>
<clus scale="   94.012">  5  6 -1 -1</clus>
<clus scale="  103.215">  2  7  1 -1</clus>
<clus scale="   23.099">  1  5  2 -1</clus>
</clustering>
</event>
<event>
 9    1  0.1435532E-005  0.9735308E+02  0.7546771E-02  0.1286736E+00
          3   -1    0    0  502    0  0.00000000000E+00  0.00000000000E+00  0.22211161739E+02  0.22211161739E+02  0.00000000000E+00 0. -1.
         -3   -1    0    0    0  501 -0.00000000000E+00 -0.00000000000E+00 -0.53972373582E+03  0.53972373582E+03  0.00000000000E+00 0.  1.
         23    2    1    2    0    0  0.39769856824E+02 -0.68043337161E+01 -0.26489686019E+03  0.28280184975E+03  0.90435608125E+02 0.  0.
         23    2    1    2    0    0 -0.26061001770E+02  0.22044847957E+02 -0.22803517029E+03  0.24712665618E+03  0.88917906914E+02 0.  0.
        -13    1    3    3    0    0 -0.19155090864E+02 -0.15824856829E+02 -0.23661970508E+02  0.34310821150E+02  0.00000000000E+00 0. -1.
         13    1    3    3    0    0  0.58924947687E+02  0.90205231125E+01 -0.24123488968E+03  0.24849102860E+03  0.00000000000E+00 0.  1.
        -13    1    4    4    0    0 -0.17182693165E+02  0.47060390382E+02 -0.20778654376E+03  0.21374090169E+03  0.00000000000E+00 0. -1.
         13    1    4    4    0    0 -0.88783086053E+01 -0.25015542425E+02 -0.20248626533E+02  0.33385754492E+02  0.00000000000E+00 0.  1.
         21    1    1    2  502  501 -0.13708855054E+02 -0.15240514241E+02 -0.24580543603E+02  0.32006391628E+02  0.00000000000E+00 0. -1.
<scales pt_clust_5="13000.00000" pt_clust_6="13000.00000" pt_clust_7="13000.00000" pt_clust_8="13000.00000" pt_clust_9="20.49893"></scales>
<clustering>
<clus scale="   20.499">  1  9  2 -1</clus>
<clus scale="   88.918">  7  8 -1 -1</clus>
<clus scale="   90.436">  5  6 -1 -1</clus>
<clus scale="   95.945">  1  7  2 -1</clus>
<clus scale="   20.499">  1  5  2 -1</clus>
</clustering>
</event>
<event>
 9    1  0.1435532E-005  0.1227346E+03  0.7546771E-02  0.1240387E+00
         -2   -1    0    0    0  501 -0.00000000000E+00  0.00000000000E+00  0.29771786981E+03  0.29771786981E+03  0.00000000000E+00 0.  1.
          2   -1    0    0  502    0  0.00000000000E+00 -0.00000000000E+00 -0.22421904643E+03  0.22421904643E+03  0.00000000000E+00 0. -1.
         23    2    1    2    0    0 -0.77270248347E+02 -0.18080474701E+02  0.25074123472E+03  0.27789946843E+03  0.89773898861E+02 0.  0.
         23    2    1    2    0    0  0.64341765005E+02 -0.55901883135E+01 -0.72914777045E+02  0.13627984368E+03  0.95312738671E+02 0.  0.
        -11    1    4    4    0    0  0.16841919431E+02 -0.30780577581E+02  0.10865861316E+02  0.36730929045E+02  0.00000000000E+00 0.  1.
         11    1    4    4    0    0  0.47499845574E+02  0.25190389268E+02 -0.83780638362E+02  0.99548914637E+02  0.00000000000E+00 0. -1.
        -11    1    3    3    0    0 -0.80123750715E+02 -0.44306537171E+02  0.21307733509E+03  0.23191557816E+03  0.00000000000E+00 0.  1.
         11    1    3    3    0    0  0.28535023678E+01  0.26226062470E+02  0.37663899629E+02  0.45983890263E+02  0.00000000000E+00 0. -1.
         21    1    1    2  502  501  0.12928483342E+02  0.23670663014E+02 -0.10432763430E+03  0.10775760413E+03  0.00000000000E+00 0. -1.
<scales pt_clust_5="13000.00000" pt_clust_6="13000.00000" pt_clust_7="13000.00000" pt_clust_8="13000.00000" pt_clust_9="26.97121"></scales>
<clustering>
<clus scale="   26.971">  2  9  1 -1</clus>
<clus scale="   89.774">  7  8 -1 -1</clus>
<clus scale="   95.313">  5  6 -1 -1</clus>
<clus scale="  118.485">  1  7  2 -1</clus>
<clus scale="   26.971">  2  5  1 -1</clus>
</clustering>
</event>
<event>
 9    1  0.1435532E-005  0.1745504E+03  0.7546771E-02  0.1173400E+00
         -1   -1    0    0    0  501 -0.00000000000E+00  0.00000000000E+00  0.51106025447E+03  0.51106025447E+03  0.00000000000E+00 0.  1.
          1   -1    0    0  502    0  0.00000000000E+00 -0.00000000000E+00 -0.13380132262E+03  0.13380132262E+03  0.00000000000E+00 0. -1.
         23    2    1    2    0    0  0.69988284438E+02 -0.12529579131E+03  0.38764779113E+03  0.42375522243E+03  0.93275309092E+02 0.  0.
         23    2    1    2    0    0 -0.85873138783E+02  0.14491246805E+03  0.44575403041E+01  0.19182226026E+03  0.91662917839E+02 0.  0.
        -11    1    3    3    0    0  0.25085895712E+02 -0.75838268437E+02  0.31539947492E+03  0.32535760925E+03  0.00000000000E+00 0.  1.
         11    1    3    3    0    0  0.44902388726E+02 -0.49457522869E+02  0.72248316218E+02  0.98397613173E+02  0.00000000000E+00 0. -1.
        -13    1    4    4    0    0  0.73708750256E+01  0.26949725932E+02  0.28081191876E+02  0.39612761373E+02  0.00000000000E+00 0.  1.
         13    1    4    4    0    0 -0.93244013809E+02  0.11796274212E+03 -0.23623651572E+02  0.15220949889E+03  0.00000000000E+00 0. -1.
         21    1    1    2  502  501  0.15884854345E+02 -0.19616676743E+02 -0.14846399591E+02  0.29284094400E+02  0.00000000000E+00 0. -1.
<scales pt_clust_5="13000.00000" pt_clust_6="13000.00000" pt_clust_7="13000.00000" pt_clust_8="13000.00000" pt_clust_9="25.24168"></scales>
<clustering>
<clus scale="   25.242">  2  9  1 -1</clus>
<clus scale="   91.663">  7  8 -1 -1</clus>
<clus scale="   93.275">  5  6 -1 -1</clus>
<clus scale="  173.694">  2  7  1 -1</clus>
<clus scale="   25.242">  2  5  1 -1</clus>
</clustering>
</event>
<event>
 9    1  0.1435532E-005  0.1341350E+03  0.7546771E-02  0.1221715E+00
         -3   -1    0    0    0  501 -0.00000000000E+00  0.00000000000E+00  0.73515101748E+02  0.73515101748E+02  0.00000000000E+00 0.  1.
          3   -1    0    0  502    0  0.00000000000E+00 -0.00000000000E+00 -0.82504924775E+03  0.82504924775E+03  0.00000000000E+00 0. -1.
         23    2    1    2    0    0 -0.83297822036E+02  0.36266900984E+02 -0.25153197913E+02  0.12986313581E+03  0.89319289147E+02 0.  0.
         23    2    1    2    0    0  0.14343017692E+03 -0.66483678088E+02 -0.47060184178E+03  0.50421698931E+03  0.88183806429E+02 0.  0.
        -11    1    3    3    0    0  0.17091369025E+02  0.11740954938E+02 -0.15857603106E+02  0.26104185379E+02  0.00000000000E+00 0. -1.
         11    1    3    3    0    0 -0.10038919106E+03  0.24525946045E+02 -0.92955948074E+01  0.10375895043E+03  0.00000000000E+00 0.  1.
        -13    1    4    4    0    0  0.65291399253E+02 -0.71523535499E+02 -0.32200295780E+03  0.33625063239E+03  0.00000000000E+00 0.  1.
         13    1    4    4    0    0  0.78138777667E+02  0.50398574107E+01 -0.14859888398E+03  0.16796635692E+03  0.00000000000E+00 0. -1.
         21    1    1    2  502  501 -0.60132354884E+02  0.30216777104E+02 -0.25577910631E+03  0.26448422438E+03  0.00000000000E+00 0.  1.
<scales pt_clust_5="13000.00000" pt_clust_6="13000.00000" pt_clust_7="13000.00000" pt_clust_8="13000.00000" pt_clust_9="67.29750"></scales>
<clustering>
<clus scale="   67.298">  2  9  1 -1</clus>
<clus scale="   88.184">  7  8 -1 -1</clus>
<clus scale="   89.319">  5  6 -1 -1</clus>
<clus scale="  133.382">  2  7  1 -1</clus>
<clus scale="   67.298">  2  5  1 -1</clus>
</clustering>
</event>
<event>
 9    1  0.1435532E-005  0.1338644E+03  0.7546771E-02  0.1222568E+00
          1   -1    0    0  502    0  0.00000000000E+00  0.00000000000E+00  0.11746310208E+04  0.11746310208E+04  0.00000000000E+00 0. -1.
         -1   -1    0    0    0  501 -0.00000000000E+00 -0.00000000000E+00 -0.32697298247E+02  0.32697298247E+02  0.00000000000E+00 0.  1.
         23    2    1    2    0    0 -0.25757396829E+01  0.10103320603E+03  0.23593596911E+03  0.27317797159E+03  0.93520476291E+02 0.  0.
         23    2    1    2    0    0  0.73893855986E+02 -0.74714923968E+02  0.42195642268E+03  0.44417592408E+03  0.90567141228E+02 0.  0.
        -11    1    4    4    0    0  0.20134482052E+02 -0.82035758917E+02  0.25639944637E+03  0.26995543930E+03  0.00000000000E+00 0.  1.
         11    1    4    4    0    0  0.53759373934E+02  0.73208349496E+01  0.16555697631E+03  0.17422048477E+03  0.00000000000E+00 0. -1.
        -11    1    3    3    0    0  0.40514838237E+02  0.51748473343E+02  0.15967571102E+03  0.17267220188E+03  0.00000000000E+00 0.  1.
         11    1    3    3    0    0 -0.43090577920E+02  0.49284732688E+02  0.76260258084E+02  0.10050576971E+03  0.00000000000E+00 0. -1.
         21    1    1    2  502  501 -0.71318116303E+02 -0.26318282063E+02  0.48404133073E+03  0.48997442335E+03  0.00000000000E+00 0. -1.
<scales pt_clust_5="13000.00000" pt_clust_6="13000.00000" pt_clust_7="13000.00000" pt_clust_8="13000.00000" pt_clust_9="76.01925"></scales>
<clustering>
<clus scale="   76.019">  1  9  2 -1</clus>
<clus scale="   90.567">  5  6 -1 -1</clus>
<clus scale="   93.520">  7  8 -1 -1</clus>
<clus scale="  131.818">  1  5  2 -1</clus>
<clus scale="   76.019">  1  5  2 -1</clus>
</clustering>
</event>
<event>
 9    1  0.1435532E-005  0.1063441E+03  0.7546771E-02  0.1269740E+00
         -2   -1    0    0    0  501 -0.00000000000E+00  0.00000000000E+00  0.81094815665E+02  0.81094815665E+02  0.00000000000E+00 0.  1.
          2   -1    0    0  502    0  0.00000000000E+00 -0.00000000000E+00 -0.25491090565E+03  0.25491090565E+03  0.00000000000E+00 0. -1.
         23    2    1    2    0    0 -0.11105041458E+02 -0.31733255716E+02  0.28265136455E+01  0.10380140603E+03  0.98165275177E+02 0.  0.
         23    2    1    2    0    0 -0.37566125722E+01  0.63502911720E+02 -0.11408313021E+03  0.16048355457E+03  0.93237753904E+02 0.  0.
        -11    1    4    4    0    0 -0.33337778577E+02 -0.90112965649E+01 -0.33469500845E+02  0.48091770949E+02  0.00000000000E+00 0.  1.
         11    1    4    4    0    0  0.29581166005E+02  0.72514208285E+02 -0.80613629364E+02  0.11239178362E+03  0.00000000000E+00 0. -1.
        -11    1    3    3    0    0  0.14371555071E+02 -0.38638695118E+02  0.40506943917E+02  0.57795353283E+02  0.00000000000E+00 0.  1.
         11    1    3    3    0    0 -0.25476596529E+02  0.69054394023E+01 -0.37680430271E+02  0.46006052748E+02  0.00000000000E+00 0. -1.
         21    1    1    2  502  501  0.14861654030E+02 -0.31769656004E+02 -0.62559473426E+02  0.71720760721E+02  0.00000000000E+00 0. -1.
<scales pt_clust_5="13000.00000" pt_clust_6="13000.00000" pt_clust_7="13000.00000" pt_clust_8="13000.00000" pt_clust_9="35.07392"></scales>
<clustering>
<clus scale="   35.074">  2  9  1 -1</clus>
<clus scale="   93.238">  5  6 -1 -1</clus>
<clus scale="   98.165">  7  8 -1 -1</clus>
<clus scale="  101.813">  2  5  1 -1</clus>
<clus scale="   35.074">  2  5  1 -1</clus>
</clustering>
</event>
<event>
 9    1  0.1435532E-005  0.1842338E+03  0.7546771E-02  0.1163833E+00
          2   -1    0    0  502    0  0.00000000000E+00  0.00000000000E+00  0.11465593050E+04  0.11465593050E+04  0.00000000000E+00 0. -1.
         -2   -1    0    0    0  501 -0.00000000000E+00 -0.00000000000E+00 -0.69137991711E+02  0.69137991711E+02  0.00000000000E+00 0.  1.
         23    2    1    2    0    0  0.10298303589E+03 -0.22967861950E+03  0.45812884127E+03  0.53083340896E+03  0.92435377007E+02 0.  0.
         23    2    1    2    0    0 -0.28544389999E+02  0.11980868981E+03  0.39739136270E+03  0.42630515987E+03  0.92990805058E+02 0.  0.
        -11    1    3    3    0    0  0.71563898307E+02 -0.54592388136E+02  0.14317662691E+03  0.16911909081E+03  0.00000000000E+00 0.  1.
         11    1    3    3    0    0  0.31419137580E+02 -0.17508623137E+03  0.31495221437E+03  0.36171431815E+03  0.00000000000E+00 0. -1.
        -13    1    4    4    0    0 -0.53936762403E+02  0.59718165381E+02  0.14731890224E+03  0.16786391086E+03  0.00000000000E+00 0.  1.
         13    1    4    4    0    0  0.25392372403E+02  0.60090524427E+02  0.25007246047E+03  0.25844124900E+03  0.00000000000E+00 0. -1.
         21    1    1    2  502  501 -0.74438645888E+02  0.10986992969E+03  0.22190110934E+03  0.25855872791E+03  0.00000000000E+00 0.  1.
<scales pt_clust_5="13000.00000" pt_clust_6="13000.00000" pt_clust_7="13000.00000" pt_clust_8="13000.00000" pt_clust_9="132.71215"></scales>
<clustering>
<clus scale="   92.435">  5  6 -1 -1</clus>
<clus scale="   92.991">  7  8 -1 -1</clus>
<clus scale="  132.712">  2  9  1 -1</clus>
<clus scale="  183.954">  2  5  1 -1</clus>
<clus scale="  184.234">  1  5  2 -1</clus>
</clustering>
</event>
<event>
 9    1  0.1435532E-005  0.1130664E+03  0.7546771E-02  0.1255526E+00
          2   -1    0    0  502    0  0.00000000000E+00  0.00000000000E+00  0.74137412006E+03  0.74137412006E+03  0.00000000000E+00 0. -1.
         -2   -1    0    0    0  501 -0.00000000000E+00 -0.00000000000E+00 -0.37388190363E+03  0.37388190363E+03  0.00000000000E+00 0.  1.
         23    2    1    2    0    0 -0.63054022920E+02  0.17751689921E+02 -0.30765312469E+03  0.32756233497E+03  0.91409550139E+02 0.  0.
         23    2    1    2    0    0  0.41711254125E+02 -0.11810085160E+03  0.62278866970E+02  0.16629946348E+03  0.89940060107E+02 0.  0.
        -11    1    3    3    0    0  0.20141979184E+02  0.70158728827E+00 -0.23344730426E+02  0.30841011476E+02  0.00000000000E+00 0. -1.
         11    1    3    3    0    0 -0.83196002104E+02  0.17050102633E+02 -0.28430839426E+03  0.29672132349E+03  0.00000000000E+00 0.  1.
        -11    1    4    4    0    0 -0.86640297331E+01 -0.99488724746E+02  0.47579627658E+02  0.11062048965E+03  0.00000000000E+00 0.  1.
         11    1    4    4    0    0  0.50375283858E+02 -0.18612126856E+02  0.14699239312E+02  0.55678973825E+02  0.00000000000E+00 0. -1.
         21    1    1    2  502  501  0.21342768795E+02  0.10034916168E+03  0.61286647415E+03  0.62139422525E+03  0.00000000000E+00 0. -1.
<scales pt_clust_5="13000.00000" pt_clust_6="13000.00000" pt_clust_7="13000.00000" pt_clust_8="13000.00000" pt_clust_9="102.59370"></scales>
<clustering>
<clus scale="   89.940">  7  8 -1 -1</clus>
<clus scale="   91.410">  5  6 -1 -1</clus>
<clus scale="  102.594">  1  9  2 -1</clus>
<clus scale="  111.882">  1  7  2 -1</clus>
<clus scale="  102.594">  1  5  2 -1</clus>
</clustering>
</event>
<event>
 9    1  0.1435532E-005  0.1496119E+03  0.7546771E-02  0.1201139E+00
          3   -1    0    0  502    0  0.00000000000E+00  0.00000000000E+00  0.11187839026E+03  0.11187839026E+03  0.00000000000E+00 0. -1.
         -3   -1    0    0    0  501 -0.00000000000E+00 -0.00000000000E+00 -0.26267927027E+03  0.26267927027E+03  0.00000000000E+00 0.  1.
         23    2    1    2    0    0 -0.71096630651E+02  0.97679785637E+02 -0.13764159717E+03  0.20504629963E+03  0.92210109575E+02 0.  0.
         23    2    1    2    0    0  0.47157227104E+02 -0.10042530884E+03 -0.11965136217E+02  0.14538546348E+03  0.93191854706E+02 0.  0.
        -13    1    3    3    0    0 -0.38671268458E+02  0.12534375754E+02 -0.97209565996E+02  0.10536734457E+03  0.00000000000E+00 0.  1.
         13    1    3    3    0    0 -0.32425362193E+02  0.85145409882E+02 -0.40432031171E+02  0.99678955060E+02  0.00000000000E+00 0. -1.
        -13    1    4    4    0    0  0.44411317155E+02 -0.59751301788E+01  0.14775322680E+02  0.47184504156E+02  0.00000000000E+00 0. -1.
         13    1    4    4    0    0  0.27459099487E+01 -0.94450178664E+02 -0.26740458897E+02  0.98200959329E+02  0.00000000000E+00 0.  1.
         21    1    1    2  502  501  0.23939403547E+02  0.27455232060E+01 -0.11941466269E+01  0.24125897414E+02  0.00000000000E+00 0.  1.
<scales pt_clust_5="13000.00000" pt_clust_6="13000.00000" pt_clust_7="13000.00000" pt_clust_8="13000.00000" pt_clust_9="24.09633"></scales>
<clustering>
<clus scale="   24.096">  1  9  2 -1</clus>
<clus scale="   92.210">  5  6 -1 -1</clus>
<clus scale="   93.192">  7  8 -1 -1</clus>
<clus scale="  149.002">  2  5  1 -1</clus>
<clus scale="   24.096">  1  5  2 -1</clus>
</clustering>
</event>
<event>
 9    1  0.1435532E-005  0.1283473E+03  0.7546771E-02  0.1243460E+00
          3   -1    0    0  502    0  0.00000000000E+00  0.00000000000E+00  0.31391088146E+03  0.31391088146E+03  0.00000000000E+00 0. -1.
         -3   -1    0    0    0  501 -0.00000000000E+00 -0.00000000000E+00 -0.11731292772E+03  0.11731292772E+03  0.00000000000E+00 0.  1.
         23    2    1    2    0    0  0.62639703104E+02  0.28129046793E+02  0.29127344542E+02  0.11833459566E+03  0.91867832523E+02 0.  0.
         23    2    1    2    0    0  0.30570757197E+02  0.12676620456E+02  0.18555205048E+03  0.20954401088E+03  0.91563426952E+02 0.  0.
        -11    1    3    3    0    0 -0.92560562952E+00 -0.28249656639E+02  0.15646247494E+02  0.32306422066E+02  0.00000000000E+00 0.  1.
         11    1    3    3    0    0  0.63565308734E+02  0.56378703432E+02  0.13481097047E+02  0.86028173598E+02  0.00000000000E+00 0. -1.
        -13    1    4    4    0    0 -0.19414092122E+02 -0.17872546536E+02  0.17729686756E+02  0.31791141613E+02  0.00000000000E+00 0. -1.
         13    1    4    4    0    0  0.49984849319E+02  0.30549166993E+02  0.16782236372E+03  0.17775286926E+03  0.00000000000E+00 0.  1.
         21    1    1    2  502  501 -0.93210460302E+02 -0.40805667249E+02 -0.18081441282E+02  0.10334520264E+03  0.00000000000E+00 0.  1.
<scales pt_clust_5="13000.00000" pt_clust_6="13000.00000" pt_clust_7="13000.00000" pt_clust_8="13000.00000" pt_clust_9="89.62880"></scales>
<clustering>
<clus scale="   91.563">  7  8 -1 -1</clus>
<clus scale="   91.868">  5  6 -1 -1</clus>
<clus scale="   97.361">  1  7  2 -1</clus>
<clus scale="   89.629">  2  9  1 -1</clus>
<clus scale="   97.361">  1  5  2 -1</clus>
</clustering>
</event>
<event>
 9    1  0.1435532E-005  0.9465613E+02  0.7546771E-02  0.1293247E+00
         -2   -1    0    0    0  501 -0.00000000000E+00  0.00000000000E+00  0.11319851842E+03  0.11319851842E+03  0.00000000000E+00 0.  1.
          2   -1    0    0  502    0  0.00000000000E+00 -0.00000000000E+00 -0.12841429693E+03  0.12841429693E+03  0.00000000000E+00 0. -1.
         23    2    1    2    0    0 -0.22022388523E+02 -0.20597774015E+02  0.31680551704E+02  0.99459588404E+02  0.89326919115E+02 0.  0.
         23    2    1    2    0    0  0.75157441762E+01  0.35942140918E+02 -0.41301412403E+01  0.94457952075E+02  0.86930562746E+02 0.  0.
        -13    1    3    3    0    0 -0.34722758762E+02 -0.38671457071E+01  0.56818718431E+02  0.66700761286E+02  0.00000000000E+00 0.  1.
         13    1    3    3    0    0  0.12700370238E+02 -0.16730628308E+02 -0.25138166727E+02  0.32758827119E+02  0.00000000000E+00 0. -1.
        -13    1    4    4    0    0 -0.19665203874E+02  0.50315821859E+02 -0.22633834640E+02  0.58572114895E+02  0.00000000000E+00 0.  1.
         13    1    4    4    0    0  0.27180948050E+02 -0.14373680941E+02  0.18503693400E+02  0.35885837180E+02  0.00000000000E+00 0. -1.
         21    1    1    2  502  501  0.14506644347E+02 -0.15344366903E+02 -0.42766188971E+02  0.47695274871E+02  0.00000000000E+00 0. -1.
<scales pt_clust_5="13000.00000" pt_clust_6="13000.00000" pt_clust_7="13000.00000" pt_clust_8="13000.00000" pt_clust_9="21.11616"></scales>
<clustering>
<clus scale="   21.116">  2  9  1 -1</clus>
<clus scale="   86.931">  7  8 -1 -1</clus>
<clus scale="   89.327">  5  6 -1 -1</clus>
<clus scale="   92.398">  2  7  1 -1</clus>
<clus scale="   21.116">  2  5  1 -1</clus>
</clustering>
</event>
<event>
 9    1  0.1435532E-005  0.1600358E+03  0.7546771E-02  0.1207112E+00
         -1   -1    0    0    0  501 -0.00000000000E+00  0.00000000000E+00  0.10137717165E+04  0.10137717165E+04  0.00000000000E+00 0.  1.
          1   -1    0    0  502    0  0.00000000000E+00 -0.00000000000E+00 -0.54495132382E+02  0.54495132382E+02  0.00000000000E+00 0. -1.
         23    2    1    2    0    0  0.46841582621E+02 -0.28856312518E+02  0.32460513902E+03  0.34179410322E+03  0.91803551576E+02 0.  0.
         23    2    1    2    0    0  0.76913608096E+02  0.87059312650E+02  0.54066211439E+03  0.56051886438E+03  0.91492340451E+02 0.  0.
        -11    1    4    4    0    0  0.85964417953E+02  0.32597991337E+02  0.31029223436E+03  0.32362598922E+03  0.00000000000E+00 0. -1.
         11    1    4    4    0    0 -0.90508098561E+01  0.54461321313E+02  0.23036988003E+03  0.23689287516E+03  0.00000000000E+00 0.  1.
        -11    1    3    3    0    0  0.49266842351E+02  0.73367155762E+01  0.27954249795E+03  0.28394551821E+03  0.00000000000E+00 0.  1.
         11    1    3    3    0    0 -0.24252597300E+01 -0.36193028094E+02  0.45062641069E+02  0.57848585008E+02  0.00000000000E+00 0. -1.
         21    1    1    2  502  501 -0.12375519072E+03 -0.58203000132E+02  0.94009330717E+02  0.16595388129E+03  0.00000000000E+00 0. -1.
<scales pt_clust_5="13000.00000" pt_clust_6="13000.00000" pt_clust_7="13000.00000" pt_clust_8="13000.00000" pt_clust_9="131.30348"></scales>
<clustering>
<clus scale="   91.492">  5  6 -1 -1</clus>
<clus scale="   91.804">  7  8 -1 -1</clus>
<clus scale="  107.027">  1  7  2 -1</clus>
<clus scale="  131.303">  2  9  1 -1</clus>
<clus scale="  131.303">  2  5  1 -1</clus>
</clustering>
</event>
<event>
 9    1  0.1435532E-005  0.1010406E+03  0.7546771E-02  0.1281293E+00
          1   -1    0    0  502    0  0.00000000000E+00  0.00000000000E+00  0.70202703169E+02  0.70202703169E+02  0.00000000000E+00 0. -1.
         -1   -1    0    0    0  501 -0.00000000000E+00 -0.00000000000E+00 -0.21028261018E+03  0.21028261018E+03  0.00000000000E+00 0.  1.
         23    2    1    2    0    0  0.64002320261E+01  0.30664405403E+02 -0.12589237103E+03  0.16131190985E+03  0.95871656121E+02 0.  0.
         23    2    1    2    0    0 -0.26901202963E+02 -0.26270738150E+02 -0.14157981311E+02  0.98206882696E+02  0.89612035856E+02 0.  0.
        -11    1    4    4    0    0  0.12716815265E+02 -0.20855008143E+02 -0.42621263534E+02  0.49124544378E+02  0.00000000000E+00 0.  1.
         11    1    4    4    0    0 -0.39618018228E+02 -0.54157300072E+01  0.28463282223E+02  0.49082338318E+02  0.00000000000E+00 0. -1.
        -13    1    3    3    0    0 -0.22273051449E+02  0.41192513604E+02 -0.12180250198E+03  0.13049429676E+03  0.00000000000E+00 0. -1.
         13    1    3    3    0    0  0.28673283475E+02 -0.10528108201E+02 -0.40898690435E+01  0.30817613087E+02  0.00000000000E+00 0.  1.
         21    1    1    2  502  501  0.20500970937E+02 -0.43936672526E+01 -0.29554675968E-01  0.20966520807E+02  0.00000000000E+00 0. -1.
<scales pt_clust_5="13000.00000" pt_clust_6="13000.00000" pt_clust_7="13000.00000" pt_clust_8="13000.00000" pt_clust_9="20.96650"></scales>
<clustering>
<clus scale="   20.966">  1  9  2 -1</clus>
<clus scale="   89.612">  5  6 -1 -1</clus>
<clus scale="   95.122">  1  5  2 -1</clus>
<clus scale="   95.872">  7  8 -1 -1</clus>
<clus scale="   20.966">  1  5  2 -1</clus>
</clustering>
</event>
<event>
 9    1  0.1435532E-005  0.9394895E+02  0.7546771E-02  0.1294181E+00
          1   -1    0    0  502    0  0.00000000000E+00  0.00000000000E+00  0.43798661493E+03  0.43798661493E+03  0.00000000000E+00 0. -1.
         -1   -1    0    0    0  501 -0.00000000000E+00 -0.00000000000E+00 -0.42835572458E+02  0.42835572458E+02  0.00000000000E+00 0.  1.
         23    2    1    2    0    0  0.80231055428E+01 -0.17716986250E+02  0.60470481335E+02  0.11015168202E+03  0.89991400227E+02 0.  0.
         23    2    1    2    0    0  0.27558528179E+02  0.31135329531E+02  0.13893391444E+03  0.17126425098E+03  0.91103950860E+02 0.  0.
        -11    1    4    4    0    0 -0.20165672324E+02  0.16465207103E+02  0.11108440064E+03  0.11409426564E+03  0.00000000000E+00 0. -1.
         11    1    4    4    0    0  0.47724200503E+02  0.14670122428E+02  0.27849513802E+02  0.57169985348E+02  0.00000000000E+00 0.  1.
        -13    1    3    3    0    0  0.19808228022E+02  0.31468488214E+02  0.95702018497E+01  0.38395578017E+02  0.00000000000E+00 0.  1.
         13    1    3    3    0    0 -0.11785122479E+02 -0.49185474464E+02  0.50900279485E+02  0.71756104004E+02  0.00000000000E+00 0. -1.
         21    1    1    2  502  501 -0.35581633722E+02 -0.13418343282E+02  0.19574664669E+03  0.19940625438E+03  0.00000000000E+00 0. -1.
<scales pt_clust_5="13000.00000" pt_clust_6="13000.00000" pt_clust_7="13000.00000" pt_clust_8="13000.00000" pt_clust_9="38.02768"></scales>
<clustering>
<clus scale="   38.028">  1  9  2 -1</clus>
<clus scale="   89.991">  7  8 -1 -1</clus>
<clus scale="   91.104">  5  6 -1 -1</clus>
<clus scale="   92.870">  2  7  1 -1</clus>
<clus scale="   38.028">  1  5  2 -1</clus>
</clustering>
</event>
<event>
 9    1  0.1435532E-005  0.9407133E+02  0.7546771E-02  0.1293452E+00
          1   -1    0    0  502    0  0.00000000000E+00  0.00000000000E+00  0.25206132059E+03  0.25206132059E+03  0.00000000000E+00 0. -1.
         -1   -1    0    0    0  501 -0.00000000000E+00 -0.00000000000E+00 -0.12032651200E+03  0.12032651200E+03  0.00000000000E+00 0.  1.
         23    2    1    2    0    0 -0.91903238039E+01  0.33679004340E+02 -0.71969375393E+02  0.12026346446E+03  0.89805191975E+02 0.  0.
         23    2    1    2    0    0  0.20406575261E+02  0.96137778791E+01  0.85763076492E+02  0.12598882941E+03  0.89493166265E+02 0.  0.
        -11    1    4    4    0    0 -0.27268943410E+02  0.29553180467E+02  0.43415330824E+02  0.59176656724E+02  0.00000000000E+00 0.  1.
         11    1    4    4    0    0  0.47675518671E+02 -0.19939402588E+02  0.42347745667E+02  0.66812172687E+02  0.00000000000E+00 0. -1.
        -13    1    3    3    0    0 -0.42004699954E+02  0.37790752093E+02 -0.65610313698E+02  0.86586656163E+02  0.00000000000E+00 0.  1.
         13    1    3    3    0    0  0.32814376150E+02 -0.41117477531E+01 -0.63590616944E+01  0.33676808301E+02  0.00000000000E+00 0. -1.
         21    1    1    2  502  501 -0.11216251457E+02 -0.43292782219E+02  0.11794110750E+03  0.12613553872E+03  0.00000000000E+00 0. -1.
<scales pt_clust_5="13000.00000" pt_clust_6="13000.00000" pt_clust_7="13000.00000" pt_clust_8="13000.00000" pt_clust_9="44.72213"></scales>
<clustering>
<clus scale="   44.722">  1  9  2 -1</clus>
<clus scale="   89.493">  5  6 -1 -1</clus>
<clus scale="   89.805">  7  8 -1 -1</clus>
<clus scale="   93.774">  1  5  2 -1</clus>
<clus scale="   44.722">  1  5  2 -1</clus>
</clustering>
</event>
<event>
 9    1  0.1435532E-005  0.1276047E+03  0.7546771E-02  0.1236601E+00
         -1   -1    0    0    0  501 -0.00000000000E+00  0.00000000000E+00  0.14670529955E+03  0.14670529955E+03  0.00000000000E+00 0.  1.
          1   -1    0    0  502    0  0.00000000000E+00 -0.00000000000E+00 -0.16027948729E+03  0.16027948729E+03  0.00000000000E+00 0. -1.
         23    2    1    2    0    0  0.72248464253E+02  0.44064108949E+02  0.39644603899E+02  0.14258675447E+03  0.10769309006E+03 0.  0.
         23    2    1    2    0    0 -0.53005307522E+02  0.47992836261E+00 -0.24930524277E+02  0.10823134819E+03  0.91009344209E+02 0.  0.
        -13    1    3    3    0    0  0.28991986119E+02 -0.14003118967E+02  0.59371494496E+02  0.67539595487E+02  0.00000000000E+00 0. -1.
         13    1    3    3    0    0  0.43256478133E+02  0.58067227916E+02 -0.19726890597E+02  0.75047158980E+02  0.00000000000E+00 0.  1.
        -13    1    4    4    0    0 -0.70473576909E+02  0.15454609783E+02 -0.38234889235E+02  0.81653394055E+02  0.00000000000E+00 0. -1.
         13    1    4    4    0    0  0.17468269387E+02 -0.14974681420E+02  0.13304364958E+02  0.26577954134E+02  0.00000000000E+00 0.  1.
         21    1    1    2  502  501 -0.19243156731E+02 -0.44544037312E+02 -0.28288267365E+02  0.56166684178E+02  0.00000000000E+00 0. -1.
<scales pt_clust_5="13000.00000" pt_clust_6="13000.00000" pt_clust_7="13000.00000" pt_clust_8="13000.00000" pt_clust_9="48.52288"></scales>
<clustering>
<clus scale="   48.523">  2  9  1 -1</clus>
<clus scale="   91.009">  7  8 -1 -1</clus>
<clus scale="  107.693">  5  6 -1 -1</clus>
<clus scale="  113.877">  2  7  1 -1</clus>
<clus scale="   48.523">  2  5  1 -1</clus>
</clustering>
</event>
<event>
 9    1  0.1435532E-005  0.1076633E+03  0.7546771E-02  0.1267280E+00
         -2   -1    0    0    0  501 -0.00000000000E+00  0.00000000000E+00  0.87452628490E+03  0.87452628490E+03  0.00000000000E+00 0.  1.
          2   -1    0    0  502    0  0.00000000000E+00 -0.00000000000E+00 -0.18700103488E+02  0.18700103488E+02  0.00000000000E+00 0. -1.
         23    2    1    2    0    0  0.40921055075E+02  0.34196805808E+02  0.43767182661E+03  0.45030753552E+03  0.91522098202E+02 0.  0.
         23    2    1    2    0    0 -0.66204417727E+02 -0.86676175030E+01  0.33815555163E+03  0.35522166711E+03  0.85878420818E+02 0.  0.
        -11    1    4    4    0    0 -0.18081504424E+02  0.37061380341E+02  0.10525056938E+03  0.11304056383E+03  0.00000000000E+00 0.  1.
         11    1    4    4    0    0 -0.48122913303E+02 -0.45728997844E+02  0.23290498225E+03  0.24218110328E+03  0.00000000000E+00 0. -1.
        -11    1    3    3    0    0  0.45631003778E+02  0.61823862054E+02  0.34687277900E+03  0.35528172376E+03  0.00000000000E+00 0.  1.
         11    1    3    3    0    0 -0.47099487034E+01 -0.27627056246E+02  0.90799047606E+02  0.95025811755E+02  0.00000000000E+00 0. -1.
         21    1    1    2  502  501  0.25283362652E+02 -0.25529188305E+02  0.79998803170E+02  0.87697185766E+02  0.00000000000E+00 0.  1.
<scales pt_clust_5="13000.00000" pt_clust_6="13000.00000" pt_clust_7="13000.00000" pt_clust_8="13000.00000" pt_clust_9="35.93032"></scales>
<clustering>
<clus scale="   35.930">  2  9  1 -1</clus>
<clus scale="   85.878">  5  6 -1 -1</clus>
<clus scale="   91.522">  7  8 -1 -1</clus>
<clus scale="  102.909">  2  5  1 -1</clus>
<clus scale="   35.930">  2  5  1 -1</clus>
</clustering>
</event>
<event>
 9    1  0.1435532E-005  0.1043934E+03  0.7546771E-02  0.1271362E+00
         -1   -1    0    0    0  501 -0.00000000000E+00  0.00000000000E+00  0.16412185440E+03  0.16412185440E+03  0.00000000000E+00 0.  1.
          1   -1    0    0  502    0  0.00000000000E+00 -0.00000000000E+00 -0.10020123890E+03  0.10020123890E+03  0.00000000000E+00 0. -1.
         23    2    1    2    0    0 -0.58540239947E+02  0.25748017175E+02  0.57207343591E+02  0.12534814198E+03  0.91375907417E+02 0.  0.
         23    2    1    2    0    0  0.22102188071E+02 -0.29984244681E+02  0.18415079176E+02  0.10047028223E+03  0.91474591142E+02 0.  0.
        -11    1    3    3    0    0  0.24018265464E+02  0.13612541070E+02  0.19368647229E+02  0.33724217497E+02  0.00000000000E+00 0. -1.
         11    1    3    3    0    0 -0.82558505410E+02  0.12135476105E+02  0.37838696362E+02  0.91623924486E+02  0.00000000000E+00 0.  1.
        -13    1    4    4    0    0  0.57592718269E+02 -0.17899359665E+02  0.44931015619E+01  0.60477237335E+02  0.00000000000E+00 0. -1.
         13    1    4    4    0    0 -0.35490530199E+02 -0.12084885016E+02  0.13921977614E+02  0.39993044900E+02  0.00000000000E+00 0.  1.
         21    1    1    2  502  501  0.36438051876E+02  0.42362275062E+01 -0.11701807262E+02  0.38504669083E+02  0.00000000000E+00 0. -1.
<scales pt_clust_5="13000.00000" pt_clust_6="13000.00000" pt_clust_7="13000.00000" pt_clust_8="13000.00000" pt_clust_9="36.68347"></scales>
<clustering>
<clus scale="   36.683">  2  9  1 -1</clus>
<clus scale="   91.376">  5  6 -1 -1</clus>
<clus scale="   91.475">  7  8 -1 -1</clus>
<clus scale="  104.307">  1  5  2 -1</clus>
<clus scale="   36.683">  2  5  1 -1</clus>
</clustering>
</event>
<event>
 9    1  0.1435532E-005  0.1010176E+03  0.7546771E-02  0.1279770E+00
          2   -1    0    0  502    0  0.00000000000E+00  0.00000000000E+00  0.59565756862E+03  0.59565756862E+03  0.00000000000E+00 0. -1.
         -2   -1    0    0    0  501 -0.00000000000E+00 -0.00000000000E+00 -0.22819735630E+02  0.22819735630E+02  0.00000000000E+00 0.  1.
         23    2    1    2    0    0 -0.27844223788E+02  0.19102317481E+02  0.17748326736E+03  0.20157418580E+03  0.89395989028E+02 0.  0.
         23    2    1    2    0    0  0.28968369763E+02 -0.43395116655E+02  0.29350406649E+03  0.31218956646E+03  0.92711303336E+02 0.  0.
        -11    1    4    4    0    0  0.50158529733E+02  0.52040055750E+00  0.91120544780E+02  0.10401491529E+03  0.00000000000E+00 0.  1.
         11    1    4    4    0    0 -0.21190159970E+02 -0.43915517212E+02  0.20238352171E+03  0.20817465117E+03  0.00000000000E+00 0. -1.
        -11    1    3    3    0    0 -0.97420107825E+00 -0.31157296248E+02  0.10405510475E+03  0.10862408113E+03  0.00000000000E+00 0.  1.
         11    1    3    3    0    0 -0.26870022710E+02  0.50259613728E+02  0.73428162613E+02  0.92950104665E+02  0.00000000000E+00 0. -1.
         21    1    1    2  502  501 -0.11241459753E+01  0.24292799174E+02  0.10185049913E+03  0.10471355199E+03  0.00000000000E+00 0. -1.
<scales pt_clust_5="13000.00000" pt_clust_6="13000.00000" pt_clust_7="13000.00000" pt_clust_8="13000.00000" pt_clust_9="24.31880"></scales>
<clustering>
<clus scale="   24.319">  1  9  2 -1</clus>
<clus scale="   89.396">  7  8 -1 -1</clus>
<clus scale="   92.711">  5  6 -1 -1</clus>
<clus scale="   97.984">  2  7  1 -1</clus>
<clus scale="   24.319">  1  5  2 -1</clus>
</clustering>
</event>
<event>
 9    1  0.1435532E-005  0.9753627E+02  0.7546771E-02  0.1285766E+00
          2   -1    0    0  502    0  0.00000000000E+00  0.00000000000E+00  0.47866981965E+03  0.47866981965E+03  0.00000000000E+00 0. -1.
         -2   -1    0    0    0  501 -0.00000000000E+00 -0.00000000000E+00 -0.31102403632E+02  0.31102403632E+02  0.00000000000E+00 0.  1.
         23    2    1    2    0    0  0.12533131322E+02  0.14789870118E+02  0.15032685392E+03  0.17688162966E+03  0.91176358020E+02 0.  0.
         23    2    1    2    0    0 -0.12397623018E+02 -0.51740486303E+02  0.16592811099E+03  0.19647825469E+03  0.90778783692E+02 0.  0.
        -11    1    4    4    0    0 -0.33227182169E+02 -0.69208608915E+02  0.10819520544E+03  0.13266529185E+03  0.00000000000E+00 0.  1.
         11    1    4    4    0    0  0.20829559151E+02  0.17468122612E+02  0.57732905553E+02  0.63812962834E+02  0.00000000000E+00 0. -1.
        -11    1    3    3    0    0 -0.15840712935E+02  0.20481613559E+02  0.22351287545E+01  0.25988853011E+02  0.00000000000E+00 0.  1.
         11    1    3    3    0    0  0.28373844257E+02 -0.56917434413E+01  0.14809172517E+03  0.15089277665E+03  0.00000000000E+00 0. -1.
         21    1    1    2  502  501 -0.13550830351E+00  0.36950616185E+02  0.13131245110E+03  0.13641233894E+03  0.00000000000E+00 0.  1.
<scales pt_clust_5="13000.00000" pt_clust_6="13000.00000" pt_clust_7="13000.00000" pt_clust_8="13000.00000" pt_clust_9="36.95086"></scales>
<clustering>
<clus scale="   36.951">  1  9  2 -1</clus>
<clus scale="   90.779">  5  6 -1 -1</clus>
<clus scale="   91.176">  7  8 -1 -1</clus>
<clus scale="   97.165">  1  5  2 -1</clus>
<clus scale="   36.951">  1  5  2 -1</clus>
</clustering>
</event>
<event>
 9    1  0.1435532E-005  0.9332800E+02  0.7546771E-02  0.1295211E+00
          1   -1    0    0  502    0  0.00000000000E+00  0.00000000000E+00  0.80344658329E+02  0.80344658329E+02  0.00000000000E+00 0. -1.
         -1   -1    0    0    0  501 -0.00000000000E+00 -0.00000000000E+00 -0.17947066265E+03  0.17947066265E+03  0.00000000000E+00 0.  1.
         23    2    1    2    0    0 -0.22459273993E+01  0.11998463620E+02 -0.91281778867E+02  0.13050241475E+03  0.92463559214E+02 0.  0.
         23    2    1    2    0    0  0.15519708019E+02  0.39675972135E+01 -0.30061117528E+02  0.98904048250E+02  0.92853308011E+02 0.  0.
        -11    1    4    4    0    0 -0.25624131488E+02  0.81649886235E+01 -0.47049573951E+02  0.54193408849E+02  0.00000000000E+00 0.  1.
         11    1    4    4    0    0  0.41143839507E+02 -0.41973914100E+01  0.16988456423E+02  0.44710639401E+02  0.00000000000E+00 0. -1.
        -13    1    3    3    0    0 -0.25010935361E+02  0.40329495610E+02 -0.78965823393E+02  0.92128260419E+02  0.00000000000E+00 0.  1.
         13    1    3    3    0    0  0.22765007961E+02 -0.28331031991E+02 -0.12315955474E+02  0.38374154328E+02  0.00000000000E+00 0. -1.
         21    1    1    2  502  501 -0.13273780619E+02 -0.15966060833E+02  0.22216892073E+02  0.30408857984E+02  0.00000000000E+00 0. -1.
<scales pt_clust_5="13000.00000" pt_clust_6="13000.00000" pt_clust_7="13000.00000" pt_clust_8="13000.00000" pt_clust_9="20.76315"></scales>
<clustering>
<clus scale="   20.763">  1  9  2 -1</clus>
<clus scale="   92.464">  7  8 -1 -1</clus>
<clus scale="   92.853">  5  6 -1 -1</clus>
<clus scale="   92.940">  2  7  1 -1</clus>
<clus scale="   20.763">  1  5  2 -1</clus>
</clustering>
</event>
<event>
 9    1  0.1435532E-005  0.1131779E+03  0.7546771E-02  0.1255432E+00
         -1   -1    0    0    0  501 -0.00000000000E+00  0.00000000000E+00  0.29640554342E+03  0.29640554342E+03  0.00000000000E+00 0.  1.
          1   -1    0    0  502    0  0.00000000000E+00 -0.00000000000E+00 -0.76648313106E+02  0.76648313106E+02  0.00000000000E+00 0. -1.
         23    2    1    2    0    0  0.44059456436E+02  0.73997582569E+02  0.15500938880E+03  0.19970090649E+03  0.91845868219E+02 0.  0.
         23    2    1    2    0    0 -0.41916138237E+02 -0.13518263143E+02  0.39564074114E+02  0.10780476904E+03  0.90093541300E+02 0.  0.
        -13    1    3    3    0    0 -0.19945427744E+02 -0.68082395261E+01  0.40304745122E+02  0.45482355839E+02  0.00000000000E+00 0. -1.
         13    1    3    3    0    0  0.64004884180E+02  0.80805822096E+02  0.11470464368E+03  0.15421855065E+03  0.00000000000E+00 0.  1.
        -13    1    4    4    0    0 -0.63727366899E+02  0.11861852568E+02  0.15680706922E+02  0.66691569241E+02  0.00000000000E+00 0. -1.
         13    1    4    4    0    0  0.21811228662E+02 -0.25380115711E+02  0.23883367193E+02  0.41113199799E+02  0.00000000000E+00 0.  1.
         21    1    1    2  502  501 -0.21433181990E+01 -0.60479319427E+02  0.25183767392E+02  0.65548180992E+02  0.00000000000E+00 0.  1.
<scales pt_clust_5="13000.00000" pt_clust_6="13000.00000" pt_clust_7="13000.00000" pt_clust_8="13000.00000" pt_clust_9="60.51729"></scales>
<clustering>
<clus scale="   60.517">  2  9  1 -1</clus>
<clus scale="   90.094">  7  8 -1 -1</clus>
<clus scale="   91.846">  5  6 -1 -1</clus>
<clus scale="  111.761">  2  7  1 -1</clus>
<clus scale="   60.517">  2  5  1 -1</clus>
</clustering>
</event>
<event>
 9    1  0.1435532E-005  0.9477780E+02  0.7546771E-02  0.1298532E+00
         -1   -1    0    0    0  501 -0.00000000000E+00  0.00000000000E+00  0.26961283225E+02  0.26961283225E+02  0.00000000000E+00 0.  1.
          1   -1    0    0  502    0  0.00000000000E+00 -0.00000000000E+00 -0.45061793079E+03  0.45061793079E+03  0.00000000000E+00 0. -1.
         23    2    1    2    0    0 -0.98429087888E+01 -0.21223559148E+02 -0.12008725455E+03  0.15411084780E+03  0.93711698249E+02 0.  0.
         23    2    1    2    0    0  0.85091486636E+00  0.12995025545E+01 -0.17894054498E+03  0.19693705092E+03  0.82231810303E+02 0.  0.
        -11    1    4    4    0    0  0.38473814523E+02  0.95244675009E+01 -0.12133008079E+03  0.12763987774E+03  0.00000000000E+00 0. -1.
         11    1    4    4    0    0 -0.37622899657E+02 -0.82249649464E+01 -0.57610464190E+02  0.69297173183E+02  0.00000000000E+00 0.  1.
        -13    1    3    3    0    0 -0.27909977904E+02 -0.52113506761E+02 -0.88202341634E+02  0.10618115427E+03  0.00000000000E+00 0.  1.
         13    1    3    3    0    0  0.18067069115E+02  0.30889947613E+02 -0.31884912913E+02  0.47929693525E+02  0.00000000000E+00 0. -1.
         21    1    1    2  502  501  0.89919939225E+01  0.19924056593E+02 -0.12462884804E+03  0.12653131529E+03  0.00000000000E+00 0. -1.
<scales pt_clust_5="13000.00000" pt_clust_6="13000.00000" pt_clust_7="13000.00000" pt_clust_8="13000.00000" pt_clust_9="21.85919"></scales>
<clustering>
<clus scale="   21.859">  2  9  1 -1</clus>
<clus scale="   82.232">  5  6 -1 -1</clus>
<clus scale="   83.445">  2  5  1 -1</clus>
<clus scale="   93.712">  7  8 -1 -1</clus>
<clus scale="   21.859">  2  5  1 -1</clus>
</clustering>
</event>
<event>
 9    1  0.1435532E-005  0.1375888E+03  0.7546771E-02  0.1216785E+00
          1   -1    0    0  502    0  0.00000000000E+00  0.00000000000E+00  0.10723796198E+04  0.10723796198E+04  0.00000000000E+00 0. -1.
         -1   -1    0    0    0  501 -0.00000000000E+00 -0.00000000000E+00 -0.55943079127E+02  0.55943079127E+02  0.00000000000E+00 0.  1.
         23    2    1    2    0    0  0.10539854324E+03  0.25950947678E+02  0.63344297988E+02  0.15477617932E+03  0.90337483880E+02 0.  0.
         23    2    1    2    0    0 -0.83840722691E+02  0.37517008928E+02  0.55729223875E+03  0.57211089058E+03  0.91101256883E+02 0.  0.
        -11    1    3    3    0    0  0.10161481426E+03  0.51802977570E+02  0.58567235688E+02  0.12821559990E+03  0.00000000000E+00 0.  1.
         11    1    3    3    0    0  0.37837289783E+01 -0.25852029892E+02  0.47770622992E+01  0.26560579412E+02  0.00000000000E+00 0. -1.
        -11    1    4    4    0    0 -0.83881411924E+02 -0.13745119086E+01  0.45511092412E+03  0.46277849323E+03  0.00000000000E+00 0. -1.
         11    1    4    4    0    0  0.40689233314E-01  0.38891520837E+02  0.10218131463E+03  0.10933239734E+03  0.00000000000E+00 0.  1.
         21    1    1    2  502  501 -0.21557820549E+02 -0.63467956607E+02  0.39580000397E+03  0.40143562907E+03  0.00000000000E+00 0. -1.
<scales pt_clust_5="13000.00000" pt_clust_6="13000.00000" pt_clust_7="13000.00000" pt_clust_8="13000.00000" pt_clust_9="67.02926"></scales>
<clustering>
<clus scale="   67.029">  1  9  2 -1</clus>
<clus scale="   90.337">  5  6 -1 -1</clus>
<clus scale="   91.101">  7  8 -1 -1</clus>
<clus scale="  137.084">  2  5  1 -1</clus>
<clus scale="   67.029">  1  5  2 -1</clus>
</clustering>
</event>
<event>
 9    1  0.1435532E-005  0.1972879E+03  0.7546771E-02  0.1152067E+00
          1   -1    0    0  502    0  0.00000000000E+00  0.00000000000E+00  0.91980951488E+03  0.91980951488E+03  0.00000000000E+00 0. -1.
         -1   -1    0    0    0  501 -0.00000000000E+00 -0.00000000000E+00 -0.66704320247E+02  0.66704320247E+02  0.00000000000E+00 0.  1.
         23    2    1    2    0    0 -0.18491087837E+03  0.27547271106E+02  0.22034533647E+03  0.30266567710E+03  0.90019773963E+02 0.  0.
         23    2    1    2    0    0  0.14127098294E+03 -0.83090658208E+02  0.42331758667E+03  0.46281518897E+03  0.90214033561E+02 0.  0.
        -13    1    3    3    0    0 -0.16391585379E+03  0.38252445918E+02  0.13999259511E+03  0.21892826092E+03  0.00000000000E+00 0.  1.
         13    1    3    3    0    0 -0.20995024579E+02 -0.10705174813E+02  0.80352741353E+02  0.83737416176E+02  0.00000000000E+00 0. -1.
        -13    1    4    4    0    0  0.76494550635E+02 -0.74920959190E+02  0.34291418473E+03  0.35924184680E+03  0.00000000000E+00 0. -1.
         13    1    4    4    0    0  0.64776432301E+02 -0.81696990183E+01  0.80403401937E+02  0.10357334216E+03  0.00000000000E+00 0.  1.
         21    1    1    2  502  501  0.43639895435E+02  0.55543387102E+02  0.20944227150E+03  0.22103296906E+03  0.00000000000E+00 0.  1.
<scales pt_clust_5="13000.00000" pt_clust_6="13000.00000" pt_clust_7="13000.00000" pt_clust_8="13000.00000" pt_clust_9="70.63645"></scales>
<clustering>
<clus scale="   70.636">  1  9  2 -1</clus>
<clus scale="   90.020">  5  6 -1 -1</clus>
<clus scale="   90.214">  7  8 -1 -1</clus>
<clus scale="  197.199">  2  5  1 -1</clus>
<clus scale="   70.636">  1  5  2 -1</clus>
</clustering>
</event>
<event>
 9    1  0.1435532E-005  0.1434153E+03  0.7546771E-02  0.1209152E+00
         -1   -1    0    0    0  501 -0.00000000000E+00  0.00000000000E+00  0.86302946942E+02  0.86302946942E+02  0.00000000000E+00 0.  1.
          1   -1    0    0  502    0  0.00000000000E+00 -0.00000000000E+00 -0.73845644848E+03  0.73845644848E+03  0.00000000000E+00 0. -1.
         23    2    1    2    0    0  0.91428751829E+02 -0.55347389461E+02  0.59440386312E+01  0.14198974624E+03  0.93290976315E+02 0.  0.
         23    2    1    2    0    0 -0.11334068313E+03  0.53364253991E+02 -0.51161553480E+03  0.53464455523E+03  0.91654192118E+02 0.  0.
        -13    1    3    3    0    0  0.32894188089E+02  0.18525337440E+02  0.25725758833E+02  0.45684027897E+02  0.00000000000E+00 0.  1.
         13    1    3    3    0    0  0.58534563740E+02 -0.73872726901E+02 -0.19781720202E+02  0.96305718347E+02  0.00000000000E+00 0. -1.
        -13    1    4    4    0    0 -0.11857154637E+03  0.23256141485E+02 -0.44893398120E+03  0.46491050665E+03  0.00000000000E+00 0. -1.
         13    1    4    4    0    0  0.52308632328E+01  0.30108112506E+02 -0.62681553602E+02  0.69734048575E+02  0.00000000000E+00 0.  1.
         21    1    1    2  502  501  0.21911931306E+02  0.19831354696E+01 -0.14648200537E+03  0.14812509395E+03  0.00000000000E+00 0.  1.
<scales pt_clust_5="13000.00000" pt_clust_6="13000.00000" pt_clust_7="13000.00000" pt_clust_8="13000.00000" pt_clust_9="22.00149"></scales>
<clustering>
<clus scale="   22.001">  2  9  1 -1</clus>
<clus scale="   91.654">  7  8 -1 -1</clus>
<clus scale="   93.291">  5  6 -1 -1</clus>
<clus scale="  142.356">  2  7  1 -1</clus>
<clus scale="   22.001">  2  5  1 -1</clus>
</clustering>
</event>
<event>
 9    1  0.1435532E-005  0.1620238E+03  0.7546771E-02  0.1187213E+00
          1   -1    0    0  502    0  0.00000000000E+00  0.00000000000E+00  0.59005635745E+03  0.59005635745E+03  0.00000000000E+00 0. -1.
         -1   -1    0    0    0  501 -0.00000000000E+00 -0.00000000000E+00 -0.84232887753E+02  0.84232887753E+02  0.00000000000E+00 0.  1.
         23    2    1    2    0    0  0.10371979884E+03 -0.73166424810E+02  0.57663815279E+02  0.16721434315E+03  0.92327669588E+02 0.  0.
         23    2    1    2    0    0 -0.10358412879E+03  0.10832540209E+03  0.24092003862E+03  0.29687397331E+03  0.87336284212E+02 0.  0.
        -11    1    4    4    0    0 -0.26672948635E+02  0.81741362400E+02  0.16258332143E+03  0.18391963713E+03  0.00000000000E+00 0.  1.
         11    1    4    4    0    0 -0.76911180158E+02  0.26584039695E+02  0.78336717190E+02  0.11295433617E+03  0.00000000000E+00 0. -1.
        -13    1    3    3    0    0  0.92886994577E+02 -0.26142424241E+02  0.67764552493E+02  0.11791291143E+03  0.00000000000E+00 0. -1.
         13    1    3    3    0    0  0.10832804266E+02 -0.47024000569E+02 -0.10100737214E+02  0.49301431724E+02  0.00000000000E+00 0.  1.
         21    1    1    2  502  501 -0.13567004941E+00 -0.35158977285E+02  0.20723961579E+03  0.21020092874E+03  0.00000000000E+00 0. -1.
<scales pt_clust_5="13000.00000" pt_clust_6="13000.00000" pt_clust_7="13000.00000" pt_clust_8="13000.00000" pt_clust_9="35.15924"></scales>
<clustering>
<clus scale="   35.159">  1  9  2 -1</clus>
<clus scale="   87.336">  5  6 -1 -1</clus>
<clus scale="   92.328">  7  8 -1 -1</clus>
<clus scale="  159.232">  1  5  2 -1</clus>
<clus scale="   35.159">  1  5  2 -1</clus>
</clustering>
</event>
<event>
 9    1  0.1435532E-005  0.1666454E+03  0.7546771E-02  0.1181866E+00
         -1   -1    0    0    0  501 -0.00000000000E+00  0.00000000000E+00  0.10323344085E+04  0.10323344085E+04  0.00000000000E+00 0.  1.
          1   -1    0    0  502    0  0.00000000000E+00 -0.00000000000E+00 -0.54030226815E+02  0.54030226815E+02  0.00000000000E+00 0. -1.
         23    2    1    2    0    0  0.12244684808E+03  0.33649552641E+02  0.70649956682E+03  0.72461767015E+03  0.99013165641E+02 0.  0.
         23    2    1    2    0    0 -0.15602611783E+03 -0.20620719139E+02  0.26833151313E+03  0.32556160496E+03  0.96016634906E+02 0.  0.
        -11    1    4    4    0    0 -0.41604525016E+02  0.35433242688E+02  0.10540920056E+03  0.11873310723E+03  0.00000000000E+00 0.  1.
         11    1    4    4    0    0 -0.11442159282E+03 -0.56053961827E+02  0.16292231257E+03  0.20682849773E+03  0.00000000000E+00 0. -1.
        -13    1    3    3    0    0  0.85260568622E+02  0.66957115184E+02  0.54089608127E+03  0.55165314335E+03  0.00000000000E+00 0.  1.
         13    1    3    3    0    0  0.37186279458E+02 -0.33307562543E+02  0.16560348555E+03  0.17296452679E+03  0.00000000000E+00 0. -1.
         21    1    1    2  502  501  0.33579269754E+02 -0.13028833502E+02  0.34731017566E+01  0.36185360237E+02  0.00000000000E+00 0.  1.
<scales pt_clust_5="13000.00000" pt_clust_6="13000.00000" pt_clust_7="13000.00000" pt_clust_8="13000.00000" pt_clust_9="36.01830"></scales>
<clustering>
<clus scale="   36.018">  2  9  1 -1</clus>
<clus scale="   96.017">  5  6 -1 -1</clus>
<clus scale="   99.013">  7  8 -1 -1</clus>
<clus scale="  164.883">  2  5  1 -1</clus>
<clus scale="   36.018">  2  5  1 -1</clus>
</clustering>
</event>
<event>
 9    1  0.1435532E-005  0.1452875E+03  0.7546771E-02  0.1207170E+00
          2   -1    0    0  502    0  0.00000000000E+00  0.00000000000E+00  0.60168696337E+03  0.60168696337E+03  0.00000000000E+00 0. -1.
         -2   -1    0    0    0  501 -0.00000000000E+00 -0.00000000000E+00 -0.61299180579E+02  0.61299180579E+02  0.00000000000E+00 0.  1.
         23    2    1    2    0    0 -0.20822796540E+02 -0.11279807547E+03  0.67132601712E+02  0.15942384348E+03  0.88046470513E+02 0.  0.
         23    2    1    2    0    0 -0.59113056769E+01  0.10755042332E+03  0.35481942264E+03  0.38203337819E+03  0.91927375015E+02 0.  0.
        -11    1    4    4    0    0  0.20983653293E+02  0.10293938306E+03  0.21167766251E+03  0.23631390796E+03  0.00000000000E+00 0. -1.
         11    1    4    4    0    0 -0.26894958970E+02  0.46110402608E+01  0.14314176013E+03  0.14571947023E+03  0.00000000000E+00 0.  1.
        -13    1    3    3    0    0 -0.32455548095E+02 -0.35259083575E+02 -0.10529091944E+02  0.49065541410E+02  0.00000000000E+00 0.  1.
         13    1    3    3    0    0  0.11632751555E+02 -0.77538991898E+02  0.77661693657E+02  0.11035830207E+03  0.00000000000E+00 0. -1.
         21    1    1    2  502  501  0.26734102217E+02  0.52476521492E+01  0.11843575844E+03  0.12152892228E+03  0.00000000000E+00 0. -1.
<scales pt_clust_5="13000.00000" pt_clust_6="13000.00000" pt_clust_7="13000.00000" pt_clust_8="13000.00000" pt_clust_9="27.24427"></scales>
<clustering>
<clus scale="   27.244">  1  9  2 -1</clus>
<clus scale="   88.046">  7  8 -1 -1</clus>
<clus scale="   91.927">  5  6 -1 -1</clus>
<clus scale="  142.864">  2  7  1 -1</clus>
<clus scale="   27.244">  1  5  2 -1</clus>
</clustering>
</event>
<event>
 9    1  0.1435532E-005  0.1154669E+03  0.7546771E-02  0.1251196E+00
         -1   -1    0    0    0  501 -0.00000000000E+00  0.00000000000E+00  0.84810108684E+02  0.84810108684E+02  0.00000000000E+00 0.  1.
          1   -1    0    0  502    0  0.00000000000E+00 -0.00000000000E+00 -0.34101463788E+03  0.34101463788E+03  0.00000000000E+00 0. -1.
         23    2    1    2    0    0  0.34096973285E+01  0.69423743128E+02  0.17461445725E+02  0.11624048870E+03  0.91518670123E+02 0.  0.
         23    2    1    2    0    0  0.24202727673E+02 -0.65530775996E+02 -0.23223161396E+03  0.25964021442E+03  0.92744076847E+02 0.  0.
        -13    1    4    4    0    0 -0.14211928937E+02 -0.35474931463E+02 -0.19383115306E+03  0.19756256119E+03  0.00000000000E+00 0. -1.
         13    1    4    4    0    0  0.38414656610E+02 -0.30055844533E+02 -0.38400460900E+02  0.62077653229E+02  0.00000000000E+00 0.  1.
        -13    1    3    3    0    0  0.25861704091E+02  0.18574942613E+02 -0.29550517369E+02  0.43440641205E+02  0.00000000000E+00 0. -1.
         13    1    3    3    0    0 -0.22452006762E+02  0.50848800515E+02  0.47011963095E+02  0.72799847496E+02  0.00000000000E+00 0.  1.
         21    1    1    2  502  501 -0.27612425001E+02 -0.38929671317E+01 -0.41434360964E+02  0.49944043449E+02  0.00000000000E+00 0.  1.
<scales pt_clust_5="13000.00000" pt_clust_6="13000.00000" pt_clust_7="13000.00000" pt_clust_8="13000.00000" pt_clust_9="27.88550"></scales>
<clustering>
<clus scale="   27.886">  2  9  1 -1</clus>
<clus scale="   91.519">  7  8 -1 -1</clus>
<clus scale="   92.744">  5  6 -1 -1</clus>
<clus scale="  114.485">  1  7  2 -1</clus>
<clus scale="   27.886">  2  5  1 -1</clus>
</clustering>
</event>
<event>
 9    1  0.4506997E-005  0.2303566E+03  0.7546771E-02  0.1126722E+00
          2   -1    0    0  502    0  0.00000000000E+00  0.00000000000E+00  0.96833645964E+03  0.96833645964E+03  0.00000000000E+00 0. -1.
         -2   -1    0    0    0  501 -0.00000000000E+00 -0.00000000000E+00 -0.22906284902E+03  0.22906284902E+03  0.00000000000E+00 0.  1.
         23    2    1    2    0    0 -0.10344562946E+03 -0.18125357794E+03 -0.14540704444E+03  0.27106254445E+03  0.93690109742E+02 0.  0.
         23    2    1    2    0    0  0.12036927709E+03  0.19952387412E+03  0.79019888797E+03  0.82862792180E+03  0.88946113102E+02 0.  0.
        -11    1    4    4    0    0  0.85668804088E+02  0.62883210488E+02  0.39460935996E+03  0.40866855656E+03  0.00000000000E+00 0.  1.
         11    1    4    4    0    0  0.34700473004E+02  0.13664066363E+03  0.39558952801E+03  0.41995936524E+03  0.00000000000E+00 0. -1.
        -13    1    3    3    0    0 -0.70054473412E+02 -0.81173106029E+02 -0.12305791093E+03  0.16321749854E+03  0.00000000000E+00 0.  1.
         13    1    3    3    0    0 -0.33391156044E+02 -0.10008047191E+03 -0.22349133515E+02  0.10784504592E+03  0.00000000000E+00 0. -1.
         21    1    1    2  502  501 -0.16923647635E+02 -0.18270296178E+02  0.94481767090E+02  0.97708842405E+02  0.00000000000E+00 0.  1.
<scales pt_clust_5="13000.00000" pt_clust_6="13000.00000" pt_clust_7="13000.00000" pt_clust_8="13000.00000" pt_clust_9="24.90409"></scales>
<clustering>
<clus scale="   24.904">  1  9  2 -1</clus>
<clus scale="   88.946">  5  6 -1 -1</clus>
<clus scale="   93.690">  7  8 -1 -1</clus>
<clus scale="  228.468">  1  5  2 -1</clus>
<clus scale="   24.904">  1  5  2 -1</clus>
</clustering>
</event>
<event>
 9    1  0.1435532E-005  0.2219824E+03  0.7546771E-02  0.1132628E+00
         -2   -1    0    0    0  501 -0.00000000000E+00  0.00000000000E+00  0.98384188962E+03  0.98384188962E+03  0.00000000000E+00 0.  1.
          2   -1    0    0  502    0  0.00000000000E+00 -0.00000000000E+00 -0.28552205583E+03  0.28552205583E+03  0.00000000000E+00 0. -1.
         23    2    1    2    0    0  0.19790242731E+03 -0.44666008300E+01  0.85796835707E+03  0.88563630380E+03  0.95166378588E+02 0.  0.
         23    2    1    2    0    0 -0.21920775815E+03  0.79859364659E+02 -0.16986353864E+03  0.30471920857E+03  0.97829519858E+02 0.  0.
        -11    1    4    4    0    0 -0.55326128703E+02 -0.19170218892E+02 -0.60567942749E+02  0.84243418131E+02  0.00000000000E+00 0.  1.
         11    1    4    4    0    0 -0.16388162945E+03  0.99029583551E+02 -0.10929559589E+03  0.22047579044E+03  0.00000000000E+00 0. -1.
        -11    1    3    3    0    0  0.89796020680E+02 -0.23868563927E+02  0.22868419305E+03  0.24683900386E+03  0.00000000000E+00 0. -1.
         11    1    3    3    0    0  0.10810640663E+03  0.19401963097E+02  0.62928416402E+03  0.63879729994E+03  0.00000000000E+00 0.  1.
         21    1    1    2  502  501  0.21305330841E+02 -0.75392763829E+02  0.10215015362E+02  0.79008433087E+02  0.00000000000E+00 0.  1.
<scales pt_clust_5="13000.00000" pt_clust_6="13000.00000" pt_clust_7="13000.00000" pt_clust_8="13000.00000" pt_clust_9="78.34530"></scales>
<clustering>
<clus scale="   78.345">  2  9  1 -1</clus>
<clus scale="   95.166">  7  8 -1 -1</clus>
<clus scale="   97.830">  5  6 -1 -1</clus>
<clus scale="  220.822">  1  7  2 -1</clus>
<clus scale="   78.345">  2  5  1 -1</clus>
</clustering>
</event>
<event>
 9    1  0.1435532E-005  0.9495680E+02  0.7546771E-02  0.1291918E+00
         -1   -1    0    0    0  501 -0.00000000000E+00  0.00000000000E+00  0.18506255778E+03  0.18506255778E+03  0.00000000000E+00 0.  1.
          1   -1    0    0  502    0  0.00000000000E+00 -0.00000000000E+00 -0.13398741837E+03  0.13398741837E+03  0.00000000000E+00 0. -1.
         23    2    1    2    0    0  0.13429330963E+02  0.19433046390E+02  0.13667503633E+03  0.16615762243E+03  0.91489342076E+02 0.  0.
         23    2    1    2    0    0 -0.17676332672E+02  0.59453343143E+01 -0.44647571890E+02  0.10452715801E+03  0.92653771367E+02 0.  0.
        -11    1    4    4    0    0  0.13452185852E+02  0.43610139600E+02 -0.20766943104E+02  0.50140517608E+02  0.00000000000E+00 0.  1.
         11    1    4    4    0    0 -0.31128518524E+02 -0.37664805286E+02 -0.23880628786E+02  0.54386640399E+02  0.00000000000E+00 0. -1.
        -11    1    3    3    0    0  0.35446526018E+02  0.30203795361E+02  0.13356469862E+03  0.14145053615E+03  0.00000000000E+00 0.  1.
         11    1    3    3    0    0 -0.22017195055E+02 -0.10770748971E+02  0.31103377100E+01  0.24707086275E+02  0.00000000000E+00 0. -1.
         21    1    1    2  502  501  0.42470017096E+01 -0.25378380704E+02 -0.40952325037E+02  0.48365195716E+02  0.00000000000E+00 0. -1.
<scales pt_clust_5="13000.00000" pt_clust_6="13000.00000" pt_clust_7="13000.00000" pt_clust_8="13000.00000" pt_clust_9="25.73129"></scales>
<clustering>
<clus scale="   25.731">  2  9  1 -1</clus>
<clus scale="   91.489">  7  8 -1 -1</clus>
<clus scale="   92.654">  5  6 -1 -1</clus>
<clus scale="   93.821">  1  7  2 -1</clus>
<clus scale="   25.731">  2  5  1 -1</clus>
</clustering>
</event>
<event>
 9    1  0.1435532E-005  0.1209099E+03  0.7546771E-02  0.1243980E+00
          2   -1    0    0  502    0  0.00000000000E+00  0.00000000000E+00  0.31880128014E+02  0.31880128014E+02  0.00000000000E+00 0. -1.
         -2   -1    0    0    0  501 -0.00000000000E+00 -0.00000000000E+00 -0.82797965001E+03  0.82797965001E+03  0.00000000000E+00 0.  1.
         23    2    1    2    0    0 -0.75820782489E+02  0.27824206790E+02 -0.41633271050E+03  0.43227658788E+03  0.83708691642E+02 0.  0.
         23    2    1    2    0    0  0.80852721240E+02  0.45787386223E+01 -0.37509223366E+03  0.39446034370E+03  0.91360011053E+02 0.  0.
        -11    1    4    4    0    0  0.79986122738E+02  0.36510439362E+02 -0.30523166056E+03  0.31764313092E+03  0.00000000000E+00 0.  1.
         11    1    4    4    0    0  0.86659850161E+00 -0.31931700739E+02 -0.69860573097E+02  0.76817212775E+02  0.00000000000E+00 0. -1.
        -13    1    3    3    0    0 -0.27932412415E+02 -0.24481561891E+02 -0.75468174958E+02  0.84113090345E+02  0.00000000000E+00 0. -1.
         13    1    3    3    0    0 -0.47888370074E+02  0.52305768681E+02 -0.34086453554E+03  0.34816349753E+03  0.00000000000E+00 0.  1.
         21    1    1    2  502  501 -0.50319387504E+01 -0.32402945412E+02 -0.46745778413E+01  0.33122846450E+02  0.00000000000E+00 0. -1.
<scales pt_clust_5="13000.00000" pt_clust_6="13000.00000" pt_clust_7="13000.00000" pt_clust_8="13000.00000" pt_clust_9="32.79133"></scales>
<clustering>
<clus scale="   32.791">  1  9  2 -1</clus>
<clus scale="   83.709">  7  8 -1 -1</clus>
<clus scale="   91.360">  5  6 -1 -1</clus>
<clus scale="  115.238">  2  7  1 -1</clus>
<clus scale="   32.791">  1  5  2 -1</clus>
</clustering>
</event>
<event>
 9    1  0.1435532E-005  0.1014429E+03  0.7546771E-02  0.1278645E+00
          1   -1    0    0  502    0  0.00000000000E+00  0.00000000000E+00  0.31339572400E+02  0.31339572400E+02  0.00000000000E+00 0. -1.
         -1   -1    0    0    0  501 -0.00000000000E+00 -0.00000000000E+00 -0.51029652814E+03  0.51029652814E+03  0.00000000000E+00 0.  1.
         23    2    1    2    0    0  0.13245886082E+02  0.37909379900E+02 -0.24702984499E+03  0.26632736275E+03  0.91071099966E+02 0.  0.
         23    2    1    2    0    0  0.15196283186E+02 -0.47548374594E+02 -0.10923442650E+03  0.14899420189E+03  0.88177873162E+02 0.  0.
        -13    1    3    3    0    0 -0.74511636821E+01  0.57745559896E+02 -0.93521240977E+02  0.11016484032E+03  0.00000000000E+00 0.  1.
         13    1    3    3    0    0  0.20697049764E+02 -0.19836179996E+02 -0.15350860401E+03  0.15616252243E+03  0.00000000000E+00 0. -1.
        -13    1    4    4    0    0 -0.34557445982E+02 -0.24704679535E+02 -0.69094142057E+02  0.81108191512E+02  0.00000000000E+00 0.  1.
         13    1    4    4    0    0  0.49753729168E+02 -0.22843695059E+02 -0.40140284441E+02  0.67886010379E+02  0.00000000000E+00 0. -1.
         21    1    1    2  502  501 -0.28442169268E+02  0.96389946941E+01 -0.12269268425E+03  0.12631453590E+03  0.00000000000E+00 0.  1.
<scales pt_clust_5="13000.00000" pt_clust_6="13000.00000" pt_clust_7="13000.00000" pt_clust_8="13000.00000" pt_clust_9="30.03110"></scales>
<clustering>
<clus scale="   30.031">  2  9  1 -1</clus>
<clus scale="   88.178">  7  8 -1 -1</clus>
<clus scale="   91.071">  5  6 -1 -1</clus>
<clus scale="   98.854">  1  7  2 -1</clus>
<clus scale="   98.854">  1  5  2 -1</clus>
</clustering>
</event>
<event>
 9    1  0.1435532E-005  0.1915327E+03  0.7546771E-02  0.1157631E+00
          1   -1    0    0  502    0  0.00000000000E+00  0.00000000000E+00  0.36912321815E+03  0.36912321815E+03  0.00000000000E+00 0. -1.
         -1   -1    0    0    0  501 -0.00000000000E+00 -0.00000000000E+00 -0.15498738953E+03  0.15498738953E+03  0.00000000000E+00 0.  1.
         23    2    1    2    0    0  0.15229627297E+03  0.51463164824E+02 -0.23402874370E+01  0.18765041381E+03  0.96770805334E+02 0.  0.
         23    2    1    2    0    0 -0.18142605896E+03 -0.75777685207E+01  0.18544561159E+03  0.27532620457E+03  0.91878216244E+02 0.  0.
        -13    1    3    3    0    0  0.76744799732E+02  0.56206116437E+02 -0.39887648367E+02  0.10314996996E+03  0.00000000000E+00 0.  1.
         13    1    3    3    0    0  0.75551473233E+02 -0.47429516130E+01  0.37547360930E+02  0.84500443848E+02  0.00000000000E+00 0. -1.
        -13    1    4    4    0    0  0.13580661652E+01 -0.20232819379E+02  0.17884754593E+02  0.27038412871E+02  0.00000000000E+00 0.  1.
         13    1    4    4    0    0 -0.18278412512E+03  0.12655050858E+02  0.16756085700E+03  0.24828779170E+03  0.00000000000E+00 0. -1.
         21    1    1    2  502  501  0.29129785994E+02 -0.43885396304E+02  0.31030504459E+02  0.61133989301E+02  0.00000000000E+00 0.  1.
<scales pt_clust_5="13000.00000" pt_clust_6="13000.00000" pt_clust_7="13000.00000" pt_clust_8="13000.00000" pt_clust_9="52.67326"></scales>
<clustering>
<clus scale="   52.673">  1  9  2 -1</clus>
<clus scale="   91.878">  7  8 -1 -1</clus>
<clus scale="   96.771">  5  6 -1 -1</clus>
<clus scale="  189.108">  1  7  2 -1</clus>
<clus scale="   52.673">  1  5  2 -1</clus>
</clustering>
</event>
<event>
 9    1  0.1435532E-005  0.1630737E+03  0.7546771E-02  0.1187597E+00
          1   -1    0    0  502    0  0.00000000000E+00  0.00000000000E+00  0.16395683717E+03  0.16395683717E+03  0.00000000000E+00 0. -1.
         -1   -1    0    0    0  501 -0.00000000000E+00 -0.00000000000E+00 -0.37079820385E+03  0.37079820385E+03  0.00000000000E+00 0.  1.
         23    2    1    2    0    0 -0.12773624243E+03  0.81982840552E+00 -0.25284129302E+03  0.29506057840E+03  0.82551836543E+02 0.  0.
         23    2    1    2    0    0  0.14492922737E+03 -0.49248214846E+02  0.20799851464E+02  0.18245853755E+03  0.97101063301E+02 0.  0.
        -11    1    4    4    0    0  0.23580789995E+02  0.28428639743E+02  0.81489278684E+01  0.37823884515E+02  0.00000000000E+00 0.  1.
         11    1    4    4    0    0  0.12134843737E+03 -0.77676854589E+02  0.12650923596E+02  0.14463465304E+03  0.00000000000E+00 0. -1.
        -13    1    3    3    0    0 -0.38229598506E+02  0.11376177989E+02 -0.16297905347E+03  0.16778883008E+03  0.00000000000E+00 0.  1.
         13    1    3    3    0    0 -0.89506643923E+02 -0.10556349584E+02 -0.89862239550E+02  0.12727174832E+03  0.00000000000E+00 0. -1.
         21    1    1    2  502  501 -0.17192984939E+02  0.48428386441E+02  0.25200074877E+02  0.57235925066E+02  0.00000000000E+00 0. -1.
<scales pt_clust_5="13000.00000" pt_clust_6="13000.00000" pt_clust_7="13000.00000" pt_clust_8="13000.00000" pt_clust_9="51.38976"></scales>
<clustering>
<clus scale="   51.390">  1  9  2 -1</clus>
<clus scale="   82.552">  7  8 -1 -1</clus>
<clus scale="   97.101">  5  6 -1 -1</clus>
<clus scale="  154.852">  2  7  1 -1</clus>
<clus scale="   51.390">  1  5  2 -1</clus>
</clustering>
</event>
<event>
 9    1  0.1435532E-005  0.1405648E+03  0.7546771E-02  0.1221475E+00
         -4   -1    0    0    0  501 -0.00000000000E+00  0.00000000000E+00  0.44153339142E+02  0.44153339142E+02  0.00000000000E+00 0.  1.
          4   -1    0    0  502    0  0.00000000000E+00 -0.00000000000E+00 -0.44154238214E+03  0.44154238214E+03  0.00000000000E+00 0. -1.
         23    2    1    2    0    0  0.20660666726E+02 -0.66212157409E+02 -0.19428891682E+03  0.23846652506E+03  0.11961265584E+03 0.  0.
         23    2    1    2    0    0 -0.45952478915E+01  0.78420430246E+02 -0.16079305208E+03  0.20035672960E+03  0.90097354661E+02 0.  0.
        -11    1    3    3    0    0  0.33706804233E+01 -0.92089846196E+02 -0.86915416635E+02  0.12667356041E+03  0.00000000000E+00 0. -1.
         11    1    3    3    0    0  0.17289986302E+02  0.25877688787E+02 -0.10737350018E+03  0.11179296465E+03  0.00000000000E+00 0.  1.
        -13    1    4    4    0    0  0.26612131566E+02  0.22487109997E+01 -0.82643795577E+02  0.86851938350E+02  0.00000000000E+00 0. -1.
         13    1    4    4    0    0 -0.31207379458E+02  0.76171719246E+02 -0.78149256503E+02  0.11350479125E+03  0.00000000000E+00 0.  1.
         21    1    1    2  502  501 -0.16065418834E+02 -0.12208272837E+02 -0.42307074103E+02  0.46872466621E+02  0.00000000000E+00 0. -1.
<scales pt_clust_5="13000.00000" pt_clust_6="13000.00000" pt_clust_7="13000.00000" pt_clust_8="13000.00000" pt_clust_9="20.17770"></scales>
<clustering>
<clus scale="   20.178">  2  9  1 -1</clus>
<clus scale="   90.097">  7  8 -1 -1</clus>
<clus scale="  116.485">  2  7  1 -1</clus>
<clus scale="  119.613">  5  6 -1 -1</clus>
<clus scale="   20.178">  2  5  1 -1</clus>
</clustering>
</event>
<event>
 9    1  0.1435532E-005  0.1167114E+03  0.7546771E-02  0.1249614E+00
          3   -1    0    0  502    0  0.00000000000E+00  0.00000000000E+00  0.12075788348E+03  0.12075788348E+03  0.00000000000E+00 0. -1.
         -3   -1    0    0    0  501 -0.00000000000E+00 -0.00000000000E+00 -0.17733975711E+03  0.17733975711E+03  0.00000000000E+00 0.  1.
         23    2    1    2    0    0 -0.44232257974E+02  0.64238767599E+02 -0.99159039902E+02  0.15690125480E+03  0.93286529867E+02 0.  0.
         23    2    1    2    0    0  0.37190463975E+02 -0.37955830945E+02  0.22164352345E+02  0.10718076299E+03  0.90402885617E+02 0.  0.
        -13    1    3    3    0    0 -0.47485334975E+02  0.84685200020E+02 -0.94895896166E+02  0.13576329124E+03  0.00000000000E+00 0.  1.
         13    1    3    3    0    0  0.32530770009E+01 -0.20446432421E+02 -0.42631437365E+01  0.21137963554E+02  0.00000000000E+00 0. -1.
        -13    1    4    4    0    0  0.55642970838E+02 -0.65405592068E+01  0.37745974780E+02  0.67554997821E+02  0.00000000000E+00 0. -1.
         13    1    4    4    0    0 -0.18452506864E+02 -0.31415271738E+02 -0.15581622435E+02  0.39625765174E+02  0.00000000000E+00 0.  1.
         21    1    1    2  502  501  0.70417939998E+01 -0.26282936654E+02  0.20412813933E+02  0.34015622801E+02  0.00000000000E+00 0. -1.
<scales pt_clust_5="13000.00000" pt_clust_6="13000.00000" pt_clust_7="13000.00000" pt_clust_8="13000.00000" pt_clust_9="27.20992"></scales>
<clustering>
<clus scale="   27.210">  1  9  2 -1</clus>
<clus scale="   90.403">  7  8 -1 -1</clus>
<clus scale="   93.287">  5  6 -1 -1</clus>
<clus scale="  114.420">  1  7  2 -1</clus>
<clus scale="   27.210">  1  5  2 -1</clus>
</clustering>
</event>
<event>
 9    1  0.1435532E-005  0.9718390E+02  0.7546771E-02  0.1291097E+00
         -1   -1    0    0    0  501 -0.00000000000E+00  0.00000000000E+00  0.87302505098E+02  0.87302505098E+02  0.00000000000E+00 0.  1.
          1   -1    0    0  502    0  0.00000000000E+00 -0.00000000000E+00 -0.30355771663E+03  0.30355771663E+03  0.00000000000E+00 0. -1.
         23    2    1    2    0    0 -0.25108253944E+02 -0.14577540200E+02 -0.30263264952E+00  0.97317605317E+02  0.92885389721E+02 0.  0.
         23    2    1    2    0    0  0.21536144482E+01  0.36267294592E+02 -0.18403699761E+02  0.93485323212E+02  0.84147815058E+02 0.  0.
        -11    1    3    3    0    0  0.11540380557E+02  0.25472062221E+02  0.24920310221E+02  0.37457018017E+02  0.00000000000E+00 0.  1.
         11    1    3    3    0    0 -0.36648634501E+02 -0.40049602421E+02 -0.25222942871E+02  0.59860587300E+02  0.00000000000E+00 0. -1.
        -13    1    4    4    0    0 -0.51427141825E+01 -0.24517689222E+02  0.87186774668E+01  0.26525081163E+02  0.00000000000E+00 0.  1.
         13    1    4    4    0    0  0.72963286307E+01  0.60784983814E+02 -0.27122377227E+02  0.66960242049E+02  0.00000000000E+00 0. -1.
         21    1    1    2  502  501  0.22954639496E+02 -0.21689754392E+02 -0.19754887912E+03  0.20005729320E+03  0.00000000000E+00 0.  1.
<scales pt_clust_5="13000.00000" pt_clust_6="13000.00000" pt_clust_7="13000.00000" pt_clust_8="13000.00000" pt_clust_9="31.58102"></scales>
<clustering>
<clus scale="   31.581">  2  9  1 -1</clus>
<clus scale="   84.148">  7  8 -1 -1</clus>
<clus scale="   88.870">  2  7  1 -1</clus>
<clus scale="   92.885">  5  6 -1 -1</clus>
<clus scale="   31.581">  2  5  1 -1</clus>
</clustering>
</event>
<event>
 9    1  0.1435532E-005  0.1032673E+03  0.7546771E-02  0.1278135E+00
          1   -1    0    0  502    0  0.00000000000E+00  0.00000000000E+00  0.23847156299E+03  0.23847156299E+03  0.00000000000E+00 0. -1.
         -1   -1    0    0    0  501 -0.00000000000E+00 -0.00000000000E+00 -0.12067999535E+03  0.12067999535E+03  0.00000000000E+00 0.  1.
         23    2    1    2    0    0  0.38318129105E+02  0.20942499797E+01 -0.32151038866E+02  0.10183836984E+03  0.88683140288E+02 0.  0.
         23    2    1    2    0    0 -0.23461812387E+02  0.20264768725E+02 -0.23480445029E+01  0.10267464786E+03  0.97854241137E+02 0.  0.
        -11    1    3    3    0    0  0.64834823263E+02  0.15355717157E+02 -0.18184286785E+02  0.69065336044E+02  0.00000000000E+00 0.  1.
         11    1    3    3    0    0 -0.26516694159E+02 -0.13261467177E+02 -0.13966752080E+02  0.32773033800E+02  0.00000000000E+00 0. -1.
        -13    1    4    4    0    0  0.72287310164E+00 -0.28948516320E+02  0.27763111888E+02  0.40116449548E+02  0.00000000000E+00 0. -1.
         13    1    4    4    0    0 -0.24184685488E+02  0.49213285045E+02 -0.30111156390E+02  0.62558198314E+02  0.00000000000E+00 0.  1.
         21    1    1    2  502  501 -0.14856316718E+02 -0.22359018705E+02  0.15229065101E+03  0.15463854063E+03  0.00000000000E+00 0.  1.
<scales pt_clust_5="13000.00000" pt_clust_6="13000.00000" pt_clust_7="13000.00000" pt_clust_8="13000.00000" pt_clust_9="26.84466"></scales>
<clustering>
<clus scale="   26.845">  1  9  2 -1</clus>
<clus scale="   88.683">  5  6 -1 -1</clus>
<clus scale="   94.622">  2  5  1 -1</clus>
<clus scale="   97.854">  7  8 -1 -1</clus>
<clus scale="   26.845">  1  5  2 -1</clus>
</clustering>
</event>
<event>
 9    1  0.1435532E-005  0.1048401E+03  0.7546771E-02  0.1270739E+00
          2   -1    0    0  502    0  0.00000000000E+00  0.00000000000E+00  0.42656405265E+03  0.42656405265E+03  0.00000000000E+00 0. -1.
         -2   -1    0    0    0  501 -0.00000000000E+00 -0.00000000000E+00 -0.73734672481E+02  0.73734672481E+02  0.00000000000E+00 0.  1.
         23    2    1    2    0    0 -0.50950984400E+02  0.23539058138E+02 -0.17724744705E+02  0.10736204242E+03  0.89790598109E+02 0.  0.
         23    2    1    2    0    0  0.26810252407E+02 -0.10186983025E+02  0.33344276585E+03  0.34669486376E+03  0.90502409932E+02 0.  0.
        -13    1    3    3    0    0  0.16593880972E+02  0.26435293333E+02  0.12091572233E+02  0.33472193510E+02  0.00000000000E+00 0. -1.
         13    1    3    3    0    0 -0.67544865372E+02 -0.28962351951E+01 -0.29816316938E+02  0.73889848911E+02  0.00000000000E+00 0.  1.
        -13    1    4    4    0    0  0.59434957300E+02 -0.12109395568E+02  0.24531126004E+03  0.25269896302E+03  0.00000000000E+00 0. -1.
         13    1    4    4    0    0 -0.32624704893E+02  0.19224125428E+01  0.88131505816E+02  0.93995900745E+02  0.00000000000E+00 0.  1.
         21    1    1    2  502  501  0.24140731993E+02 -0.13352075113E+02  0.37111359017E+02  0.46241818942E+02  0.00000000000E+00 0.  1.
<scales pt_clust_5="13000.00000" pt_clust_6="13000.00000" pt_clust_7="13000.00000" pt_clust_8="13000.00000" pt_clust_9="27.58719"></scales>
<clustering>
<clus scale="   27.587">  1  9  2 -1</clus>
<clus scale="   89.791">  5  6 -1 -1</clus>
<clus scale="   90.502">  7  8 -1 -1</clus>
<clus scale="  104.226">  2  5  1 -1</clus>
<clus scale="   27.587">  1  5  2 -1</clus>
</clustering>
</event>
<event>
 9    1  0.1435532E-005  0.1026049E+03  0.7546771E-02  0.1286402E+00
          1   -1    0    0  502    0  0.00000000000E+00  0.00000000000E+00  0.27593542821E+03  0.27593542821E+03  0.00000000000E+00 0. -1.
         -1   -1    0    0    0  501 -0.00000000000E+00 -0.00000000000E+00 -0.73309667081E+02  0.73309667081E+02  0.00000000000E+00 0.  1.
         23    2    1    2    0    0  0.21550437225E+02  0.21419574650E+02  0.26523960138E+01  0.10147111080E+03  0.96778776599E+02 0.  0.
         23    2    1    2    0    0 -0.46794720407E+02 -0.24914673519E+01  0.66752941041E+02  0.11086807348E+03  0.75098743742E+02 0.  0.
        -11    1    4    4    0    0 -0.63552005917E+02  0.12450698154E+02  0.57433313912E+02  0.86559013902E+02  0.00000000000E+00 0. -1.
         11    1    4    4    0    0  0.16757285510E+02 -0.14942165506E+02  0.93196271291E+01  0.24309059577E+02  0.00000000000E+00 0.  1.
        -13    1    3    3    0    0  0.13217669127E+02 -0.37984206028E+02  0.88057573936E+01  0.41170961223E+02  0.00000000000E+00 0. -1.
         13    1    3    3    0    0  0.83327680980E+01  0.59403780678E+02 -0.61533613798E+01  0.60300149579E+02  0.00000000000E+00 0.  1.
         21    1    1    2  502  501  0.25244283182E+02 -0.18928107298E+02  0.13322042407E+03  0.13690591101E+03  0.00000000000E+00 0. -1.
<scales pt_clust_5="13000.00000" pt_clust_6="13000.00000" pt_clust_7="13000.00000" pt_clust_8="13000.00000" pt_clust_9="31.55229"></scales>
<clustering>
<clus scale="   31.552">  1  9  2 -1</clus>
<clus scale="   75.099">  5  6 -1 -1</clus>
<clus scale="   82.471">  1  5  2 -1</clus>
<clus scale="   96.779">  7  8 -1 -1</clus>
<clus scale="   31.552">  1  5  2 -1</clus>
</clustering>
</event>
<event>
 9    1  0.1435532E-005  0.1030086E+03  0.7546771E-02  0.1276437E+00
         -2   -1    0    0    0  501 -0.00000000000E+00  0.00000000000E+00  0.30813881424E+03  0.30813881424E+03  0.00000000000E+00 0.  1.
          2   -1    0    0  502    0  0.00000000000E+00 -0.00000000000E+00 -0.57516368476E+02  0.57516368476E+02  0.00000000000E+00 0. -1.
         23    2    1    2    0    0 -0.49069833450E+02 -0.24231710917E+02  0.21938881452E+03  0.24369304931E+03  0.90883584745E+02 0.  0.
         23    2    1    2    0    0  0.25776357358E+02  0.13133485904E+02  0.15629345147E+02  0.91808354680E+02  0.85718075741E+02 0.  0.
        -13    1    3    3    0    0 -0.17082119837E+02  0.31432357641E+02  0.12127275792E+03  0.12643920965E+03  0.00000000000E+00 0.  1.
         13    1    3    3    0    0 -0.31987713612E+02 -0.55664068558E+02  0.98116056602E+02  0.11725383965E+03  0.00000000000E+00 0. -1.
        -13    1    4    4    0    0 -0.26591131560E+02 -0.14734775777E+02  0.10912882849E+02  0.32300044998E+02  0.00000000000E+00 0. -1.
         13    1    4    4    0    0  0.52367488917E+02  0.27868261681E+02  0.47164622985E+01  0.59508309682E+02  0.00000000000E+00 0.  1.
         21    1    1    2  502  501  0.23293476092E+02  0.11098225013E+02  0.15604286098E+02  0.30153778727E+02  0.00000000000E+00 0.  1.
<scales pt_clust_5="13000.00000" pt_clust_6="13000.00000" pt_clust_7="13000.00000" pt_clust_8="13000.00000" pt_clust_9="25.80226"></scales>
<clustering>
<clus scale="   25.802">  2  9  1 -1</clus>
<clus scale="   85.718">  7  8 -1 -1</clus>
<clus scale="   90.884">  5  6 -1 -1</clus>
<clus scale="   98.481">  2  7  1 -1</clus>
<clus scale="   25.802">  2  5  1 -1</clus>
</clustering>
</event>
<event>
 9    1  0.1435532E-005  0.1173173E+03  0.7546771E-02  0.1250265E+00
         -2   -1    0    0    0  501 -0.00000000000E+00  0.00000000000E+00  0.14324194612E+03  0.14324194612E+03  0.00000000000E+00 0.  1.
          2   -1    0    0  502    0  0.00000000000E+00 -0.00000000000E+00 -0.26133639786E+03  0.26133639786E+03  0.00000000000E+00 0. -1.
         23    2    1    2    0    0  0.78956884024E+02  0.85648971922E+01  0.44975221159E+02  0.13109771258E+03  0.94107878133E+02 0.  0.
         23    2    1    2    0    0 -0.54900243047E+02  0.41597288275E+02 -0.10356990288E+02  0.11095023345E+03  0.86361542234E+02 0.  0.
        -11    1    4    4    0    0  0.15455025252E+02  0.36793102559E+02 -0.23204685906E+01  0.39974676683E+02  0.00000000000E+00 0.  1.
         11    1    4    4    0    0 -0.70355268299E+02  0.48041857166E+01 -0.80365216974E+01  0.70975556770E+02  0.00000000000E+00 0. -1.
        -13    1    3    3    0    0  0.22262936821E+02  0.43732877215E+02  0.41538571978E+02  0.64293513416E+02  0.00000000000E+00 0. -1.
         13    1    3    3    0    0  0.56693947203E+02 -0.35167980023E+02  0.34366491811E+01  0.66804199164E+02  0.00000000000E+00 0.  1.
         21    1    1    2  502  501 -0.24056640977E+02 -0.50162185468E+02 -0.15271268261E+03  0.16253039795E+03  0.00000000000E+00 0. -1.
<scales pt_clust_5="13000.00000" pt_clust_6="13000.00000" pt_clust_7="13000.00000" pt_clust_8="13000.00000" pt_clust_9="55.63243"></scales>
<clustering>
<clus scale="   55.632">  2  9  1 -1</clus>
<clus scale="   86.362">  5  6 -1 -1</clus>
<clus scale="   94.108">  7  8 -1 -1</clus>
<clus scale="  111.200">  2  5  1 -1</clus>
<clus scale="   55.632">  2  5  1 -1</clus>
</clustering>
</event>
<event>
 9    1  0.1435532E-005  0.1009085E+03  0.7546771E-02  0.1278777E+00
         -1   -1    0    0    0  501 -0.00000000000E+00  0.00000000000E+00  0.34063844895E+02  0.34063844895E+02  0.00000000000E+00 0.  1.
          1   -1    0    0  502    0  0.00000000000E+00 -0.00000000000E+00 -0.42478537083E+03  0.42478537083E+03  0.00000000000E+00 0. -1.
         23    2    1    2    0    0  0.39753356752E+02 -0.20177761545E+02 -0.96138360325E+02  0.14046634305E+03  0.92199445599E+02 0.  0.
         23    2    1    2    0    0 -0.36984964790E+02 -0.56139214940E+00 -0.22348327487E+03  0.24426829278E+03  0.91400338787E+02 0.  0.
        -13    1    3    3    0    0  0.47106546306E+02  0.15410790031E+02 -0.91192462467E+02  0.10379106110E+03  0.00000000000E+00 0. -1.
         13    1    3    3    0    0 -0.73531895538E+01 -0.35588551576E+02 -0.49458978577E+01  0.36675281942E+02  0.00000000000E+00 0.  1.
        -13    1    4    4    0    0 -0.10078024809E+01 -0.42053254199E+02 -0.11926619611E+03  0.12646706049E+03  0.00000000000E+00 0.  1.
         13    1    4    4    0    0 -0.35977162309E+02  0.41491862050E+02 -0.10421707876E+03  0.11780123230E+03  0.00000000000E+00 0. -1.
         21    1    1    2  502  501 -0.27683919627E+01  0.20739153694E+02 -0.71099890741E+02  0.74114579897E+02  0.00000000000E+00 0. -1.
<scales pt_clust_5="13000.00000" pt_clust_6="13000.00000" pt_clust_7="13000.00000" pt_clust_8="13000.00000" pt_clust_9="20.92311"></scales>
<clustering>
<clus scale="   20.923">  2  9  1 -1</clus>
<clus scale="   91.400">  7  8 -1 -1</clus>
<clus scale="   92.199">  5  6 -1 -1</clus>
<clus scale="  100.179">  2  7  1 -1</clus>
<clus scale="   20.923">  2  5  1 -1</clus>
</clustering>
</event>
<event>
 9    1  0.1435532E-005  0.1617306E+03  0.7546771E-02  0.1196368E+00
          1   -1    0    0  502    0  0.00000000000E+00  0.00000000000E+00  0.94311722658E+02  0.94311722658E+02  0.00000000000E+00 0. -1.
         -1   -1    0    0    0  501 -0.00000000000E+00 -0.00000000000E+00 -0.56667575927E+03  0.56667575927E+03  0.00000000000E+00 0.  1.
         23    2    1    2    0    0 -0.98311620658E+02 -0.85701953220E+02 -0.25479637290E+03  0.30257215634E+03  0.98075066176E+02 0.  0.
         23    2    1    2    0    0 -0.48989829251E+02  0.89425177333E+02 -0.64295909662E+02  0.14580344885E+03  0.82023264903E+02 0.  0.
        -13    1    4    4    0    0 -0.27827068347E+02  0.63789492746E+02  0.41433387954E+01  0.69718092156E+02  0.00000000000E+00 0. -1.
         13    1    4    4    0    0 -0.21162760905E+02  0.25635684588E+02 -0.68439248458E+02  0.76085356691E+02  0.00000000000E+00 0.  1.
        -13    1    3    3    0    0 -0.17836329604E+02 -0.80502390466E+02 -0.12391992265E+03  0.14884527790E+03  0.00000000000E+00 0.  1.
         13    1    3    3    0    0 -0.80475291054E+02 -0.51995627539E+01 -0.13087645025E+03  0.15372687844E+03  0.00000000000E+00 0. -1.
         21    1    1    2  502  501  0.14730144991E+03 -0.37232241133E+01 -0.15327175405E+03  0.21261187674E+03  0.00000000000E+00 0. -1.
<scales pt_clust_5="13000.00000" pt_clust_6="13000.00000" pt_clust_7="13000.00000" pt_clust_8="13000.00000" pt_clust_9="128.60045"></scales>
<clustering>
<clus scale="   82.023">  5  6 -1 -1</clus>
<clus scale="   98.075">  7  8 -1 -1</clus>
<clus scale="  130.861">  1  5  2 -1</clus>
<clus scale="  128.600">  1  9  2 -1</clus>
<clus scale="  130.861">  1  5  2 -1</clus>
</clustering>
</event>
<event>
 9    1  0.1435532E-005  0.1039129E+03  0.7546771E-02  0.1273713E+00
          1   -1    0    0  502    0  0.00000000000E+00  0.00000000000E+00  0.40878612337E+03  0.40878612337E+03  0.00000000000E+00 0. -1.
         -1   -1    0    0    0  501 -0.00000000000E+00 -0.00000000000E+00 -0.56406927349E+02  0.56406927349E+02  0.00000000000E+00 0.  1.
         23    2    1    2    0    0  0.35715571734E+02 -0.44523231091E+02  0.62750393577E+02  0.12652134195E+03  0.93872881621E+02 0.  0.
         23    2    1    2    0    0 -0.46499238442E+02 -0.25124402759E+02  0.16887274447E+03  0.19885359154E+03  0.90726689860E+02 0.  0.
        -13    1    3    3    0    0  0.34892344527E+02 -0.19641419566E+02  0.84472238542E+02  0.93481656775E+02  0.00000000000E+00 0. -1.
         13    1    3    3    0    0  0.82322720652E+00 -0.24881811525E+02 -0.21721844965E+02  0.33039685175E+02  0.00000000000E+00 0.  1.
        -13    1    4    4    0    0 -0.66198733071E+02  0.71298303492E+01  0.97048550952E+02  0.11769251456E+03  0.00000000000E+00 0. -1.
         13    1    4    4    0    0  0.19699494629E+02 -0.32254233108E+02  0.71824193521E+02  0.81161076982E+02  0.00000000000E+00 0.  1.
         21    1    1    2  502  501  0.10783666709E+02  0.69647633849E+02  0.12075605797E+03  0.13981811723E+03  0.00000000000E+00 0. -1.
<scales pt_clust_5="13000.00000" pt_clust_6="13000.00000" pt_clust_7="13000.00000" pt_clust_8="13000.00000" pt_clust_9="70.47752"></scales>
<clustering>
<clus scale="   70.478">  1  9  2 -1</clus>
<clus scale="   90.727">  7  8 -1 -1</clus>
<clus scale="   93.873">  5  6 -1 -1</clus>
<clus scale="  101.080">  1  7  2 -1</clus>
<clus scale="   70.478">  1  5  2 -1</clus>
</clustering>
</event>
<event>
 9    1  0.1435532E-005  0.9894892E+02  0.7546771E-02  0.1283651E+00
          1   -1    0    0  502    0  0.00000000000E+00  0.00000000000E+00  0.19896286075E+03  0.19896286075E+03  0.00000000000E+00 0. -1.
         -1   -1    0    0    0  501 -0.00000000000E+00 -0.00000000000E+00 -0.34713943491E+03  0.34713943491E+03  0.00000000000E+00 0.  1.
         23    2    1    2    0    0 -0.24362788908E+02  0.18436925153E+02 -0.26404465898E+03  0.28130226702E+03  0.92075609134E+02 0.  0.
         23    2    1    2    0    0  0.75723319529E+02 -0.91362370515E+02  0.75810147687E+02  0.16702138571E+03  0.89821272129E+02 0.  0.
        -11    1    4    4    0    0  0.44330857068E+02 -0.86961033401E+02  0.89557913063E+02  0.13246911342E+03  0.00000000000E+00 0. -1.
         11    1    4    4    0    0  0.31392462461E+02 -0.44013371136E+01 -0.13747765375E+02  0.34552272292E+02  0.00000000000E+00 0.  1.
        -11    1    3    3    0    0  0.20467793513E+02 -0.22449875099E+02 -0.47224236481E+02  0.56152078986E+02  0.00000000000E+00 0. -1.
         11    1    3    3    0    0 -0.44830582421E+02  0.40886800253E+02 -0.21682042250E+03  0.22515018803E+03  0.00000000000E+00 0.  1.
         21    1    1    2  502  501 -0.51360530621E+02  0.72925445361E+02  0.40057937135E+02  0.97778642935E+02  0.00000000000E+00 0.  1.
<scales pt_clust_5="13000.00000" pt_clust_6="13000.00000" pt_clust_7="13000.00000" pt_clust_8="13000.00000" pt_clust_9="89.19655"></scales>
<clustering>
<clus scale="   89.197">  1  9  2 -1</clus>
<clus scale="   89.821">  5  6 -1 -1</clus>
<clus scale="   92.076">  7  8 -1 -1</clus>
<clus scale="   96.855">  1  5  2 -1</clus>
<clus scale="   89.197">  1  5  2 -1</clus>
</clustering>
</event>
<event>
 9    1  0.1435532E-005  0.9722124E+02  0.7546771E-02  0.1286924E+00
          2   -1    0    0  502    0  0.00000000000E+00  0.00000000000E+00  0.87151997075E+02  0.87151997075E+02  0.00000000000E+00 0. -1.
         -2   -1    0    0    0  501 -0.00000000000E+00 -0.00000000000E+00 -0.30713348385E+03  0.30713348385E+03  0.00000000000E+00 0.  1.
         23    2    1    2    0    0  0.18121189855E+02 -0.11971302965E+02 -0.13559314152E+03  0.16449342477E+03  0.90558804930E+02 0.  0.
         23    2    1    2    0    0 -0.28591866074E+02  0.33833999002E+02 -0.13762793514E+03  0.17129362481E+03  0.91857623931E+02 0.  0.
        -11    1    3    3    0    0  0.46645489421E+02  0.19582753896E+02 -0.73188296518E+02  0.88970852984E+02  0.00000000000E+00 0.  1.
         11    1    3    3    0    0 -0.28524299566E+02 -0.31554056861E+02 -0.62404844998E+02  0.75522571787E+02  0.00000000000E+00 0. -1.
        -13    1    4    4    0    0  0.40767080322E+01  0.49909162513E+02 -0.12161036154E+03  0.13151663045E+03  0.00000000000E+00 0.  1.
         13    1    4    4    0    0 -0.32668574107E+02 -0.16075163511E+02 -0.16017573602E+02  0.39776994358E+02  0.00000000000E+00 0. -1.
         21    1    1    2  502  501  0.10470676219E+02 -0.21862696037E+02  0.53239589885E+02  0.58498431343E+02  0.00000000000E+00 0. -1.
<scales pt_clust_5="13000.00000" pt_clust_6="13000.00000" pt_clust_7="13000.00000" pt_clust_8="13000.00000" pt_clust_9="24.24072"></scales>
<clustering>
<clus scale="   24.241">  1  9  2 -1</clus>
<clus scale="   90.559">  5  6 -1 -1</clus>
<clus scale="   91.858">  7  8 -1 -1</clus>
<clus scale="   95.995">  2  5  1 -1</clus>
<clus scale="   24.241">  1  5  2 -1</clus>
</clustering>
</event>
<event>
 9    1  0.1435532E-005  0.1015425E+03  0.7546771E-02  0.1277323E+00
          2   -1    0    0  502    0  0.00000000000E+00  0.00000000000E+00  0.76983339678E+03  0.76983339678E+03  0.00000000000E+00 0. -1.
         -2   -1    0    0    0  501 -0.00000000000E+00 -0.00000000000E+00 -0.19622161187E+03  0.19622161187E+03  0.00000000000E+00 0.  1.
         23    2    1    2    0    0 -0.45000590001E+02  0.32912944746E+01 -0.17412949822E+03  0.20200323572E+03  0.91914848496E+02 0.  0.
         23    2    1    2    0    0 -0.63173294671E+01 -0.18740174811E+02  0.33372252527E+03  0.34657874552E+03  0.91405690036E+02 0.  0.
        -11    1    4    4    0    0 -0.33097041546E+01 -0.55912972576E+02  0.18865974763E+03  0.19679866620E+03  0.00000000000E+00 0.  1.
         11    1    4    4    0    0 -0.30076253126E+01  0.37172797765E+02  0.14506277764E+03  0.14978007932E+03  0.00000000000E+00 0. -1.
        -13    1    3    3    0    0 -0.66513344814E+02  0.21385395207E+01 -0.16623190978E+03  0.17905766171E+03  0.00000000000E+00 0.  1.
         13    1    3    3    0    0  0.21512754812E+02  0.11527549539E+01 -0.78975884396E+01  0.22945574012E+02  0.00000000000E+00 0. -1.
         21    1    1    2  502  501  0.51317919469E+02  0.15448880336E+02  0.41401875785E+03  0.41747302741E+03  0.00000000000E+00 0.  1.
<scales pt_clust_5="13000.00000" pt_clust_6="13000.00000" pt_clust_7="13000.00000" pt_clust_8="13000.00000" pt_clust_9="53.59288"></scales>
<clustering>
<clus scale="   53.593">  1  9  2 -1</clus>
<clus scale="   91.406">  5  6 -1 -1</clus>
<clus scale="   91.915">  7  8 -1 -1</clus>
<clus scale="  101.082">  1  5  2 -1</clus>
<clus scale="   53.593">  1  5  2 -1</clus>
</clustering>
</event>
<event>
 9    1  0.1435532E-005  0.1800284E+03  0.7546771E-02  0.1168554E+00
          1   -1    0    0  502    0  0.00000000000E+00  0.00000000000E+00  0.29822723800E+03  0.29822723800E+03  0.00000000000E+00 0. -1.
         -1   -1    0    0    0  501 -0.00000000000E+00 -0.00000000000E+00 -0.19250330232E+03  0.19250330232E+03  0.00000000000E+00 0.  1.
         23    2    1    2    0    0  0.10561450207E+03  0.10670016582E+03 -0.90890404833E+02  0.19780077686E+03  0.91239975914E+02 0.  0.
         23    2    1    2    0    0 -0.13116869980E+03 -0.89837248116E+02  0.16506713607E+03  0.24896840403E+03  0.97273572152E+02 0.  0.
        -13    1    3    3    0    0  0.10047035022E+03  0.54758804490E+02 -0.90033542808E+02  0.14559827187E+03  0.00000000000E+00 0.  1.
         13    1    3    3    0    0  0.51441518492E+01  0.51941361326E+02 -0.85686202559E+00  0.52202504990E+02  0.00000000000E+00 0. -1.
        -13    1    4    4    0    0 -0.10285623280E+03 -0.44944854758E+02  0.51268321292E+02  0.12340131832E+03  0.00000000000E+00 0.  1.
         13    1    4    4    0    0 -0.28312466998E+02 -0.44892393358E+02  0.11379881478E+03  0.12556708571E+03  0.00000000000E+00 0. -1.
         21    1    1    2  502  501  0.25554197729E+02 -0.16862917701E+02  0.31547204440E+02  0.43961359430E+02  0.00000000000E+00 0.  1.
<scales pt_clust_5="13000.00000" pt_clust_6="13000.00000" pt_clust_7="13000.00000" pt_clust_8="13000.00000" pt_clust_9="30.61658"></scales>
<clustering>
<clus scale="   30.617">  1  9  2 -1</clus>
<clus scale="   91.240">  5  6 -1 -1</clus>
<clus scale="   97.274">  7  8 -1 -1</clus>
<clus scale="  176.841">  2  5  1 -1</clus>
<clus scale="   30.617">  1  5  2 -1</clus>
</clustering>
</event>
<event>
 9    1  0.1435532E-005  0.9221754E+02  0.7546771E-02  0.1297934E+00
         -1   -1    0    0    0  501 -0.00000000000E+00  0.00000000000E+00  0.11717186647E+03  0.11717186647E+03  0.00000000000E+00 0.  1.
          1   -1    0    0  502    0  0.00000000000E+00 -0.00000000000E+00 -0.14962023246E+03  0.14962023246E+03  0.00000000000E+00 0. -1.
         23    2    1    2    0    0 -0.21689579576E+02  0.25411865015E+02  0.63095577343E+02  0.11451007096E+03  0.89528228655E+02 0.  0.
         23    2    1    2    0    0  0.29551481341E+01 -0.16846695660E+02 -0.94391325307E+02  0.13165026663E+03  0.90163886096E+02 0.  0.
        -13    1    3    3    0    0  0.23657906556E+02  0.55962374077E+01 -0.99590272892E+01  0.26271593790E+02  0.00000000000E+00 0. -1.
         13    1    3    3    0    0 -0.45347486132E+02  0.19815627608E+02  0.73054604632E+02  0.88238477174E+02  0.00000000000E+00 0.  1.
        -13    1    4    4    0    0  0.94120552421E+01 -0.42897731207E+02 -0.12781306643E+02  0.45740178466E+02  0.00000000000E+00 0. -1.
         13    1    4    4    0    0 -0.64569071080E+01  0.26051035547E+02 -0.81610018664E+02  0.85910088166E+02  0.00000000000E+00 0.  1.
         21    1    1    2  502  501  0.18734431442E+02 -0.85651693552E+01 -0.11526180228E+01  0.20631761336E+02  0.00000000000E+00 0.  1.
<scales pt_clust_5="13000.00000" pt_clust_6="13000.00000" pt_clust_7="13000.00000" pt_clust_8="13000.00000" pt_clust_9="20.59954"></scales>
<clustering>
<clus scale="   20.600">  1  9  2 -1</clus>
<clus scale="   89.528">  5  6 -1 -1</clus>
<clus scale="   90.164">  7  8 -1 -1</clus>
<clus scale="   91.596">  1  5  2 -1</clus>
<clus scale="   92.218">  2  5  1 -1</clus>
</clustering>
</event>
<event>
 9    1  0.1435532E-005  0.1313214E+03  0.7546771E-02  0.1226402E+00
          2   -1    0    0  502    0  0.00000000000E+00  0.00000000000E+00  0.25277177339E+03  0.25277177339E+03  0.00000000000E+00 0. -1.
         -2   -1    0    0    0  501 -0.00000000000E+00 -0.00000000000E+00 -0.11555593573E+03  0.11555593573E+03  0.00000000000E+00 0.  1.
         23    2    1    2    0    0  0.95587469798E+00 -0.87807711078E+02 -0.31278920403E+02  0.12908420815E+03  0.89293079859E+02 0.  0.
         23    2    1    2    0    0 -0.96302976006E+01  0.11106206434E+03  0.14304857730E+03  0.20369749312E+03  0.92748307099E+02 0.  0.
        -11    1    4    4    0    0 -0.20513371514E+02  0.48976854807E+02  0.12845657844E+03  0.13899864483E+03  0.00000000000E+00 0. -1.
         11    1    4    4    0    0  0.10883073914E+02  0.62085209532E+02  0.14591998857E+02  0.64698848298E+02  0.00000000000E+00 0.  1.
        -13    1    3    3    0    0  0.27285907065E+02 -0.88750847686E+02 -0.40322840454E+02  0.10122828237E+03  0.00000000000E+00 0.  1.
         13    1    3    3    0    0 -0.26330032367E+02  0.94313660748E+00  0.90439200515E+01  0.27855925779E+02  0.00000000000E+00 0. -1.
         21    1    1    2  502  501  0.86744229026E+01 -0.23254353261E+02  0.25446180763E+02  0.35546007845E+02  0.00000000000E+00 0. -1.
<scales pt_clust_5="13000.00000" pt_clust_6="13000.00000" pt_clust_7="13000.00000" pt_clust_8="13000.00000" pt_clust_9="24.81956"></scales>
<clustering>
<clus scale="   24.820">  1  9  2 -1</clus>
<clus scale="   89.293">  7  8 -1 -1</clus>
<clus scale="   92.748">  5  6 -1 -1</clus>
<clus scale="  128.904">  2  7  1 -1</clus>
<clus scale="   24.820">  1  5  2 -1</clus>
</clustering>
</event>
<event>
 9    1  0.1435532E-005  0.1573949E+03  0.7546771E-02  0.1191827E+00
         -2   -1    0    0    0  501 -0.00000000000E+00  0.00000000000E+00  0.24152266097E+03  0.24152266097E+03  0.00000000000E+00 0.  1.
          2   -1    0    0  502    0  0.00000000000E+00 -0.00000000000E+00 -0.26080654894E+03  0.26080654894E+03  0.00000000000E+00 0. -1.
         23    2    1    2    0    0  0.84783312083E+02 -0.81110778593E+02  0.11059459325E+03  0.18530411017E+03  0.91319662596E+02 0.  0.
         23    2    1    2    0    0 -0.97316210779E+02  0.12046261562E+03  0.14993155677E+01  0.17930884756E+03  0.90375484644E+02 0.  0.
        -11    1    4    4    0    0 -0.10879985490E+03  0.87754609313E+02  0.17969583336E+02  0.14092971939E+03  0.00000000000E+00 0.  1.
         11    1    4    4    0    0  0.11483644122E+02  0.32708006307E+02 -0.16470267768E+02  0.38379128172E+02  0.00000000000E+00 0. -1.
        -11    1    3    3    0    0  0.70086196746E+02 -0.17297611605E+02  0.22653234729E+02  0.75660104317E+02  0.00000000000E+00 0.  1.
         11    1    3    3    0    0  0.14697115337E+02 -0.63813166989E+02  0.87941358519E+02  0.10964400585E+03  0.00000000000E+00 0. -1.
         21    1    1    2  502  501  0.12532898696E+02 -0.39351837027E+02 -0.13137779678E+03  0.13771625218E+03  0.00000000000E+00 0. -1.
<scales pt_clust_5="13000.00000" pt_clust_6="13000.00000" pt_clust_7="13000.00000" pt_clust_8="13000.00000" pt_clust_9="41.29940"></scales>
<clustering>
<clus scale="   41.299">  2  9  1 -1</clus>
<clus scale="   90.375">  5  6 -1 -1</clus>
<clus scale="   91.320">  7  8 -1 -1</clus>
<clus scale="  156.849">  2  5  1 -1</clus>
<clus scale="   41.299">  2  5  1 -1</clus>
</clustering>
</event>
<event>
 9    1  0.1435532E-005  0.9774905E+02  0.7546771E-02  0.1286161E+00
          2   -1    0    0  502    0  0.00000000000E+00  0.00000000000E+00  0.15970300316E+02  0.15970300316E+02  0.00000000000E+00 0. -1.
         -2   -1    0    0    0  501 -0.00000000000E+00 -0.00000000000E+00 -0.73748511090E+03  0.73748511090E+03  0.00000000000E+00 0.  1.
         23    2    1    2    0    0  0.10520709585E+02 -0.40781567175E+02 -0.35027414467E+03  0.36419444942E+03  0.90398003340E+02 0.  0.
         23    2    1    2    0    0 -0.11878837366E+02  0.20768270278E+02 -0.27979281641E+03  0.29563892518E+03  0.92444178486E+02 0.  0.
        -11    1    4    4    0    0  0.37075549294E+02  0.19056138185E+02 -0.17597694015E+03  0.18084694142E+03  0.00000000000E+00 0.  1.
         11    1    4    4    0    0 -0.48954386660E+02  0.17121320929E+01 -0.10381587626E+03  0.11479198375E+03  0.00000000000E+00 0. -1.
        -13    1    3    3    0    0 -0.38282133190E+02 -0.17543009081E+02 -0.20281367141E+03  0.20713923868E+03  0.00000000000E+00 0. -1.
         13    1    3    3    0    0  0.48802842775E+02 -0.23238558094E+02 -0.14746047326E+03  0.15705521074E+03  0.00000000000E+00 0.  1.
         21    1    1    2  502  501  0.13581277815E+01  0.20013296897E+02 -0.91447849497E+02  0.93622036623E+02  0.00000000000E+00 0. -1.
<scales pt_clust_5="13000.00000" pt_clust_6="13000.00000" pt_clust_7="13000.00000" pt_clust_8="13000.00000" pt_clust_9="20.05933"></scales>
<clustering>
<clus scale="   20.059">  2  9  1 -1</clus>
<clus scale="   90.398">  7  8 -1 -1</clus>
<clus scale="   92.444">  5  6 -1 -1</clus>
<clus scale="   95.816">  2  7  1 -1</clus>
<clus scale="   97.749">  1  5  2 -1</clus>
</clustering>
</event>
<event>
 9    1  0.1435532E-005  0.1373517E+03  0.7546771E-02  0.1235610E+00
         -1   -1    0    0    0  501 -0.00000000000E+00  0.00000000000E+00  0.11757022746E+03  0.11757022746E+03  0.00000000000E+00 0.  1.
          1   -1    0    0  502    0  0.00000000000E+00 -0.00000000000E+00 -0.28693665190E+03  0.28693665190E+03  0.00000000000E+00 0. -1.
         23    2    1    2    0    0  0.91377245465E+02 -0.47070361649E+02  0.11143910479E+02  0.13836588694E+03  0.91953857958E+02 0.  0.
         23    2    1    2    0    0 -0.13211723440E+02 -0.18992763318E+02 -0.88802992486E+02  0.12872038999E+03  0.90264570183E+02 0.  0.
        -11    1    4    4    0    0 -0.31298562096E+02 -0.47362423415E+02 -0.70176385115E+02  0.90263637024E+02  0.00000000000E+00 0. -1.
         11    1    4    4    0    0  0.18086838656E+02  0.28369660097E+02 -0.18626607370E+02  0.38456752967E+02  0.00000000000E+00 0.  1.
        -13    1    3    3    0    0  0.89314809120E+02 -0.24222662118E+02  0.40578911853E+02  0.10104712057E+03  0.00000000000E+00 0.  1.
         13    1    3    3    0    0  0.20624363452E+01 -0.22847699531E+02 -0.29435001374E+02  0.37318766370E+02  0.00000000000E+00 0. -1.
         21    1    1    2  502  501 -0.78165522025E+02  0.66063124967E+02 -0.91707342432E+02  0.13742060242E+03  0.00000000000E+00 0. -1.
<scales pt_clust_5="13000.00000" pt_clust_6="13000.00000" pt_clust_7="13000.00000" pt_clust_8="13000.00000" pt_clust_9="102.02927"></scales>
<clustering>
<clus scale="   90.265">  5  6 -1 -1</clus>
<clus scale="   91.954">  7  8 -1 -1</clus>
<clus scale="   93.182">  2  5  1 -1</clus>
<clus scale="  102.029">  2  9  1 -1</clus>
<clus scale="   93.182">  2  5  1 -1</clus>
</clustering>
</event>
<event>
 9    1  0.1435532E-005  0.1013155E+03  0.7546771E-02  0.1278031E+00
          1   -1    0    0  502    0  0.00000000000E+00  0.00000000000E+00  0.40554733100E+03  0.40554733100E+03  0.00000000000E+00 0. -1.
         -1   -1    0    0    0  501 -0.00000000000E+00 -0.00000000000E+00 -0.45763652290E+02  0.45763652290E+02  0.00000000000E+00 0.  1.
         23    2    1    2    0    0  0.30343613607E+02 -0.12557813370E+00  0.43246504867E+02  0.10861374532E+03  0.94899603959E+02 0.  0.
         23    2    1    2    0    0 -0.52623255172E+02 -0.20691668067E+01  0.24206149270E+03  0.26492946563E+03  0.93916809332E+02 0.  0.
        -11    1    4    4    0    0  0.60015137471E+01  0.26262915747E+02  0.20092355663E+02  0.33607464452E+02  0.00000000000E+00 0.  1.
         11    1    4    4    0    0 -0.58624768919E+02 -0.28332082554E+02  0.22196913703E+03  0.23132200118E+03  0.00000000000E+00 0. -1.
        -11    1    3    3    0    0 -0.13941690727E+02 -0.32604130450E+02  0.40209077970E+02  0.53611286255E+02  0.00000000000E+00 0. -1.
         11    1    3    3    0    0  0.44285304334E+02  0.32478552316E+02  0.30374268973E+01  0.55002459060E+02  0.00000000000E+00 0.  1.
         21    1    1    2  502  501  0.22279641565E+02  0.21947449404E+01  0.74475681146E+02  0.77767772347E+02  0.00000000000E+00 0. -1.
<scales pt_clust_5="13000.00000" pt_clust_6="13000.00000" pt_clust_7="13000.00000" pt_clust_8="13000.00000" pt_clust_9="22.38748"></scales>
<clustering>
<clus scale="   22.387">  1  9  2 -1</clus>
<clus scale="   93.917">  5  6 -1 -1</clus>
<clus scale="   94.900">  7  8 -1 -1</clus>
<clus scale="  100.396">  1  5  2 -1</clus>
<clus scale="   22.387">  1  5  2 -1</clus>
</clustering>
</event>
<event>
 9    1  0.1435532E-005  0.1445109E+03  0.7546771E-02  0.1222772E+00
         -2   -1    0    0    0  501 -0.00000000000E+00  0.00000000000E+00  0.10398592273E+03  0.10398592273E+03  0.00000000000E+00 0.  1.
          2   -1    0    0  502    0  0.00000000000E+00 -0.00000000000E+00 -0.42854790304E+03  0.42854790304E+03  0.00000000000E+00 0. -1.
         23    2    1    2    0    0  0.17260332959E+02  0.34328675632E+02  0.15349783368E+02  0.10545591184E+03  0.96999775405E+02 0.  0.
         23    2    1    2    0    0  0.97353948680E+02 -0.45556085402E+02 -0.16688047825E+03  0.21922625041E+03  0.93047872673E+02 0.  0.
        -11    1    3    3    0    0 -0.19569701207E+02  0.30177704080E+02  0.45272762725E+02  0.57821190524E+02  0.00000000000E+00 0.  1.
         11    1    3    3    0    0  0.36830034166E+02  0.41509715529E+01 -0.29922979357E+02  0.47634721319E+02  0.00000000000E+00 0. -1.
        -13    1    4    4    0    0  0.59090857766E+02 -0.19096103989E+02 -0.16071895714E+03  0.17229908253E+03  0.00000000000E+00 0. -1.
         13    1    4    4    0    0  0.38263090914E+02 -0.26459981413E+02 -0.61615211110E+01  0.46927167878E+02  0.00000000000E+00 0.  1.
         21    1    1    2  502  501 -0.11461428164E+03  0.11227409770E+02 -0.17303128543E+03  0.20785166351E+03  0.00000000000E+00 0.  1.
<scales pt_clust_5="13000.00000" pt_clust_6="13000.00000" pt_clust_7="13000.00000" pt_clust_8="13000.00000" pt_clust_9="110.56890"></scales>
<clustering>
<clus scale="   93.048">  7  8 -1 -1</clus>
<clus scale="   97.000">  5  6 -1 -1</clus>
<clus scale="  104.333">  1  5  2 -1</clus>
<clus scale="  110.569">  2  9  1 -1</clus>
<clus scale="  110.569">  2  5  1 -1</clus>
</clustering>
</event>
<event>
 9    1  0.1435532E-005  0.1214225E+03  0.7546771E-02  0.1241211E+00
          1   -1    0    0  502    0  0.00000000000E+00  0.00000000000E+00  0.44880231064E+03  0.44880231064E+03  0.00000000000E+00 0. -1.
         -1   -1    0    0    0  501 -0.00000000000E+00 -0.00000000000E+00 -0.64910001214E+02  0.64910001214E+02  0.00000000000E+00 0.  1.
         23    2    1    2    0    0  0.35693621266E+02 -0.72590857966E+02  0.24870815734E+02  0.12491150166E+03  0.91874144960E+02 0.  0.
         23    2    1    2    0    0 -0.14983859598E+02  0.74887139965E+02  0.23593577292E+03  0.26396386936E+03  0.90435809297E+02 0.  0.
        -11    1    4    4    0    0 -0.43388873342E+02  0.83098651761E+01  0.11260486823E+03  0.12096075619E+03  0.00000000000E+00 0. -1.
         11    1    4    4    0    0  0.28405013744E+02  0.66577274789E+02  0.12333090469E+03  0.14300311316E+03  0.00000000000E+00 0.  1.
        -13    1    3    3    0    0  0.54731485441E+02 -0.83779328468E+02  0.17231384618E+02  0.10154522142E+03  0.00000000000E+00 0.  1.
         13    1    3    3    0    0 -0.19037864175E+02  0.11188470502E+02  0.76394311161E+01  0.23366280241E+02  0.00000000000E+00 0. -1.
         21    1    1    2  502  501 -0.20709761668E+02 -0.22962819992E+01  0.12308572077E+03  0.12483694084E+03  0.00000000000E+00 0. -1.
<scales pt_clust_5="13000.00000" pt_clust_6="13000.00000" pt_clust_7="13000.00000" pt_clust_8="13000.00000" pt_clust_9="20.83668"></scales>
<clustering>
<clus scale="   20.837">  1  9  2 -1</clus>
<clus scale="   90.436">  5  6 -1 -1</clus>
<clus scale="   91.874">  7  8 -1 -1</clus>
<clus scale="  120.338">  1  5  2 -1</clus>
<clus scale="   20.837">  1  5  2 -1</clus>
</clustering>
</event>
<event>
 9    1  0.1435532E-005  0.1011993E+03  0.7546771E-02  0.1278193E+00
         -2   -1    0    0    0  501 -0.00000000000E+00  0.00000000000E+00  0.75712033196E+02  0.75712033196E+02  0.00000000000E+00 0.  1.
          2   -1    0    0  502    0  0.00000000000E+00 -0.00000000000E+00 -0.25544361483E+03  0.25544361483E+03  0.00000000000E+00 0. -1.
         23    2    1    2    0    0 -0.36479545939E+02  0.18907951965E+02  0.13548383544E+02  0.10280369787E+03  0.93256494033E+02 0.  0.
         23    2    1    2    0    0  0.19190386791E+02 -0.31750056442E+02 -0.15069258088E+03  0.18062858090E+03  0.92423445499E+02 0.  0.
        -11    1    3    3    0    0 -0.58903474755E+02  0.19903269836E+02  0.35342179511E+02  0.71518033677E+02  0.00000000000E+00 0.  1.
         11    1    3    3    0    0  0.22423928817E+02 -0.99531787113E+00 -0.21793795967E+02  0.31285664191E+02  0.00000000000E+00 0. -1.
        -11    1    4    4    0    0  0.33203921467E+02 -0.58216064171E+02 -0.12177202611E+03  0.13899653547E+03  0.00000000000E+00 0. -1.
         11    1    4    4    0    0 -0.14013534677E+02  0.26466007729E+02 -0.28920554770E+02  0.41632045439E+02  0.00000000000E+00 0.  1.
         21    1    1    2  502  501  0.17289159148E+02  0.12842104477E+02 -0.42587384295E+02  0.47723369250E+02  0.00000000000E+00 0.  1.
<scales pt_clust_5="13000.00000" pt_clust_6="13000.00000" pt_clust_7="13000.00000" pt_clust_8="13000.00000" pt_clust_9="21.53682"></scales>
<clustering>
<clus scale="   21.537">  2  9  1 -1</clus>
<clus scale="   92.423">  7  8 -1 -1</clus>
<clus scale="   93.256">  5  6 -1 -1</clus>
<clus scale="  100.432">  2  7  1 -1</clus>
<clus scale="   21.537">  2  5  1 -1</clus>
</clustering>
</event>
<event>
 9    1  0.1435532E-005  0.1049274E+03  0.7546771E-02  0.1271629E+00
         -2   -1    0    0    0  501 -0.00000000000E+00  0.00000000000E+00  0.88306346304E+02  0.88306346304E+02  0.00000000000E+00 0.  1.
          2   -1    0    0  502    0  0.00000000000E+00 -0.00000000000E+00 -0.35097045027E+03  0.35097045027E+03  0.00000000000E+00 0. -1.
         23    2    1    2    0    0 -0.42893329829E+02 -0.14642657106E+02  0.25094184360E+02  0.10774323916E+03  0.94470325208E+02 0.  0.
         23    2    1    2    0    0  0.24128181839E+02  0.62246832092E+02 -0.20687281581E+03  0.23582176128E+03  0.91425947673E+02 0.  0.
        -11    1    4    4    0    0  0.44116851520E+02  0.24765407950E+02 -0.42579639986E+02  0.66125999125E+02  0.00000000000E+00 0.  1.
         11    1    4    4    0    0 -0.19988669680E+02  0.37481424142E+02 -0.16429317582E+03  0.16969576216E+03  0.00000000000E+00 0. -1.
        -13    1    3    3    0    0 -0.69022041011E+02  0.66580657007E+01  0.25903023369E+02  0.74022554696E+02  0.00000000000E+00 0.  1.
         13    1    3    3    0    0  0.26128711182E+02 -0.21300722807E+02 -0.80883900833E+00  0.33720684463E+02  0.00000000000E+00 0. -1.
         21    1    1    2  502  501  0.18765147989E+02 -0.47604174985E+02 -0.80885472514E+02  0.95711796133E+02  0.00000000000E+00 0. -1.
<scales pt_clust_5="13000.00000" pt_clust_6="13000.00000" pt_clust_7="13000.00000" pt_clust_8="13000.00000" pt_clust_9="51.16921"></scales>
<clustering>
<clus scale="   51.169">  2  9  1 -1</clus>
<clus scale="   91.426">  5  6 -1 -1</clus>
<clus scale="   94.470">  7  8 -1 -1</clus>
<clus scale="  102.195">  2  5  1 -1</clus>
<clus scale="   51.169">  2  5  1 -1</clus>
</clustering>
</event>
<event>
 9    1  0.1435532E-005  0.1159326E+03  0.7546771E-02  0.1252205E+00
         -2   -1    0    0    0  501 -0.00000000000E+00  0.00000000000E+00  0.76966196452E+02  0.76966196452E+02  0.00000000000E+00 0.  1.
          2   -1    0    0  502    0  0.00000000000E+00 -0.00000000000E+00 -0.41630576426E+03  0.41630576426E+03  0.00000000000E+00 0. -1.
         23    2    1    2    0    0 -0.18544269844E+02  0.56458052252E+02  0.10899151476E+02  0.11153299187E+03  0.93751880858E+02 0.  0.
         23    2    1    2    0    0  0.48578182788E+02 -0.43351839479E+02 -0.27560538233E+03  0.30022857855E+03  0.99697797283E+02 0.  0.
        -11    1    3    3    0    0  0.28911050848E+02  0.50734652658E+02  0.22104953522E+02  0.62437831575E+02  0.00000000000E+00 0. -1.
         11    1    3    3    0    0 -0.47455320693E+02  0.57233995940E+01 -0.11205802047E+02  0.49095160296E+02  0.00000000000E+00 0.  1.
        -13    1    4    4    0    0 -0.13754892198E+02 -0.53675662638E+02 -0.14231996313E+03  0.15272604796E+03  0.00000000000E+00 0.  1.
         13    1    4    4    0    0  0.62333074986E+02  0.10323823158E+02 -0.13328541919E+03  0.14750253059E+03  0.00000000000E+00 0. -1.
         21    1    1    2  502  501 -0.30033912944E+02 -0.13106212773E+02 -0.74633336961E+02  0.81510390294E+02  0.00000000000E+00 0.  1.
<scales pt_clust_5="13000.00000" pt_clust_6="13000.00000" pt_clust_7="13000.00000" pt_clust_8="13000.00000" pt_clust_9="32.76902"></scales>
<clustering>
<clus scale="   32.769">  2  9  1 -1</clus>
<clus scale="   93.752">  5  6 -1 -1</clus>
<clus scale="   99.698">  7  8 -1 -1</clus>
<clus scale="  110.861">  1  5  2 -1</clus>
<clus scale="   32.769">  2  5  1 -1</clus>
</clustering>
</event>
<event>
 9    1  0.1435532E-005  0.1136988E+03  0.7546771E-02  0.1254649E+00
          3   -1    0    0  502    0  0.00000000000E+00  0.00000000000E+00  0.76504957992E+03  0.76504957992E+03  0.00000000000E+00 0. -1.
         -3   -1    0    0    0  501 -0.00000000000E+00 -0.00000000000E+00 -0.73793166789E+02  0.73793166789E+02  0.00000000000E+00 0.  1.
         23    2    1    2    0    0 -0.59159072988E+02 -0.39220054744E+02 -0.10455667807E+02  0.11709443609E+03  0.92540679504E+02 0.  0.
         23    2    1    2    0    0  0.19497441817E+01 -0.65192836989E+01  0.42923552608E+03  0.43959858560E+03  0.94643948809E+02 0.  0.
        -13    1    3    3    0    0 -0.41799784199E+02  0.97921949507E-01  0.35013559226E+02  0.54526882154E+02  0.00000000000E+00 0. -1.
         13    1    3    3    0    0 -0.17359288789E+02 -0.39317976694E+02 -0.45469227033E+02  0.62567553936E+02  0.00000000000E+00 0.  1.
        -13    1    4    4    0    0 -0.14789238855E+02 -0.47704131562E+02  0.20474721873E+03  0.21075063305E+03  0.00000000000E+00 0.  1.
         13    1    4    4    0    0  0.16738983037E+02  0.41184847864E+02  0.22448830736E+03  0.22884795255E+03  0.00000000000E+00 0. -1.
         21    1    1    2  502  501  0.57209328806E+02  0.45739338443E+02  0.27247655485E+03  0.28214972502E+03  0.00000000000E+00 0. -1.
<scales pt_clust_5="13000.00000" pt_clust_6="13000.00000" pt_clust_7="13000.00000" pt_clust_8="13000.00000" pt_clust_9="73.24612"></scales>
<clustering>
<clus scale="   73.246">  1  9  2 -1</clus>
<clus scale="   92.541">  5  6 -1 -1</clus>
<clus scale="   94.644">  7  8 -1 -1</clus>
<clus scale="  111.954">  2  5  1 -1</clus>
<clus scale="   73.246">  1  5  2 -1</clus>
</clustering>
</event>
<event>
 9    1  0.1435532E-005  0.1054303E+03  0.7546771E-02  0.1269475E+00
          1   -1    0    0  502    0  0.00000000000E+00  0.00000000000E+00  0.18939282857E+03  0.18939282857E+03  0.00000000000E+00 0. -1.
         -1   -1    0    0    0  501 -0.00000000000E+00 -0.00000000000E+00 -0.17562964649E+03  0.17562964649E+03  0.00000000000E+00 0.  1.
         23    2    1    2    0    0  0.39586939675E+02  0.19014206584E+02 -0.95884073548E+02  0.13946352420E+03  0.91255976123E+02 0.  0.
         23    2    1    2    0    0 -0.92188789325E+02 -0.46027018438E+02  0.84932317829E+02  0.16146936714E+03  0.90783250705E+02 0.  0.
        -11    1    3    3    0    0 -0.18877578525E+02 -0.22638383421E+02 -0.26924696581E+02  0.39922408004E+02  0.00000000000E+00 0. -1.
         11    1    3    3    0    0  0.58464518200E+02  0.41652590005E+02 -0.68959376967E+02  0.99541116199E+02  0.00000000000E+00 0.  1.
        -11    1    4    4    0    0  0.25729456365E+01 -0.27824979558E+02 -0.63326044506E+01  0.28652249751E+02  0.00000000000E+00 0.  1.
         11    1    4    4    0    0 -0.94761734962E+02 -0.18202038880E+02  0.91264922279E+02  0.13281711739E+03  0.00000000000E+00 0. -1.
         21    1    1    2  502  501  0.52601849650E+02  0.27012811853E+02  0.24714937794E+02  0.64089583717E+02  0.00000000000E+00 0.  1.
<scales pt_clust_5="13000.00000" pt_clust_6="13000.00000" pt_clust_7="13000.00000" pt_clust_8="13000.00000" pt_clust_9="59.13245"></scales>
<clustering>
<clus scale="   59.132">  1  9  2 -1</clus>
<clus scale="   90.783">  7  8 -1 -1</clus>
<clus scale="   91.256">  5  6 -1 -1</clus>
<clus scale="  105.021">  1  7  2 -1</clus>
<clus scale="   59.132">  1  5  2 -1</clus>
</clustering>
</event>
<event>
 9    1  0.1435532E-005  0.1110283E+03  0.7546771E-02  0.1259263E+00
         -1   -1    0    0    0  501 -0.00000000000E+00  0.00000000000E+00  0.15530609447E+03  0.15530609447E+03  0.00000000000E+00 0.  1.
          1   -1    0    0  502    0  0.00000000000E+00 -0.00000000000E+00 -0.16850071323E+03  0.16850071323E+03  0.00000000000E+00 0. -1.
         23    2    1    2    0    0 -0.23640680647E+02  0.37954489084E+02  0.89532050648E+02  0.13557978458E+03  0.91468381807E+02 0.  0.
         23    2    1    2    0    0  0.53643921114E+02 -0.40640867977E+02 -0.11003130937E+03  0.15723075181E+03  0.89918128602E+02 0.  0.
        -11    1    3    3    0    0  0.21315138580E+02  0.12960056874E+02 -0.72500813194E+01  0.25978103972E+02  0.00000000000E+00 0. -1.
         11    1    3    3    0    0 -0.44955819227E+02  0.24994432210E+02  0.96782131967E+02  0.10960168061E+03  0.00000000000E+00 0.  1.
        -13    1    4    4    0    0  0.39010264749E+01 -0.32306148629E+02  0.37652574199E+01  0.32757936599E+02  0.00000000000E+00 0.  1.
         13    1    4    4    0    0  0.49742894639E+02 -0.83347193480E+01 -0.11379656679E+03  0.12447281521E+03  0.00000000000E+00 0. -1.
         21    1    1    2  502  501 -0.30003240467E+02  0.26863788934E+01  0.73046399688E+01  0.30996271310E+02  0.00000000000E+00 0.  1.
<scales pt_clust_5="13000.00000" pt_clust_6="13000.00000" pt_clust_7="13000.00000" pt_clust_8="13000.00000" pt_clust_9="30.12326"></scales>
<clustering>
<clus scale="   30.123">  1  9  2 -1</clus>
<clus scale="   89.918">  7  8 -1 -1</clus>
<clus scale="   91.468">  5  6 -1 -1</clus>
<clus scale="  109.755">  2  7  1 -1</clus>
<clus scale="  109.755">  2  5  1 -1</clus>
</clustering>
</event>
<event>
 9    1  0.1435532E-005  0.1179995E+03  0.7546771E-02  0.1246925E+00
          2   -1    0    0  502    0  0.00000000000E+00  0.00000000000E+00  0.45674925221E+03  0.45674925221E+03  0.00000000000E+00 0. -1.
         -2   -1    0    0    0  501 -0.00000000000E+00 -0.00000000000E+00 -0.44586928685E+02  0.44586928685E+02  0.00000000000E+00 0.  1.
         23    2    1    2    0    0  0.52560956482E+02 -0.62706333916E+02  0.12033016237E+03  0.17305786119E+03  0.93674633095E+02 0.  0.
         23    2    1    2    0    0 -0.33247132988E+02  0.49866479746E+02  0.15833636349E+03  0.19278288204E+03  0.92210617339E+02 0.  0.
        -13    1    3    3    0    0  0.56855750054E+02 -0.27492097991E+02  0.19386942893E+02  0.66062435020E+02  0.00000000000E+00 0.  1.
         13    1    3    3    0    0 -0.42947935716E+01 -0.35214235925E+02  0.10094321948E+03  0.10699542617E+03  0.00000000000E+00 0. -1.
        -13    1    4    4    0    0 -0.10981350506E+02 -0.27399822624E+02  0.40035908010E+02  0.49741474334E+02  0.00000000000E+00 0. -1.
         13    1    4    4    0    0 -0.22265782482E+02  0.77266302370E+02  0.11830045548E+03  0.14304140771E+03  0.00000000000E+00 0.  1.
         21    1    1    2  502  501 -0.19313823494E+02  0.12839854169E+02  0.13349579767E+03  0.13549543766E+03  0.00000000000E+00 0. -1.
<scales pt_clust_5="13000.00000" pt_clust_6="13000.00000" pt_clust_7="13000.00000" pt_clust_8="13000.00000" pt_clust_9="23.19236"></scales>
<clustering>
<clus scale="   23.192">  1  9  2 -1</clus>
<clus scale="   92.211">  7  8 -1 -1</clus>
<clus scale="   93.675">  5  6 -1 -1</clus>
<clus scale="  116.841">  1  7  2 -1</clus>
<clus scale="   23.192">  1  5  2 -1</clus>
</clustering>
</event>
<event>
 9    1  0.1435532E-005  0.9345248E+02  0.7546771E-02  0.1295720E+00
         -2   -1    0    0    0  501 -0.00000000000E+00  0.00000000000E+00  0.76532194718E+02  0.76532194718E+02  0.00000000000E+00 0.  1.
          2   -1    0    0  502    0  0.00000000000E+00 -0.00000000000E+00 -0.16736193578E+03  0.16736193578E+03  0.00000000000E+00 0. -1.
         23    2    1    2    0    0 -0.44799559858E+01  0.10323062779E+02 -0.13314803516E+02  0.93172422502E+02  0.91526939703E+02 0.  0.
         23    2    1    2    0    0 -0.20799373732E+02  0.10816439284E+02 -0.60563911049E+02  0.11366418031E+03  0.93284239068E+02 0.  0.
        -11    1    4    4    0    0 -0.77463593956E+01 -0.21675300899E+02  0.16965203975E+02  0.28594455736E+02  0.00000000000E+00 0.  1.
         11    1    4    4    0    0 -0.13053014337E+02  0.32491740183E+02 -0.77529115024E+02  0.85069724578E+02  0.00000000000E+00 0. -1.
        -13    1    3    3    0    0  0.32046685866E+02  0.23269154341E+02  0.17852274995E+02  0.43441309156E+02  0.00000000000E+00 0.  1.
         13    1    3    3    0    0 -0.36526641852E+02 -0.12946091562E+02 -0.31167078511E+02  0.49731113346E+02  0.00000000000E+00 0. -1.
         21    1    1    2  502  501  0.25279329718E+02 -0.21139502063E+02 -0.16951026493E+02  0.37057527679E+02  0.00000000000E+00 0.  1.
<scales pt_clust_5="13000.00000" pt_clust_6="13000.00000" pt_clust_7="13000.00000" pt_clust_8="13000.00000" pt_clust_9="32.95335"></scales>
<clustering>
<clus scale="   32.953">  2  9  1 -1</clus>
<clus scale="   91.527">  7  8 -1 -1</clus>
<clus scale="   91.698">  1  7  2 -1</clus>
<clus scale="   93.284">  5  6 -1 -1</clus>
<clus scale="   32.953">  2  5  1 -1</clus>
</clustering>
</event>
<event>
 9    1  0.1701997E-005  0.1183365E+03  0.7546771E-02  0.1246761E+00
          1   -1    0    0  502    0  0.00000000000E+00  0.00000000000E+00  0.17572196996E+03  0.17572196996E+03  0.00000000000E+00 0. -1.
         -1   -1    0    0    0  501 -0.00000000000E+00 -0.00000000000E+00 -0.25156123992E+03  0.25156123992E+03  0.00000000000E+00 0.  1.
         23    2    1    2    0    0 -0.48473422165E+01  0.72131072374E+02 -0.19552680993E+03  0.22803513574E+03  0.92427817245E+02 0.  0.
         23    2    1    2    0    0 -0.12361060267E+02 -0.89248639378E+02  0.12020005548E+03  0.17497045300E+03  0.89713380517E+02 0.  0.
        -11    1    4    4    0    0  0.47490253345E+01 -0.29293522132E+02 -0.94195751175E+01  0.31135061843E+02  0.00000000000E+00 0.  1.
         11    1    4    4    0    0 -0.17110085602E+02 -0.59955117245E+02  0.12961963059E+03  0.14383539116E+03  0.00000000000E+00 0. -1.
        -11    1    3    3    0    0 -0.27450194003E+02  0.30476786574E+01 -0.11036677669E+02  0.29742389783E+02  0.00000000000E+00 0. -1.
         11    1    3    3    0    0  0.22602851787E+02  0.69083393716E+02 -0.18449013226E+03  0.19829274595E+03  0.00000000000E+00 0.  1.
         21    1    1    2  502  501  0.17208402484E+02  0.17117567004E+02 -0.51251549968E+00  0.24277621142E+02  0.00000000000E+00 0.  1.
<scales pt_clust_5="13000.00000" pt_clust_6="13000.00000" pt_clust_7="13000.00000" pt_clust_8="13000.00000" pt_clust_9="24.27221"></scales>
<clustering>
<clus scale="   24.272">  1  9  2 -1</clus>
<clus scale="   89.713">  5  6 -1 -1</clus>
<clus scale="   92.428">  7  8 -1 -1</clus>
<clus scale="  116.229">  1  5  2 -1</clus>
<clus scale="   24.272">  1  5  2 -1</clus>
</clustering>
</event>
<event>
 9    1  0.1435532E-005  0.1560945E+03  0.7546771E-02  0.1194667E+00
         -2   -1    0    0    0  501 -0.00000000000E+00  0.00000000000E+00  0.25531146765E+03  0.25531146765E+03  0.00000000000E+00 0.  1.
          2   -1    0    0  502    0  0.00000000000E+00 -0.00000000000E+00 -0.55797031731E+03  0.55797031731E+03  0.00000000000E+00 0. -1.
         23    2    1    2    0    0 -0.77872590140E+02  0.98036835118E+02  0.20682437529E+03  0.25894017907E+03  0.92727195492E+02 0.  0.
         23    2    1    2    0    0  0.39339539118E+02 -0.13563815424E+03 -0.39572423607E+03  0.42848548656E+03  0.84004957930E+02 0.  0.
        -11    1    4    4    0    0  0.49861052617E+02 -0.31313795739E+02 -0.12527064910E+03  0.13841753464E+03  0.00000000000E+00 0.  1.
         11    1    4    4    0    0 -0.10521513499E+02 -0.10432435850E+03 -0.27045358697E+03  0.29006795192E+03  0.00000000000E+00 0. -1.
        -13    1    3    3    0    0 -0.18607158081E+02  0.92383830646E+02  0.14643979906E+03  0.17414250844E+03  0.00000000000E+00 0.  1.
         13    1    3    3    0    0 -0.59265432060E+02  0.56530044715E+01  0.60384576233E+02  0.84797670626E+02  0.00000000000E+00 0. -1.
         21    1    1    2  502  501  0.38533051022E+02  0.37601319124E+02 -0.11375898888E+03  0.12585611933E+03  0.00000000000E+00 0.  1.
<scales pt_clust_5="13000.00000" pt_clust_6="13000.00000" pt_clust_7="13000.00000" pt_clust_8="13000.00000" pt_clust_9="53.83916"></scales>
<clustering>
<clus scale="   53.839">  2  9  1 -1</clus>
<clus scale="   84.005">  5  6 -1 -1</clus>
<clus scale="   92.727">  7  8 -1 -1</clus>
<clus scale="  151.076">  2  5  1 -1</clus>
<clus scale="   53.839">  2  5  1 -1</clus>
</clustering>
</event>
<event>
 9    1  0.1435532E-005  0.1120090E+03  0.7546771E-02  0.1257194E+00
          3   -1    0    0  502    0  0.00000000000E+00  0.00000000000E+00  0.34606273005E+03  0.34606273005E+03  0.00000000000E+00 0. -1.
         -3   -1    0    0    0  501 -0.00000000000E+00 -0.00000000000E+00 -0.11520693726E+03  0.11520693726E+03  0.00000000000E+00 0.  1.
         23    2    1    2    0    0  0.66104586407E+02  0.25030448320E+02 -0.65452248839E+02  0.13203610156E+03  0.90295047210E+02 0.  0.
         23    2    1    2    0    0 -0.20892055623E+02 -0.29490329875E+02  0.19772616155E+03  0.22068656873E+03  0.91108556733E+02 0.  0.
        -13    1    3    3    0    0  0.36387732408E+02  0.24997026031E+02 -0.85475520293E+02  0.96202821942E+02  0.00000000000E+00 0.  1.
         13    1    3    3    0    0  0.29716853999E+02  0.33422288826E-01  0.20023271454E+02  0.35833279621E+02  0.00000000000E+00 0. -1.
        -13    1    4    4    0    0  0.33906095936E+02 -0.23943386579E+02  0.10396628289E+03  0.11194595607E+03  0.00000000000E+00 0.  1.
         13    1    4    4    0    0 -0.54798151559E+02 -0.55469432956E+01  0.93759878657E+02  0.10874061265E+03  0.00000000000E+00 0. -1.
         21    1    1    2  502  501 -0.45212530784E+02  0.44598815547E+01  0.98581880075E+02  0.10854699702E+03  0.00000000000E+00 0. -1.
<scales pt_clust_5="13000.00000" pt_clust_6="13000.00000" pt_clust_7="13000.00000" pt_clust_8="13000.00000" pt_clust_9="45.43197"></scales>
<clustering>
<clus scale="   45.432">  1  9  2 -1</clus>
<clus scale="   90.295">  5  6 -1 -1</clus>
<clus scale="   91.109">  7  8 -1 -1</clus>
<clus scale="  111.348">  2  5  1 -1</clus>
<clus scale="   45.432">  1  5  2 -1</clus>
</clustering>
</event>
<event>
 9    1  0.1435532E-005  0.1379361E+03  0.7546771E-02  0.1216712E+00
          1   -1    0    0  502    0  0.00000000000E+00  0.00000000000E+00  0.29139166568E+03  0.29139166568E+03  0.00000000000E+00 0. -1.
         -1   -1    0    0    0  501 -0.00000000000E+00 -0.00000000000E+00 -0.11451012910E+03  0.11451012910E+03  0.00000000000E+00 0.  1.
         23    2    1    2    0    0  0.78686452502E+02 -0.59576322339E+02 -0.28896610492E+02  0.13809765930E+03  0.92168614051E+02 0.  0.
         23    2    1    2    0    0 -0.84288220590E+02  0.81591671550E+02  0.16738259822E+03  0.22319165317E+03  0.89643041341E+02 0.  0.
        -11    1    3    3    0    0 -0.14634109768E+02 -0.34811403039E+02 -0.17480651746E+01  0.37802733792E+02  0.00000000000E+00 0. -1.
         11    1    3    3    0    0  0.93320562270E+02 -0.24764919300E+02 -0.27148545318E+02  0.10029492551E+03  0.00000000000E+00 0.  1.
        -13    1    4    4    0    0  0.10352994758E+02  0.36114868253E+02  0.72573154769E+02  0.81721056054E+02  0.00000000000E+00 0.  1.
         13    1    4    4    0    0 -0.94641215349E+02  0.45476803297E+02  0.94809443455E+02  0.14147059712E+03  0.00000000000E+00 0. -1.
         21    1    1    2  502  501  0.56017680887E+01 -0.22015349211E+02  0.38395548841E+02  0.44612482305E+02  0.00000000000E+00 0. -1.
<scales pt_clust_5="13000.00000" pt_clust_6="13000.00000" pt_clust_7="13000.00000" pt_clust_8="13000.00000" pt_clust_9="22.71685"></scales>
<clustering>
<clus scale="   22.717">  1  9  2 -1</clus>
<clus scale="   89.643">  7  8 -1 -1</clus>
<clus scale="   92.169">  5  6 -1 -1</clus>
<clus scale="  136.262">  1  7  2 -1</clus>
<clus scale="   22.717">  1  5  2 -1</clus>
</clustering>
</event>
<event>
 9    1  0.1435532E-005  0.2432222E+03  0.7546771E-02  0.1117794E+00
          2   -1    0    0  502    0  0.00000000000E+00  0.00000000000E+00  0.17196838768E+04  0.17196838768E+04  0.00000000000E+00 0. -1.
         -2   -1    0    0    0  501 -0.00000000000E+00 -0.00000000000E+00 -0.50926846848E+02  0.50926846848E+02  0.00000000000E+00 0.  1.
         23    2    1    2    0    0 -0.20166359606E+03  0.80998949003E+02  0.37073809481E+03  0.44004899174E+03  0.94696063670E+02 0.  0.
         23    2    1    2    0    0  0.23083554597E+03 -0.75354669463E+02  0.10975619897E+04  0.11279146309E+04  0.92659149366E+02 0.  0.
        -13    1    4    4    0    0  0.15346626432E+03 -0.86115196707E+02  0.86066216625E+03  0.87846860263E+03  0.00000000000E+00 0. -1.
         13    1    4    4    0    0  0.77369281653E+02  0.10760527244E+02  0.23689982341E+03  0.24944602827E+03  0.00000000000E+00 0.  1.
        -13    1    3    3    0    0 -0.16017778677E+03  0.10157238059E+03  0.28022847053E+03  0.33838124589E+03  0.00000000000E+00 0.  1.
         13    1    3    3    0    0 -0.41485809292E+02 -0.20573431588E+02  0.90509624274E+02  0.10166774585E+03  0.00000000000E+00 0. -1.
         21    1    1    2  502  501 -0.29171949909E+02 -0.56442795396E+01  0.20045694553E+03  0.20264710105E+03  0.00000000000E+00 0. -1.
<scales pt_clust_5="13000.00000" pt_clust_6="13000.00000" pt_clust_7="13000.00000" pt_clust_8="13000.00000" pt_clust_9="29.71297"></scales>
<clustering>
<clus scale="   29.713">  1  9  2 -1</clus>
<clus scale="   92.659">  5  6 -1 -1</clus>
<clus scale="   94.696">  7  8 -1 -1</clus>
<clus scale="  242.436">  1  5  2 -1</clus>
<clus scale="   29.713">  1  5  2 -1</clus>
</clustering>
</event>
<event>
 9    1  0.1435532E-005  0.1622517E+03  0.7546771E-02  0.1186695E+00
         -1   -1    0    0    0  501 -0.00000000000E+00  0.00000000000E+00  0.24532055762E+03  0.24532055762E+03  0.00000000000E+00 0.  1.
          1   -1    0    0  502    0  0.00000000000E+00 -0.00000000000E+00 -0.19622367609E+03  0.19622367609E+03  0.00000000000E+00 0. -1.
         23    2    1    2    0    0  0.13501041171E+03 -0.27640817604E+02  0.16562705286E+03  0.23365549695E+03  0.90392170833E+02 0.  0.
         23    2    1    2    0    0 -0.10842133907E+03  0.23260012132E+02 -0.10042374778E+03  0.17649467491E+03  0.93644146752E+02 0.  0.
        -11    1    4    4    0    0 -0.10351849206E+03 -0.16687377845E+02 -0.70764575242E+02  0.12649969125E+03  0.00000000000E+00 0. -1.
         11    1    4    4    0    0 -0.49028470118E+01  0.39947389977E+02 -0.29659172543E+02  0.49994983656E+02  0.00000000000E+00 0.  1.
        -11    1    3    3    0    0  0.80533983072E+02 -0.52577731413E+02  0.13665106415E+03  0.16710372110E+03  0.00000000000E+00 0.  1.
         11    1    3    3    0    0  0.54476428640E+02  0.24936913809E+02  0.28975988701E+02  0.66551775851E+02  0.00000000000E+00 0. -1.
         21    1    1    2  502  501 -0.26589072643E+02  0.43808054726E+01 -0.16106423547E+02  0.31394061860E+02  0.00000000000E+00 0. -1.
<scales pt_clust_5="13000.00000" pt_clust_6="13000.00000" pt_clust_7="13000.00000" pt_clust_8="13000.00000" pt_clust_9="26.94755"></scales>
<clustering>
<clus scale="   26.948">  2  9  1 -1</clus>
<clus scale="   90.392">  7  8 -1 -1</clus>
<clus scale="   93.644">  5  6 -1 -1</clus>
<clus scale="  160.397">  1  7  2 -1</clus>
<clus scale="   26.948">  2  5  1 -1</clus>
</clustering>
</event>
<event>
 9    1  0.1435532E-005  0.9172198E+02  0.7546771E-02  0.1299889E+00
         -2   -1    0    0    0  501 -0.00000000000E+00  0.00000000000E+00  0.64226830572E+02  0.64226830572E+02  0.00000000000E+00 0. -1.
          2   -1    0    0  502    0  0.00000000000E+00 -0.00000000000E+00 -0.18547620684E+03  0.18547620684E+03  0.00000000000E+00 0.  1.
         23    2    1    2    0    0 -0.56559018812E+01  0.21505156557E+01 -0.10197770930E+02  0.89818125606E+02  0.89031944895E+02 0.  0.
         23    2    1    2    0    0  0.17021520753E+02 -0.18936804098E+02 -0.95485732437E+02  0.13432609393E+03  0.90981534906E+02 0.  0.
        -11    1    3    3    0    0  0.21317891236E+02 -0.22454703526E+01  0.32613420902E+02  0.39027296176E+02  0.00000000000E+00 0. -1.
         11    1    3    3    0    0 -0.26973793117E+02  0.43959860083E+01 -0.42811191832E+02  0.50790829430E+02  0.00000000000E+00 0.  1.
        -11    1    4    4    0    0  0.54255787404E+02 -0.12713087408E+02 -0.66303582880E+02  0.86611074124E+02  0.00000000000E+00 0. -1.
         11    1    4    4    0    0 -0.37234266651E+02 -0.62237166894E+01 -0.29182149558E+02  0.47715019808E+02  0.00000000000E+00 0.  1.
         21    1    1    2  502  501 -0.11365618872E+02  0.16786288442E+02 -0.15565872903E+02  0.25558817877E+02  0.00000000000E+00 0.  1.
<scales pt_clust_5="13000.00000" pt_clust_6="13000.00000" pt_clust_7="13000.00000" pt_clust_8="13000.00000" pt_clust_9="20.27207"></scales>
<clustering>
<clus scale="   20.272">  2  9  1 -1</clus>
<clus scale="   89.032">  5  6 -1 -1</clus>
<clus scale="   89.788">  1  5  2 -1</clus>
<clus scale="   90.982">  7  8 -1 -1</clus>
<clus scale="   20.272">  2  5  1 -1</clus>
</clustering>
</event>
<event>
 9    1  0.1435532E-005  0.1816269E+03  0.7546771E-02  0.1166264E+00
          2   -1    0    0  502    0  0.00000000000E+00  0.00000000000E+00  0.88579157315E+03  0.88579157315E+03  0.00000000000E+00 0. -1.
         -2   -1    0    0    0  501 -0.00000000000E+00 -0.00000000000E+00 -0.10667772800E+03  0.10667772800E+03  0.00000000000E+00 0.  1.
         23    2    1    2    0    0 -0.16342479166E+03  0.62834965625E+02  0.29680940247E+02  0.20008507731E+03  0.92180174187E+02 0.  0.
         23    2    1    2    0    0  0.11391941048E+03  0.14151664805E+02  0.30638317373E+03  0.33997866650E+03  0.92395577970E+02 0.  0.
        -11    1    4    4    0    0  0.37057105244E+02  0.48993720869E+02  0.15377695025E+03  0.16559276603E+03  0.00000000000E+00 0.  1.
         11    1    4    4    0    0  0.76862305237E+02 -0.34842056064E+02  0.15260622349E+03  0.17438590047E+03  0.00000000000E+00 0. -1.
        -11    1    3    3    0    0 -0.10317581724E+03  0.70203687564E+02 -0.13603866125E+02  0.12553434663E+03  0.00000000000E+00 0.  1.
         11    1    3    3    0    0 -0.60248974417E+02 -0.73687219389E+01  0.43284806372E+02  0.74550730674E+02  0.00000000000E+00 0. -1.
         21    1    1    2  502  501  0.49505381177E+02 -0.76986630429E+02  0.44304973116E+03  0.45240555734E+03  0.00000000000E+00 0. -1.
<scales pt_clust_5="13000.00000" pt_clust_6="13000.00000" pt_clust_7="13000.00000" pt_clust_8="13000.00000" pt_clust_9="91.52991"></scales>
<clustering>
<clus scale="   91.530">  1  9  2 -1</clus>
<clus scale="   92.180">  7  8 -1 -1</clus>
<clus scale="   92.396">  5  6 -1 -1</clus>
<clus scale="  181.517">  2  7  1 -1</clus>
<clus scale="   91.530">  1  5  2 -1</clus>
</clustering>
</event>
<event>
 9    1  0.1435532E-005  0.9226560E+02  0.7546771E-02  0.1297815E+00
          1   -1    0    0  502    0  0.00000000000E+00  0.00000000000E+00  0.15661872531E+03  0.15661872531E+03  0.00000000000E+00 0. -1.
         -1   -1    0    0    0  501 -0.00000000000E+00 -0.00000000000E+00 -0.19088182921E+03  0.19088182921E+03  0.00000000000E+00 0.  1.
         23    2    1    2    0    0  0.60315768032E+01 -0.85081037807E+01 -0.13167024919E+03  0.16000488836E+03  0.90309146989E+02 0.  0.
         23    2    1    2    0    0 -0.44185493256E+02  0.99845746332E+01  0.23442705753E+02  0.10425721578E+03  0.90928307170E+02 0.  0.
        -11    1    3    3    0    0 -0.50834948035E+01 -0.48822784032E+02 -0.70373460280E+02  0.85801690378E+02  0.00000000000E+00 0.  1.
         11    1    3    3    0    0  0.11115071607E+02  0.40314680251E+02 -0.61296788906E+02  0.74203197982E+02  0.00000000000E+00 0. -1.
        -11    1    4    4    0    0  0.23651689967E+02 -0.16049410928E+02  0.10510315734E+02  0.30454109185E+02  0.00000000000E+00 0.  1.
         11    1    4    4    0    0 -0.67837183223E+02  0.26033985561E+02  0.12932390019E+02  0.73803106597E+02  0.00000000000E+00 0. -1.
         21    1    1    2  502  501  0.38153916452E+02 -0.14764708525E+01  0.73964439526E+02  0.83238450377E+02  0.00000000000E+00 0.  1.
<scales pt_clust_5="13000.00000" pt_clust_6="13000.00000" pt_clust_7="13000.00000" pt_clust_8="13000.00000" pt_clust_9="38.18247"></scales>
<clustering>
<clus scale="   38.182">  1  9  2 -1</clus>
<clus scale="   90.309">  5  6 -1 -1</clus>
<clus scale="   90.928">  7  8 -1 -1</clus>
<clus scale="   91.655">  2  5  1 -1</clus>
<clus scale="   38.182">  1  5  2 -1</clus>
</clustering>
</event>
<event>
 9    1  0.1435532E-005  0.1167277E+03  0.7546771E-02  0.1253262E+00
          2   -1    0    0  502    0  0.00000000000E+00  0.00000000000E+00  0.45296868061E+02  0.45296868061E+02  0.00000000000E+00 0. -1.
         -2   -1    0    0    0  501 -0.00000000000E+00 -0.00000000000E+00 -0.39347538790E+03  0.39347538790E+03  0.00000000000E+00 0.  1.
         23    2    1    2    0    0 -0.75984145230E+01  0.52910390072E+02 -0.17605424754E+03  0.20313220762E+03  0.86083392206E+02 0.  0.
         23    2    1    2    0    0 -0.24096111816E+01 -0.76761843258E+02 -0.16807632267E+03  0.20945917185E+03  0.98616974311E+02 0.  0.
        -11    1    3    3    0    0  0.31198299926E+02  0.48607568321E+02 -0.74033490012E+02  0.93898813942E+02  0.00000000000E+00 0. -1.
         11    1    3    3    0    0 -0.38796714449E+02  0.43028217507E+01 -0.10202075753E+03  0.10923339368E+03  0.00000000000E+00 0.  1.
        -13    1    4    4    0    0 -0.47136117743E+02 -0.56991863853E+02 -0.11947732935E+03  0.14051590077E+03  0.00000000000E+00 0.  1.
         13    1    4    4    0    0  0.44726506561E+02 -0.19769979404E+02 -0.48598993326E+02  0.68943271079E+02  0.00000000000E+00 0. -1.
         21    1    1    2  502  501  0.10008025705E+02  0.23851453186E+02 -0.40479496200E+01  0.26180876489E+02  0.00000000000E+00 0. -1.
<scales pt_clust_5="13000.00000" pt_clust_6="13000.00000" pt_clust_7="13000.00000" pt_clust_8="13000.00000" pt_clust_9="25.86605"></scales>
<clustering>
<clus scale="   25.866">  1  9  2 -1</clus>
<clus scale="   86.083">  5  6 -1 -1</clus>
<clus scale="   98.617">  7  8 -1 -1</clus>
<clus scale="  106.350">  2  5  1 -1</clus>
<clus scale="   25.866">  1  5  2 -1</clus>
</clustering>
</event>
<event>
 9    1  0.1435532E-005  0.1377539E+03  0.7546771E-02  0.1216739E+00
          1   -1    0    0  502    0  0.00000000000E+00  0.00000000000E+00  0.37576271924E+03  0.37576271924E+03  0.00000000000E+00 0. -1.
         -1   -1    0    0    0  501 -0.00000000000E+00 -0.00000000000E+00 -0.72577685806E+02  0.72577685806E+02  0.00000000000E+00 0.  1.
         23    2    1    2    0    0  0.68547296065E+02  0.69967505454E+02  0.51970922323E+02  0.14352234406E+03  0.91123558210E+02 0.  0.
         23    2    1    2    0    0 -0.88922740572E+02 -0.73426253927E+02  0.18634391913E+03  0.23673529159E+03  0.89559329686E+02 0.  0.
        -11    1    4    4    0    0 -0.60066387664E+01 -0.54809298991E+02  0.10748682533E+03  0.12080379375E+03  0.00000000000E+00 0. -1.
         11    1    4    4    0    0 -0.82916101805E+02 -0.18616954935E+02  0.78857093794E+02  0.11593149784E+03  0.00000000000E+00 0.  1.
        -11    1    3    3    0    0  0.45178010514E+02  0.91395678888E+02  0.42244605462E+02  0.11035773396E+03  0.00000000000E+00 0.  1.
         11    1    3    3    0    0  0.23369285551E+02 -0.21428173433E+02  0.97263168606E+01  0.33164610106E+02  0.00000000000E+00 0. -1.
         21    1    1    2  502  501  0.20375444507E+02  0.34587484723E+01  0.64870191982E+02  0.68082769388E+02  0.00000000000E+00 0.  1.
<scales pt_clust_5="13000.00000" pt_clust_6="13000.00000" pt_clust_7="13000.00000" pt_clust_8="13000.00000" pt_clust_9="20.66692"></scales>
<clustering>
<clus scale="   20.667">  1  9  2 -1</clus>
<clus scale="   89.559">  5  6 -1 -1</clus>
<clus scale="   91.124">  7  8 -1 -1</clus>
<clus scale="  136.724">  1  5  2 -1</clus>
<clus scale="   20.667">  1  5  2 -1</clus>
</clustering>
</event>
<event>
 9    1  0.1435532E-005  0.1359229E+03  0.7546771E-02  0.1219151E+00
         -2   -1    0    0    0  501 -0.00000000000E+00  0.00000000000E+00  0.77069336808E+03  0.77069336808E+03  0.00000000000E+00 0.  1.
          2   -1    0    0  502    0  0.00000000000E+00 -0.00000000000E+00 -0.38266197145E+02  0.38266197145E+02  0.00000000000E+00 0. -1.
         23    2    1    2    0    0  0.87433125273E+02  0.25960981543E+02  0.38383996088E+03  0.40514079641E+03  0.92127223963E+02 0.  0.
         23    2    1    2    0    0 -0.11556209156E+03  0.92425167672E+00  0.32862840514E+03  0.36008767686E+03  0.91164988441E+02 0.  0.
        -13    1    3    3    0    0  0.18845571604E+02  0.51476566037E+02  0.13328383975E+03  0.14411653049E+03  0.00000000000E+00 0. -1.
         13    1    3    3    0    0  0.68587553669E+02 -0.25515584494E+02  0.25055612112E+03  0.26102426593E+03  0.00000000000E+00 0.  1.
        -13    1    4    4    0    0 -0.64343449626E+02  0.20003640187E+02  0.75801864959E+02  0.10142064810E+03  0.00000000000E+00 0. -1.
         13    1    4    4    0    0 -0.51218641930E+02 -0.19079388510E+02  0.25282654018E+03  0.25866702876E+03  0.00000000000E+00 0.  1.
         21    1    1    2  502  501  0.28128966282E+02 -0.26885233220E+02  0.19958804921E+02  0.43731091951E+02  0.00000000000E+00 0. -1.
<scales pt_clust_5="13000.00000" pt_clust_6="13000.00000" pt_clust_7="13000.00000" pt_clust_8="13000.00000" pt_clust_9="38.91085"></scales>
<clustering>
<clus scale="   38.911">  2  9  1 -1</clus>
<clus scale="   91.165">  7  8 -1 -1</clus>
<clus scale="   92.127">  5  6 -1 -1</clus>
<clus scale="  135.273">  2  7  1 -1</clus>
<clus scale="   38.911">  2  5  1 -1</clus>
</clustering>
</event>
<event>
 9    1  0.1435532E-005  0.1150334E+03  0.7546771E-02  0.1251990E+00
          2   -1    0    0  502    0  0.00000000000E+00  0.00000000000E+00  0.26010417375E+03  0.26010417375E+03  0.00000000000E+00 0. -1.
         -2   -1    0    0    0  501 -0.00000000000E+00 -0.00000000000E+00 -0.78774294039E+02  0.78774294039E+02  0.00000000000E+00 0.  1.
         23    2    1    2    0    0 -0.66929570554E+02 -0.46211535590E+02  0.41560888421E+02  0.12913929799E+03  0.91293906709E+02 0.  0.
         23    2    1    2    0    0  0.43345979377E+02  0.39703649042E+02  0.53433220168E+02  0.12000398308E+03  0.89947725168E+02 0.  0.
        -13    1    4    4    0    0 -0.16361755411E+02  0.27712720970E+02 -0.83538979215E+01  0.33248903052E+02  0.00000000000E+00 0. -1.
         13    1    4    4    0    0  0.59707734787E+02  0.11990928073E+02  0.61787118090E+02  0.86755080032E+02  0.00000000000E+00 0.  1.
        -13    1    3    3    0    0 -0.33765515072E+01 -0.32998094096E+02 -0.20778068585E+02  0.39140815630E+02  0.00000000000E+00 0.  1.
         13    1    3    3    0    0 -0.63553019047E+02 -0.13213441494E+02  0.62338957006E+02  0.89998482357E+02  0.00000000000E+00 0. -1.
         21    1    1    2  502  501  0.23583591177E+02  0.65078865479E+01  0.86335771118E+02  0.89735186715E+02  0.00000000000E+00 0. -1.
<scales pt_clust_5="13000.00000" pt_clust_6="13000.00000" pt_clust_7="13000.00000" pt_clust_8="13000.00000" pt_clust_9="24.46504"></scales>
<clustering>
<clus scale="   24.465">  1  9  2 -1</clus>
<clus scale="   89.948">  5  6 -1 -1</clus>
<clus scale="   91.294">  7  8 -1 -1</clus>
<clus scale="  113.968">  1  5  2 -1</clus>
<clus scale="   24.465">  1  5  2 -1</clus>
</clustering>
</event>
<event>
 9    1  0.1435532E-005  0.1305436E+03  0.7546771E-02  0.1227025E+00
          1   -1    0    0  502    0  0.00000000000E+00  0.00000000000E+00  0.14652083943E+03  0.14652083943E+03  0.00000000000E+00 0. -1.
         -1   -1    0    0    0  501 -0.00000000000E+00 -0.00000000000E+00 -0.15387639095E+03  0.15387639095E+03  0.00000000000E+00 0.  1.
         23    2    1    2    0    0 -0.77749819123E+02  0.46115607939E+02 -0.36197784753E+02  0.13441983012E+03  0.92664596464E+02 0.  0.
         23    2    1    2    0    0  0.94000825500E+02 -0.22890976702E+02  0.13293252186E+02  0.13364708142E+03  0.91239683310E+02 0.  0.
        -13    1    4    4    0    0  0.69446539766E+02 -0.58209515334E+01 -0.34117196455E+02  0.77593095416E+02  0.00000000000E+00 0. -1.
         13    1    4    4    0    0  0.24554285734E+02 -0.17070025168E+02  0.47410448641E+02  0.56053986009E+02  0.00000000000E+00 0.  1.
        -13    1    3    3    0    0 -0.47637834073E+02  0.27504693421E+01 -0.59871349920E+02  0.76560478434E+02  0.00000000000E+00 0.  1.
         13    1    3    3    0    0 -0.30111985050E+02  0.43365138597E+02  0.23673565167E+02  0.57859351681E+02  0.00000000000E+00 0. -1.
         21    1    1    2  502  501 -0.16251006377E+02 -0.23224631238E+02  0.15548981049E+02  0.32330318836E+02  0.00000000000E+00 0.  1.
<scales pt_clust_5="13000.00000" pt_clust_6="13000.00000" pt_clust_7="13000.00000" pt_clust_8="13000.00000" pt_clust_9="28.34570"></scales>
<clustering>
<clus scale="   28.346">  1  9  2 -1</clus>
<clus scale="   91.240">  5  6 -1 -1</clus>
<clus scale="   92.665">  7  8 -1 -1</clus>
<clus scale="  129.536">  1  5  2 -1</clus>
<clus scale="   28.346">  1  5  2 -1</clus>
</clustering>
</event>
<event>
 9    1  0.1435532E-005  0.1009203E+03  0.7546771E-02  0.1280376E+00
         -1   -1    0    0    0  501 -0.00000000000E+00  0.00000000000E+00  0.43894156202E+02  0.43894156202E+02  0.00000000000E+00 0.  1.
          1   -1    0    0  502    0  0.00000000000E+00 -0.00000000000E+00 -0.55345191711E+03  0.55345191711E+03  0.00000000000E+00 0. -1.
         23    2    1    2    0    0  0.46033679992E+02  0.35326022043E+02 -0.10013231593E+03  0.14727859347E+03  0.91090481793E+02 0.  0.
         23    2    1    2    0    0  0.57638432033E+01 -0.17027274955E+02 -0.11387488530E+03  0.14945483727E+03  0.95111034580E+02 0.  0.
        -13    1    3    3    0    0  0.20071067242E+02 -0.30816088327E+02 -0.30271495754E+02  0.47632368146E+02  0.00000000000E+00 0. -1.
         13    1    3    3    0    0  0.25962612750E+02  0.66142110371E+02 -0.69860820180E+02  0.99646225324E+02  0.00000000000E+00 0.  1.
        -13    1    4    4    0    0 -0.38738307655E+02 -0.31152289727E+02 -0.65443753233E+02  0.82182762624E+02  0.00000000000E+00 0. -1.
         13    1    4    4    0    0  0.44502150858E+02  0.14125014772E+02 -0.48431132071E+02  0.67272074645E+02  0.00000000000E+00 0.  1.
         21    1    1    2  502  501 -0.51797523195E+02 -0.18298747088E+02 -0.29555055967E+03  0.30061264257E+03  0.00000000000E+00 0. -1.
<scales pt_clust_5="13000.00000" pt_clust_6="13000.00000" pt_clust_7="13000.00000" pt_clust_8="13000.00000" pt_clust_9="54.93476"></scales>
<clustering>
<clus scale="   54.935">  2  9  1 -1</clus>
<clus scale="   91.090">  5  6 -1 -1</clus>
<clus scale="   95.111">  7  8 -1 -1</clus>
<clus scale="   97.140">  1  5  2 -1</clus>
<clus scale="   54.935">  2  5  1 -1</clus>
</clustering>
</event>
<event>
 9    1  0.1435532E-005  0.9483281E+02  0.7546771E-02  0.1296150E+00
         -1   -1    0    0    0  501 -0.00000000000E+00  0.00000000000E+00  0.42612528031E+02  0.42612528031E+02  0.00000000000E+00 0.  1.
          1   -1    0    0  502    0  0.00000000000E+00 -0.00000000000E+00 -0.26405473325E+03  0.26405473325E+03  0.00000000000E+00 0. -1.
         23    2    1    2    0    0  0.12333990695E+01 -0.17489233987E+02 -0.76804263290E+02  0.11642335775E+03  0.85721110538E+02 0.  0.
         23    2    1    2    0    0  0.18817743706E+02  0.75057799133E+01 -0.90990099071E+02  0.13210778115E+03  0.93609954073E+02 0.  0.
        -11    1    3    3    0    0 -0.29331403539E+02 -0.32534889979E+02 -0.68582208050E+02  0.81377942715E+02  0.00000000000E+00 0. -1.
         11    1    3    3    0    0  0.30564802609E+02  0.15045655991E+02 -0.82220552402E+01  0.35045415037E+02  0.00000000000E+00 0.  1.
        -13    1    4    4    0    0  0.45536483752E+02 -0.63388158327E+01 -0.11906470156E+02  0.47492272742E+02  0.00000000000E+00 0.  1.
         13    1    4    4    0    0 -0.26718740045E+02  0.13844595746E+02 -0.79083628915E+02  0.84615508409E+02  0.00000000000E+00 0. -1.
         21    1    1    2  502  501 -0.20051142776E+02  0.99834540742E+01 -0.53647842863E+02  0.58136122382E+02  0.00000000000E+00 0. -1.
<scales pt_clust_5="13000.00000" pt_clust_6="13000.00000" pt_clust_7="13000.00000" pt_clust_8="13000.00000" pt_clust_9="22.39906"></scales>
<clustering>
<clus scale="   22.399">  2  9  1 -1</clus>
<clus scale="   85.721">  5  6 -1 -1</clus>
<clus scale="   87.055">  1  5  2 -1</clus>
<clus scale="   93.610">  7  8 -1 -1</clus>
<clus scale="   22.399">  2  5  1 -1</clus>
</clustering>
</event>
<event>
 9    1  0.1435532E-005  0.1052444E+03  0.7546771E-02  0.1271971E+00
          1   -1    0    0  502    0  0.00000000000E+00  0.00000000000E+00  0.44347190463E+03  0.44347190463E+03  0.00000000000E+00 0. -1.
         -1   -1    0    0    0  501 -0.00000000000E+00 -0.00000000000E+00 -0.35495360898E+02  0.35495360898E+02  0.00000000000E+00 0.  1.
         23    2    1    2    0    0  0.22806417746E+02 -0.45017744207E+02  0.97773687504E+02  0.14189100088E+03  0.89591473813E+02 0.  0.
         23    2    1    2    0    0 -0.45884052588E+02  0.49812785574E+02  0.26340496891E+03  0.28467767774E+03  0.84098410635E+02 0.  0.
        -11    1    4    4    0    0 -0.70284393999E+02  0.33572027552E+02  0.17531832679E+03  0.19184236441E+03  0.00000000000E+00 0. -1.
         11    1    4    4    0    0  0.24400341411E+02  0.16240758022E+02  0.88086642122E+02  0.92835313338E+02  0.00000000000E+00 0.  1.
        -13    1    3    3    0    0 -0.49773269265E+01  0.23872158875E+02  0.86589224298E+01  0.25877223389E+02  0.00000000000E+00 0. -1.
         13    1    3    3    0    0  0.27783744673E+02 -0.68889903081E+02  0.89114765074E+02  0.11601377750E+03  0.00000000000E+00 0.  1.
         21    1    1    2  502  501  0.23077634841E+02 -0.47950413671E+01  0.46797887324E+02  0.52398586904E+02  0.00000000000E+00 0. -1.
<scales pt_clust_5="13000.00000" pt_clust_6="13000.00000" pt_clust_7="13000.00000" pt_clust_8="13000.00000" pt_clust_9="23.57053"></scales>
<clustering>
<clus scale="   23.571">  1  9  2 -1</clus>
<clus scale="   84.098">  5  6 -1 -1</clus>
<clus scale="   89.591">  7  8 -1 -1</clus>
<clus scale="  100.610">  1  5  2 -1</clus>
<clus scale="   23.571">  1  5  2 -1</clus>
</clustering>
</event>
<event>
 9    1  0.1435532E-005  0.1273991E+03  0.7546771E-02  0.1231413E+00
          1   -1    0    0  502    0  0.00000000000E+00  0.00000000000E+00  0.55131243487E+03  0.55131243487E+03  0.00000000000E+00 0. -1.
         -1   -1    0    0    0  501 -0.00000000000E+00 -0.00000000000E+00 -0.64210298123E+02  0.64210298123E+02  0.00000000000E+00 0.  1.
         23    2    1    2    0    0  0.51140021912E+02  0.57090520458E+02  0.10864601594E+03  0.16180626555E+03  0.92209985495E+02 0.  0.
         23    2    1    2    0    0  0.10614780987E+02 -0.10262331859E+03  0.34175799110E+03  0.36866563493E+03  0.92041332041E+02 0.  0.
        -11    1    4    4    0    0  0.46298689450E+02 -0.87864446932E+02  0.25712494803E+03  0.27563920000E+03  0.00000000000E+00 0. -1.
         11    1    4    4    0    0 -0.35683908463E+02 -0.14758871659E+02  0.84633043077E+02  0.93026434933E+02  0.00000000000E+00 0.  1.
        -13    1    3    3    0    0  0.48757245829E+02  0.51657846993E+00  0.89700845282E+02  0.10209690259E+03  0.00000000000E+00 0. -1.
         13    1    3    3    0    0  0.23827760829E+01  0.56573941988E+02  0.18945170654E+02  0.59709362959E+02  0.00000000000E+00 0.  1.
         21    1    1    2  502  501 -0.61754802899E+02  0.45532798134E+02  0.36698129712E+02  0.85050832515E+02  0.00000000000E+00 0.  1.
<scales pt_clust_5="13000.00000" pt_clust_6="13000.00000" pt_clust_7="13000.00000" pt_clust_8="13000.00000" pt_clust_9="76.72608"></scales>
<clustering>
<clus scale="   76.726">  2  9  1 -1</clus>
<clus scale="   92.041">  5  6 -1 -1</clus>
<clus scale="   92.210">  7  8 -1 -1</clus>
<clus scale="  127.277">  1  5  2 -1</clus>
<clus scale="  127.277">  1  5  2 -1</clus>
</clustering>
</event>
<event>
 9    1  0.1435532E-005  0.1690209E+03  0.7546771E-02  0.1192446E+00
          2   -1    0    0  502    0  0.00000000000E+00  0.00000000000E+00  0.47510283797E+03  0.47510283797E+03  0.00000000000E+00 0. -1.
         -2   -1    0    0    0  501 -0.00000000000E+00 -0.00000000000E+00 -0.30894280663E+03  0.30894280663E+03  0.00000000000E+00 0.  1.
         23    2    1    2    0    0 -0.32897908113E+02  0.61696078095E+02 -0.93544561715E+01  0.12529480623E+03  0.10355000824E+03 0.  0.
         23    2    1    2    0    0  0.30546289557E+02  0.84334280080E+02 -0.21044155781E+03  0.24608576287E+03  0.90703951573E+02 0.  0.
        -11    1    3    3    0    0 -0.64380911717E+02  0.42803509523E+02 -0.30284918243E+02  0.83031430760E+02  0.00000000000E+00 0.  1.
         11    1    3    3    0    0  0.31483003604E+02  0.18892568572E+02  0.20930462072E+02  0.42263375465E+02  0.00000000000E+00 0. -1.
        -13    1    4    4    0    0  0.53366944297E+02  0.85409719735E+02 -0.19166430286E+03  0.21651340827E+03  0.00000000000E+00 0.  1.
         13    1    4    4    0    0 -0.22820654740E+02 -0.10754396552E+01 -0.18777254950E+02  0.29572354601E+02  0.00000000000E+00 0. -1.
         21    1    1    2  502  501  0.23516185561E+01 -0.14603035818E+03  0.38595604532E+03  0.41266507550E+03  0.00000000000E+00 0. -1.
<scales pt_clust_5="13000.00000" pt_clust_6="13000.00000" pt_clust_7="13000.00000" pt_clust_8="13000.00000" pt_clust_9="142.62134"></scales>
<clustering>
<clus scale="   90.704">  7  8 -1 -1</clus>
<clus scale="  103.550">  5  6 -1 -1</clus>
<clus scale="  124.945">  2  5  1 -1</clus>
<clus scale="  142.621">  1  9  2 -1</clus>
<clus scale="  142.621">  1  5  2 -1</clus>
</clustering>
</event>
<event>
 9    1  0.1435532E-005  0.1266343E+03  0.7546771E-02  0.1232551E+00
         -3   -1    0    0    0  501 -0.00000000000E+00  0.00000000000E+00  0.10655983323E+04  0.10655983323E+04  0.00000000000E+00 0.  1.
          3   -1    0    0  502    0  0.00000000000E+00 -0.00000000000E+00 -0.20908625259E+02  0.20908625259E+02  0.00000000000E+00 0. -1.
         23    2    1    2    0    0 -0.95614450970E+02 -0.34958145918E+02  0.64400425024E+03  0.65833531277E+03  0.91102768999E+02 0.  0.
         23    2    1    2    0    0  0.62170207530E+02  0.32280170553E+02  0.33922248092E+03  0.35814746056E+03  0.91052555315E+02 0.  0.
        -11    1    3    3    0    0 -0.97012913601E+02 -0.31453812058E+01  0.56283471197E+03  0.57114298720E+03  0.00000000000E+00 0.  1.
         11    1    3    3    0    0  0.13984626317E+01 -0.31812764712E+02  0.81169538267E+02  0.87192325573E+02  0.00000000000E+00 0. -1.
        -13    1    4    4    0    0  0.93223530593E+01  0.48579444844E+02  0.23511506553E+03  0.24026227912E+03  0.00000000000E+00 0.  1.
         13    1    4    4    0    0  0.52847854471E+02 -0.16299274290E+02  0.10410741539E+03  0.11788518144E+03  0.00000000000E+00 0. -1.
         21    1    1    2  502  501  0.33444243439E+02  0.26779753651E+01  0.61462975838E+02  0.70024184180E+02  0.00000000000E+00 0.  1.
<scales pt_clust_5="13000.00000" pt_clust_6="13000.00000" pt_clust_7="13000.00000" pt_clust_8="13000.00000" pt_clust_9="33.55129"></scales>
<clustering>
<clus scale="   33.551">  2  9  1 -1</clus>
<clus scale="   91.053">  7  8 -1 -1</clus>
<clus scale="   91.103">  5  6 -1 -1</clus>
<clus scale="  126.598">  2  7  1 -1</clus>
<clus scale="   33.551">  2  5  1 -1</clus>
</clustering>
</event>
<event>
 9    1  0.1435532E-005  0.3676606E+03  0.7546771E-02  0.1055720E+00
         -1   -1    0    0    0  501 -0.00000000000E+00  0.00000000000E+00  0.25804729182E+03  0.25804729182E+03  0.00000000000E+00 0.  1.
          1   -1    0    0  502    0  0.00000000000E+00 -0.00000000000E+00 -0.70611444734E+03  0.70611444734E+03  0.00000000000E+00 0. -1.
         23    2    1    2    0    0 -0.15420611513E+03 -0.31071250471E+03 -0.16123570480E+02  0.36012260054E+03  0.95428147656E+02 0.  0.
         23    2    1    2    0    0  0.18050800560E+03  0.33047582026E+03 -0.41280055499E+03  0.56597559065E+03  0.90148006952E+02 0.  0.
        -11    1    4    4    0    0  0.11063370504E+02  0.32143961965E+02 -0.84631473169E+02  0.91203720913E+02  0.00000000000E+00 0.  1.
         11    1    4    4    0    0  0.16944463510E+03  0.29833185829E+03 -0.32816908182E+03  0.47477186974E+03  0.00000000000E+00 0. -1.
        -13    1    3    3    0    0 -0.12812424774E+03 -0.30120820814E+03  0.13364663912E+01  0.32732857140E+03  0.00000000000E+00 0.  1.
         13    1    3    3    0    0 -0.26081867383E+02 -0.95042965704E+01 -0.17460036872E+02  0.32794029137E+02  0.00000000000E+00 0. -1.
         21    1    1    2  502  501 -0.26301890476E+02 -0.19763315542E+02 -0.19143030052E+02  0.38063547962E+02  0.00000000000E+00 0.  1.
<scales pt_clust_5="13000.00000" pt_clust_6="13000.00000" pt_clust_7="13000.00000" pt_clust_8="13000.00000" pt_clust_9="32.89951"></scales>
<clustering>
<clus scale="   32.900">  2  9  1 -1</clus>
<clus scale="   90.148">  5  6 -1 -1</clus>
<clus scale="   95.428">  7  8 -1 -1</clus>
<clus scale="  366.326">  2  5  1 -1</clus>
<clus scale="   32.900">  2  5  1 -1</clus>
</clustering>
</event>
<event>
 9    1  0.1435532E-005  0.1924817E+03  0.7546771E-02  0.1156366E+00
         -1   -1    0    0    0  501 -0.00000000000E+00  0.00000000000E+00  0.16979423874E+03  0.16979423874E+03  0.00000000000E+00 0.  1.
          1   -1    0    0  502    0  0.00000000000E+00 -0.00000000000E+00 -0.33537914106E+03  0.33537914106E+03  0.00000000000E+00 0. -1.
         23    2    1    2    0    0 -0.97266973528E+02 -0.12670155888E+03  0.27141747055E+02  0.18608585819E+03  0.91526624670E+02 0.  0.
         23    2    1    2    0    0  0.10461424597E+03  0.16397843199E+03 -0.17271986358E+03  0.27614780621E+03  0.92695161584E+02 0.  0.
        -11    1    4    4    0    0 -0.36074917513E+01  0.72351532426E+02 -0.72629982665E+02  0.10258105392E+03  0.00000000000E+00 0.  1.
         11    1    4    4    0    0  0.10822173772E+03  0.91626899566E+02 -0.10008988092E+03  0.17356675229E+03  0.00000000000E+00 0. -1.
        -11    1    3    3    0    0 -0.34441950517E+02 -0.10763278068E+03  0.38637936484E+02  0.11943179463E+03  0.00000000000E+00 0.  1.
         11    1    3    3    0    0 -0.62825023010E+02 -0.19068778205E+02 -0.11496189429E+02  0.66654063566E+02  0.00000000000E+00 0. -1.
         21    1    1    2  502  501 -0.73472724425E+01 -0.37276873108E+02 -0.20006785789E+02  0.42939715400E+02  0.00000000000E+00 0. -1.
<scales pt_clust_5="13000.00000" pt_clust_6="13000.00000" pt_clust_7="13000.00000" pt_clust_8="13000.00000" pt_clust_9="37.99405"></scales>
<clustering>
<clus scale="   37.994">  2  9  1 -1</clus>
<clus scale="   91.527">  7  8 -1 -1</clus>
<clus scale="   92.695">  5  6 -1 -1</clus>
<clus scale="  191.922">  1  7  2 -1</clus>
<clus scale="   37.994">  2  5  1 -1</clus>
</clustering>
</event>
<event>
 9    1  0.1435532E-005  0.1018032E+03  0.7546771E-02  0.1281871E+00
          1   -1    0    0  502    0  0.00000000000E+00  0.00000000000E+00  0.31498105868E+03  0.31498105868E+03  0.00000000000E+00 0. -1.
         -1   -1    0    0    0  501 -0.00000000000E+00 -0.00000000000E+00 -0.48740462748E+02  0.48740462748E+02  0.00000000000E+00 0.  1.
         23    2    1    2    0    0  0.21310057971E+01 -0.35745774738E+02  0.64716697922E+02  0.10912757289E+03  0.80238859526E+02 0.  0.
         23    2    1    2    0    0 -0.39156226595E+02  0.55289466203E+02  0.14676557026E+03  0.18566429375E+03  0.91328868413E+02 0.  0.
        -11    1    4    4    0    0 -0.40283020511E+02  0.28275858234E+02  0.15052531869E+03  0.15836703403E+03  0.00000000000E+00 0. -1.
         11    1    4    4    0    0  0.11267939165E+01  0.27013607968E+02 -0.37597484303E+01  0.27297259721E+02  0.00000000000E+00 0.  1.
        -11    1    3    3    0    0  0.30591132842E+02  0.77646036232E+01  0.41627970873E+02  0.52239778301E+02  0.00000000000E+00 0.  1.
         11    1    3    3    0    0 -0.28460127045E+02 -0.43510378362E+02  0.23088727049E+02  0.56887794590E+02  0.00000000000E+00 0. -1.
         21    1    1    2  502  501  0.37025220798E+02 -0.19543691464E+02  0.54758327757E+02  0.68929654793E+02  0.00000000000E+00 0.  1.
<scales pt_clust_5="13000.00000" pt_clust_6="13000.00000" pt_clust_7="13000.00000" pt_clust_8="13000.00000" pt_clust_9="41.86673"></scales>
<clustering>
<clus scale="   41.867">  1  9  2 -1</clus>
<clus scale="   80.239">  7  8 -1 -1</clus>
<clus scale="   91.329">  5  6 -1 -1</clus>
<clus scale="   91.985">  2  7  1 -1</clus>
<clus scale="   41.867">  1  5  2 -1</clus>
</clustering>
</event>
<event>
 9    1  0.1435532E-005  0.1424373E+03  0.7546771E-02  0.1210996E+00
          1   -1    0    0  502    0  0.00000000000E+00  0.00000000000E+00  0.12434529663E+04  0.12434529663E+04  0.00000000000E+00 0. -1.
         -1   -1    0    0    0  501 -0.00000000000E+00 -0.00000000000E+00 -0.21717307446E+02  0.21717307446E+02  0.00000000000E+00 0.  1.
         23    2    1    2    0    0  0.10123154391E+03 -0.22656671136E+02  0.36170728941E+03  0.38760451747E+03  0.92972837584E+02 0.  0.
         23    2    1    2    0    0 -0.10702993969E+03  0.46338378250E+02  0.66095043762E+03  0.67700038641E+03  0.88720848310E+02 0.  0.
        -11    1    4    4    0    0 -0.85530145875E+02 -0.76839823581E+01  0.45334089471E+03  0.46140266173E+03  0.00000000000E+00 0.  1.
         11    1    4    4    0    0 -0.21499793810E+02  0.54022360608E+02  0.20760954291E+03  0.21559772468E+03  0.00000000000E+00 0. -1.
        -11    1    3    3    0    0  0.30591891978E+02  0.29798487705E+02  0.18913767481E+03  0.19389913295E+03  0.00000000000E+00 0. -1.
         11    1    3    3    0    0  0.70639651930E+02 -0.52455158841E+02  0.17256961459E+03  0.19370538453E+03  0.00000000000E+00 0.  1.
         21    1    1    2  502  501  0.57983957770E+01 -0.23681707114E+02  0.19907793186E+03  0.20056536989E+03  0.00000000000E+00 0.  1.
<scales pt_clust_5="13000.00000" pt_clust_6="13000.00000" pt_clust_7="13000.00000" pt_clust_8="13000.00000" pt_clust_9="24.38124"></scales>
<clustering>
<clus scale="   24.381">  1  9  2 -1</clus>
<clus scale="   88.721">  5  6 -1 -1</clus>
<clus scale="   92.973">  7  8 -1 -1</clus>
<clus scale="  139.699">  1  5  2 -1</clus>
<clus scale="   24.381">  1  5  2 -1</clus>
</clustering>
</event>
<event>
 9    1  0.1435532E-005  0.1759513E+03  0.7546771E-02  0.1188148E+00
          2   -1    0    0  502    0  0.00000000000E+00  0.00000000000E+00  0.63107609214E+03  0.63107609214E+03  0.00000000000E+00 0. -1.
         -2   -1    0    0    0  501 -0.00000000000E+00 -0.00000000000E+00 -0.37814330000E+03  0.37814330000E+03  0.00000000000E+00 0.  1.
         23    2    1    2    0    0  0.13461916634E+02  0.78625128767E+02 -0.18624335290E+03  0.22252479129E+03  0.92019357547E+02 0.  0.
         23    2    1    2    0    0 -0.25365186727E+02 -0.22404872386E+03 -0.73203198991E+02  0.25394484531E+03  0.91038743152E+02 0.  0.
        -11    1    4    4    0    0  0.92593923294E+01 -0.19052904022E+03 -0.76767209689E+02  0.20562163310E+03  0.00000000000E+00 0.  1.
         11    1    4    4    0    0 -0.34624579057E+02 -0.33519683638E+02  0.35640106975E+01  0.48323212210E+02  0.00000000000E+00 0. -1.
        -13    1    3    3    0    0  0.52261973297E+02  0.38426359903E+02 -0.11443934330E+03  0.13154566615E+03  0.00000000000E+00 0.  1.
         13    1    3    3    0    0 -0.38800056663E+02  0.40198768863E+02 -0.71804009602E+02  0.90979125134E+02  0.00000000000E+00 0. -1.
         21    1    1    2  502  501  0.11903270093E+02  0.14542359509E+03  0.51237934404E+03  0.53274975555E+03  0.00000000000E+00 0. -1.
<scales pt_clust_5="13000.00000" pt_clust_6="13000.00000" pt_clust_7="13000.00000" pt_clust_8="13000.00000" pt_clust_9="150.56826"></scales>
<clustering>
<clus scale="   91.039">  5  6 -1 -1</clus>
<clus scale="   92.019">  7  8 -1 -1</clus>
<clus scale="  121.781">  2  7  1 -1</clus>
<clus scale="  150.568">  1  9  2 -1</clus>
<clus scale="  150.568">  1  5  2 -1</clus>
</clustering>
</event>
<event>
 9    1  0.1435532E-005  0.1000986E+03  0.7546771E-02  0.1280318E+00
         -1   -1    0    0    0  501 -0.00000000000E+00  0.00000000000E+00  0.15013558556E+03  0.15013558556E+03  0.00000000000E+00 0.  1.
          1   -1    0    0  502    0  0.00000000000E+00 -0.00000000000E+00 -0.25708545376E+03  0.25708545376E+03  0.00000000000E+00 0. -1.
         23    2    1    2    0    0  0.56082060468E+01 -0.37546608596E+02  0.11002160018E+03  0.14806671338E+03  0.91530319089E+02 0.  0.
         23    2    1    2    0    0 -0.99102148146E+01  0.60569476706E+02 -0.13563116681E+03  0.17450915837E+03  0.91053605514E+02 0.  0.
        -13    1    3    3    0    0  0.35304141590E+02 -0.47033871415E+02  0.98714594383E+02  0.11490491120E+03  0.00000000000E+00 0.  1.
         13    1    3    3    0    0 -0.29695935543E+02  0.94872628187E+01  0.11307005793E+02  0.33161802177E+02  0.00000000000E+00 0. -1.
        -13    1    4    4    0    0 -0.21722241275E+02 -0.80835923999E+01 -0.13294562559E+01  0.23215677592E+02  0.00000000000E+00 0.  1.
         13    1    4    4    0    0  0.11812026461E+02  0.68653069106E+02 -0.13430171056E+03  0.15129348078E+03  0.00000000000E+00 0. -1.
         21    1    1    2  502  501  0.43020087678E+01 -0.23022868110E+02 -0.81340301566E+02  0.84645167578E+02  0.00000000000E+00 0.  1.
<scales pt_clust_5="13000.00000" pt_clust_6="13000.00000" pt_clust_7="13000.00000" pt_clust_8="13000.00000" pt_clust_9="23.42135"></scales>
<clustering>
<clus scale="   23.421">  2  9  1 -1</clus>
<clus scale="   91.054">  7  8 -1 -1</clus>
<clus scale="   91.530">  5  6 -1 -1</clus>
<clus scale="   99.663">  2  7  1 -1</clus>
<clus scale="   23.421">  2  5  1 -1</clus>
</clustering>
</event>
<event>
 9    1  0.1435532E-005  0.1068618E+03  0.7546771E-02  0.1267299E+00
          3   -1    0    0  502    0  0.00000000000E+00  0.00000000000E+00  0.10019919340E+04  0.10019919340E+04  0.00000000000E+00 0. -1.
         -3   -1    0    0    0  501 -0.00000000000E+00 -0.00000000000E+00 -0.59548575285E+02  0.59548575285E+02  0.00000000000E+00 0.  1.
         23    2    1    2    0    0  0.24747378639E+02  0.50873827853E+02  0.19497572258E+02  0.11063403451E+03  0.93054581612E+02 0.  0.
         23    2    1    2    0    0 -0.86175180458E+02  0.28153185961E+02  0.49670703837E+03  0.51307304284E+03  0.91144400336E+02 0.  0.
        -11    1    3    3    0    0 -0.23925035972E+02 -0.12112299127E+02  0.15409707807E+02  0.30928534254E+02  0.00000000000E+00 0. -1.
         11    1    3    3    0    0  0.48672414611E+02  0.62986126980E+02  0.40878644511E+01  0.79705500261E+02  0.00000000000E+00 0.  1.
        -11    1    4    4    0    0  0.10635601442E+02  0.22339997781E+02  0.47971690194E+02  0.53976611407E+02  0.00000000000E+00 0.  1.
         11    1    4    4    0    0 -0.96810781900E+02  0.58131881801E+01  0.44873534818E+03  0.45909643143E+03  0.00000000000E+00 0. -1.
         21    1    1    2  502  501  0.61427801818E+02 -0.79027013814E+02  0.42623874809E+03  0.43783343194E+03  0.00000000000E+00 0. -1.
<scales pt_clust_5="13000.00000" pt_clust_6="13000.00000" pt_clust_7="13000.00000" pt_clust_8="13000.00000" pt_clust_9="100.09318"></scales>
<clustering>
<clus scale="   91.144">  7  8 -1 -1</clus>
<clus scale="   93.055">  5  6 -1 -1</clus>
<clus scale="  100.093">  1  9  2 -1</clus>
<clus scale="  105.203">  1  7  2 -1</clus>
<clus scale="  100.093">  1  5  2 -1</clus>
</clustering>
</event>
<event>
 9    1  0.1435532E-005  0.1326824E+03  0.7546771E-02  0.1223607E+00
          1   -1    0    0  502    0  0.00000000000E+00  0.00000000000E+00  0.16931973086E+03  0.16931973086E+03  0.00000000000E+00 0. -1.
         -1   -1    0    0    0  501 -0.00000000000E+00 -0.00000000000E+00 -0.46915308909E+03  0.46915308909E+03  0.00000000000E+00 0.  1.
         23    2    1    2    0    0 -0.10429706261E+02  0.96272406790E+02 -0.41749505983E+03  0.43803149156E+03  0.90511366855E+02 0.  0.
         23    2    1    2    0    0 -0.17173054997E+02 -0.97440422003E+02  0.92567482316E+02  0.16311845967E+03  0.90825896325E+02 0.  0.
        -11    1    4    4    0    0  0.28943009890E+02 -0.49263368138E+02  0.74754374851E+02  0.94089286431E+02  0.00000000000E+00 0. -1.
         11    1    4    4    0    0 -0.46116064888E+02 -0.48177053865E+02  0.17813107465E+02  0.69029173235E+02  0.00000000000E+00 0.  1.
        -13    1    3    3    0    0 -0.47862652800E+02  0.50028266822E+02 -0.27569104265E+03  0.28425202200E+03  0.00000000000E+00 0. -1.
         13    1    3    3    0    0  0.37432946539E+02  0.46244139967E+02 -0.14180401718E+03  0.15377946955E+03  0.00000000000E+00 0.  1.
         21    1    1    2  502  501  0.27602761258E+02  0.11680152133E+01  0.25094219281E+02  0.37322868726E+02  0.00000000000E+00 0. -1.
<scales pt_clust_5="13000.00000" pt_clust_6="13000.00000" pt_clust_7="13000.00000" pt_clust_8="13000.00000" pt_clust_9="27.62746"></scales>
<clustering>
<clus scale="   27.627">  1  9  2 -1</clus>
<clus scale="   90.511">  7  8 -1 -1</clus>
<clus scale="   90.826">  5  6 -1 -1</clus>
<clus scale="  132.467">  2  7  1 -1</clus>
<clus scale="   27.627">  1  5  2 -1</clus>
</clustering>
</event>
<event>
 9    1  0.1435532E-005  0.1527780E+03  0.7546771E-02  0.1199083E+00
          1   -1    0    0  502    0  0.00000000000E+00  0.00000000000E+00  0.66788607886E+03  0.66788607886E+03  0.00000000000E+00 0. -1.
         -1   -1    0    0    0  501 -0.00000000000E+00 -0.00000000000E+00 -0.50436278665E+02  0.50436278665E+02  0.00000000000E+00 0.  1.
         23    2    1    2    0    0 -0.87296800048E+02 -0.76500054464E+02  0.13083416923E+03  0.20143453650E+03  0.99926488095E+02 0.  0.
         23    2    1    2    0    0  0.10141063774E+03  0.56475171065E+02  0.44536781046E+03  0.46891304572E+03  0.89740712393E+02 0.  0.
        -11    1    4    4    0    0  0.79763629504E+01  0.32996788954E+02  0.41011610159E+02  0.53238732282E+02  0.00000000000E+00 0.  1.
         11    1    4    4    0    0  0.93434274790E+02  0.23478382111E+02  0.40435620030E+03  0.41567431344E+03  0.00000000000E+00 0. -1.
        -11    1    3    3    0    0 -0.55683700461E+02  0.62644276415E+01  0.84668144677E+02  0.10153133641E+03  0.00000000000E+00 0. -1.
         11    1    3    3    0    0 -0.31613099587E+02 -0.82764482106E+02  0.46166024558E+02  0.99903200085E+02  0.00000000000E+00 0.  1.
         21    1    1    2  502  501 -0.14113837692E+02  0.20024883400E+02  0.41247820502E+02  0.47974775307E+02  0.00000000000E+00 0.  1.
<scales pt_clust_5="13000.00000" pt_clust_6="13000.00000" pt_clust_7="13000.00000" pt_clust_8="13000.00000" pt_clust_9="24.49891"></scales>
<clustering>
<clus scale="   24.499">  1  9  2 -1</clus>
<clus scale="   89.741">  5  6 -1 -1</clus>
<clus scale="   99.926">  7  8 -1 -1</clus>
<clus scale="  146.319">  1  5  2 -1</clus>
<clus scale="   24.499">  1  5  2 -1</clus>
</clustering>
</event>
<event>
 9    1  0.1435532E-005  0.1181078E+03  0.7546771E-02  0.1246579E+00
          3   -1    0    0  502    0  0.00000000000E+00  0.00000000000E+00  0.28839546558E+03  0.28839546558E+03  0.00000000000E+00 0. -1.
         -3   -1    0    0    0  501 -0.00000000000E+00 -0.00000000000E+00 -0.79436943752E+02  0.79436943752E+02  0.00000000000E+00 0.  1.
         23    2    1    2    0    0 -0.46917486795E+02 -0.32700895319E+02  0.61376981581E+02  0.12360822098E+03  0.90781381920E+02 0.  0.
         23    2    1    2    0    0  0.92451176428E+02  0.75899695141E+01  0.14049055688E+03  0.19174412041E+03  0.91778992590E+02 0.  0.
        -11    1    3    3    0    0  0.16031498002E+02 -0.39989262475E+02  0.17348841173E+02  0.46444938707E+02  0.00000000000E+00 0. -1.
         11    1    3    3    0    0 -0.62948984798E+02  0.72883671559E+01  0.44028140408E+02  0.77163282270E+02  0.00000000000E+00 0.  1.
        -11    1    4    4    0    0  0.37675037693E+02 -0.18374812668E+02  0.12102269827E+03  0.12807628861E+03  0.00000000000E+00 0. -1.
         11    1    4    4    0    0  0.54776138735E+02  0.25964782182E+02  0.19467858607E+02  0.63667831809E+02  0.00000000000E+00 0.  1.
         21    1    1    2  502  501 -0.45533689633E+02  0.25110925805E+02  0.70909833715E+01  0.52480067945E+02  0.00000000000E+00 0.  1.
<scales pt_clust_5="13000.00000" pt_clust_6="13000.00000" pt_clust_7="13000.00000" pt_clust_8="13000.00000" pt_clust_9="51.99880"></scales>
<clustering>
<clus scale="   51.999">  2  9  1 -1</clus>
<clus scale="   90.781">  5  6 -1 -1</clus>
<clus scale="   91.779">  7  8 -1 -1</clus>
<clus scale="  117.334">  2  5  1 -1</clus>
<clus scale="  118.108">  1  5  2 -1</clus>
</clustering>
</event>
<event>
 9    1  0.1435532E-005  0.1118597E+03  0.7546771E-02  0.1257999E+00
         -1   -1    0    0    0  501 -0.00000000000E+00  0.00000000000E+00  0.56067271049E+02  0.56067271049E+02  0.00000000000E+00 0.  1.
          1   -1    0    0  502    0  0.00000000000E+00 -0.00000000000E+00 -0.48474740185E+03  0.48474740185E+03  0.00000000000E+00 0. -1.
         23    2    1    2    0    0  0.54759330243E+02  0.41820687221E+02 -0.30971296437E+02  0.11737325758E+03  0.89831543808E+02 0.  0.
         23    2    1    2    0    0 -0.24547394075E+02 -0.43171366935E+02 -0.22527241177E+03  0.24837312791E+03  0.92060902021E+02 0.  0.
        -13    1    3    3    0    0  0.18564576691E+02  0.93231508734E+01  0.31785397467E+02  0.37972044217E+02  0.00000000000E+00 0.  1.
         13    1    3    3    0    0  0.36194753552E+02  0.32497536348E+02 -0.62756693903E+02  0.79401213360E+02  0.00000000000E+00 0. -1.
        -13    1    4    4    0    0  0.25186179457E+02 -0.48373495436E+02 -0.11333115975E+03  0.12577078543E+03  0.00000000000E+00 0.  1.
         13    1    4    4    0    0 -0.49733573532E+02  0.52021285006E+01 -0.11194125202E+03  0.12260234248E+03  0.00000000000E+00 0. -1.
         21    1    1    2  502  501 -0.30211936168E+02  0.13506797143E+01 -0.17243642259E+03  0.17506828742E+03  0.00000000000E+00 0. -1.
<scales pt_clust_5="13000.00000" pt_clust_6="13000.00000" pt_clust_7="13000.00000" pt_clust_8="13000.00000" pt_clust_9="30.24211"></scales>
<clustering>
<clus scale="   30.242">  2  9  1 -1</clus>
<clus scale="   89.832">  5  6 -1 -1</clus>
<clus scale="   92.061">  7  8 -1 -1</clus>
<clus scale="  110.032">  1  5  2 -1</clus>
<clus scale="   30.242">  2  5  1 -1</clus>
</clustering>
</event>
<event>
 9    1  0.1435532E-005  0.1519737E+03  0.7546771E-02  0.1199387E+00
         -3   -1    0    0    0  501 -0.00000000000E+00  0.00000000000E+00  0.20803790289E+03  0.20803790289E+03  0.00000000000E+00 0.  1.
          3   -1    0    0  502    0  0.00000000000E+00 -0.00000000000E+00 -0.20533938740E+03  0.20533938740E+03  0.00000000000E+00 0. -1.
         23    2    1    2    0    0 -0.95637161670E+02 -0.10037788571E+03  0.94409573973E+02  0.19374163965E+03  0.96956013970E+02 0.  0.
         23    2    1    2    0    0  0.61096221818E+02  0.32945712897E+02 -0.87994342222E+02  0.14378060179E+03  0.90064914748E+02 0.  0.
        -13    1    4    4    0    0  0.10574651859E+02 -0.21175475230E+02 -0.60220912665E+02  0.64705350129E+02  0.00000000000E+00 0. -1.
         13    1    4    4    0    0  0.50521569960E+02  0.54121188127E+02 -0.27773429557E+02  0.79075251658E+02  0.00000000000E+00 0.  1.
        -13    1    3    3    0    0 -0.10514787111E+03 -0.57859702362E+02  0.89874238537E+02  0.14993731593E+03  0.00000000000E+00 0. -1.
         13    1    3    3    0    0  0.95107094356E+01 -0.42518183348E+02  0.45353354357E+01  0.43804323722E+02  0.00000000000E+00 0.  1.
         21    1    1    2  502  501  0.34540939852E+02  0.67432172814E+02 -0.37167162555E+01  0.75855048850E+02  0.00000000000E+00 0.  1.
<scales pt_clust_5="13000.00000" pt_clust_6="13000.00000" pt_clust_7="13000.00000" pt_clust_8="13000.00000" pt_clust_9="75.76394"></scales>
<clustering>
<clus scale="   75.764">  2  9  1 -1</clus>
<clus scale="   90.065">  5  6 -1 -1</clus>
<clus scale="   96.956">  7  8 -1 -1</clus>
<clus scale="  147.673">  2  5  1 -1</clus>
<clus scale="   75.764">  2  5  1 -1</clus>
</clustering>
</event>
<event>
 9    1  0.1435532E-005  0.2283386E+03  0.7546771E-02  0.1127853E+00
         -1   -1    0    0    0  501 -0.00000000000E+00  0.00000000000E+00  0.43743421944E+03  0.43743421944E+03  0.00000000000E+00 0.  1.
          1   -1    0    0  502    0  0.00000000000E+00 -0.00000000000E+00 -0.14346384430E+03  0.14346384430E+03  0.00000000000E+00 0. -1.
         23    2    1    2    0    0 -0.54316836035E+02  0.20770014927E+03  0.21032836802E+03  0.31435231736E+03  0.92139493959E+02 0.  0.
         23    2    1    2    0    0  0.23338446914E+02 -0.19991914165E+03  0.72789562274E+02  0.23281178381E+03  0.91600545857E+02 0.  0.
        -11    1    4    4    0    0  0.17294492115E+02 -0.14361062133E+03  0.53491484885E+01  0.14474710155E+03  0.00000000000E+00 0. -1.
         11    1    4    4    0    0  0.60439547982E+01 -0.56308520319E+02  0.67440413785E+02  0.88064682260E+02  0.00000000000E+00 0.  1.
        -13    1    3    3    0    0 -0.50944358297E+02  0.72677810404E+02  0.12935162483E+03  0.15687330752E+03  0.00000000000E+00 0. -1.
         13    1    3    3    0    0 -0.33724777380E+01  0.13502233887E+03  0.80976743195E+02  0.15747900983E+03  0.00000000000E+00 0.  1.
         21    1    1    2  502  501  0.30978389121E+02 -0.77810076198E+01  0.10852444839E+02  0.33733962576E+02  0.00000000000E+00 0. -1.
<scales pt_clust_5="13000.00000" pt_clust_6="13000.00000" pt_clust_7="13000.00000" pt_clust_8="13000.00000" pt_clust_9="31.94064"></scales>
<clustering>
<clus scale="   31.941">  2  9  1 -1</clus>
<clus scale="   91.601">  5  6 -1 -1</clus>
<clus scale="   92.139">  7  8 -1 -1</clus>
<clus scale="  228.122">  2  5  1 -1</clus>
<clus scale="   31.941">  2  5  1 -1</clus>
</clustering>
</event>
<event>
 9    1  0.1435532E-005  0.1388097E+03  0.7546771E-02  0.1215797E+00
          2   -1    0    0  502    0  0.00000000000E+00  0.00000000000E+00  0.11963876143E+03  0.11963876143E+03  0.00000000000E+00 0. -1.
         -2   -1    0    0    0  501 -0.00000000000E+00 -0.00000000000E+00 -0.52796239430E+03  0.52796239430E+03  0.00000000000E+00 0.  1.
         23    2    1    2    0    0  0.98853879245E+02 -0.40618016174E+02 -0.45826163767E+03  0.47939546148E+03  0.91620779539E+02 0.  0.
         23    2    1    2    0    0 -0.78947199429E+02  0.38274066648E+02  0.11241514747E+02  0.12462601616E+03  0.87793552015E+02 0.  0.
        -11    1    4    4    0    0 -0.22090532237E+01  0.26046833182E+02  0.34710881227E+02  0.43452994264E+02  0.00000000000E+00 0.  1.
         11    1    4    4    0    0 -0.76738146205E+02  0.12227233467E+02 -0.23469366480E+02  0.81173021899E+02  0.00000000000E+00 0. -1.
        -11    1    3    3    0    0 -0.14351705926E+02 -0.18505782761E+02 -0.11217809449E+03  0.11459651104E+03  0.00000000000E+00 0. -1.
         11    1    3    3    0    0  0.11320558517E+03 -0.22112233413E+02 -0.34608354318E+03  0.36479895043E+03  0.00000000000E+00 0.  1.
         21    1    1    2  502  501 -0.19906679816E+02  0.23439495255E+01  0.38696490054E+02  0.43579678099E+02  0.00000000000E+00 0. -1.
<scales pt_clust_5="13000.00000" pt_clust_6="13000.00000" pt_clust_7="13000.00000" pt_clust_8="13000.00000" pt_clust_9="20.04420"></scales>
<clustering>
<clus scale="   20.044">  1  9  2 -1</clus>
<clus scale="   87.794">  5  6 -1 -1</clus>
<clus scale="   91.621">  7  8 -1 -1</clus>
<clus scale="  136.314">  1  5  2 -1</clus>
<clus scale="   20.044">  1  5  2 -1</clus>
</clustering>
</event>
<event>
 9    1  0.1435532E-005  0.9749122E+02  0.7546771E-02  0.1287035E+00
         -1   -1    0    0    0  501 -0.00000000000E+00  0.00000000000E+00  0.95823485229E+02  0.95823485229E+02  0.00000000000E+00 0.  1.
          1   -1    0    0  502    0  0.00000000000E+00 -0.00000000000E+00 -0.50706680427E+03  0.50706680427E+03  0.00000000000E+00 0. -1.
         23    2    1    2    0    0  0.24928658166E+02  0.87557791695E+01  0.56351108407E+02  0.11222307987E+03  0.93383459836E+02 0.  0.
         23    2    1    2    0    0 -0.29824726833E+02 -0.38991167995E+02 -0.24319521970E+03  0.26418728852E+03  0.90780961763E+02 0.  0.
        -11    1    4    4    0    0 -0.34477696521E+02  0.55918139881E+01 -0.19603708534E+03  0.19912438015E+03  0.00000000000E+00 0. -1.
         11    1    4    4    0    0  0.46529696889E+01 -0.44582981983E+02 -0.47158134361E+02  0.65062908372E+02  0.00000000000E+00 0.  1.
        -13    1    3    3    0    0 -0.32871644907E+02  0.19159136326E+02  0.18081367009E+02  0.42125448087E+02  0.00000000000E+00 0. -1.
         13    1    3    3    0    0  0.57800303073E+02 -0.10403357156E+02  0.38269741398E+02  0.70097631787E+02  0.00000000000E+00 0.  1.
         21    1    1    2  502  501  0.48960686665E+01  0.30235388826E+02 -0.22439920775E+03  0.22647992110E+03  0.00000000000E+00 0. -1.
<scales pt_clust_5="13000.00000" pt_clust_6="13000.00000" pt_clust_7="13000.00000" pt_clust_8="13000.00000" pt_clust_9="30.62924"></scales>
<clustering>
<clus scale="   30.629">  2  9  1 -1</clus>
<clus scale="   90.781">  5  6 -1 -1</clus>
<clus scale="   93.383">  7  8 -1 -1</clus>
<clus scale="   95.001">  2  5  1 -1</clus>
<clus scale="   30.629">  2  5  1 -1</clus>
</clustering>
</event>
<event>
 9    1  0.1435532E-005  0.1186660E+03  0.7546771E-02  0.1245810E+00
          1   -1    0    0  502    0  0.00000000000E+00  0.00000000000E+00  0.52945920683E+03  0.52945920683E+03  0.00000000000E+00 0. -1.
         -1   -1    0    0    0  501 -0.00000000000E+00 -0.00000000000E+00 -0.41339128830E+02  0.41339128830E+02  0.00000000000E+00 0.  1.
         23    2    1    2    0    0 -0.15501790571E+01 -0.78709806297E+02  0.12808017439E+03  0.17717799932E+03  0.93754337024E+02 0.  0.
         23    2    1    2    0    0 -0.17368054810E+02  0.64142011325E+02  0.18635033317E+03  0.21829724287E+03  0.92257209077E+02 0.  0.
        -11    1    3    3    0    0  0.36371113991E+02 -0.15204162475E+01  0.36660955409E+02  0.51664255051E+02  0.00000000000E+00 0.  1.
         11    1    3    3    0    0 -0.37921293048E+02 -0.77189390049E+02  0.91419218980E+02  0.12551374427E+03  0.00000000000E+00 0. -1.
        -13    1    4    4    0    0 -0.32487683170E+02  0.82349840092E+02  0.13108870358E+03  0.15818088989E+03  0.00000000000E+00 0.  1.
         13    1    4    4    0    0  0.15119628360E+02 -0.18207828767E+02  0.55261629587E+02  0.60116352973E+02  0.00000000000E+00 0. -1.
         21    1    1    2  502  501  0.18918233868E+02  0.14567794972E+02  0.17368957044E+03  0.17532309347E+03  0.00000000000E+00 0.  1.
<scales pt_clust_5="13000.00000" pt_clust_6="13000.00000" pt_clust_7="13000.00000" pt_clust_8="13000.00000" pt_clust_9="23.87719"></scales>
<clustering>
<clus scale="   23.877">  1  9  2 -1</clus>
<clus scale="   92.257">  7  8 -1 -1</clus>
<clus scale="   93.754">  5  6 -1 -1</clus>
<clus scale="  117.487">  1  7  2 -1</clus>
<clus scale="   23.877">  1  5  2 -1</clus>
</clustering>
</event>
<event>
 9    1  0.1435532E-005  0.9443849E+02  0.7546771E-02  0.1292840E+00
          1   -1    0    0  502    0  0.00000000000E+00  0.00000000000E+00  0.73551282909E+02  0.73551282909E+02  0.00000000000E+00 0. -1.
         -1   -1    0    0    0  501 -0.00000000000E+00 -0.00000000000E+00 -0.22309455243E+03  0.22309455243E+03  0.00000000000E+00 0.  1.
         23    2    1    2    0    0 -0.15679816690E+02  0.28974726564E+02 -0.12956019950E+03  0.16144918471E+03  0.90524043864E+02 0.  0.
         23    2    1    2    0    0  0.15348806881E+02  0.99135402941E+01 -0.39595088376E+01  0.93135250513E+02  0.91239426917E+02 0.  0.
        -13    1    3    3    0    0  0.25952673866E+02  0.44014244498E+02 -0.80731301983E+02  0.95542336791E+02  0.00000000000E+00 0.  1.
         13    1    3    3    0    0 -0.41632490556E+02 -0.15039517934E+02 -0.48828897515E+02  0.65906847915E+02  0.00000000000E+00 0. -1.
        -13    1    4    4    0    0  0.38860476929E+02  0.73317955907E+01 -0.35886199595E+02  0.53401415852E+02  0.00000000000E+00 0.  1.
         13    1    4    4    0    0 -0.23511670048E+02  0.25817447035E+01  0.31926690757E+02  0.39733834661E+02  0.00000000000E+00 0. -1.
         21    1    1    2  502  501  0.33100980937E+00 -0.38888266858E+02 -0.16023561181E+02  0.42061400115E+02  0.00000000000E+00 0. -1.
<scales pt_clust_5="13000.00000" pt_clust_6="13000.00000" pt_clust_7="13000.00000" pt_clust_8="13000.00000" pt_clust_9="38.88968"></scales>
<clustering>
<clus scale="   38.890">  1  9  2 -1</clus>
<clus scale="   90.524">  5  6 -1 -1</clus>
<clus scale="   91.239">  7  8 -1 -1</clus>
<clus scale="   93.748">  2  5  1 -1</clus>
<clus scale="   38.890">  1  5  2 -1</clus>
</clustering>
</event>
<event>
 9    1  0.1435532E-005  0.1234391E+03  0.7546771E-02  0.1239980E+00
         -3   -1    0    0    0  501 -0.00000000000E+00  0.00000000000E+00  0.29648641224E+03  0.29648641224E+03  0.00000000000E+00 0.  1.
          3   -1    0    0  502    0  0.00000000000E+00 -0.00000000000E+00 -0.11421492573E+03  0.11421492573E+03  0.00000000000E+00 0. -1.
         23    2    1    2    0    0 -0.63386098049E+02  0.97138389549E+02  0.14889458669E+03  0.21401474140E+03  0.10089126543E+03 0.  0.
         23    2    1    2    0    0  0.23599764044E+02 -0.13312058409E+02  0.36311495697E+02  0.10385116143E+03  0.93447200321E+02 0.  0.
        -13    1    3    3    0    0 -0.55184128784E+01  0.95311567742E+02  0.85487871139E+02  0.12815195643E+03  0.00000000000E+00 0.  1.
         13    1    3    3    0    0 -0.57867685171E+02  0.18268218070E+01  0.63406715551E+02  0.85862784964E+02  0.00000000000E+00 0. -1.
        -13    1    4    4    0    0  0.36841078867E+02 -0.40272795997E+02 -0.26613113522E+01  0.54646553118E+02  0.00000000000E+00 0. -1.
         13    1    4    4    0    0 -0.13241314823E+02  0.26960737588E+02  0.38972807049E+02  0.49204608309E+02  0.00000000000E+00 0.  1.
         21    1    1    2  502  501  0.39786334005E+02 -0.83826331139E+02 -0.29345958774E+01  0.92835435146E+02  0.00000000000E+00 0. -1.
<scales pt_clust_5="13000.00000" pt_clust_6="13000.00000" pt_clust_7="13000.00000" pt_clust_8="13000.00000" pt_clust_9="92.78904"></scales>
<clustering>
<clus scale="   92.789">  2  9  1 -1</clus>
<clus scale="   93.447">  7  8 -1 -1</clus>
<clus scale="  100.891">  5  6 -1 -1</clus>
<clus scale="  117.433">  2  7  1 -1</clus>
<clus scale="   92.789">  2  5  1 -1</clus>
</clustering>
</event>
<event>
 9    1  0.1435532E-005  0.1228380E+03  0.7546771E-02  0.1239212E+00
         -1   -1    0    0    0  501 -0.00000000000E+00  0.00000000000E+00  0.85543857975E+02  0.85543857975E+02  0.00000000000E+00 0.  1.
          1   -1    0    0  502    0  0.00000000000E+00 -0.00000000000E+00 -0.44801672022E+03  0.44801672022E+03  0.00000000000E+00 0. -1.
         23    2    1    2    0    0  0.48572192042E+01  0.81533254197E+02  0.16882868649E+02  0.12303471537E+03  0.90450239430E+02 0.  0.
         23    2    1    2    0    0 -0.36270724127E+02 -0.69748156156E+02 -0.31998042774E+03  0.34232671729E+03  0.92842536159E+02 0.  0.
        -13    1    3    3    0    0 -0.59883896672E-01  0.32840879743E+02 -0.37517091811E+02  0.49860396572E+02  0.00000000000E+00 0. -1.
         13    1    3    3    0    0  0.49171031008E+01  0.48692374453E+02  0.54399960460E+02  0.73174318793E+02  0.00000000000E+00 0.  1.
        -13    1    4    4    0    0  0.14230818269E+02 -0.38391997622E+02 -0.23547287730E+03  0.23900614556E+03  0.00000000000E+00 0. -1.
         13    1    4    4    0    0 -0.50501542397E+02 -0.31356158533E+02 -0.84507550433E+02  0.10332057173E+03  0.00000000000E+00 0.  1.
         21    1    1    2  502  501  0.31413504923E+02 -0.11785098041E+02 -0.59375303156E+02  0.68199145539E+02  0.00000000000E+00 0.  1.
<scales pt_clust_5="13000.00000" pt_clust_6="13000.00000" pt_clust_7="13000.00000" pt_clust_8="13000.00000" pt_clust_9="33.55141"></scales>
<clustering>
<clus scale="   33.551">  2  9  1 -1</clus>
<clus scale="   90.450">  5  6 -1 -1</clus>
<clus scale="   92.843">  7  8 -1 -1</clus>
<clus scale="  121.040">  1  5  2 -1</clus>
<clus scale="   33.551">  2  5  1 -1</clus>
</clustering>
</event>
<event>
 9    1  0.1435532E-005  0.1355425E+03  0.7546771E-02  0.1223844E+00
          2   -1    0    0  502    0  0.00000000000E+00  0.00000000000E+00  0.19772285473E+03  0.19772285473E+03  0.00000000000E+00 0. -1.
         -2   -1    0    0    0  501 -0.00000000000E+00 -0.00000000000E+00 -0.16859926595E+03  0.16859926595E+03  0.00000000000E+00 0.  1.
         23    2    1    2    0    0  0.56843061051E+02 -0.42776225061E+02 -0.46931371884E+02  0.12517735929E+03  0.91683578631E+02 0.  0.
         23    2    1    2    0    0 -0.89730479417E+02  0.53956058222E+02 -0.81432046040E+01  0.15006291913E+03  0.10719026431E+03 0.  0.
        -13    1    3    3    0    0  0.39106418813E+02 -0.67099878514E+02 -0.53573733637E+02  0.94349619102E+02  0.00000000000E+00 0.  1.
         13    1    3    3    0    0  0.17736642238E+02  0.24323653453E+02  0.66423617522E+01  0.30827740184E+02  0.00000000000E+00 0. -1.
        -13    1    4    4    0    0 -0.91831020803E+01 -0.30958409015E+02  0.33252814776E+01  0.32462439056E+02  0.00000000000E+00 0.  1.
         13    1    4    4    0    0 -0.80547377337E+02  0.84914467237E+02 -0.11468486082E+02  0.11760048008E+03  0.00000000000E+00 0. -1.
         21    1    1    2  502  501  0.32887418365E+02 -0.11179833161E+02  0.84198165268E+02  0.91081842267E+02  0.00000000000E+00 0.  1.
<scales pt_clust_5="13000.00000" pt_clust_6="13000.00000" pt_clust_7="13000.00000" pt_clust_8="13000.00000" pt_clust_9="34.73573"></scales>
<clustering>
<clus scale="   34.736">  1  9  2 -1</clus>
<clus scale="   91.684">  5  6 -1 -1</clus>
<clus scale="  107.190">  7  8 -1 -1</clus>
<clus scale="  123.644">  2  5  1 -1</clus>
<clus scale="   34.736">  1  5  2 -1</clus>
</clustering>
</event>
<event>
 9    1  0.1435532E-005  0.1908321E+03  0.7546771E-02  0.1181790E+00
         -1   -1    0    0    0  501 -0.00000000000E+00  0.00000000000E+00  0.94537907635E+03  0.94537907635E+03  0.00000000000E+00 0.  1.
          1   -1    0    0  502    0  0.00000000000E+00 -0.00000000000E+00 -0.94582010323E+02  0.94582010323E+02  0.00000000000E+00 0. -1.
         23    2    1    2    0    0  0.12859553260E+03 -0.18269854683E+02  0.82112584760E+02  0.17725949624E+03  0.88362061065E+02 0.  0.
         23    2    1    2    0    0  0.38884778954E+02 -0.44164259677E+02  0.47690547311E+02  0.11988268505E+03  0.92924496258E+02 0.  0.
        -11    1    3    3    0    0  0.81261561952E+02 -0.43861872915E+02  0.18921375231E+02  0.94261995455E+02  0.00000000000E+00 0. -1.
         11    1    3    3    0    0  0.47333970649E+02  0.25592018232E+02  0.63191209529E+02  0.82997500783E+02  0.00000000000E+00 0.  1.
        -11    1    4    4    0    0 -0.74398578560E+01 -0.28929505206E+02  0.62203099194E+02  0.69003574587E+02  0.00000000000E+00 0.  1.
         11    1    4    4    0    0  0.46324636810E+02 -0.15234754471E+02 -0.14512551883E+02  0.50879110464E+02  0.00000000000E+00 0. -1.
         21    1    1    2  502  501 -0.16748031156E+03  0.62434114360E+02  0.72099393396E+03  0.74281890539E+03  0.00000000000E+00 0.  1.
<scales pt_clust_5="13000.00000" pt_clust_6="13000.00000" pt_clust_7="13000.00000" pt_clust_8="13000.00000" pt_clust_9="169.14208"></scales>
<clustering>
<clus scale="   88.362">  5  6 -1 -1</clus>
<clus scale="   92.924">  7  8 -1 -1</clus>
<clus scale="  109.988">  2  7  1 -1</clus>
<clus scale="  169.142">  1  9  2 -1</clus>
<clus scale="  109.988">  2  5  1 -1</clus>
</clustering>
</event>
<event>
 9    1  0.1435532E-005  0.1312036E+03  0.7546771E-02  0.1225877E+00
         -1   -1    0    0    0  501 -0.00000000000E+00  0.00000000000E+00  0.65071425394E+02  0.65071425394E+02  0.00000000000E+00 0.  1.
          1   -1    0    0  502    0  0.00000000000E+00 -0.00000000000E+00 -0.62173874220E+03  0.62173874220E+03  0.00000000000E+00 0. -1.
         23    2    1    2    0    0  0.51320624788E+02  0.71439348619E+02 -0.38647540777E+02  0.13181695845E+03  0.90247942179E+02 0.  0.
         23    2    1    2    0    0 -0.54661344670E+02 -0.11344998029E+03 -0.37566464480E+03  0.40653096825E+03  0.91020559029E+02 0.  0.
        -11    1    3    3    0    0 -0.25560241839E+02  0.14571990482E+02 -0.16212091653E+02  0.33593165752E+02  0.00000000000E+00 0.  1.
         11    1    3    3    0    0  0.76880866627E+02  0.56867358137E+02 -0.22435449125E+02  0.98223792700E+02  0.00000000000E+00 0. -1.
        -13    1    4    4    0    0 -0.53341193755E+02 -0.13889150454E+02 -0.11597182752E+03  0.12840426874E+03  0.00000000000E+00 0.  1.
         13    1    4    4    0    0 -0.13201509151E+01 -0.99560829838E+02 -0.25969281728E+03  0.27812669952E+03  0.00000000000E+00 0. -1.
         21    1    1    2  502  501  0.33407198823E+01  0.42010631673E+02 -0.14235513122E+03  0.14846224089E+03  0.00000000000E+00 0. -1.
<scales pt_clust_5="13000.00000" pt_clust_6="13000.00000" pt_clust_7="13000.00000" pt_clust_8="13000.00000" pt_clust_9="42.14325"></scales>
<clustering>
<clus scale="   42.143">  2  9  1 -1</clus>
<clus scale="   90.248">  5  6 -1 -1</clus>
<clus scale="   91.021">  7  8 -1 -1</clus>
<clus scale="  130.669">  1  5  2 -1</clus>
<clus scale="   42.143">  2  5  1 -1</clus>
</clustering>
</event>
<event>
 9    1  0.2153719E-005  0.9879362E+02  0.7546771E-02  0.1282958E+00
          2   -1    0    0  502    0  0.00000000000E+00  0.00000000000E+00  0.63572551731E+03  0.63572551731E+03  0.00000000000E+00 0. -1.
         -2   -1    0    0    0  501 -0.00000000000E+00 -0.00000000000E+00 -0.13479631860E+03  0.13479631860E+03  0.00000000000E+00 0.  1.
         23    2    1    2    0    0  0.18751897251E+02  0.28243319916E+02 -0.10310227084E+03  0.14227865651E+03  0.91999016712E+02 0.  0.
         23    2    1    2    0    0 -0.65129635562E+02 -0.44617757212E+02  0.47165048910E+03  0.48702086957E+03  0.92209163551E+02 0.  0.
        -11    1    3    3    0    0 -0.23261263040E+02  0.45016610165E+02 -0.69096848583E+02  0.85685214787E+02  0.00000000000E+00 0.  1.
         11    1    3    3    0    0  0.42013160292E+02 -0.16773290249E+02 -0.34005422261E+02  0.56593441728E+02  0.00000000000E+00 0. -1.
        -11    1    4    4    0    0  0.16932769642E+02  0.11900391612E+02  0.10805882729E+03  0.11002294381E+03  0.00000000000E+00 0. -1.
         11    1    4    4    0    0 -0.82062405204E+02 -0.56518148824E+02  0.36359166181E+03  0.37699792577E+03  0.00000000000E+00 0.  1.
         21    1    1    2  502  501  0.46377738311E+02  0.16374437296E+02  0.13238098044E+03  0.14122230982E+03  0.00000000000E+00 0.  1.
<scales pt_clust_5="13000.00000" pt_clust_6="13000.00000" pt_clust_7="13000.00000" pt_clust_8="13000.00000" pt_clust_9="49.18350"></scales>
<clustering>
<clus scale="   49.184">  1  9  2 -1</clus>
<clus scale="   91.999">  5  6 -1 -1</clus>
<clus scale="   92.209">  7  8 -1 -1</clus>
<clus scale="   98.598">  2  5  1 -1</clus>
<clus scale="   49.184">  1  5  2 -1</clus>
</clustering>
</event>
<event>
 9    1  0.1435532E-005  0.9373555E+02  0.7546771E-02  0.1294166E+00
         -1   -1    0    0    0  501 -0.00000000000E+00  0.00000000000E+00  0.37937195133E+02  0.37937195133E+02  0.00000000000E+00 0.  1.
          1   -1    0    0  502    0  0.00000000000E+00 -0.00000000000E+00 -0.44395926779E+03  0.44395926779E+03  0.00000000000E+00 0. -1.
         23    2    1    2    0    0 -0.29369105877E+01  0.80798705000E+01 -0.62524524796E+02  0.10838431016E+03  0.88113181399E+02 0.  0.
         23    2    1    2    0    0  0.83976100905E+01 -0.38260628591E+02 -0.32196267677E+03  0.33603618619E+03  0.87897426809E+02 0.  0.
        -11    1    3    3    0    0  0.19031052103E+02  0.43129531964E+02 -0.34582233437E+02  0.58465958823E+02  0.00000000000E+00 0.  1.
         11    1    3    3    0    0 -0.21967962691E+02 -0.35049661464E+02 -0.27942291359E+02  0.49918351334E+02  0.00000000000E+00 0. -1.
        -13    1    4    4    0    0 -0.37189101106E+02 -0.12382008039E+02 -0.89002745342E+02  0.97251385813E+02  0.00000000000E+00 0. -1.
         13    1    4    4    0    0  0.45586711196E+02 -0.25878620552E+02 -0.23295993143E+03  0.23878480038E+03  0.00000000000E+00 0.  1.
         21    1    1    2  502  501 -0.54606995028E+01  0.30180758091E+02 -0.21534871092E+02  0.37475966578E+02  0.00000000000E+00 0. -1.
<scales pt_clust_5="13000.00000" pt_clust_6="13000.00000" pt_clust_7="13000.00000" pt_clust_8="13000.00000" pt_clust_9="30.67079"></scales>
<clustering>
<clus scale="   30.671">  1  9  2 -1</clus>
<clus scale="   87.897">  7  8 -1 -1</clus>
<clus scale="   88.113">  5  6 -1 -1</clus>
<clus scale="   93.533">  2  7  1 -1</clus>
<clus scale="   93.533">  2  5  1 -1</clus>
</clustering>
</event>
<event>
 9    1  0.1435532E-005  0.1104377E+03  0.7546771E-02  0.1259850E+00
          2   -1    0    0  502    0  0.00000000000E+00  0.00000000000E+00  0.66049346044E+03  0.66049346044E+03  0.00000000000E+00 0. -1.
         -2   -1    0    0    0  501 -0.00000000000E+00 -0.00000000000E+00 -0.49648596647E+02  0.49648596647E+02  0.00000000000E+00 0.  1.
         23    2    1    2    0    0  0.29540399357E+02 -0.60773007927E+02  0.38996614664E+02  0.11994031885E+03  0.91098575424E+02 0.  0.
         23    2    1    2    0    0  0.55769984287E+01  0.46575501977E+02  0.33233860840E+03  0.34771530809E+03  0.90865860208E+02 0.  0.
        -11    1    4    4    0    0  0.33960957968E+02  0.56024376221E+02  0.16158698745E+03  0.17436293158E+03  0.00000000000E+00 0.  1.
         11    1    4    4    0    0 -0.28383959539E+02 -0.94488742445E+01  0.17075162095E+03  0.17335237651E+03  0.00000000000E+00 0. -1.
        -13    1    3    3    0    0  0.45308190724E+02 -0.38333115535E+01 -0.57407844563E+01  0.45831026939E+02  0.00000000000E+00 0.  1.
         13    1    3    3    0    0 -0.15767791367E+02 -0.56939696373E+02  0.44737399120E+02  0.74109291912E+02  0.00000000000E+00 0. -1.
         21    1    1    2  502  501 -0.35117397786E+02  0.14197505950E+02  0.23950964072E+03  0.24248643014E+03  0.00000000000E+00 0.  1.
<scales pt_clust_5="13000.00000" pt_clust_6="13000.00000" pt_clust_7="13000.00000" pt_clust_8="13000.00000" pt_clust_9="37.87876"></scales>
<clustering>
<clus scale="   37.879">  1  9  2 -1</clus>
<clus scale="   90.866">  5  6 -1 -1</clus>
<clus scale="   91.099">  7  8 -1 -1</clus>
<clus scale="  110.246">  1  5  2 -1</clus>
<clus scale="   37.879">  1  5  2 -1</clus>
</clustering>
</event>
<event>
 9    1  0.1435532E-005  0.2106509E+03  0.7546771E-02  0.1158645E+00
          1   -1    0    0  502    0  0.00000000000E+00  0.00000000000E+00  0.13890715901E+04  0.13890715901E+04  0.00000000000E+00 0. -1.
         -1   -1    0    0    0  501 -0.00000000000E+00 -0.00000000000E+00 -0.17029910558E+03  0.17029910558E+03  0.00000000000E+00 0.  1.
         23    2    1    2    0    0  0.61459606564E+02  0.86231368360E+02  0.36339562055E+01  0.13887112420E+03  0.89771105431E+02 0.  0.
         23    2    1    2    0    0 -0.45197764932E+02 -0.26965857566E+03  0.12334516301E+03  0.31328561727E+03  0.90417163044E+02 0.  0.
        -11    1    3    3    0    0  0.50864541083E+02  0.18869818137E+02 -0.30900769888E+02  0.62434999446E+02  0.00000000000E+00 0. -1.
         11    1    3    3    0    0  0.10595065481E+02  0.67361550223E+02  0.34534726093E+02  0.76436124753E+02  0.00000000000E+00 0.  1.
        -13    1    4    4    0    0 -0.89897805070E+00 -0.23539285432E+02  0.45735133936E+02  0.51445199934E+02  0.00000000000E+00 0. -1.
         13    1    4    4    0    0 -0.44298786881E+02 -0.24611929022E+03  0.77610029074E+02  0.26184041734E+03  0.00000000000E+00 0.  1.
         21    1    1    2  502  501 -0.16261841632E+02  0.18342720730E+03  0.10917933653E+04  0.11072139542E+04  0.00000000000E+00 0. -1.
<scales pt_clust_5="13000.00000" pt_clust_6="13000.00000" pt_clust_7="13000.00000" pt_clust_8="13000.00000" pt_clust_9="190.25915"></scales>
<clustering>
<clus scale="   89.771">  5  6 -1 -1</clus>
<clus scale="   90.417">  7  8 -1 -1</clus>
<clus scale="  138.824">  2  5  1 -1</clus>
<clus scale="  190.259">  1  9  2 -1</clus>
<clus scale="  190.259">  1  5  2 -1</clus>
</clustering>
</event>
<event>
 9    1  0.1435532E-005  0.1056443E+03  0.7546771E-02  0.1273084E+00
         -1   -1    0    0    0  501 -0.00000000000E+00  0.00000000000E+00  0.57855294612E+02  0.57855294612E+02  0.00000000000E+00 0.  1.
          1   -1    0    0  502    0  0.00000000000E+00 -0.00000000000E+00 -0.33011625105E+03  0.33011625105E+03  0.00000000000E+00 0. -1.
         23    2    1    2    0    0 -0.54756239411E+02 -0.35557498329E+01 -0.30102648895E+02  0.11166522180E+03  0.92477365760E+02 0.  0.
         23    2    1    2    0    0  0.42151941855E+02 -0.24266857531E+02 -0.14100251666E+03  0.17063958441E+03  0.82888427939E+02 0.  0.
        -11    1    3    3    0    0 -0.10056494257E+02 -0.43874046850E+02 -0.24398013764E+02  0.51198907599E+02  0.00000000000E+00 0. -1.
         11    1    3    3    0    0 -0.44699745154E+02  0.40318297017E+02 -0.57046351306E+01  0.60466314202E+02  0.00000000000E+00 0.  1.
        -11    1    4    4    0    0 -0.62404800863E+01  0.19913259338E+02 -0.79581921737E+01  0.22334151245E+02  0.00000000000E+00 0.  1.
         11    1    4    4    0    0  0.48392421942E+02 -0.44180116869E+02 -0.13304432448E+03  0.14830543316E+03  0.00000000000E+00 0. -1.
         21    1    1    2  502  501  0.12604297555E+02  0.27822607364E+02 -0.10115579089E+03  0.10566673946E+03  0.00000000000E+00 0. -1.
<scales pt_clust_5="13000.00000" pt_clust_6="13000.00000" pt_clust_7="13000.00000" pt_clust_8="13000.00000" pt_clust_9="30.54449"></scales>
<clustering>
<clus scale="   30.544">  2  9  1 -1</clus>
<clus scale="   82.888">  7  8 -1 -1</clus>
<clus scale="   92.477">  5  6 -1 -1</clus>
<clus scale="   97.361">  2  7  1 -1</clus>
<clus scale="   30.544">  2  5  1 -1</clus>
</clustering>
</event>
<event>
 9    1  0.1435532E-005  0.1011784E+03  0.7546771E-02  0.1277862E+00
         -2   -1    0    0    0  501 -0.00000000000E+00  0.00000000000E+00  0.82510781261E+02  0.82510781261E+02  0.00000000000E+00 0.  1.
          2   -1    0    0  502    0  0.00000000000E+00 -0.00000000000E+00 -0.71532730990E+03  0.71532730990E+03  0.00000000000E+00 0. -1.
         23    2    1    2    0    0 -0.13440706751E+02 -0.75985943091E+02 -0.19891244125E+02  0.12132552514E+03  0.91486093551E+02 0.  0.
         23    2    1    2    0    0 -0.43465167386E+02 -0.34885960858E+01 -0.65958449088E+02  0.12088031358E+03  0.91433812824E+02 0.  0.
        -13    1    3    3    0    0 -0.16130927349E+02  0.17903735604E+02 -0.12392587656E+02  0.27098464800E+02  0.00000000000E+00 0. -1.
         13    1    3    3    0    0  0.26902205982E+01 -0.93889678694E+02 -0.74986564691E+01  0.94227060344E+02  0.00000000000E+00 0.  1.
        -13    1    4    4    0    0 -0.38004401167E+02 -0.23932887335E+02  0.65134643045E+01  0.45382186169E+02  0.00000000000E+00 0.  1.
         13    1    4    4    0    0 -0.54607662193E+01  0.20444291249E+02 -0.72471913393E+02  0.75498127415E+02  0.00000000000E+00 0. -1.
         21    1    1    2  502  501  0.56905874136E+02  0.79474539177E+02 -0.54696683543E+03  0.55563225244E+03  0.00000000000E+00 0. -1.
<scales pt_clust_5="13000.00000" pt_clust_6="13000.00000" pt_clust_7="13000.00000" pt_clust_8="13000.00000" pt_clust_9="97.74702"></scales>
<clustering>
<clus scale="   91.434">  7  8 -1 -1</clus>
<clus scale="   91.486">  5  6 -1 -1</clus>
<clus scale="   97.747">  2  9  1 -1</clus>
<clus scale="  101.131">  2  7  1 -1</clus>
<clus scale="   97.747">  2  5  1 -1</clus>
</clustering>
</event>
<event>
 9    1  0.1435532E-005  0.1038120E+03  0.7546771E-02  0.1275020E+00
          2   -1    0    0  502    0  0.00000000000E+00  0.00000000000E+00  0.37815310634E+02  0.37815310634E+02  0.00000000000E+00 0. -1.
         -2   -1    0    0    0  501 -0.00000000000E+00 -0.00000000000E+00 -0.35849618632E+03  0.35849618632E+03  0.00000000000E+00 0.  1.
         23    2    1    2    0    0  0.35378258987E+02  0.93810559823E+01 -0.18775084737E+03  0.21028229586E+03  0.87342073728E+02 0.  0.
         23    2    1    2    0    0 -0.44850818866E+02 -0.27989214406E+02 -0.96359832611E+02  0.14391777551E+03  0.92909185185E+02 0.  0.
        -11    1    3    3    0    0 -0.19420684493E+02  0.30341853408E+02 -0.72488230188E+02  0.80946492019E+02  0.00000000000E+00 0. -1.
         11    1    3    3    0    0  0.54798943480E+02 -0.20960797426E+02 -0.11526261718E+03  0.12933580384E+03  0.00000000000E+00 0.  1.
        -11    1    4    4    0    0 -0.38366105766E+02  0.49938667089E+01  0.32141163224E+01  0.38823025644E+02  0.00000000000E+00 0. -1.
         11    1    4    4    0    0 -0.64847130992E+01 -0.32983081115E+02 -0.99573948933E+02  0.10509474987E+03  0.00000000000E+00 0.  1.
         21    1    1    2  502  501  0.94725598784E+01  0.18608158424E+02 -0.36570195702E+02  0.42111425578E+02  0.00000000000E+00 0.  1.
<scales pt_clust_5="13000.00000" pt_clust_6="13000.00000" pt_clust_7="13000.00000" pt_clust_8="13000.00000" pt_clust_9="20.88044"></scales>
<clustering>
<clus scale="   20.880">  2  9  1 -1</clus>
<clus scale="   87.342">  5  6 -1 -1</clus>
<clus scale="   92.909">  7  8 -1 -1</clus>
<clus scale="   98.861">  2  5  1 -1</clus>
<clus scale="  103.812">  1  5  2 -1</clus>
</clustering>
</event>
<event>
 9    1  0.1435532E-005  0.1163604E+03  0.7546771E-02  0.1250694E+00
          4   -1    0    0  502    0  0.00000000000E+00  0.00000000000E+00  0.13251683820E+03  0.13251683820E+03  0.00000000000E+00 0. -1.
         -4   -1    0    0    0  501 -0.00000000000E+00 -0.00000000000E+00 -0.24248335047E+03  0.24248335047E+03  0.00000000000E+00 0.  1.
         23    2    1    2    0    0 -0.28632963468E+01  0.63008506329E+02 -0.94157584002E+02  0.14557297546E+03  0.91365038299E+02 0.  0.
         23    2    1    2    0    0  0.35681330400E+02 -0.65316798491E+02 -0.88278423667E+02  0.14983965555E+03  0.95495553752E+02 0.  0.
        -11    1    4    4    0    0 -0.20932981597E+01 -0.72761915488E+02 -0.83921969521E+02  0.11109264247E+03  0.00000000000E+00 0.  1.
         11    1    4    4    0    0  0.37774628560E+02  0.74451169975E+01 -0.43564541451E+01  0.38747013080E+02  0.00000000000E+00 0. -1.
        -13    1    3    3    0    0 -0.28104218984E+02  0.77108610436E+02 -0.71305452692E+02  0.10872006490E+03  0.00000000000E+00 0. -1.
         13    1    3    3    0    0  0.25240922637E+02 -0.14100104107E+02 -0.22852131310E+02  0.36852910561E+02  0.00000000000E+00 0.  1.
         21    1    1    2  502  501 -0.32818034053E+02  0.23082921619E+01  0.72469495400E+02  0.79587557667E+02  0.00000000000E+00 0. -1.
<scales pt_clust_5="13000.00000" pt_clust_6="13000.00000" pt_clust_7="13000.00000" pt_clust_8="13000.00000" pt_clust_9="32.89911"></scales>
<clustering>
<clus scale="   32.899">  1  9  2 -1</clus>
<clus scale="   91.365">  7  8 -1 -1</clus>
<clus scale="   95.496">  5  6 -1 -1</clus>
<clus scale="  112.995">  2  7  1 -1</clus>
<clus scale="   32.899">  1  5  2 -1</clus>
</clustering>
</event>
<event>
 9    1  0.1435532E-005  0.1674902E+03  0.7546771E-02  0.1180597E+00
         -2   -1    0    0    0  501 -0.00000000000E+00  0.00000000000E+00  0.11419828103E+03  0.11419828103E+03  0.00000000000E+00 0.  1.
          2   -1    0    0  502    0  0.00000000000E+00 -0.00000000000E+00 -0.47978143504E+03  0.47978143504E+03  0.00000000000E+00 0. -1.
         23    2    1    2    0    0 -0.99716934606E+02  0.12566392799E+03 -0.50885389093E+02  0.19233978152E+03  0.93114869323E+02 0.  0.
         23    2    1    2    0    0  0.56615975457E+02 -0.10053304651E+03 -0.95277082471E+02  0.17661840276E+03  0.93830035873E+02 0.  0.
        -13    1    3    3    0    0 -0.31023763087E+02  0.15917624193E+01  0.16667625713E+02  0.35253614433E+02  0.00000000000E+00 0.  1.
         13    1    3    3    0    0 -0.68693171519E+02  0.12407216557E+03 -0.67553014806E+02  0.15708616709E+03  0.00000000000E+00 0. -1.
        -13    1    4    4    0    0  0.43249434070E+01 -0.36130148317E+02  0.14371517940E+02  0.39123308664E+02  0.00000000000E+00 0. -1.
         13    1    4    4    0    0  0.52291032050E+02 -0.64402898189E+02 -0.10964860041E+03  0.13749509409E+03  0.00000000000E+00 0.  1.
         21    1    1    2  502  501  0.43100959149E+02 -0.25130881481E+02 -0.21942068244E+03  0.22502153179E+03  0.00000000000E+00 0.  1.
<scales pt_clust_5="13000.00000" pt_clust_6="13000.00000" pt_clust_7="13000.00000" pt_clust_8="13000.00000" pt_clust_9="49.89242"></scales>
<clustering>
<clus scale="   49.892">  2  9  1 -1</clus>
<clus scale="   93.115">  5  6 -1 -1</clus>
<clus scale="   93.830">  7  8 -1 -1</clus>
<clus scale="  167.091">  1  5  2 -1</clus>
<clus scale="   49.892">  2  5  1 -1</clus>
</clustering>
</event>
<event>
 9    1  0.1435532E-005  0.1433183E+03  0.7546771E-02  0.1212889E+00
          2   -1    0    0  502    0  0.00000000000E+00  0.00000000000E+00  0.45780705691E+03  0.45780705691E+03  0.00000000000E+00 0. -1.
         -2   -1    0    0    0  501 -0.00000000000E+00 -0.00000000000E+00 -0.73592211354E+02  0.73592211354E+02  0.00000000000E+00 0.  1.
         23    2    1    2    0    0  0.81595988386E+02  0.60947590688E+02  0.32235675033E+02  0.14039797965E+03  0.91104005476E+02 0.  0.
         23    2    1    2    0    0 -0.56189752294E+02 -0.52484096348E+02  0.22150609110E+03  0.25780845088E+03  0.10718386222E+03 0.  0.
        -13    1    3    3    0    0  0.55439777739E+02  0.79179150734E+02  0.44276330359E+02  0.10631698028E+03  0.00000000000E+00 0.  1.
         13    1    3    3    0    0  0.26156210646E+02 -0.18231560046E+02 -0.12040655326E+02  0.34080999366E+02  0.00000000000E+00 0. -1.
        -13    1    4    4    0    0 -0.16403811079E+02 -0.40680933448E+02  0.21029511229E+03  0.21482098970E+03  0.00000000000E+00 0. -1.
         13    1    4    4    0    0 -0.39785941215E+02 -0.11803162899E+02  0.11210978812E+02  0.42987461180E+02  0.00000000000E+00 0.  1.
         21    1    1    2  502  501 -0.25406236092E+02 -0.84634943400E+01  0.13047307942E+03  0.13319283773E+03  0.00000000000E+00 0. -1.
<scales pt_clust_5="13000.00000" pt_clust_6="13000.00000" pt_clust_7="13000.00000" pt_clust_8="13000.00000" pt_clust_9="26.77886"></scales>
<clustering>
<clus scale="   26.779">  1  9  2 -1</clus>
<clus scale="   91.104">  5  6 -1 -1</clus>
<clus scale="  107.184">  7  8 -1 -1</clus>
<clus scale="  131.726">  2  5  1 -1</clus>
<clus scale="   26.779">  1  5  2 -1</clus>
</clustering>
</event>
<event>
 9    1  0.2446508E-005  0.9915129E+02  0.7546771E-02  0.1282340E+00
          3   -1    0    0  502    0  0.00000000000E+00  0.00000000000E+00  0.19451124881E+03  0.19451124881E+03  0.00000000000E+00 0. -1.
         -3   -1    0    0    0  501 -0.00000000000E+00 -0.00000000000E+00 -0.15360034101E+03  0.15360034101E+03  0.00000000000E+00 0.  1.
         23    2    1    2    0    0 -0.39666723146E+02 -0.35268064257E+01 -0.11025879685E+03  0.14834392375E+03  0.90901210884E+02 0.  0.
         23    2    1    2    0    0  0.35009512247E+02  0.24698606332E+02  0.14681920389E+03  0.17765745166E+03  0.90391395595E+02 0.  0.
        -13    1    3    3    0    0 -0.82275806104E+01 -0.45061300810E+02 -0.63825622617E+02  0.78561593771E+02  0.00000000000E+00 0.  1.
         13    1    3    3    0    0 -0.31439142535E+02  0.41534494384E+02 -0.46433174236E+02  0.69782329975E+02  0.00000000000E+00 0. -1.
        -13    1    4    4    0    0 -0.55816006170E+01  0.45302453832E+02  0.11005281255E+03  0.11914314138E+03  0.00000000000E+00 0. -1.
         13    1    4    4    0    0  0.40591112864E+02 -0.20603847500E+02  0.36766391345E+02  0.58514310283E+02  0.00000000000E+00 0.  1.
         21    1    1    2  502  501  0.46572108990E+01 -0.21171799906E+02  0.43505007538E+01  0.22110214414E+02  0.00000000000E+00 0. -1.
<scales pt_clust_5="13000.00000" pt_clust_6="13000.00000" pt_clust_7="13000.00000" pt_clust_8="13000.00000" pt_clust_9="21.67798"></scales>
<clustering>
<clus scale="   21.678">  1  9  2 -1</clus>
<clus scale="   90.391">  7  8 -1 -1</clus>
<clus scale="   90.901">  5  6 -1 -1</clus>
<clus scale="   98.684">  1  7  2 -1</clus>
<clus scale="   21.678">  1  5  2 -1</clus>
</clustering>
</event>
<event>
 9    1  0.1435532E-005  0.1219719E+03  0.7546771E-02  0.1240147E+00
          1   -1    0    0  502    0  0.00000000000E+00  0.00000000000E+00  0.65202803524E+03  0.65202803524E+03  0.00000000000E+00 0. -1.
         -1   -1    0    0    0  501 -0.00000000000E+00 -0.00000000000E+00 -0.13946725054E+03  0.13946725054E+03  0.00000000000E+00 0.  1.
         23    2    1    2    0    0  0.44395929064E+01  0.80082705134E+02 -0.94300380756E+02  0.15374415102E+03  0.91168813290E+02 0.  0.
         23    2    1    2    0    0  0.48978124000E+02 -0.93851020462E+02  0.39343276755E+03  0.41730907884E+03  0.90280972666E+02 0.  0.
        -11    1    4    4    0    0  0.14035141200E+02  0.17493316849E+02  0.62133136863E+02  0.66057005831E+02  0.00000000000E+00 0.  1.
         11    1    4    4    0    0  0.34942982800E+02 -0.11134433731E+03  0.33129963069E+03  0.35125207301E+03  0.00000000000E+00 0. -1.
        -13    1    3    3    0    0 -0.20480909353E+02  0.26591400055E+02 -0.88257217520E+02  0.94424078757E+02  0.00000000000E+00 0.  1.
         13    1    3    3    0    0  0.24920502259E+02  0.53491305079E+02 -0.60431632365E+01  0.59320072268E+02  0.00000000000E+00 0. -1.
         21    1    1    2  502  501 -0.53417716906E+02  0.13768315327E+02  0.21342839790E+03  0.22044205592E+03  0.00000000000E+00 0.  1.
<scales pt_clust_5="13000.00000" pt_clust_6="13000.00000" pt_clust_7="13000.00000" pt_clust_8="13000.00000" pt_clust_9="55.16357"></scales>
<clustering>
<clus scale="   55.164">  1  9  2 -1</clus>
<clus scale="   90.281">  5  6 -1 -1</clus>
<clus scale="   91.169">  7  8 -1 -1</clus>
<clus scale="  121.310">  1  5  2 -1</clus>
<clus scale="   55.164">  1  5  2 -1</clus>
</clustering>
</event>
<event>
 9    1  0.1435532E-005  0.1556026E+03  0.7546771E-02  0.1193877E+00
         -1   -1    0    0    0  501 -0.00000000000E+00  0.00000000000E+00  0.50125290231E+02  0.50125290231E+02  0.00000000000E+00 0.  1.
          1   -1    0    0  502    0  0.00000000000E+00 -0.00000000000E+00 -0.60636538950E+03  0.60636538950E+03  0.00000000000E+00 0. -1.
         23    2    1    2    0    0 -0.84005279883E+02 -0.74436589892E+02 -0.21796012115E+03  0.26150080862E+03  0.90985523754E+02 0.  0.
         23    2    1    2    0    0  0.10247174993E+03  0.92310444189E+02 -0.32774035459E+03  0.36721274298E+03  0.91704857749E+02 0.  0.
        -11    1    3    3    0    0 -0.52940149184E+02 -0.18021975707E+01 -0.38688778585E+02  0.65595189611E+02  0.00000000000E+00 0.  1.
         11    1    3    3    0    0 -0.31065130699E+02 -0.72634392321E+02 -0.17927134256E+03  0.19590561901E+03  0.00000000000E+00 0. -1.
        -13    1    4    4    0    0  0.19015699076E+02 -0.18633779909E+02 -0.46819799826E+02  0.53860080030E+02  0.00000000000E+00 0.  1.
         13    1    4    4    0    0  0.83456050859E+02  0.11094422410E+03 -0.28092055477E+03  0.31335266295E+03  0.00000000000E+00 0. -1.
         21    1    1    2  502  501 -0.18466470052E+02 -0.17873854298E+02 -0.10539623532E+02  0.27777128142E+02  0.00000000000E+00 0.  1.
<scales pt_clust_5="13000.00000" pt_clust_6="13000.00000" pt_clust_7="13000.00000" pt_clust_8="13000.00000" pt_clust_9="25.69991"></scales>
<clustering>
<clus scale="   25.700">  1  9  2 -1</clus>
<clus scale="   90.986">  5  6 -1 -1</clus>
<clus scale="   91.705">  7  8 -1 -1</clus>
<clus scale="  155.180">  1  5  2 -1</clus>
<clus scale="  155.603">  2  5  1 -1</clus>
</clustering>
</event>
<event>
 9    1  0.1435532E-005  0.1098110E+03  0.7546771E-02  0.1261023E+00
          4   -1    0    0  502    0  0.00000000000E+00  0.00000000000E+00  0.18065817245E+03  0.18065817245E+03  0.00000000000E+00 0. -1.
         -4   -1    0    0    0  501 -0.00000000000E+00 -0.00000000000E+00 -0.60279325959E+03  0.60279325959E+03  0.00000000000E+00 0.  1.
         23    2    1    2    0    0 -0.43933918332E+02 -0.48999495720E+02 -0.48608012018E+03  0.49892341831E+03  0.91211591080E+02 0.  0.
         23    2    1    2    0    0  0.18161166787E+02  0.42145150241E+02 -0.85333261238E+02  0.13288624536E+03  0.90944747315E+02 0.  0.
        -11    1    3    3    0    0 -0.31763460417E+02  0.22961514210E+02 -0.15289335279E+03  0.15783702316E+03  0.00000000000E+00 0. -1.
         11    1    3    3    0    0 -0.12170457916E+02 -0.71961009930E+02 -0.33318676739E+03  0.34108639515E+03  0.00000000000E+00 0.  1.
        -11    1    4    4    0    0  0.31635397588E+02 -0.18876240882E+02 -0.46451799504E+02  0.59286427853E+02  0.00000000000E+00 0.  1.
         11    1    4    4    0    0 -0.13474230801E+02  0.61021391124E+02 -0.38881461734E+02  0.73599817506E+02  0.00000000000E+00 0. -1.
         21    1    1    2  502  501  0.25772751546E+02  0.68543454785E+01  0.14927829427E+03  0.15164176837E+03  0.00000000000E+00 0. -1.
<scales pt_clust_5="13000.00000" pt_clust_6="13000.00000" pt_clust_7="13000.00000" pt_clust_8="13000.00000" pt_clust_9="26.66865"></scales>
<clustering>
<clus scale="   26.669">  1  9  2 -1</clus>
<clus scale="   90.945">  7  8 -1 -1</clus>
<clus scale="   91.212">  5  6 -1 -1</clus>
<clus scale="  109.589">  1  7  2 -1</clus>
<clus scale="   26.669">  1  5  2 -1</clus>
</clustering>
</event>
<event>
 9    1  0.1435532E-005  0.9632821E+02  0.7546771E-02  0.1289256E+00
         -2   -1    0    0    0  501 -0.00000000000E+00  0.00000000000E+00  0.71268053070E+02  0.71268053070E+02  0.00000000000E+00 0.  1.
          2   -1    0    0  502    0  0.00000000000E+00 -0.00000000000E+00 -0.16871808631E+03  0.16871808631E+03  0.00000000000E+00 0. -1.
         23    2    1    2    0    0  0.27835556244E+02 -0.50224872811E+01 -0.17157952907E+02  0.93662248345E+02  0.87625212394E+02 0.  0.
         23    2    1    2    0    0 -0.47125177453E+02 -0.18371107139E+01 -0.61256390288E+02  0.11836855046E+03  0.89635991998E+02 0.  0.
        -11    1    3    3    0    0 -0.61463894329E+00  0.22254565883E+02  0.26655293992E+02  0.34729644131E+02  0.00000000000E+00 0.  1.
         11    1    3    3    0    0  0.28450195187E+02 -0.27277053164E+02 -0.43813246899E+02  0.58932604213E+02  0.00000000000E+00 0. -1.
        -13    1    4    4    0    0 -0.12642259174E+02 -0.43516222834E+02 -0.39316919570E+02  0.59994237484E+02  0.00000000000E+00 0.  1.
         13    1    4    4    0    0 -0.34482918279E+02  0.41679112120E+02 -0.21939470718E+02  0.58374312977E+02  0.00000000000E+00 0. -1.
         21    1    1    2  502  501  0.19289621209E+02  0.68595979950E+01 -0.19035690041E+02  0.27955340570E+02  0.00000000000E+00 0.  1.
<scales pt_clust_5="13000.00000" pt_clust_6="13000.00000" pt_clust_7="13000.00000" pt_clust_8="13000.00000" pt_clust_9="20.47300"></scales>
<clustering>
<clus scale="   20.473">  2  9  1 -1</clus>
<clus scale="   87.625">  5  6 -1 -1</clus>
<clus scale="   89.636">  7  8 -1 -1</clus>
<clus scale="   94.460">  1  5  2 -1</clus>
<clus scale="   20.473">  2  5  1 -1</clus>
</clustering>
</event>
<event>
 9    1  0.1435532E-005  0.1213907E+03  0.7546771E-02  0.1240978E+00
         -1   -1    0    0    0  501 -0.00000000000E+00  0.00000000000E+00  0.71473684905E+02  0.71473684905E+02  0.00000000000E+00 0.  1.
          1   -1    0    0  502    0  0.00000000000E+00 -0.00000000000E+00 -0.31004198425E+03  0.31004198425E+03  0.00000000000E+00 0. -1.
         23    2    1    2    0    0 -0.51851916269E+02  0.63048563538E+02 -0.26602868734E+02  0.12525942945E+03  0.91205643769E+02 0.  0.
         23    2    1    2    0    0  0.65523796279E+02 -0.43664959911E+02 -0.17200681905E+03  0.20978759404E+03  0.90688986156E+02 0.  0.
        -11    1    4    4    0    0  0.33015049370E+02 -0.14744253427E+02 -0.16085668496E+03  0.16487043274E+03  0.00000000000E+00 0. -1.
         11    1    4    4    0    0  0.32508746909E+02 -0.28920706483E+02 -0.11150134086E+02  0.44917161300E+02  0.00000000000E+00 0.  1.
        -13    1    3    3    0    0 -0.76881531507E+02  0.40789073532E+02 -0.28848799650E+02  0.91688448824E+02  0.00000000000E+00 0.  1.
         13    1    3    3    0    0  0.25029615238E+02  0.22259490006E+02  0.22459309153E+01  0.33570980623E+02  0.00000000000E+00 0. -1.
         21    1    1    2  502  501 -0.13671880010E+02 -0.19383603628E+02 -0.39958611567E+02  0.46468645676E+02  0.00000000000E+00 0. -1.
<scales pt_clust_5="13000.00000" pt_clust_6="13000.00000" pt_clust_7="13000.00000" pt_clust_8="13000.00000" pt_clust_9="23.72013"></scales>
<clustering>
<clus scale="   23.720">  2  9  1 -1</clus>
<clus scale="   90.689">  5  6 -1 -1</clus>
<clus scale="   91.206">  7  8 -1 -1</clus>
<clus scale="  121.003">  2  5  1 -1</clus>
<clus scale="   23.720">  2  5  1 -1</clus>
</clustering>
</event>
<event>
 9    1  0.1435532E-005  0.1036855E+03  0.7546771E-02  0.1274000E+00
          2   -1    0    0  502    0  0.00000000000E+00  0.00000000000E+00  0.50967515236E+03  0.50967515236E+03  0.00000000000E+00 0. -1.
         -2   -1    0    0    0  501 -0.00000000000E+00 -0.00000000000E+00 -0.12442160943E+03  0.12442160943E+03  0.00000000000E+00 0.  1.
         23    2    1    2    0    0 -0.17181503502E+02  0.41313386615E+02 -0.92653603750E+02  0.13919290724E+03  0.93744200683E+02 0.  0.
         23    2    1    2    0    0  0.36740021696E+02 -0.25044604816E+02  0.34364528630E+03  0.35825300002E+03  0.90972895958E+02 0.  0.
        -11    1    3    3    0    0 -0.23421368575E+02  0.65108831224E+02 -0.91297652667E+02  0.11455558385E+03  0.00000000000E+00 0.  1.
         11    1    3    3    0    0  0.62398650732E+01 -0.23795444610E+02 -0.13559510830E+01  0.24637323386E+02  0.00000000000E+00 0. -1.
        -13    1    4    4    0    0  0.24088524454E+02 -0.59692580599E+02  0.21966562497E+03  0.22890270418E+03  0.00000000000E+00 0. -1.
         13    1    4    4    0    0  0.12651497242E+02  0.34647975783E+02  0.12397966134E+03  0.12935029584E+03  0.00000000000E+00 0.  1.
         21    1    1    2  502  501 -0.19558518195E+02 -0.16268781799E+02  0.13426186037E+03  0.13665085454E+03  0.00000000000E+00 0. -1.
<scales pt_clust_5="13000.00000" pt_clust_6="13000.00000" pt_clust_7="13000.00000" pt_clust_8="13000.00000" pt_clust_9="25.44030"></scales>
<clustering>
<clus scale="   25.440">  1  9  2 -1</clus>
<clus scale="   90.973">  7  8 -1 -1</clus>
<clus scale="   93.744">  5  6 -1 -1</clus>
<clus scale="  101.187">  1  7  2 -1</clus>
<clus scale="   25.440">  1  5  2 -1</clus>
</clustering>
</event>
<event>
 9    1  0.1435532E-005  0.9019321E+02  0.7546771E-02  0.1320559E+00
         -1   -1    0    0    0  501 -0.00000000000E+00  0.00000000000E+00  0.11171395611E+03  0.11171395611E+03  0.00000000000E+00 0.  1.
          1   -1    0    0  502    0  0.00000000000E+00 -0.00000000000E+00 -0.11476049941E+03  0.11476049941E+03  0.00000000000E+00 0. -1.
         23    2    1    2    0    0  0.11795460557E+01 -0.42775394121E+01  0.38773851024E+02  0.74584932523E+02  0.63559515133E+02 0.  0.
         23    2    1    2    0    0 -0.29521366662E+02  0.24273681085E+02  0.62359281849E+00  0.97075322992E+02  0.89232879496E+02 0.  0.
        -11    1    4    4    0    0 -0.19458936082E+02  0.52194780075E+02 -0.21861800626E+02  0.59840484516E+02  0.00000000000E+00 0.  1.
         11    1    4    4    0    0 -0.10062430580E+02 -0.27921098990E+02  0.22485393444E+02  0.37234838476E+02  0.00000000000E+00 0. -1.
        -11    1    3    3    0    0  0.31199621772E+02 -0.27636106912E+01  0.97576032425E+01  0.32806474419E+02  0.00000000000E+00 0. -1.
         11    1    3    3    0    0 -0.30020075717E+02 -0.15139287209E+01  0.29016247781E+02  0.41778458104E+02  0.00000000000E+00 0.  1.
         21    1    1    2  502  501  0.28341820606E+02 -0.19996141672E+02 -0.42443987141E+02  0.54814199999E+02  0.00000000000E+00 0. -1.
<scales pt_clust_5="13000.00000" pt_clust_6="13000.00000" pt_clust_7="13000.00000" pt_clust_8="13000.00000" pt_clust_9="34.68580"></scales>
<clustering>
<clus scale="   34.686">  2  9  1 -1</clus>
<clus scale="   63.560">  7  8 -1 -1</clus>
<clus scale="   64.901">  1  7  2 -1</clus>
<clus scale="   89.233">  5  6 -1 -1</clus>
<clus scale="   34.686">  2  5  1 -1</clus>
</clustering>
</event>
<event>
 9    1  0.1435532E-005  0.1033556E+03  0.7546771E-02  0.1275526E+00
         -1   -1    0    0    0  501 -0.00000000000E+00  0.00000000000E+00  0.20572019859E+03  0.20572019859E+03  0.00000000000E+00 0.  1.
          1   -1    0    0  502    0  0.00000000000E+00 -0.00000000000E+00 -0.14697499395E+03  0.14697499395E+03  0.00000000000E+00 0. -1.
         23    2    1    2    0    0  0.20239316995E+02  0.14267273135E+02  0.99295136643E+02  0.13685116255E+03  0.90859955397E+02 0.  0.
         23    2    1    2    0    0 -0.83266404835E+02 -0.27879244401E+02  0.15302038159E+02  0.13053786296E+03  0.95369989263E+02 0.  0.
        -13    1    3    3    0    0 -0.34191398809E+02  0.97728035662E+01  0.59344031700E+02  0.69182899191E+02  0.00000000000E+00 0.  1.
         13    1    3    3    0    0  0.54430715804E+02  0.44944695690E+01  0.39951104943E+02  0.67668263357E+02  0.00000000000E+00 0. -1.
        -13    1    4    4    0    0 -0.78309231694E+02 -0.50729337467E+02  0.35311479190E+02  0.99763229754E+02  0.00000000000E+00 0.  1.
         13    1    4    4    0    0 -0.49571731415E+01  0.22850093066E+02 -0.20009441031E+02  0.30774633207E+02  0.00000000000E+00 0. -1.
         21    1    1    2  502  501  0.63027087841E+02  0.13611971266E+02 -0.55851970160E+02  0.85306167035E+02  0.00000000000E+00 0. -1.
<scales pt_clust_5="13000.00000" pt_clust_6="13000.00000" pt_clust_7="13000.00000" pt_clust_8="13000.00000" pt_clust_9="64.48023"></scales>
<clustering>
<clus scale="   64.480">  2  9  1 -1</clus>
<clus scale="   90.860">  5  6 -1 -1</clus>
<clus scale="   95.370">  7  8 -1 -1</clus>
<clus scale="   99.209">  1  5  2 -1</clus>
<clus scale="   64.480">  2  5  1 -1</clus>
</clustering>
</event>
<event>
 9    1  0.1435532E-005  0.1509174E+03  0.7546771E-02  0.1201269E+00
          1   -1    0    0  502    0  0.00000000000E+00  0.00000000000E+00  0.14415088600E+03  0.14415088600E+03  0.00000000000E+00 0. -1.
         -1   -1    0    0    0  501 -0.00000000000E+00 -0.00000000000E+00 -0.19445570942E+03  0.19445570942E+03  0.00000000000E+00 0.  1.
         23    2    1    2    0    0 -0.11802883279E+03  0.17500146284E+02 -0.75808228382E+02  0.17023757103E+03  0.94851898302E+02 0.  0.
         23    2    1    2    0    0  0.90612593790E+02 -0.16353240284E+02  0.23183840489E+02  0.14083094286E+03  0.10400862169E+03 0.  0.
        -11    1    3    3    0    0 -0.38309857066E+02 -0.38550708474E+02 -0.19835823805E+02  0.57855528502E+02  0.00000000000E+00 0.  1.
         11    1    3    3    0    0 -0.79718975725E+02  0.56050854758E+02 -0.55972404577E+02  0.11238204253E+03  0.00000000000E+00 0. -1.
        -13    1    4    4    0    0  0.26821334869E+02  0.41727676699E+02  0.22716645062E+02  0.54558491270E+02  0.00000000000E+00 0. -1.
         13    1    4    4    0    0  0.63791258921E+02 -0.58080916983E+02  0.46719542760E+00  0.86272451593E+02  0.00000000000E+00 0.  1.
         21    1    1    2  502  501  0.27416239001E+02 -0.11469059999E+01  0.23195644687E+01  0.27538081517E+02  0.00000000000E+00 0. -1.
<scales pt_clust_5="13000.00000" pt_clust_6="13000.00000" pt_clust_7="13000.00000" pt_clust_8="13000.00000" pt_clust_9="27.44022"></scales>
<clustering>
<clus scale="   27.440">  1  9  2 -1</clus>
<clus scale="   94.852">  5  6 -1 -1</clus>
<clus scale="  104.009">  7  8 -1 -1</clus>
<clus scale="  144.759">  2  5  1 -1</clus>
<clus scale="   27.440">  1  5  2 -1</clus>
</clustering>
</event>
<event>
 9    1  0.1435532E-005  0.1103877E+03  0.7546771E-02  0.1260773E+00
          2   -1    0    0  502    0  0.00000000000E+00  0.00000000000E+00  0.37796560846E+02  0.37796560846E+02  0.00000000000E+00 0. -1.
         -2   -1    0    0    0  501 -0.00000000000E+00 -0.00000000000E+00 -0.41150724913E+03  0.41150724913E+03  0.00000000000E+00 0.  1.
         23    2    1    2    0    0 -0.11762788388E+02  0.44040753189E+02 -0.20738937137E+03  0.23075108934E+03  0.90320334032E+02 0.  0.
         23    2    1    2    0    0  0.23892234357E+02 -0.65611054136E+02 -0.12644594633E+03  0.17162249028E+03  0.92682536324E+02 0.  0.
        -11    1    4    4    0    0  0.28541801373E+02  0.58314492808E+01 -0.82796543583E+02  0.87771908123E+02  0.00000000000E+00 0.  1.
         11    1    4    4    0    0 -0.46495670157E+01 -0.71442503417E+02 -0.43649402747E+02  0.83850582157E+02  0.00000000000E+00 0. -1.
        -11    1    3    3    0    0 -0.26148872843E+02 -0.13041594980E+02 -0.13149525137E+03  0.13470281319E+03  0.00000000000E+00 0. -1.
         11    1    3    3    0    0  0.14386084455E+02  0.57082348169E+02 -0.75894120007E+02  0.96048276143E+02  0.00000000000E+00 0.  1.
         21    1    1    2  502  501 -0.12129445969E+02  0.21570300947E+02 -0.39875370582E+02  0.46930230359E+02  0.00000000000E+00 0.  1.
<scales pt_clust_5="13000.00000" pt_clust_6="13000.00000" pt_clust_7="13000.00000" pt_clust_8="13000.00000" pt_clust_9="24.74674"></scales>
<clustering>
<clus scale="   24.747">  2  9  1 -1</clus>
<clus scale="   90.320">  7  8 -1 -1</clus>
<clus scale="   92.683">  5  6 -1 -1</clus>
<clus scale="  108.412">  2  7  1 -1</clus>
<clus scale="  110.388">  1  5  2 -1</clus>
</clustering>
</event>
<event>
 9    1  0.1435532E-005  0.1026417E+03  0.7546771E-02  0.1275267E+00
         -1   -1    0    0    0  501 -0.00000000000E+00  0.00000000000E+00  0.23744471226E+03  0.23744471226E+03  0.00000000000E+00 0.  1.
          1   -1    0    0  502    0  0.00000000000E+00 -0.00000000000E+00 -0.57566649579E+02  0.57566649579E+02  0.00000000000E+00 0. -1.
         23    2    1    2    0    0  0.39365098764E+02  0.26213942197E+02  0.11253028801E+03  0.15322376453E+03  0.92615735869E+02 0.  0.
         23    2    1    2    0    0 -0.19786086940E+02 -0.38464632837E+02  0.58601358576E+02  0.11709110120E+03  0.91679820782E+02 0.  0.
        -11    1    4    4    0    0  0.31692792644E+02 -0.96507605888E+01 -0.11152134715E+01  0.33148363256E+02  0.00000000000E+00 0.  1.
         11    1    4    4    0    0 -0.51478879583E+02 -0.28813872248E+02  0.59716572047E+02  0.83942737948E+02  0.00000000000E+00 0. -1.
        -13    1    3    3    0    0 -0.23174428680E+02 -0.23204365344E+01  0.24176472706E+01  0.23415456192E+02  0.00000000000E+00 0. -1.
         13    1    3    3    0    0  0.62539527444E+02  0.28534378731E+02  0.11011264074E+03  0.12980830834E+03  0.00000000000E+00 0.  1.
         21    1    1    2  502  501 -0.19579011824E+02  0.12250690640E+02  0.87464160860E+01  0.24696496098E+02  0.00000000000E+00 0.  1.
<scales pt_clust_5="13000.00000" pt_clust_6="13000.00000" pt_clust_7="13000.00000" pt_clust_8="13000.00000" pt_clust_9="23.09582"></scales>
<clustering>
<clus scale="   23.096">  2  9  1 -1</clus>
<clus scale="   91.680">  5  6 -1 -1</clus>
<clus scale="   92.616">  7  8 -1 -1</clus>
<clus scale="  101.798">  2  5  1 -1</clus>
<clus scale="   23.096">  2  5  1 -1</clus>
</clustering>
</event>
<event>
 9    1  0.1435532E-005  0.1001459E+03  0.7546771E-02  0.1280742E+00
          1   -1    0    0  502    0  0.00000000000E+00  0.00000000000E+00  0.83560200522E+03  0.83560200522E+03  0.00000000000E+00 0. -1.
         -1   -1    0    0    0  501 -0.00000000000E+00 -0.00000000000E+00 -0.26900396145E+02  0.26900396145E+02  0.00000000000E+00 0.  1.
         23    2    1    2    0    0 -0.12164802207E+02 -0.27500769516E+02  0.11644907668E+03  0.15187892541E+03  0.92749909903E+02 0.  0.
         23    2    1    2    0    0  0.53774490606E+02  0.41734176522E+02  0.43515556746E+03  0.44979248581E+03  0.91211156486E+02 0.  0.
        -11    1    3    3    0    0  0.31042594852E+02 -0.39556069831E+02  0.77976314877E+02  0.92782708719E+02  0.00000000000E+00 0.  1.
         11    1    3    3    0    0 -0.43207397059E+02  0.12055300315E+02  0.38472761804E+02  0.59096216691E+02  0.00000000000E+00 0. -1.
        -11    1    4    4    0    0  0.73345845996E+02  0.49382516989E+02  0.39126031982E+03  0.40112701726E+03  0.00000000000E+00 0.  1.
         11    1    4    4    0    0 -0.19571355390E+02 -0.76483404663E+01  0.43895247640E+02  0.48665468549E+02  0.00000000000E+00 0. -1.
         21    1    1    2  502  501 -0.41609688398E+02 -0.14233407007E+02  0.25709696493E+03  0.26083099015E+03  0.00000000000E+00 0. -1.
<scales pt_clust_5="13000.00000" pt_clust_6="13000.00000" pt_clust_7="13000.00000" pt_clust_8="13000.00000" pt_clust_9="43.97677"></scales>
<clustering>
<clus scale="   43.977">  1  9  2 -1</clus>
<clus scale="   91.211">  7  8 -1 -1</clus>
<clus scale="   92.750">  5  6 -1 -1</clus>
<clus scale="   98.722">  1  7  2 -1</clus>
<clus scale="   43.977">  1  5  2 -1</clus>
</clustering>
</event>
<event>
 9    1  0.1435532E-005  0.1071196E+03  0.7546771E-02  0.1266753E+00
          1   -1    0    0  502    0  0.00000000000E+00  0.00000000000E+00  0.90674942703E+02  0.90674942703E+02  0.00000000000E+00 0. -1.
         -1   -1    0    0    0  501 -0.00000000000E+00 -0.00000000000E+00 -0.18943242164E+03  0.18943242164E+03  0.00000000000E+00 0.  1.
         23    2    1    2    0    0  0.58556775632E+02  0.36412454317E+00 -0.79854388648E+02  0.13335876864E+03  0.89324180531E+02 0.  0.
         23    2    1    2    0    0 -0.50997532426E+02 -0.22946711416E+02 -0.40733022596E+02  0.11444284803E+03  0.91162966483E+02 0.  0.
        -13    1    4    4    0    0 -0.69676651676E+02 -0.99862094289E+01 -0.53459430663E+02  0.88388183001E+02  0.00000000000E+00 0. -1.
         13    1    4    4    0    0  0.18679119250E+02 -0.12960501987E+02  0.12726408066E+02  0.26054665033E+02  0.00000000000E+00 0.  1.
        -13    1    3    3    0    0  0.75821188988E+02  0.12883481985E+02 -0.81389018334E+02  0.11197771704E+03  0.00000000000E+00 0.  1.
         13    1    3    3    0    0 -0.17264413356E+02 -0.12519357442E+02  0.15346296868E+01  0.21381051601E+02  0.00000000000E+00 0. -1.
         21    1    1    2  502  501 -0.75592432056E+01  0.22582586873E+02  0.21829932310E+02  0.32305747668E+02  0.00000000000E+00 0.  1.
<scales pt_clust_5="13000.00000" pt_clust_6="13000.00000" pt_clust_7="13000.00000" pt_clust_8="13000.00000" pt_clust_9="23.81418"></scales>
<clustering>
<clus scale="   23.814">  1  9  2 -1</clus>
<clus scale="   89.324">  7  8 -1 -1</clus>
<clus scale="   91.163">  5  6 -1 -1</clus>
<clus scale="  105.559">  2  7  1 -1</clus>
<clus scale="   23.814">  1  5  2 -1</clus>
</clustering>
</event>
<event>
 9    1  0.1435532E-005  0.1038672E+03  0.7546771E-02  0.1276264E+00
         -2   -1    0    0    0  501 -0.00000000000E+00  0.00000000000E+00  0.49402798194E+02  0.49402798194E+02  0.00000000000E+00 0.  1.
          2   -1    0    0  502    0  0.00000000000E+00 -0.00000000000E+00 -0.32700813718E+03  0.32700813718E+03  0.00000000000E+00 0. -1.
         23    2    1    2    0    0  0.17609829499E+02 -0.28047935321E+02 -0.43378897364E+02  0.10650682858E+03  0.91461374507E+02 0.  0.
         23    2    1    2    0    0  0.77725609778E+01  0.30330525440E+02 -0.15545481756E+03  0.18711253282E+03  0.99320421658E+02 0.  0.
        -13    1    4    4    0    0  0.32703030471E+02 -0.17900315467E+02 -0.22611477892E+02  0.43602619511E+02  0.00000000000E+00 0.  1.
         13    1    4    4    0    0 -0.24930469493E+02  0.48230840907E+02 -0.13284333967E+03  0.14350991331E+03  0.00000000000E+00 0. -1.
        -13    1    3    3    0    0 -0.24840372785E+02 -0.36306763877E+02  0.17185755202E+01  0.44024751279E+02  0.00000000000E+00 0.  1.
         13    1    3    3    0    0  0.42450202285E+02  0.82588285566E+01 -0.45097472884E+02  0.62482077300E+02  0.00000000000E+00 0. -1.
         21    1    1    2  502  501 -0.25382390477E+02 -0.22825901194E+01 -0.78771624053E+02  0.82791573967E+02  0.00000000000E+00 0. -1.
<scales pt_clust_5="13000.00000" pt_clust_6="13000.00000" pt_clust_7="13000.00000" pt_clust_8="13000.00000" pt_clust_9="25.48482"></scales>
<clustering>
<clus scale="   25.485">  2  9  1 -1</clus>
<clus scale="   91.461">  7  8 -1 -1</clus>
<clus scale="   96.380">  1  7  2 -1</clus>
<clus scale="   99.320">  5  6 -1 -1</clus>
<clus scale="   25.485">  2  5  1 -1</clus>
</clustering>
</event>
<event>
 9    1  0.1435532E-005  0.1031440E+03  0.7546771E-02  0.1273846E+00
          2   -1    0    0  502    0  0.00000000000E+00  0.00000000000E+00  0.49500890330E+03  0.49500890330E+03  0.00000000000E+00 0. -1.
         -2   -1    0    0    0  501 -0.00000000000E+00 -0.00000000000E+00 -0.67369848576E+02  0.67369848576E+02  0.00000000000E+00 0.  1.
         23    2    1    2    0    0  0.62049348962E+02 -0.25717362723E+01  0.15693068823E+02  0.11130855200E+03  0.91030686064E+02 0.  0.
         23    2    1    2    0    0  0.13142017847E+02 -0.29872715115E+02  0.27477229523E+03  0.29131098893E+03  0.91088892332E+02 0.  0.
        -11    1    3    3    0    0  0.73994759718E+02 -0.24861229598E+02 -0.55848137885E+01  0.78259155042E+02  0.00000000000E+00 0.  1.
         11    1    3    3    0    0 -0.11945410757E+02  0.22289493326E+02  0.21277882611E+02  0.33049396958E+02  0.00000000000E+00 0. -1.
        -13    1    4    4    0    0  0.51756894410E+02 -0.24619400660E+02  0.14916062512E+03  0.15979293819E+03  0.00000000000E+00 0.  1.
         13    1    4    4    0    0 -0.38614876563E+02 -0.52533144547E+01  0.12561167010E+03  0.13151805074E+03  0.00000000000E+00 0. -1.
         21    1    1    2  502  501 -0.75191366809E+02  0.32444451387E+02  0.13717369068E+03  0.15975921095E+03  0.00000000000E+00 0. -1.
<scales pt_clust_5="13000.00000" pt_clust_6="13000.00000" pt_clust_7="13000.00000" pt_clust_8="13000.00000" pt_clust_9="81.89252"></scales>
<clustering>
<clus scale="   81.893">  1  9  2 -1</clus>
<clus scale="   91.031">  5  6 -1 -1</clus>
<clus scale="   91.089">  7  8 -1 -1</clus>
<clus scale="  103.093">  2  5  1 -1</clus>
<clus scale="   81.893">  1  5  2 -1</clus>
</clustering>
</event>
<event>
 9    1  0.1435532E-005  0.1712328E+03  0.7546771E-02  0.1179788E+00
         -1   -1    0    0    0  501 -0.00000000000E+00  0.00000000000E+00  0.25020341533E+03  0.25020341533E+03  0.00000000000E+00 0.  1.
          1   -1    0    0  502    0  0.00000000000E+00 -0.00000000000E+00 -0.18811476183E+03  0.18811476183E+03  0.00000000000E+00 0. -1.
         23    2    1    2    0    0  0.69817700094E+02  0.12002597758E+03  0.93109396828E+02  0.20029116353E+03  0.11030160412E+03 0.  0.
         23    2    1    2    0    0 -0.25963488571E+02 -0.12272873166E+03  0.35084918828E+02  0.15865160612E+03  0.90570062825E+02 0.  0.
        -13    1    3    3    0    0 -0.29366324016E+02  0.38130183044E+02  0.18275889233E+02  0.51481064212E+02  0.00000000000E+00 0. -1.
         13    1    3    3    0    0  0.99184024110E+02  0.81895794532E+02  0.74833507595E+02  0.14881009932E+03  0.00000000000E+00 0.  1.
        -13    1    4    4    0    0 -0.53062421896E+02 -0.68113441477E+02  0.44211331452E+02  0.97003625479E+02  0.00000000000E+00 0.  1.
         13    1    4    4    0    0  0.27098933325E+02 -0.54615290184E+02 -0.91264126243E+01  0.61647980637E+02  0.00000000000E+00 0. -1.
         21    1    1    2  502  501 -0.43854211523E+02  0.27027540855E+01 -0.66105662162E+02  0.79375407513E+02  0.00000000000E+00 0. -1.
<scales pt_clust_5="13000.00000" pt_clust_6="13000.00000" pt_clust_7="13000.00000" pt_clust_8="13000.00000" pt_clust_9="43.93742"></scales>
<clustering>
<clus scale="   43.937">  2  9  1 -1</clus>
<clus scale="   90.570">  7  8 -1 -1</clus>
<clus scale="  110.302">  5  6 -1 -1</clus>
<clus scale="  159.239">  2  7  1 -1</clus>
<clus scale="   43.937">  2  5  1 -1</clus>
</clustering>
</event>
<event>
 9    1  0.1435532E-005  0.1289787E+03  0.7546771E-02  0.1229831E+00
         -2   -1    0    0    0  501 -0.00000000000E+00  0.00000000000E+00  0.27244600559E+02  0.27244600559E+02  0.00000000000E+00 0.  1.
          2   -1    0    0  502    0  0.00000000000E+00 -0.00000000000E+00 -0.76124475508E+03  0.76124475508E+03  0.00000000000E+00 0. -1.
         23    2    1    2    0    0  0.15578657741E+02  0.82593830506E+02 -0.26802498758E+03  0.29573351863E+03  0.92501268418E+02 0.  0.
         23    2    1    2    0    0  0.17989820637E+01 -0.98428257940E+02 -0.34943483254E+03  0.37386781827E+03  0.89336918738E+02 0.  0.
        -11    1    4    4    0    0 -0.21802709191E+02 -0.39379789981E+01 -0.18388897274E+02  0.28792661385E+02  0.00000000000E+00 0.  1.
         11    1    4    4    0    0  0.23601691255E+02 -0.94490278942E+02 -0.33104593527E+03  0.34507515689E+03  0.00000000000E+00 0. -1.
        -13    1    3    3    0    0  0.26366843516E+02  0.40896000481E+02 -0.23874386976E+03  0.24365206471E+03  0.00000000000E+00 0. -1.
         13    1    3    3    0    0 -0.10788185775E+02  0.41697830024E+02 -0.29281117823E+02  0.52081453917E+02  0.00000000000E+00 0.  1.
         21    1    1    2  502  501 -0.17377639805E+02  0.15834427434E+02 -0.11654033440E+03  0.11888801874E+03  0.00000000000E+00 0.  1.
<scales pt_clust_5="13000.00000" pt_clust_6="13000.00000" pt_clust_7="13000.00000" pt_clust_8="13000.00000" pt_clust_9="23.50982"></scales>
<clustering>
<clus scale="   23.510">  2  9  1 -1</clus>
<clus scale="   89.337">  5  6 -1 -1</clus>
<clus scale="   92.501">  7  8 -1 -1</clus>
<clus scale="  126.728">  2  5  1 -1</clus>
<clus scale="   23.510">  2  5  1 -1</clus>
</clustering>
</event>
<event>
 9    1  0.1435532E-005  0.9270724E+02  0.7546771E-02  0.1297413E+00
         -1   -1    0    0    0  501 -0.00000000000E+00  0.00000000000E+00  0.42122582276E+03  0.42122582276E+03  0.00000000000E+00 0.  1.
          1   -1    0    0  502    0  0.00000000000E+00 -0.00000000000E+00 -0.10973164353E+03  0.10973164353E+03  0.00000000000E+00 0. -1.
         23    2    1    2    0    0  0.12639533210E+02 -0.14672951396E+02  0.31588392805E+03  0.32911779190E+03  0.90337210721E+02 0.  0.
         23    2    1    2    0    0  0.60065167433E+02 -0.33124196875E+02 -0.28836280436E+01  0.11481778474E+03  0.92031362183E+02 0.  0.
        -13    1    4    4    0    0  0.21866415263E+02 -0.58211332197E+02  0.17762952526E+02  0.64670099699E+02  0.00000000000E+00 0.  1.
         13    1    4    4    0    0  0.38198752171E+02  0.25087135322E+02 -0.20646580570E+02  0.50147685044E+02  0.00000000000E+00 0. -1.
        -13    1    3    3    0    0  0.37284773597E+02  0.25552014984E+02  0.15753199141E+03  0.16388834044E+03  0.00000000000E+00 0.  1.
         13    1    3    3    0    0 -0.24645240388E+02 -0.40224966380E+02  0.15835193664E+03  0.16522945146E+03  0.00000000000E+00 0. -1.
         21    1    1    2  502  501 -0.72704700643E+02  0.47797148271E+02 -0.15061207776E+01  0.87021889650E+02  0.00000000000E+00 0.  1.
<scales pt_clust_5="13000.00000" pt_clust_6="13000.00000" pt_clust_7="13000.00000" pt_clust_8="13000.00000" pt_clust_9="87.00886"></scales>
<clustering>
<clus scale="   87.009">  2  9  1 -1</clus>
<clus scale="   90.337">  7  8 -1 -1</clus>
<clus scale="   91.026">  1  7  2 -1</clus>
<clus scale="   92.031">  5  6 -1 -1</clus>
<clus scale="   87.009">  2  5  1 -1</clus>
</clustering>
</event>
<event>
 9    1  0.1435532E-005  0.1996414E+03  0.7546771E-02  0.1150051E+00
          1   -1    0    0  502    0  0.00000000000E+00  0.00000000000E+00  0.25682613971E+03  0.25682613971E+03  0.00000000000E+00 0. -1.
         -1   -1    0    0    0  501 -0.00000000000E+00 -0.00000000000E+00 -0.24635160842E+03  0.24635160842E+03  0.00000000000E+00 0.  1.
         23    2    1    2    0    0 -0.16009840019E+03 -0.86320360976E+02 -0.12029003046E+03  0.23669084837E+03  0.92033492879E+02 0.  0.
         23    2    1    2    0    0  0.15522557053E+03  0.60858249168E+02  0.74350655931E+02  0.20440153614E+03  0.91941632025E+02 0.  0.
        -11    1    4    4    0    0  0.18161095271E+02 -0.23252659961E+02  0.93958204429E+01  0.30964383064E+02  0.00000000000E+00 0.  1.
         11    1    4    4    0    0  0.13706447526E+03  0.84110909130E+02  0.64954835488E+02  0.17343715307E+03  0.00000000000E+00 0. -1.
        -13    1    3    3    0    0 -0.46853456247E+02 -0.76434712778E+02 -0.44706728274E+02  0.10018085263E+03  0.00000000000E+00 0. -1.
         13    1    3    3    0    0 -0.11324494394E+03 -0.98856481977E+01 -0.75583302182E+02  0.13650999574E+03  0.00000000000E+00 0.  1.
         21    1    1    2  502  501  0.48728296551E+01  0.25462111808E+02  0.56413905819E+02  0.62085363624E+02  0.00000000000E+00 0. -1.
<scales pt_clust_5="13000.00000" pt_clust_6="13000.00000" pt_clust_7="13000.00000" pt_clust_8="13000.00000" pt_clust_9="25.92419"></scales>
<clustering>
<clus scale="   25.924">  1  9  2 -1</clus>
<clus scale="   91.942">  5  6 -1 -1</clus>
<clus scale="   92.033">  7  8 -1 -1</clus>
<clus scale="  199.599">  1  5  2 -1</clus>
<clus scale="   25.924">  1  5  2 -1</clus>
</clustering>
</event>
<event>
 9    1  0.1435532E-005  0.1312823E+03  0.7546771E-02  0.1225982E+00
         -2   -1    0    0    0  501 -0.00000000000E+00  0.00000000000E+00  0.55120795524E+02  0.55120795524E+02  0.00000000000E+00 0.  1.
          2   -1    0    0  502    0  0.00000000000E+00 -0.00000000000E+00 -0.11479550899E+04  0.11479550899E+04  0.00000000000E+00 0. -1.
         23    2    1    2    0    0  0.52648418852E+02  0.59625653881E+02 -0.13060407415E+03  0.17850972249E+03  0.92093551527E+02 0.  0.
         23    2    1    2    0    0 -0.13530823119E+03 -0.61535025813E+01 -0.20922658487E+03  0.26515429155E+03  0.90470169032E+02 0.  0.
        -11    1    3    3    0    0  0.71848313137E+02  0.23829475266E+02 -0.10840812121E+03  0.13222081809E+03  0.00000000000E+00 0. -1.
         11    1    3    3    0    0 -0.19199894286E+02  0.35796178615E+02 -0.22195952933E+02  0.46288904401E+02  0.00000000000E+00 0.  1.
        -11    1    4    4    0    0 -0.23748446626E+02 -0.39803339695E+02 -0.60842484579E+02  0.76485962750E+02  0.00000000000E+00 0. -1.
         11    1    4    4    0    0 -0.11155978457E+03  0.33649837114E+02 -0.14838410030E+03  0.18866832880E+03  0.00000000000E+00 0.  1.
         21    1    1    2  502  501  0.82659812343E+02 -0.53472151299E+02 -0.75300363537E+03  0.75941187140E+03  0.00000000000E+00 0. -1.
<scales pt_clust_5="13000.00000" pt_clust_6="13000.00000" pt_clust_7="13000.00000" pt_clust_8="13000.00000" pt_clust_9="98.44753"></scales>
<clustering>
<clus scale="   90.470">  7  8 -1 -1</clus>
<clus scale="   92.094">  5  6 -1 -1</clus>
<clus scale="   98.448">  2  9  1 -1</clus>
<clus scale="  130.149">  2  7  1 -1</clus>
<clus scale="   98.448">  2  5  1 -1</clus>
</clustering>
</event>
<event>
 9    1  0.1435532E-005  0.1334340E+03  0.7546771E-02  0.1223261E+00
         -1   -1    0    0    0  501 -0.00000000000E+00  0.00000000000E+00  0.23412629558E+03  0.23412629558E+03  0.00000000000E+00 0.  1.
          1   -1    0    0  502    0  0.00000000000E+00 -0.00000000000E+00 -0.27630902109E+03  0.27630902109E+03  0.00000000000E+00 0. -1.
         23    2    1    2    0    0  0.90532220305E+02 -0.38246292447E+02  0.18871906752E+03  0.23183948496E+03  0.92064100191E+02 0.  0.
         23    2    1    2    0    0 -0.69183272335E+02  0.49436278697E+02 -0.14868682113E+03  0.19292031027E+03  0.88770516012E+02 0.  0.
        -13    1    4    4    0    0 -0.30458811683E+02  0.65397272314E+02 -0.56396541288E+02  0.91570258843E+02  0.00000000000E+00 0.  1.
         13    1    4    4    0    0 -0.38724460652E+02 -0.15960993618E+02 -0.92290279847E+02  0.10135005143E+03  0.00000000000E+00 0. -1.
        -13    1    3    3    0    0  0.35131479043E+02 -0.27805969314E+02  0.16448090952E+03  0.17047393451E+03  0.00000000000E+00 0.  1.
         13    1    3    3    0    0  0.55400741262E+02 -0.10440323133E+02  0.24238157992E+02  0.61365550452E+02  0.00000000000E+00 0. -1.
         21    1    1    2  502  501 -0.21348947969E+02 -0.11189986249E+02 -0.82214971888E+02  0.85675521441E+02  0.00000000000E+00 0.  1.
<scales pt_clust_5="13000.00000" pt_clust_6="13000.00000" pt_clust_7="13000.00000" pt_clust_8="13000.00000" pt_clust_9="24.10380"></scales>
<clustering>
<clus scale="   24.104">  2  9  1 -1</clus>
<clus scale="   88.771">  5  6 -1 -1</clus>
<clus scale="   92.064">  7  8 -1 -1</clus>
<clus scale="  131.183">  2  5  1 -1</clus>
<clus scale="   24.104">  2  5  1 -1</clus>
</clustering>
</event>
<event>
 9    1  0.1435532E-005  0.1319347E+03  0.7546771E-02  0.1228312E+00
         -2   -1    0    0    0  501 -0.00000000000E+00  0.00000000000E+00  0.70859969460E+02  0.70859969460E+02  0.00000000000E+00 0.  1.
          2   -1    0    0  502    0  0.00000000000E+00 -0.00000000000E+00 -0.33171969497E+03  0.33171969497E+03  0.00000000000E+00 0. -1.
         23    2    1    2    0    0 -0.10525816605E+03  0.18192888784E+02 -0.60162591672E+02  0.15363556116E+03  0.92596357885E+02 0.  0.
         23    2    1    2    0    0  0.75950911606E+02 -0.13742012410E+02 -0.11836725610E+03  0.16144019346E+03  0.78068846985E+02 0.  0.
        -11    1    4    4    0    0  0.28443261649E+02  0.11163735744E+02  0.10026892982E+01  0.30572103540E+02  0.00000000000E+00 0.  1.
         11    1    4    4    0    0  0.47507649957E+02 -0.24905748154E+02 -0.11936994540E+03  0.13086808992E+03  0.00000000000E+00 0. -1.
        -13    1    3    3    0    0 -0.15560526460E+02  0.36239770862E+02  0.71045668957E+01  0.40074004624E+02  0.00000000000E+00 0.  1.
         13    1    3    3    0    0 -0.89697639591E+02 -0.18046882078E+02 -0.67267158568E+02  0.11356155654E+03  0.00000000000E+00 0. -1.
         21    1    1    2  502  501  0.29307254445E+02 -0.44508763743E+01 -0.82329877736E+02  0.87503909808E+02  0.00000000000E+00 0. -1.
<scales pt_clust_5="13000.00000" pt_clust_6="13000.00000" pt_clust_7="13000.00000" pt_clust_8="13000.00000" pt_clust_9="29.64330"></scales>
<clustering>
<clus scale="   29.643">  2  9  1 -1</clus>
<clus scale="   78.069">  5  6 -1 -1</clus>
<clus scale="   92.596">  7  8 -1 -1</clus>
<clus scale="  122.178">  2  5  1 -1</clus>
<clus scale="   29.643">  2  5  1 -1</clus>
</clustering>
</event>
<event>
 9    1  0.1435532E-005  0.1110569E+03  0.7546771E-02  0.1259127E+00
          2   -1    0    0  502    0  0.00000000000E+00  0.00000000000E+00  0.10340131314E+03  0.10340131314E+03  0.00000000000E+00 0. -1.
         -2   -1    0    0    0  501 -0.00000000000E+00 -0.00000000000E+00 -0.26883348716E+03  0.26883348716E+03  0.00000000000E+00 0.  1.
         23    2    1    2    0    0 -0.19290292550E+02  0.38227527573E+02 -0.95231790758E+02  0.14039282427E+03  0.93848771355E+02 0.  0.
         23    2    1    2    0    0  0.28397873123E+02 -0.72644452454E+02 -0.12012173685E+03  0.17052628239E+03  0.92554446948E+02 0.  0.
        -13    1    4    4    0    0  0.59514422977E+02 -0.60739581003E+02 -0.69012326708E+02  0.10951695978E+03  0.00000000000E+00 0. -1.
         13    1    4    4    0    0 -0.31116549854E+02 -0.11904871451E+02 -0.51109410143E+02  0.61009322601E+02  0.00000000000E+00 0.  1.
        -13    1    3    3    0    0 -0.56328106595E+02  0.13070847188E+02 -0.60836094155E+02  0.83932907675E+02  0.00000000000E+00 0.  1.
         13    1    3    3    0    0  0.37037814045E+02  0.25156680385E+02 -0.34395696603E+02  0.56459916596E+02  0.00000000000E+00 0. -1.
         21    1    1    2  502  501 -0.91075805734E+01  0.34416924881E+02  0.49921353595E+02  0.61315693643E+02  0.00000000000E+00 0. -1.
<scales pt_clust_5="13000.00000" pt_clust_6="13000.00000" pt_clust_7="13000.00000" pt_clust_8="13000.00000" pt_clust_9="35.60158"></scales>
<clustering>
<clus scale="   35.602">  1  9  2 -1</clus>
<clus scale="   92.554">  5  6 -1 -1</clus>
<clus scale="   93.849">  7  8 -1 -1</clus>
<clus scale="  109.965">  1  5  2 -1</clus>
<clus scale="   35.602">  1  5  2 -1</clus>
</clustering>
</event>
<event>
 9    1  0.1435532E-005  0.1132226E+03  0.7546771E-02  0.1255265E+00
         -1   -1    0    0    0  501 -0.00000000000E+00  0.00000000000E+00  0.92650243058E+02  0.92650243058E+02  0.00000000000E+00 0.  1.
          1   -1    0    0  502    0  0.00000000000E+00 -0.00000000000E+00 -0.28326812336E+03  0.28326812336E+03  0.00000000000E+00 0. -1.
         23    2    1    2    0    0 -0.28355107293E+02 -0.71950693524E+02  0.21607772984E+02  0.12166665996E+03  0.91405502487E+02 0.  0.
         23    2    1    2    0    0  0.16208544395E+02  0.32619299555E+02 -0.12886942147E+03  0.16128526668E+03  0.89882555836E+02 0.  0.
        -13    1    4    4    0    0  0.67584518211E+01  0.59127252686E+02 -0.11592582209E+03  0.13030926639E+03  0.00000000000E+00 0.  1.
         13    1    4    4    0    0  0.94500925743E+01 -0.26507953132E+02 -0.12943599383E+02  0.30976000288E+02  0.00000000000E+00 0. -1.
        -13    1    3    3    0    0  0.47961643772E+00 -0.42911045134E+02  0.54355074453E+02  0.69253606009E+02  0.00000000000E+00 0.  1.
         13    1    3    3    0    0 -0.28834723731E+02 -0.29039648390E+02 -0.32747301469E+02  0.52413053954E+02  0.00000000000E+00 0. -1.
         21    1    1    2  502  501  0.12146562898E+02  0.39331393969E+02 -0.83356231817E+02  0.92966439775E+02  0.00000000000E+00 0.  1.
<scales pt_clust_5="13000.00000" pt_clust_6="13000.00000" pt_clust_7="13000.00000" pt_clust_8="13000.00000" pt_clust_9="41.16428"></scales>
<clustering>
<clus scale="   41.164">  2  9  1 -1</clus>
<clus scale="   89.883">  5  6 -1 -1</clus>
<clus scale="   91.406">  7  8 -1 -1</clus>
<clus scale="  111.997">  2  5  1 -1</clus>
<clus scale="   41.164">  2  5  1 -1</clus>
</clustering>
</event>
<event>
 9    1  0.1435532E-005  0.9233264E+02  0.7546771E-02  0.1297795E+00
          1   -1    0    0  502    0  0.00000000000E+00  0.00000000000E+00  0.35061728802E+03  0.35061728802E+03  0.00000000000E+00 0. -1.
         -1   -1    0    0    0  501 -0.00000000000E+00 -0.00000000000E+00 -0.76927045721E+02  0.76927045721E+02  0.00000000000E+00 0.  1.
         23    2    1    2    0    0 -0.73449758519E+01 -0.46040624604E+00  0.45338516697E+01  0.90389954828E+02  0.89975704936E+02 0.  0.
         23    2    1    2    0    0 -0.25996312754E+02  0.46160519834E+02  0.61254738223E+02  0.12169385125E+03  0.90833081027E+02 0.  0.
        -11    1    3    3    0    0 -0.24152678431E+02  0.37025124341E+02 -0.12465696023E+02  0.45930439636E+02  0.00000000000E+00 0.  1.
         11    1    3    3    0    0  0.16807702579E+02 -0.37485530587E+02  0.16999547693E+02  0.44459515192E+02  0.00000000000E+00 0. -1.
        -11    1    4    4    0    0 -0.18444803969E+02  0.71038542876E+02  0.25944718955E+02  0.77844805922E+02  0.00000000000E+00 0.  1.
         11    1    4    4    0    0 -0.75515087852E+01 -0.24878023041E+02  0.35310019269E+02  0.43849045327E+02  0.00000000000E+00 0. -1.
         21    1    1    2  502  501  0.33341288606E+02 -0.45700113588E+02  0.20790165240E+03  0.21546052766E+03  0.00000000000E+00 0. -1.
<scales pt_clust_5="13000.00000" pt_clust_6="13000.00000" pt_clust_7="13000.00000" pt_clust_8="13000.00000" pt_clust_9="56.56980"></scales>
<clustering>
<clus scale="   56.570">  1  9  2 -1</clus>
<clus scale="   89.976">  5  6 -1 -1</clus>
<clus scale="   90.833">  7  8 -1 -1</clus>
<clus scale="   91.489">  2  5  1 -1</clus>
<clus scale="   56.570">  1  5  2 -1</clus>
</clustering>
</event>
<event>
 9    1  0.1435532E-005  0.1249743E+03  0.7546771E-02  0.1237016E+00
          3   -1    0    0  502    0  0.00000000000E+00  0.00000000000E+00  0.20245317288E+03  0.20245317288E+03  0.00000000000E+00 0. -1.
         -3   -1    0    0    0  501 -0.00000000000E+00 -0.00000000000E+00 -0.11617127150E+03  0.11617127150E+03  0.00000000000E+00 0.  1.
         23    2    1    2    0    0  0.54637285295E+02 -0.53996811671E+02 -0.20089262409E+02  0.12519523768E+03  0.96795560122E+02 0.  0.
         23    2    1    2    0    0 -0.74181910631E+02  0.41397854028E+02  0.52589658283E+02  0.13483589268E+03  0.90544506255E+02 0.  0.
        -11    1    3    3    0    0  0.72737352255E+02 -0.37383376092E+02 -0.42301523482E+02  0.92074198937E+02  0.00000000000E+00 0.  1.
         11    1    3    3    0    0 -0.18100066959E+02 -0.16613435579E+02  0.22212261073E+02  0.33121038746E+02  0.00000000000E+00 0. -1.
        -13    1    4    4    0    0 -0.28829527948E+02  0.66380362941E+02  0.31446324149E+02  0.78907322654E+02  0.00000000000E+00 0. -1.
         13    1    4    4    0    0 -0.45352382683E+02 -0.24982508913E+02  0.21143334135E+02  0.55928570025E+02  0.00000000000E+00 0.  1.
         21    1    1    2  502  501  0.19544625336E+02  0.12598957643E+02  0.53781505504E+02  0.58593314017E+02  0.00000000000E+00 0.  1.
<scales pt_clust_5="13000.00000" pt_clust_6="13000.00000" pt_clust_7="13000.00000" pt_clust_8="13000.00000" pt_clust_9="23.25352"></scales>
<clustering>
<clus scale="   23.254">  1  9  2 -1</clus>
<clus scale="   90.545">  7  8 -1 -1</clus>
<clus scale="   96.796">  5  6 -1 -1</clus>
<clus scale="  120.198">  1  7  2 -1</clus>
<clus scale="   23.254">  1  5  2 -1</clus>
</clustering>
</event>
<event>
 9    1  0.1435532E-005  0.2004968E+03  0.7546771E-02  0.1150094E+00
         -1   -1    0    0    0  501 -0.00000000000E+00  0.00000000000E+00  0.31579455430E+02  0.31579455430E+02  0.00000000000E+00 0.  1.
          1   -1    0    0  502    0  0.00000000000E+00 -0.00000000000E+00 -0.14427394127E+04  0.14427394127E+04  0.00000000000E+00 0. -1.
         23    2    1    2    0    0 -0.17124080187E+03  0.60788845194E+02 -0.68843075482E+03  0.71883803238E+03  0.98856040220E+02 0.  0.
         23    2    1    2    0    0  0.15553824023E+03 -0.37533075865E+02 -0.63714893500E+03  0.66541761670E+03  0.10592904832E+03 0.  0.
        -11    1    3    3    0    0 -0.65730917945E+02  0.15306278503E+02 -0.10958887958E+03  0.12870337316E+03  0.00000000000E+00 0.  1.
         11    1    3    3    0    0 -0.10550988393E+03  0.45482566690E+02 -0.57884187524E+03  0.59013465922E+03  0.00000000000E+00 0. -1.
        -13    1    4    4    0    0  0.11066023839E+03 -0.73168221459E+02 -0.48563309639E+03  0.50342703672E+03  0.00000000000E+00 0. -1.
         13    1    4    4    0    0  0.44878001848E+02  0.35635145593E+02 -0.15151583862E+03  0.16199057998E+03  0.00000000000E+00 0.  1.
         21    1    1    2  502  501  0.15702561640E+02 -0.23255769328E+02 -0.85580267410E+02  0.90063219013E+02  0.00000000000E+00 0.  1.
<scales pt_clust_5="13000.00000" pt_clust_6="13000.00000" pt_clust_7="13000.00000" pt_clust_8="13000.00000" pt_clust_9="28.06067"></scales>
<clustering>
<clus scale="   28.061">  1  9  2 -1</clus>
<clus scale="   98.856">  5  6 -1 -1</clus>
<clus scale="  105.929">  7  8 -1 -1</clus>
<clus scale="  196.852">  1  5  2 -1</clus>
<clus scale="  200.497">  2  5  1 -1</clus>
</clustering>
</event>
<event>
 9    1  0.1435532E-005  0.1511231E+03  0.7546771E-02  0.1199238E+00
         -1   -1    0    0    0  501 -0.00000000000E+00  0.00000000000E+00  0.63938708691E+03  0.63938708691E+03  0.00000000000E+00 0.  1.
          1   -1    0    0  502    0  0.00000000000E+00 -0.00000000000E+00 -0.13743622038E+03  0.13743622038E+03  0.00000000000E+00 0. -1.
         23    2    1    2    0    0 -0.94412752170E+02  0.67974605199E+02  0.46007165486E+03  0.48352993920E+03  0.92741359528E+02 0.  0.
         23    2    1    2    0    0  0.11418192343E+03 -0.57178223797E+02  0.12846059404E+03  0.20382986851E+03  0.93475291711E+02 0.  0.
        -13    1    4    4    0    0 -0.51944661998E+01 -0.36779095468E+02  0.29566423082E+02  0.47474811389E+02  0.00000000000E+00 0.  1.
         13    1    4    4    0    0  0.11937638963E+03 -0.20399128329E+02  0.98894170960E+02  0.15635505712E+03  0.00000000000E+00 0. -1.
        -13    1    3    3    0    0 -0.35495688692E+02  0.73458468826E+02  0.18539705433E+03  0.20255408737E+03  0.00000000000E+00 0.  1.
         13    1    3    3    0    0 -0.58917063478E+02 -0.54838636272E+01  0.27467460053E+03  0.28097585182E+03  0.00000000000E+00 0. -1.
         21    1    1    2  502  501 -0.19769171257E+02 -0.10796381402E+02 -0.86581382372E+02  0.89463499580E+02  0.00000000000E+00 0.  1.
<scales pt_clust_5="13000.00000" pt_clust_6="13000.00000" pt_clust_7="13000.00000" pt_clust_8="13000.00000" pt_clust_9="22.52514"></scales>
<clustering>
<clus scale="   22.525">  2  9  1 -1</clus>
<clus scale="   92.741">  7  8 -1 -1</clus>
<clus scale="   93.475">  5  6 -1 -1</clus>
<clus scale="  150.670">  1  7  2 -1</clus>
<clus scale="   22.525">  2  5  1 -1</clus>
</clustering>
</event>
<event>
 9    1  0.1435532E-005  0.1793739E+03  0.7546771E-02  0.1172557E+00
         -2   -1    0    0    0  501 -0.00000000000E+00  0.00000000000E+00  0.94960923276E+02  0.94960923276E+02  0.00000000000E+00 0.  1.
          2   -1    0    0  502    0  0.00000000000E+00 -0.00000000000E+00 -0.48305396153E+03  0.48305396153E+03  0.00000000000E+00 0. -1.
         23    2    1    2    0    0  0.46453509576E+02 -0.13478843031E+03 -0.48929672561E+02  0.19121264643E+03  0.11765336289E+03 0.  0.
         23    2    1    2    0    0 -0.50943183078E+02  0.10925816662E+03 -0.23425810472E+03  0.27874176776E+03  0.91036029067E+02 0.  0.
        -13    1    4    4    0    0 -0.74779628673E+02  0.93800000170E+02 -0.16600838818E+03  0.20481508207E+03  0.00000000000E+00 0.  1.
         13    1    4    4    0    0  0.23836445595E+02  0.15458166449E+02 -0.68249716546E+02  0.73926685690E+02  0.00000000000E+00 0. -1.
        -13    1    3    3    0    0  0.78559947159E+01  0.20769408364E+02 -0.16563149084E+02  0.27702398531E+02  0.00000000000E+00 0.  1.
         13    1    3    3    0    0  0.38597514860E+02 -0.15555783867E+03 -0.32366523477E+02  0.16351024790E+03  0.00000000000E+00 0. -1.
         21    1    1    2  502  501  0.44896735019E+01  0.25530263689E+02 -0.10490526097E+03  0.10806047063E+03  0.00000000000E+00 0. -1.
<scales pt_clust_5="13000.00000" pt_clust_6="13000.00000" pt_clust_7="13000.00000" pt_clust_8="13000.00000" pt_clust_9="25.92203"></scales>
<clustering>
<clus scale="   25.922">  2  9  1 -1</clus>
<clus scale="   91.036">  5  6 -1 -1</clus>
<clus scale="  117.653">  7  8 -1 -1</clus>
<clus scale="  163.157">  2  5  1 -1</clus>
<clus scale="   25.922">  2  5  1 -1</clus>
</clustering>
</event>
<event>
 9    1  0.1435532E-005  0.1003950E+03  0.7546771E-02  0.1279570E+00
          1   -1    0    0  502    0  0.00000000000E+00  0.00000000000E+00  0.38719950703E+02  0.38719950703E+02  0.00000000000E+00 0. -1.
         -1   -1    0    0    0  501 -0.00000000000E+00 -0.00000000000E+00 -0.58987708225E+03  0.58987708225E+03  0.00000000000E+00 0.  1.
         23    2    1    2    0    0 -0.35909313746E+02  0.36570308408E+00 -0.42147930485E+03  0.43274803141E+03  0.91304116701E+02 0.  0.
         23    2    1    2    0    0  0.67504559970E+02  0.21580947525E+01 -0.89853356893E+02  0.14495089219E+03  0.91518371999E+02 0.  0.
        -11    1    4    4    0    0 -0.17297152305E+01  0.35508916151E+02 -0.18463542387E+02  0.40059673469E+02  0.00000000000E+00 0.  1.
         11    1    4    4    0    0  0.69234275200E+02 -0.33350821398E+02 -0.71389814506E+02  0.10489121873E+03  0.00000000000E+00 0. -1.
        -13    1    3    3    0    0  0.23589087920E+02 -0.20634568535E+02 -0.89570942643E+02  0.94895649287E+02  0.00000000000E+00 0. -1.
         13    1    3    3    0    0 -0.59498401666E+02  0.21000271619E+02 -0.33190836220E+03  0.33785238213E+03  0.00000000000E+00 0.  1.
         21    1    1    2  502  501 -0.31595246224E+02 -0.25237978366E+01 -0.39824469809E+02  0.50898109346E+02  0.00000000000E+00 0. -1.
<scales pt_clust_5="13000.00000" pt_clust_6="13000.00000" pt_clust_7="13000.00000" pt_clust_8="13000.00000" pt_clust_9="31.69589"></scales>
<clustering>
<clus scale="   31.696">  1  9  2 -1</clus>
<clus scale="   91.304">  7  8 -1 -1</clus>
<clus scale="   91.518">  5  6 -1 -1</clus>
<clus scale="  100.200">  2  7  1 -1</clus>
<clus scale="   31.696">  1  5  2 -1</clus>
</clustering>
</event>
<event>
 9    1  0.1435532E-005  0.2054782E+03  0.7546771E-02  0.1146061E+00
         -1   -1    0    0    0  501 -0.00000000000E+00  0.00000000000E+00  0.16956781707E+03  0.16956781707E+03  0.00000000000E+00 0.  1.
          1   -1    0    0  502    0  0.00000000000E+00 -0.00000000000E+00 -0.35728331736E+03  0.35728331736E+03  0.00000000000E+00 0. -1.
         23    2    1    2    0    0  0.14256555326E+03  0.53129554259E+02 -0.73773154667E+02  0.19006608624E+03  0.86804102896E+02 0.  0.
         23    2    1    2    0    0 -0.21713571150E+03 -0.38314847123E+02 -0.79615633700E+02  0.25336738099E+03  0.96127186066E+02 0.  0.
        -11    1    4    4    0    0 -0.13359747738E+03 -0.11595282781E+02 -0.94974335859E+02  0.16432547281E+03  0.00000000000E+00 0. -1.
         11    1    4    4    0    0 -0.83538234127E+02 -0.26719564342E+02  0.15358702159E+02  0.89041908176E+02  0.00000000000E+00 0.  1.
        -13    1    3    3    0    0  0.30878975929E+02  0.36889522627E+02 -0.59177922197E+02  0.76265159212E+02  0.00000000000E+00 0. -1.
         13    1    3    3    0    0  0.11168657733E+03  0.16240031632E+02 -0.14595232470E+02  0.11380092703E+03  0.00000000000E+00 0.  1.
         21    1    1    2  502  501  0.74570158247E+02 -0.14814707136E+02 -0.34326711930E+02  0.83417667196E+02  0.00000000000E+00 0. -1.
<scales pt_clust_5="13000.00000" pt_clust_6="13000.00000" pt_clust_7="13000.00000" pt_clust_8="13000.00000" pt_clust_9="76.02752"></scales>
<clustering>
<clus scale="   76.028">  2  9  1 -1</clus>
<clus scale="   86.804">  7  8 -1 -1</clus>
<clus scale="   96.127">  5  6 -1 -1</clus>
<clus scale="  201.285">  1  7  2 -1</clus>
<clus scale="   76.028">  2  5  1 -1</clus>
</clustering>
</event>
<event>
 9    1  0.1435532E-005  0.1373432E+03  0.7546771E-02  0.1234983E+00
          3   -1    0    0  502    0  0.00000000000E+00  0.00000000000E+00  0.36362211939E+03  0.36362211939E+03  0.00000000000E+00 0. -1.
         -3   -1    0    0    0  501 -0.00000000000E+00 -0.00000000000E+00 -0.10517377747E+03  0.10517377747E+03  0.00000000000E+00 0.  1.
         23    2    1    2    0    0 -0.20602785879E+02  0.23235602145E+02  0.18907429344E+02  0.96278228778E+02  0.89149528654E+02 0.  0.
         23    2    1    2    0    0  0.81156917394E+02 -0.11533030823E+03  0.75125061276E+02  0.17457623763E+03  0.70324694634E+02 0.  0.
        -11    1    3    3    0    0  0.29506154000E+02  0.17115815220E+02 -0.13060831741E+02  0.36526012379E+02  0.00000000000E+00 0. -1.
         11    1    3    3    0    0 -0.50108939879E+02  0.61197869253E+01  0.31968261085E+02  0.59752216399E+02  0.00000000000E+00 0.  1.
        -11    1    4    4    0    0  0.62912596815E+02 -0.39514151157E+02  0.14246064851E+02  0.75645973742E+02  0.00000000000E+00 0.  1.
         11    1    4    4    0    0  0.18244320578E+02 -0.75816157075E+02  0.60878996425E+02  0.98930263886E+02  0.00000000000E+00 0. -1.
         21    1    1    2  502  501 -0.60554131515E+02  0.92094706086E+02  0.16441585130E+03  0.19794143046E+03  0.00000000000E+00 0. -1.
<scales pt_clust_5="13000.00000" pt_clust_6="13000.00000" pt_clust_7="13000.00000" pt_clust_8="13000.00000" pt_clust_9="117.97288"></scales>
<clustering>
<clus scale="   70.325">  7  8 -1 -1</clus>
<clus scale="   89.150">  5  6 -1 -1</clus>
<clus scale="   94.403">  2  5  1 -1</clus>
<clus scale="  117.973">  1  9  2 -1</clus>
<clus scale="  117.973">  1  5  2 -1</clus>
</clustering>
</event>
<event>
 9    1  0.1435532E-005  0.2626757E+03  0.7546771E-02  0.1106229E+00
         -3   -1    0    0    0  501 -0.00000000000E+00  0.00000000000E+00  0.17085051790E+04  0.17085051790E+04  0.00000000000E+00 0.  1.
          3   -1    0    0  502    0  0.00000000000E+00 -0.00000000000E+00 -0.23611896479E+03  0.23611896479E+03  0.00000000000E+00 0. -1.
         23    2    1    2    0    0  0.14323555097E+03 -0.15761768155E+03  0.85340665393E+03  0.88427502204E+03  0.90992532915E+02 0.  0.
         23    2    1    2    0    0 -0.25880160626E+03  0.16502857335E+03  0.79000771152E+03  0.85380357481E+03  0.10322624996E+03 0.  0.
        -11    1    4    4    0    0 -0.61967666322E+02  0.46124692442E+02  0.99227486025E+02  0.12575202943E+03  0.00000000000E+00 0. -1.
         11    1    4    4    0    0 -0.19683393994E+03  0.11890388090E+03  0.69078022549E+03  0.72805154538E+03  0.00000000000E+00 0.  1.
        -11    1    3    3    0    0  0.57315568433E+02 -0.28971101121E+02  0.13630867503E+03  0.15067997203E+03  0.00000000000E+00 0.  1.
         11    1    3    3    0    0  0.85919982535E+02 -0.12864658043E+03  0.71709797890E+03  0.73359505001E+03  0.00000000000E+00 0. -1.
         21    1    1    2  502  501  0.11556605530E+03 -0.74108917922E+01 -0.17102815122E+03  0.20654554694E+03  0.00000000000E+00 0. -1.
<scales pt_clust_5="13000.00000" pt_clust_6="13000.00000" pt_clust_7="13000.00000" pt_clust_8="13000.00000" pt_clust_9="115.80343"></scales>
<clustering>
<clus scale="   90.993">  7  8 -1 -1</clus>
<clus scale="  103.226">  5  6 -1 -1</clus>
<clus scale="  115.803">  2  9  1 -1</clus>
<clus scale="  258.113">  1  7  2 -1</clus>
<clus scale="  115.803">  2  5  1 -1</clus>
</clustering>
</event>
<event>
 9    1  0.1435532E-005  0.1298793E+03  0.7546771E-02  0.1228286E+00
          1   -1    0    0  502    0  0.00000000000E+00  0.00000000000E+00  0.18101513504E+03  0.18101513504E+03  0.00000000000E+00 0. -1.
         -1   -1    0    0    0  501 -0.00000000000E+00 -0.00000000000E+00 -0.34508743727E+03  0.34508743727E+03  0.00000000000E+00 0.  1.
         23    2    1    2    0    0 -0.13991501191E+02  0.93777114968E+02 -0.30235576420E+03  0.32978048162E+03  0.91357804916E+02 0.  0.
         23    2    1    2    0    0  0.55445392373E+01 -0.67528480096E+02  0.11253345292E+03  0.15859405118E+03  0.88867640369E+02 0.  0.
        -13    1    4    4    0    0  0.35886208365E+02 -0.70781186081E+02  0.93462837466E+02  0.12260953569E+03  0.00000000000E+00 0. -1.
         13    1    4    4    0    0 -0.30341669128E+02  0.32527059844E+01  0.19070615452E+02  0.35984515495E+02  0.00000000000E+00 0.  1.
        -13    1    3    3    0    0 -0.24434599875E+02  0.71738632916E+02 -0.29459637595E+03  0.30418827368E+03  0.00000000000E+00 0.  1.
         13    1    3    3    0    0  0.10443098684E+02  0.22038482052E+02 -0.77593882473E+01  0.25592207940E+02  0.00000000000E+00 0. -1.
         21    1    1    2  502  501  0.84469619536E+01 -0.26248634871E+02  0.25750009048E+02  0.37728039504E+02  0.00000000000E+00 0. -1.
<scales pt_clust_5="13000.00000" pt_clust_6="13000.00000" pt_clust_7="13000.00000" pt_clust_8="13000.00000" pt_clust_9="27.57430"></scales>
<clustering>
<clus scale="   27.574">  1  9  2 -1</clus>
<clus scale="   88.868">  5  6 -1 -1</clus>
<clus scale="   91.358">  7  8 -1 -1</clus>
<clus scale="  128.140">  1  5  2 -1</clus>
<clus scale="   27.574">  1  5  2 -1</clus>
</clustering>
</event>
<event>
 9    1  0.1435532E-005  0.9345940E+02  0.7546771E-02  0.1299250E+00
          1   -1    0    0  502    0  0.00000000000E+00  0.00000000000E+00  0.96235602408E+02  0.96235602408E+02  0.00000000000E+00 0. -1.
         -1   -1    0    0    0  501 -0.00000000000E+00 -0.00000000000E+00 -0.13736579817E+03  0.13736579817E+03  0.00000000000E+00 0.  1.
         23    2    1    2    0    0 -0.14523727711E+02  0.21490270967E+02 -0.59323729772E+02  0.10465205286E+03  0.82219078324E+02 0.  0.
         23    2    1    2    0    0  0.29079196995E+02  0.48788361758E+01  0.25044343675E+02  0.98060432387E+02  0.90106750632E+02 0.  0.
        -11    1    4    4    0    0  0.18371820306E+02 -0.38403245878E+02  0.31568105145E+02  0.52998852230E+02  0.00000000000E+00 0. -1.
         11    1    4    4    0    0  0.10707376690E+02  0.43282082054E+02 -0.65237614701E+01  0.45061580156E+02  0.00000000000E+00 0.  1.
        -11    1    3    3    0    0 -0.47252858606E+02  0.80363844019E+01 -0.20528910473E+02  0.52142614874E+02  0.00000000000E+00 0. -1.
         11    1    3    3    0    0  0.32729130896E+02  0.13453886566E+02 -0.38794819299E+02  0.52509437983E+02  0.00000000000E+00 0.  1.
         21    1    1    2  502  501 -0.14555469285E+02 -0.26369107143E+02 -0.68508096692E+01  0.30888915338E+02  0.00000000000E+00 0. -1.
<scales pt_clust_5="13000.00000" pt_clust_6="13000.00000" pt_clust_7="13000.00000" pt_clust_8="13000.00000" pt_clust_9="30.11962"></scales>
<clustering>
<clus scale="   30.120">  2  9  1 -1</clus>
<clus scale="   82.219">  7  8 -1 -1</clus>
<clus scale="   85.880">  2  7  1 -1</clus>
<clus scale="   90.107">  5  6 -1 -1</clus>
<clus scale="   93.459">  1  5  2 -1</clus>
</clustering>
</event>
<event>
 9    1  0.1435532E-005  0.1342002E+03  0.7546771E-02  0.1221400E+00
         -1   -1    0    0    0  501 -0.00000000000E+00  0.00000000000E+00  0.59136312519E+02  0.59136312519E+02  0.00000000000E+00 0.  1.
          1   -1    0    0  502    0  0.00000000000E+00 -0.00000000000E+00 -0.52342938316E+03  0.52342938316E+03  0.00000000000E+00 0. -1.
         23    2    1    2    0    0 -0.63795501344E+02  0.91664463451E+02 -0.11078833044E+03  0.18235885199E+03  0.92241297089E+02 0.  0.
         23    2    1    2    0    0  0.78250001979E+02 -0.30674697264E+02 -0.22456662663E+03  0.25684115287E+03  0.92050030708E+02 0.  0.
        -11    1    3    3    0    0 -0.24923514107E+02  0.30692885602E+02  0.10717812469E+02  0.40964695607E+02  0.00000000000E+00 0.  1.
         11    1    3    3    0    0 -0.38871987236E+02  0.60971577849E+02 -0.12150614290E+03  0.14139415639E+03  0.00000000000E+00 0. -1.
        -13    1    4    4    0    0  0.76454054306E+02  0.15126367541E+02 -0.12630983104E+03  0.14841901102E+03  0.00000000000E+00 0.  1.
         13    1    4    4    0    0  0.17959476729E+01 -0.45801064805E+02 -0.98256795585E+02  0.10842214185E+03  0.00000000000E+00 0. -1.
         21    1    1    2  502  501 -0.14454500635E+02 -0.60989766187E+02 -0.12893811358E+03  0.14336569081E+03  0.00000000000E+00 0.  1.
<scales pt_clust_5="13000.00000" pt_clust_6="13000.00000" pt_clust_7="13000.00000" pt_clust_8="13000.00000" pt_clust_9="62.67922"></scales>
<clustering>
<clus scale="   62.679">  2  9  1 -1</clus>
<clus scale="   92.050">  7  8 -1 -1</clus>
<clus scale="   92.241">  5  6 -1 -1</clus>
<clus scale="  134.069">  2  7  1 -1</clus>
<clus scale="   62.679">  2  5  1 -1</clus>
</clustering>
</event>
<event>
 9    1  0.1435532E-005  0.1513878E+03  0.7546771E-02  0.1199239E+00
         -2   -1    0    0    0  501 -0.00000000000E+00  0.00000000000E+00  0.23469479168E+03  0.23469479168E+03  0.00000000000E+00 0.  1.
          2   -1    0    0  502    0  0.00000000000E+00 -0.00000000000E+00 -0.25215354928E+03  0.25215354928E+03  0.00000000000E+00 0. -1.
         23    2    1    2    0    0 -0.11807951005E+03 -0.64198529485E+02  0.15735569688E+03  0.22641147819E+03  0.91853798155E+02 0.  0.
         23    2    1    2    0    0  0.66779233739E+02  0.43896410516E+01 -0.12316064459E+03  0.16621936141E+03  0.89339782431E+02 0.  0.
        -11    1    3    3    0    0 -0.11042521861E+03 -0.28943862102E+02  0.75240322624E+02  0.13672081849E+03  0.00000000000E+00 0. -1.
         11    1    3    3    0    0 -0.76542914388E+01 -0.35254667383E+02  0.82115374254E+02  0.89690659707E+02  0.00000000000E+00 0.  1.
        -11    1    4    4    0    0 -0.19868508720E+02  0.39465933569E+01 -0.72795037021E+01  0.21524971824E+02  0.00000000000E+00 0. -1.
         11    1    4    4    0    0  0.86647742459E+02  0.44304769466E+00 -0.11588114089E+03  0.14469438959E+03  0.00000000000E+00 0.  1.
         21    1    1    2  502  501  0.51300276313E+02  0.59808888433E+02 -0.51653809891E+02  0.94217501355E+02  0.00000000000E+00 0.  1.
<scales pt_clust_5="13000.00000" pt_clust_6="13000.00000" pt_clust_7="13000.00000" pt_clust_8="13000.00000" pt_clust_9="78.79608"></scales>
<clustering>
<clus scale="   78.796">  2  9  1 -1</clus>
<clus scale="   89.340">  7  8 -1 -1</clus>
<clus scale="   91.854">  5  6 -1 -1</clus>
<clus scale="  149.876">  2  7  1 -1</clus>
<clus scale="   78.796">  2  5  1 -1</clus>
</clustering>
</event>
<event>
 9    1  0.1435532E-005  0.1323412E+03  0.7546771E-02  0.1224938E+00
          1   -1    0    0  502    0  0.00000000000E+00  0.00000000000E+00  0.68996552699E+03  0.68996552699E+03  0.00000000000E+00 0. -1.
         -1   -1    0    0    0  501 -0.00000000000E+00 -0.00000000000E+00 -0.44379952092E+02  0.44379952092E+02  0.00000000000E+00 0.  1.
         23    2    1    2    0    0  0.91909199445E+01 -0.10461308180E+03  0.11141565803E+03  0.17885354245E+03  0.92448747426E+02 0.  0.
         23    2    1    2    0    0 -0.41767855465E+01  0.63891193089E+02  0.42457025962E+03  0.43846416799E+03  0.88833502511E+02 0.  0.
        -11    1    3    3    0    0 -0.25129550055E+02 -0.10172533242E+03  0.91224564045E+02  0.13892968951E+03  0.00000000000E+00 0.  1.
         11    1    3    3    0    0  0.34320470000E+02 -0.28877493776E+01  0.20191093986E+02  0.39923852943E+02  0.00000000000E+00 0. -1.
        -13    1    4    4    0    0 -0.36663596260E+02  0.15497677824E+02  0.84140899589E+02  0.93081084503E+02  0.00000000000E+00 0.  1.
         13    1    4    4    0    0  0.32486810713E+02  0.48393515265E+02  0.34042936003E+03  0.34538308349E+03  0.00000000000E+00 0. -1.
         21    1    1    2  502  501 -0.50141343980E+01  0.40721888708E+02  0.10959965725E+03  0.11702776864E+03  0.00000000000E+00 0. -1.
<scales pt_clust_5="13000.00000" pt_clust_6="13000.00000" pt_clust_7="13000.00000" pt_clust_8="13000.00000" pt_clust_9="41.02943"></scales>
<clustering>
<clus scale="   41.029">  1  9  2 -1</clus>
<clus scale="   88.834">  7  8 -1 -1</clus>
<clus scale="   92.449">  5  6 -1 -1</clus>
<clus scale="  129.842">  1  7  2 -1</clus>
<clus scale="   41.029">  1  5  2 -1</clus>
</clustering>
</event>
<event>
 9    1  0.1435532E-005  0.1146891E+03  0.7546771E-02  0.1254455E+00
         -3   -1    0    0    0  501 -0.00000000000E+00  0.00000000000E+00  0.45284439810E+03  0.45284439810E+03  0.00000000000E+00 0.  1.
          3   -1    0    0  502    0  0.00000000000E+00 -0.00000000000E+00 -0.10749868698E+03  0.10749868698E+03  0.00000000000E+00 0. -1.
         23    2    1    2    0    0  0.41411436233E+02 -0.18388997293E+02  0.35811932336E+03  0.37085230589E+03  0.85023060071E+02 0.  0.
         23    2    1    2    0    0 -0.55953575727E+02  0.44337654641E+02 -0.62241417549E+02  0.13176842304E+03  0.91609459097E+02 0.  0.
        -11    1    4    4    0    0 -0.73338666131E+02  0.57494781808E+02 -0.42763858368E+02  0.10253271413E+03  0.00000000000E+00 0. -1.
         11    1    4    4    0    0  0.17385090403E+02 -0.13157127167E+02 -0.19477559180E+02  0.29235708906E+02  0.00000000000E+00 0.  1.
        -13    1    3    3    0    0  0.26283400163E+02 -0.52674792603E+02  0.21882314356E+03  0.22660321944E+03  0.00000000000E+00 0.  1.
         13    1    3    3    0    0  0.15128036070E+02  0.34285795309E+02  0.13929617980E+03  0.14424908645E+03  0.00000000000E+00 0. -1.
         21    1    1    2  502  501  0.14542139494E+02 -0.25948657348E+02  0.49467805306E+02  0.57722356163E+02  0.00000000000E+00 0.  1.
<scales pt_clust_5="13000.00000" pt_clust_6="13000.00000" pt_clust_7="13000.00000" pt_clust_8="13000.00000" pt_clust_9="29.74570"></scales>
<clustering>
<clus scale="   29.746">  1  9  2 -1</clus>
<clus scale="   85.023">  7  8 -1 -1</clus>
<clus scale="   91.609">  5  6 -1 -1</clus>
<clus scale="  109.500">  1  7  2 -1</clus>
<clus scale="  114.689">  2  5  1 -1</clus>
</clustering>
</event>
<event>
 9    1  0.1435532E-005  0.1054925E+03  0.7546771E-02  0.1271463E+00
          2   -1    0    0  502    0  0.00000000000E+00  0.00000000000E+00  0.11222986500E+03  0.11222986500E+03  0.00000000000E+00 0. -1.
         -2   -1    0    0    0  501 -0.00000000000E+00 -0.00000000000E+00 -0.21754443733E+03  0.21754443733E+03  0.00000000000E+00 0.  1.
         23    2    1    2    0    0 -0.34873406644E+02 -0.29690419037E+02 -0.10173229989E+03  0.14172382916E+03  0.87398555128E+02 0.  0.
         23    2    1    2    0    0  0.61996699306E+00  0.83153853615E+02 -0.30262812489E+01  0.12455286619E+03  0.92678532407E+02 0.  0.
        -11    1    4    4    0    0 -0.17957951389E+02  0.26707946461E+02 -0.42427072597E+02  0.53252783133E+02  0.00000000000E+00 0.  1.
         11    1    4    4    0    0  0.18577918382E+02  0.56445907153E+02  0.39400791348E+02  0.71300083062E+02  0.00000000000E+00 0. -1.
        -13    1    3    3    0    0  0.12899115996E+02 -0.43970178280E+02 -0.66139171449E+02  0.80462126317E+02  0.00000000000E+00 0.  1.
         13    1    3    3    0    0 -0.47772522640E+02  0.14279759244E+02 -0.35593128441E+02  0.61261702847E+02  0.00000000000E+00 0. -1.
         21    1    1    2  502  501  0.34253439651E+02 -0.53463434578E+02 -0.55599119878E+00  0.63497606971E+02  0.00000000000E+00 0.  1.
<scales pt_clust_5="13000.00000" pt_clust_6="13000.00000" pt_clust_7="13000.00000" pt_clust_8="13000.00000" pt_clust_9="63.49517"></scales>
<clustering>
<clus scale="   63.495">  1  9  2 -1</clus>
<clus scale="   87.399">  7  8 -1 -1</clus>
<clus scale="   92.679">  5  6 -1 -1</clus>
<clus scale="  100.885">  2  7  1 -1</clus>
<clus scale="   63.495">  1  5  2 -1</clus>
</clustering>
</event>
<event>
 9    1  0.1435532E-005  0.1239666E+03  0.7546771E-02  0.1239271E+00
          1   -1    0    0  502    0  0.00000000000E+00  0.00000000000E+00  0.16139502281E+03  0.16139502281E+03  0.00000000000E+00 0. -1.
         -1   -1    0    0    0  501 -0.00000000000E+00 -0.00000000000E+00 -0.12299294916E+03  0.12299294916E+03  0.00000000000E+00 0.  1.
         23    2    1    2    0    0  0.20715845284E+02 -0.96679099806E+02  0.15705953222E+02  0.13202454329E+03  0.86068626570E+02 0.  0.
         23    2    1    2    0    0 -0.22383179767E+02  0.61240287375E+02  0.21597917721E+02  0.11686842227E+03  0.94553574972E+02 0.  0.
        -11    1    3    3    0    0  0.42311651582E+02 -0.13468095640E+02 -0.11572000411E+01  0.44418516091E+02  0.00000000000E+00 0.  1.
         11    1    3    3    0    0 -0.21595806298E+02 -0.83211004166E+02  0.16863153263E+02  0.87606027201E+02  0.00000000000E+00 0. -1.
        -11    1    4    4    0    0  0.32493902096E+02  0.12886874493E+02  0.26046066310E+02  0.43592691794E+02  0.00000000000E+00 0. -1.
         11    1    4    4    0    0 -0.54877081863E+02  0.48353412882E+02 -0.44481485891E+01  0.73275730477E+02  0.00000000000E+00 0.  1.
         21    1    1    2  502  501  0.16673344826E+01  0.35438812431E+02  0.10982027117E+01  0.35495006409E+02  0.00000000000E+00 0.  1.
<scales pt_clust_5="13000.00000" pt_clust_6="13000.00000" pt_clust_7="13000.00000" pt_clust_8="13000.00000" pt_clust_9="35.47801"></scales>
<clustering>
<clus scale="   35.478">  2  9  1 -1</clus>
<clus scale="   86.069">  5  6 -1 -1</clus>
<clus scale="   94.554">  7  8 -1 -1</clus>
<clus scale="  117.623">  2  5  1 -1</clus>
<clus scale="  123.967">  1  5  2 -1</clus>
</clustering>
</event>
<event>
 9    1  0.1435532E-005  0.9264117E+02  0.7546771E-02  0.1297649E+00
          3   -1    0    0  502    0  0.00000000000E+00  0.00000000000E+00  0.24629075922E+03  0.24629075922E+03  0.00000000000E+00 0. -1.
         -3   -1    0    0    0  501 -0.00000000000E+00 -0.00000000000E+00 -0.50092798293E+02  0.50092798293E+02  0.00000000000E+00 0.  1.
         23    2    1    2    0    0 -0.10870418347E+02  0.10267575284E+02  0.35980510659E+02  0.98283079462E+02  0.90229581979E+02 0.  0.
         23    2    1    2    0    0  0.87770905852E+01  0.10767767655E+02  0.14391855089E+03  0.17140737418E+03  0.92059526892E+02 0.  0.
        -11    1    3    3    0    0 -0.45079552216E+02 -0.59170127475E+01 -0.85118108405E+00  0.45474185832E+02  0.00000000000E+00 0.  1.
         11    1    3    3    0    0  0.34209133869E+02  0.16184588031E+02  0.36831691743E+02  0.52808893630E+02  0.00000000000E+00 0. -1.
        -11    1    4    4    0    0 -0.22184675082E+02 -0.13735538775E+02  0.44651816547E+01  0.26471922505E+02  0.00000000000E+00 0.  1.
         11    1    4    4    0    0  0.30961765667E+02  0.24503306430E+02  0.13945336924E+03  0.14493545167E+03  0.00000000000E+00 0. -1.
         21    1    1    2  502  501  0.20933277613E+01 -0.21035342939E+02  0.16298899377E+02  0.26693103877E+02  0.00000000000E+00 0.  1.
<scales pt_clust_5="13000.00000" pt_clust_6="13000.00000" pt_clust_7="13000.00000" pt_clust_8="13000.00000" pt_clust_9="21.13924"></scales>
<clustering>
<clus scale="   21.139">  2  9  1 -1</clus>
<clus scale="   90.230">  5  6 -1 -1</clus>
<clus scale="   90.823">  2  5  1 -1</clus>
<clus scale="   92.060">  7  8 -1 -1</clus>
<clus scale="   92.641">  1  5  2 -1</clus>
</clustering>
</event>
<event>
 9    1  0.1435532E-005  0.1442305E+03  0.7546771E-02  0.1226210E+00
         -1   -1    0    0    0  501 -0.00000000000E+00  0.00000000000E+00  0.70360161132E+02  0.70360161132E+02  0.00000000000E+00 0.  1.
          1   -1    0    0  502    0  0.00000000000E+00 -0.00000000000E+00 -0.69654691982E+03  0.69654691982E+03  0.00000000000E+00 0. -1.
         23    2    1    2    0    0 -0.30227049757E+02  0.15960036349E+02 -0.15158455202E+02  0.98855555273E+02  0.91510899607E+02 0.  0.
         23    2    1    2    0    0 -0.90312171426E+02 -0.29543654940E+02 -0.19557980751E+03  0.23525634162E+03  0.89805174186E+02 0.  0.
        -11    1    3    3    0    0 -0.39587597536E+02 -0.87416937869E+01  0.27281651967E+02  0.48865976129E+02  0.00000000000E+00 0.  1.
         11    1    3    3    0    0  0.93605477793E+01  0.24701730136E+02 -0.42440107169E+02  0.49989579144E+02  0.00000000000E+00 0. -1.
        -13    1    4    4    0    0 -0.63358493133E+02 -0.57123512444E+02 -0.16606289084E+03  0.18669300480E+03  0.00000000000E+00 0.  1.
         13    1    4    4    0    0 -0.26953678293E+02  0.27579857504E+02 -0.29516916671E+02  0.48563336821E+02  0.00000000000E+00 0. -1.
         21    1    1    2  502  501  0.12053922118E+03  0.13583618591E+02 -0.41544849597E+03  0.43279518406E+03  0.00000000000E+00 0. -1.
<scales pt_clust_5="13000.00000" pt_clust_6="13000.00000" pt_clust_7="13000.00000" pt_clust_8="13000.00000" pt_clust_9="112.86045"></scales>
<clustering>
<clus scale="   89.805">  7  8 -1 -1</clus>
<clus scale="   91.511">  5  6 -1 -1</clus>
<clus scale="   97.686">  1  5  2 -1</clus>
<clus scale="  112.860">  2  9  1 -1</clus>
<clus scale="  112.860">  2  5  1 -1</clus>
</clustering>
</event>
<event>
 9    1  0.1435532E-005  0.1399583E+03  0.7546771E-02  0.1213723E+00
         -1   -1    0    0    0  501 -0.00000000000E+00  0.00000000000E+00  0.28535559051E+03  0.28535559051E+03  0.00000000000E+00 0.  1.
          1   -1    0    0  502    0  0.00000000000E+00 -0.00000000000E+00 -0.14673181970E+03  0.14673181970E+03  0.00000000000E+00 0. -1.
         23    2    1    2    0    0 -0.57334316236E+02  0.11185247004E+03  0.18605220741E+03  0.24207970456E+03  0.90492875996E+02 0.  0.
         23    2    1    2    0    0  0.76877620123E+01 -0.62552267779E+02 -0.13822113905E+02  0.11238892432E+03  0.92023538229E+02 0.  0.
        -11    1    4    4    0    0 -0.15846983576E+02 -0.66396892651E+02 -0.38252690664E+02  0.78249233767E+02  0.00000000000E+00 0. -1.
         11    1    4    4    0    0  0.23534745588E+02  0.38446248723E+01  0.24430576759E+02  0.34139690553E+02  0.00000000000E+00 0.  1.
        -13    1    3    3    0    0 -0.50965450639E+02  0.20079764341E+02  0.34330205719E+02  0.64647019417E+02  0.00000000000E+00 0. -1.
         13    1    3    3    0    0 -0.63688655979E+01  0.91772705702E+02  0.15172200169E+03  0.17743268515E+03  0.00000000000E+00 0.  1.
         21    1    1    2  502  501  0.49646554224E+02 -0.49300202264E+02 -0.33606322692E+02  0.77618781326E+02  0.00000000000E+00 0. -1.
<scales pt_clust_5="13000.00000" pt_clust_6="13000.00000" pt_clust_7="13000.00000" pt_clust_8="13000.00000" pt_clust_9="69.96635"></scales>
<clustering>
<clus scale="   69.966">  2  9  1 -1</clus>
<clus scale="   90.493">  7  8 -1 -1</clus>
<clus scale="   92.024">  5  6 -1 -1</clus>
<clus scale="  138.957">  1  7  2 -1</clus>
<clus scale="   69.966">  2  5  1 -1</clus>
</clustering>
</event>
<event>
 9    1  0.1435532E-005  0.9170493E+02  0.7546771E-02  0.1298815E+00
          2   -1    0    0  502    0  0.00000000000E+00  0.00000000000E+00  0.15926525925E+03  0.15926525925E+03  0.00000000000E+00 0. -1.
         -2   -1    0    0    0  501 -0.00000000000E+00 -0.00000000000E+00 -0.13154960654E+03  0.13154960654E+03  0.00000000000E+00 0.  1.
         23    2    1    2    0    0  0.98644772935E+01 -0.74302641877E+01 -0.48274361156E+02  0.10373399732E+03  0.90982479176E+02 0.  0.
         23    2    1    2    0    0  0.23972244963E+02  0.15154495687E+02 -0.84969326498E+01  0.95742860733E+02  0.91050372041E+02 0.  0.
        -11    1    3    3    0    0  0.40151080938E+02 -0.18368916310E+02  0.18104703627E+01  0.44190544122E+02  0.00000000000E+00 0.  1.
         11    1    3    3    0    0 -0.30286603645E+02  0.10938652122E+02 -0.50084831519E+02  0.59543453199E+02  0.00000000000E+00 0. -1.
        -13    1    4    4    0    0 -0.29067359938E+02 -0.53780865651E+01  0.16232214237E+02  0.33724175422E+02  0.00000000000E+00 0. -1.
         13    1    4    4    0    0  0.53039604901E+02  0.20532582252E+02 -0.24729146886E+02  0.62018685311E+02  0.00000000000E+00 0.  1.
         21    1    1    2  502  501 -0.33836722257E+02 -0.77242314994E+01  0.84486946517E+02  0.91338007736E+02  0.00000000000E+00 0. -1.
<scales pt_clust_5="13000.00000" pt_clust_6="13000.00000" pt_clust_7="13000.00000" pt_clust_8="13000.00000" pt_clust_9="34.70717"></scales>
<clustering>
<clus scale="   34.707">  1  9  2 -1</clus>
<clus scale="   90.982">  5  6 -1 -1</clus>
<clus scale="   91.050">  7  8 -1 -1</clus>
<clus scale="   91.638">  2  5  1 -1</clus>
<clus scale="   34.707">  1  5  2 -1</clus>
</clustering>
</event>
<event>
 9    1  0.1435532E-005  0.9810548E+02  0.7546771E-02  0.1284632E+00
         -1   -1    0    0    0  501 -0.00000000000E+00  0.00000000000E+00  0.12349463982E+03  0.12349463982E+03  0.00000000000E+00 0.  1.
          1   -1    0    0  502    0  0.00000000000E+00 -0.00000000000E+00 -0.27347361300E+03  0.27347361300E+03  0.00000000000E+00 0. -1.
         23    2    1    2    0    0  0.67223820917E+01  0.26646325251E+02  0.41738696353E+02  0.10695702633E+03  0.94564632071E+02 0.  0.
         23    2    1    2    0    0 -0.56162359225E+02  0.14753549764E+02 -0.27882453049E+02  0.11394237872E+03  0.93987002594E+02 0.  0.
        -11    1    4    4    0    0 -0.20680016184E+02  0.32018276388E+01  0.35024902303E+02  0.40800227339E+02  0.00000000000E+00 0.  1.
         11    1    4    4    0    0 -0.35482343041E+02  0.11551722126E+02 -0.62907355352E+02  0.73142151385E+02  0.00000000000E+00 0. -1.
        -11    1    3    3    0    0 -0.20814558153E+02 -0.22603243079E+02 -0.79864767548E+01  0.31748011587E+02  0.00000000000E+00 0. -1.
         11    1    3    3    0    0  0.27536940244E+02  0.49249568330E+02  0.49725173108E+02  0.75209014748E+02  0.00000000000E+00 0.  1.
         21    1    1    2  502  501  0.49439977134E+02 -0.41399875016E+02 -0.16383521649E+03  0.17606884776E+03  0.00000000000E+00 0. -1.
<scales pt_clust_5="13000.00000" pt_clust_6="13000.00000" pt_clust_7="13000.00000" pt_clust_8="13000.00000" pt_clust_9="64.48458"></scales>
<clustering>
<clus scale="   64.485">  2  9  1 -1</clus>
<clus scale="   93.987">  5  6 -1 -1</clus>
<clus scale="   94.565">  7  8 -1 -1</clus>
<clus scale="   97.549">  2  5  1 -1</clus>
<clus scale="   64.485">  2  5  1 -1</clus>
</clustering>
</event>
<event>
 9    1  0.1435532E-005  0.1442874E+03  0.7546771E-02  0.1208236E+00
          1   -1    0    0  502    0  0.00000000000E+00  0.00000000000E+00  0.15047007665E+04  0.15047007665E+04  0.00000000000E+00 0. -1.
         -1   -1    0    0    0  501 -0.00000000000E+00 -0.00000000000E+00 -0.19521219070E+02  0.19521219070E+02  0.00000000000E+00 0.  1.
         23    2    1    2    0    0  0.43963531430E+02  0.12261826891E+03  0.54511507601E+03  0.56836664022E+03  0.94457184250E+02 0.  0.
         23    2    1    2    0    0 -0.32925254750E+02 -0.78959649401E+02  0.61352066719E+03  0.62622104086E+03  0.91795884016E+02 0.  0.
        -11    1    3    3    0    0 -0.16221316275E+02  0.75688181782E+02  0.35824859920E+03  0.36651588068E+03  0.00000000000E+00 0. -1.
         11    1    3    3    0    0  0.60184847705E+02  0.46930087131E+02  0.18686647681E+03  0.20185075954E+03  0.00000000000E+00 0.  1.
        -13    1    4    4    0    0 -0.61156948982E+02 -0.30544330182E+02  0.37729533420E+03  0.38343825803E+03  0.00000000000E+00 0. -1.
         13    1    4    4    0    0  0.28231694231E+02 -0.48415319220E+02  0.23622533299E+03  0.24278278283E+03  0.00000000000E+00 0.  1.
         21    1    1    2  502  501 -0.11038276680E+02 -0.43658619511E+02  0.32654380420E+03  0.32963430445E+03  0.00000000000E+00 0. -1.
<scales pt_clust_5="13000.00000" pt_clust_6="13000.00000" pt_clust_7="13000.00000" pt_clust_8="13000.00000" pt_clust_9="45.03242"></scales>
<clustering>
<clus scale="   45.032">  1  9  2 -1</clus>
<clus scale="   91.796">  7  8 -1 -1</clus>
<clus scale="   94.457">  5  6 -1 -1</clus>
<clus scale="  142.559">  1  7  2 -1</clus>
<clus scale="   45.032">  1  5  2 -1</clus>
</clustering>
</event>
<event>
 9    1  0.1435532E-005  0.1153064E+03  0.7546771E-02  0.1256038E+00
          1   -1    0    0  502    0  0.00000000000E+00  0.00000000000E+00  0.22915325145E+03  0.22915325145E+03  0.00000000000E+00 0. -1.
         -1   -1    0    0    0  501 -0.00000000000E+00 -0.00000000000E+00 -0.27973286762E+03  0.27973286762E+03  0.00000000000E+00 0.  1.
         23    2    1    2    0    0  0.26690486549E+01 -0.57028957818E+02 -0.24999136668E+03  0.27116075190E+03  0.88164868878E+02 0.  0.
         23    2    1    2    0    0 -0.70327812675E+01  0.37435624708E+02  0.15289158496E+03  0.18705913909E+03  0.10081864290E+03 0.  0.
        -11    1    3    3    0    0  0.38228141273E+01 -0.79566727241E+02 -0.16497202822E+03  0.18319729279E+03  0.00000000000E+00 0.  1.
         11    1    3    3    0    0 -0.11537654724E+01  0.22537769423E+02 -0.85019338462E+02  0.87963459106E+02  0.00000000000E+00 0. -1.
        -11    1    4    4    0    0 -0.17268705970E+02  0.58293323623E+02  0.15211206463E+03  0.16381208744E+03  0.00000000000E+00 0. -1.
         11    1    4    4    0    0  0.10235924703E+02 -0.20857698915E+02  0.77952032642E+00  0.23247051652E+02  0.00000000000E+00 0.  1.
         21    1    1    2  502  501  0.43637326126E+01  0.19593333110E+02  0.46520165555E+02  0.50666228081E+02  0.00000000000E+00 0.  1.
<scales pt_clust_5="13000.00000" pt_clust_6="13000.00000" pt_clust_7="13000.00000" pt_clust_8="13000.00000" pt_clust_9="20.07339"></scales>
<clustering>
<clus scale="   20.073">  1  9  2 -1</clus>
<clus scale="   88.165">  5  6 -1 -1</clus>
<clus scale="  100.819">  7  8 -1 -1</clus>
<clus scale="  104.423">  2  5  1 -1</clus>
<clus scale="   20.073">  1  5  2 -1</clus>
</clustering>
</event>
<event>
 9    1  0.1435532E-005  0.9611522E+02  0.7546771E-02  0.1290293E+00
          1   -1    0    0  502    0  0.00000000000E+00  0.00000000000E+00  0.18120022450E+03  0.18120022450E+03  0.00000000000E+00 0. -1.
         -1   -1    0    0    0  501 -0.00000000000E+00 -0.00000000000E+00 -0.13407738158E+03  0.13407738158E+03  0.00000000000E+00 0.  1.
         23    2    1    2    0    0 -0.28158698095E+02  0.35450216960E+00 -0.61207716900E+02  0.11459001103E+03  0.92690064563E+02 0.  0.
         23    2    1    2    0    0  0.48950716181E+01 -0.46540093845E+02  0.27734148626E+02  0.10492702544E+03  0.89724888447E+02 0.  0.
        -13    1    3    3    0    0 -0.31068317939E+02  0.28618277041E+02 -0.72587046223E+02  0.83982887779E+02  0.00000000000E+00 0.  1.
         13    1    3    3    0    0  0.29096198441E+01 -0.28263774872E+02  0.11379329323E+02  0.30607123247E+02  0.00000000000E+00 0. -1.
        -13    1    4    4    0    0 -0.35565476662E+02  0.19218851641E+01 -0.84587006797E+00  0.35627408956E+02  0.00000000000E+00 0.  1.
         13    1    4    4    0    0  0.40460548280E+02 -0.48461979009E+02  0.28580018694E+02  0.69299616486E+02  0.00000000000E+00 0. -1.
         21    1    1    2  502  501  0.23263626477E+02  0.46185591675E+02  0.80596411190E+02  0.95760569609E+02  0.00000000000E+00 0.  1.
<scales pt_clust_5="13000.00000" pt_clust_6="13000.00000" pt_clust_7="13000.00000" pt_clust_8="13000.00000" pt_clust_9="51.71368"></scales>
<clustering>
<clus scale="   51.714">  1  9  2 -1</clus>
<clus scale="   89.725">  7  8 -1 -1</clus>
<clus scale="   92.690">  5  6 -1 -1</clus>
<clus scale="   93.259">  1  7  2 -1</clus>
<clus scale="   51.714">  1  5  2 -1</clus>
</clustering>
</event>
<event>
 9    1  0.1435532E-005  0.1150482E+03  0.7546771E-02  0.1256086E+00
          2   -1    0    0  502    0  0.00000000000E+00  0.00000000000E+00  0.22950085948E+03  0.22950085948E+03  0.00000000000E+00 0. -1.
         -2   -1    0    0    0  501 -0.00000000000E+00 -0.00000000000E+00 -0.76583221328E+02  0.76583221328E+02  0.00000000000E+00 0.  1.
         23    2    1    2    0    0 -0.30909288065E+02  0.38713957350E+02  0.15691175011E+02  0.11294420312E+03  0.10027973605E+03 0.  0.
         23    2    1    2    0    0  0.43021588290E+02 -0.57030771922E+02  0.11810350611E+03  0.16402113804E+03  0.88606600007E+02 0.  0.
        -13    1    3    3    0    0 -0.54700665054E+02  0.47740640594E+02  0.35384506384E+02  0.80767535642E+02  0.00000000000E+00 0. -1.
         13    1    3    3    0    0  0.23791376989E+02 -0.90266832443E+01 -0.19693331373E+02  0.32176667477E+02  0.00000000000E+00 0.  1.
        -13    1    4    4    0    0 -0.10831892388E+02 -0.49482494941E+02  0.88842775737E+02  0.10226869511E+03  0.00000000000E+00 0.  1.
         13    1    4    4    0    0  0.53853480679E+02 -0.75482769814E+01  0.29260730369E+02  0.61752442934E+02  0.00000000000E+00 0. -1.
         21    1    1    2  502  501 -0.12112300225E+02  0.18316814572E+02  0.19122957033E+02  0.29118739645E+02  0.00000000000E+00 0.  1.
<scales pt_clust_5="13000.00000" pt_clust_6="13000.00000" pt_clust_7="13000.00000" pt_clust_8="13000.00000" pt_clust_9="21.95936"></scales>
<clustering>
<clus scale="   21.959">  1  9  2 -1</clus>
<clus scale="   88.607">  7  8 -1 -1</clus>
<clus scale="  100.280">  5  6 -1 -1</clus>
<clus scale="  105.030">  1  7  2 -1</clus>
<clus scale="   21.959">  1  5  2 -1</clus>
</clustering>
</event>
<event>
 9    1  0.1435532E-005  0.1568167E+03  0.7546771E-02  0.1192598E+00
         -1   -1    0    0    0  501 -0.00000000000E+00  0.00000000000E+00  0.13781253767E+03  0.13781253767E+03  0.00000000000E+00 0.  1.
          1   -1    0    0  502    0  0.00000000000E+00 -0.00000000000E+00 -0.20867269559E+03  0.20867269559E+03  0.00000000000E+00 0. -1.
         23    2    1    2    0    0 -0.10241587977E+03 -0.83140487884E+02 -0.16996169696E+02  0.16194562502E+03  0.92391355243E+02 0.  0.
         23    2    1    2    0    0  0.10419443934E+03  0.63152398700E+02 -0.32883039262E+02  0.15550708850E+03  0.90865029862E+02 0.  0.
        -11    1    4    4    0    0  0.11377458178E+03  0.31181641788E+02 -0.19607625754E+02  0.11958849957E+03  0.00000000000E+00 0.  1.
         11    1    4    4    0    0 -0.95801424359E+01  0.31970756911E+02 -0.13275413508E+02  0.35918588925E+02  0.00000000000E+00 0. -1.
        -13    1    3    3    0    0 -0.65454802542E+02 -0.93369839746E+02  0.10863722526E+02  0.11454378472E+03  0.00000000000E+00 0.  1.
         13    1    3    3    0    0 -0.36961077224E+02  0.10229351863E+02 -0.27859892222E+02  0.47401840299E+02  0.00000000000E+00 0. -1.
         21    1    1    2  502  501 -0.17785595741E+01  0.19988089184E+02 -0.20980948964E+02  0.29032519747E+02  0.00000000000E+00 0. -1.
<scales pt_clust_5="13000.00000" pt_clust_6="13000.00000" pt_clust_7="13000.00000" pt_clust_8="13000.00000" pt_clust_9="20.06706"></scales>
<clustering>
<clus scale="   20.067">  2  9  1 -1</clus>
<clus scale="   90.865">  5  6 -1 -1</clus>
<clus scale="   92.391">  7  8 -1 -1</clus>
<clus scale="  155.922">  2  5  1 -1</clus>
<clus scale="   20.067">  2  5  1 -1</clus>
</clustering>
</event>
<event>
 9    1  0.1435532E-005  0.9607755E+02  0.7546771E-02  0.1288903E+00
         -1   -1    0    0    0  501 -0.00000000000E+00  0.00000000000E+00  0.24588421164E+02  0.24588421164E+02  0.00000000000E+00 0.  1.
          1   -1    0    0  502    0  0.00000000000E+00 -0.00000000000E+00 -0.53484419428E+03  0.53484419428E+03  0.00000000000E+00 0. -1.
         23    2    1    2    0    0 -0.48654141269E+01  0.23531082561E+02 -0.17907713900E+03  0.20250469831E+03  0.91444775802E+02 0.  0.
         23    2    1    2    0    0 -0.24342036140E+02 -0.32201006554E+02 -0.22169723840E+03  0.24328629298E+03  0.91701228413E+02 0.  0.
        -11    1    4    4    0    0  0.40189091661E+01 -0.50130521824E+02 -0.19200414509E+03  0.19848126506E+03  0.00000000000E+00 0.  1.
         11    1    4    4    0    0 -0.28360945306E+02  0.17929515270E+02 -0.29693093306E+02  0.44805027916E+02  0.00000000000E+00 0. -1.
        -11    1    3    3    0    0  0.26658026972E+02 -0.49202931511E+01 -0.11184113769E+02  0.29324803282E+02  0.00000000000E+00 0.  1.
         11    1    3    3    0    0 -0.31523441099E+02  0.28451375712E+02 -0.16789302523E+03  0.17317989503E+03  0.00000000000E+00 0. -1.
         21    1    1    2  502  501  0.29207450267E+02  0.86699239934E+01 -0.10948139571E+03  0.11364162415E+03  0.00000000000E+00 0.  1.
<scales pt_clust_5="13000.00000" pt_clust_6="13000.00000" pt_clust_7="13000.00000" pt_clust_8="13000.00000" pt_clust_9="30.46708"></scales>
<clustering>
<clus scale="   30.467">  2  9  1 -1</clus>
<clus scale="   91.445">  7  8 -1 -1</clus>
<clus scale="   91.701">  5  6 -1 -1</clus>
<clus scale="   95.833">  1  7  2 -1</clus>
<clus scale="   30.467">  2  5  1 -1</clus>
</clustering>
</event>
<event>
 9    1  0.1435532E-005  0.1217794E+03  0.7546771E-02  0.1240525E+00
          2   -1    0    0  502    0  0.00000000000E+00  0.00000000000E+00  0.22267317176E+03  0.22267317176E+03  0.00000000000E+00 0. -1.
         -2   -1    0    0    0  501 -0.00000000000E+00 -0.00000000000E+00 -0.84602285262E+02  0.84602285262E+02  0.00000000000E+00 0.  1.
         23    2    1    2    0    0  0.27720833806E+02 -0.79609515225E+02  0.32853032991E+02  0.12744629244E+03  0.89761440161E+02 0.  0.
         23    2    1    2    0    0 -0.21170239152E+01  0.78628774215E+02  0.85393733769E+02  0.14743298182E+03  0.90870393620E+02 0.  0.
        -11    1    3    3    0    0  0.56393958062E+02 -0.74514400368E+02  0.30181014893E+02  0.98201670190E+02  0.00000000000E+00 0.  1.
         11    1    3    3    0    0 -0.28673124257E+02 -0.50951148569E+01  0.26720180982E+01  0.29244622254E+02  0.00000000000E+00 0. -1.
        -11    1    4    4    0    0  0.28649819380E+02  0.82678474420E+00  0.47746047541E+02  0.55688246329E+02  0.00000000000E+00 0.  1.
         11    1    4    4    0    0 -0.30766843295E+02  0.77801989471E+02  0.37647686229E+02  0.91744735491E+02  0.00000000000E+00 0. -1.
         21    1    1    2  502  501 -0.25603809891E+02  0.98074101036E+00  0.19824119736E+02  0.32396182756E+02  0.00000000000E+00 0.  1.
<scales pt_clust_5="13000.00000" pt_clust_6="13000.00000" pt_clust_7="13000.00000" pt_clust_8="13000.00000" pt_clust_9="25.62259"></scales>
<clustering>
<clus scale="   25.623">  1  9  2 -1</clus>
<clus scale="   89.761">  5  6 -1 -1</clus>
<clus scale="   90.870">  7  8 -1 -1</clus>
<clus scale="  120.954">  2  5  1 -1</clus>
<clus scale="   25.623">  1  5  2 -1</clus>
</clustering>
</event>
<event>
 9    1  0.1435532E-005  0.1505713E+03  0.7546771E-02  0.1199830E+00
         -1   -1    0    0    0  501 -0.00000000000E+00  0.00000000000E+00  0.33329390172E+03  0.33329390172E+03  0.00000000000E+00 0.  1.
          1   -1    0    0  502    0  0.00000000000E+00 -0.00000000000E+00 -0.82508905138E+02  0.82508905138E+02  0.00000000000E+00 0. -1.
         23    2    1    2    0    0 -0.11383117211E+03 -0.18529222397E+02  0.12205016431E+03  0.19038773714E+03  0.89723909960E+02 0.  0.
         23    2    1    2    0    0  0.12688932742E+03  0.27159042195E+01  0.13272017052E+03  0.20452345960E+03  0.90038460206E+02 0.  0.
        -11    1    4    4    0    0  0.13187119152E+03 -0.17899765486E+02  0.10441292305E+03  0.16915221328E+03  0.00000000000E+00 0.  1.
         11    1    4    4    0    0 -0.49818640978E+01  0.20615669706E+02  0.28307247466E+02  0.35371246322E+02  0.00000000000E+00 0. -1.
        -13    1    3    3    0    0 -0.10125778913E+03  0.36383828088E+01  0.12894017764E+03  0.16398764313E+03  0.00000000000E+00 0. -1.
         13    1    3    3    0    0 -0.12573382980E+02 -0.22167605206E+02 -0.68900133295E+01  0.26400094012E+02  0.00000000000E+00 0.  1.
         21    1    1    2  502  501 -0.13058155311E+02  0.15813318178E+02 -0.39853382538E+01  0.20891610108E+02  0.00000000000E+00 0. -1.
<scales pt_clust_5="13000.00000" pt_clust_6="13000.00000" pt_clust_7="13000.00000" pt_clust_8="13000.00000" pt_clust_9="20.50796"></scales>
<clustering>
<clus scale="   20.508">  2  9  1 -1</clus>
<clus scale="   89.724">  7  8 -1 -1</clus>
<clus scale="   90.038">  5  6 -1 -1</clus>
<clus scale="  150.383">  1  7  2 -1</clus>
<clus scale="   20.508">  2  5  1 -1</clus>
</clustering>
</event>
<event>
 9    1  0.1435532E-005  0.9680145E+02  0.7546771E-02  0.1287907E+00
         -4   -1    0    0    0  501 -0.00000000000E+00  0.00000000000E+00  0.15756981246E+03  0.15756981246E+03  0.00000000000E+00 0.  1.
          4   -1    0    0  502    0  0.00000000000E+00 -0.00000000000E+00 -0.23615869453E+03  0.23615869453E+03  0.00000000000E+00 0. -1.
         23    2    1    2    0    0  0.29203093154E+02  0.10995527995E+02  0.10758159668E+03  0.14447741930E+03  0.91248027131E+02 0.  0.
         23    2    1    2    0    0 -0.20394494693E+02  0.17073680457E+02 -0.47423610037E+02  0.10741961922E+03  0.92641944207E+02 0.  0.
        -11    1    4    4    0    0  0.17369383637E+02  0.34908039778E+02 -0.52449962476E+02  0.65354917893E+02  0.00000000000E+00 0.  1.
         11    1    4    4    0    0 -0.37763878330E+02 -0.17834359321E+02  0.50263524390E+01  0.42064701327E+02  0.00000000000E+00 0. -1.
        -13    1    3    3    0    0  0.43334722943E+02  0.32645244841E+02  0.10538442846E+03  0.11853053609E+03  0.00000000000E+00 0.  1.
         13    1    3    3    0    0 -0.14131629788E+02 -0.21649716846E+02  0.21971682236E+01  0.25946883207E+02  0.00000000000E+00 0. -1.
         21    1    1    2  502  501 -0.88085984617E+01 -0.28069208452E+02 -0.13874686872E+03  0.14183146847E+03  0.00000000000E+00 0. -1.
<scales pt_clust_5="13000.00000" pt_clust_6="13000.00000" pt_clust_7="13000.00000" pt_clust_8="13000.00000" pt_clust_9="29.41890"></scales>
<clustering>
<clus scale="   29.419">  2  9  1 -1</clus>
<clus scale="   91.248">  7  8 -1 -1</clus>
<clus scale="   92.642">  5  6 -1 -1</clus>
<clus scale="   95.468">  1  7  2 -1</clus>
<clus scale="   29.419">  2  5  1 -1</clus>
</clustering>
</event>
<event>
 9    1  0.1435532E-005  0.1020856E+03  0.7546771E-02  0.1278480E+00
         -3   -1    0    0    0  501 -0.00000000000E+00  0.00000000000E+00  0.50759006939E+03  0.50759006939E+03  0.00000000000E+00 0.  1.
          3   -1    0    0  502    0  0.00000000000E+00 -0.00000000000E+00 -0.29004532469E+02  0.29004532469E+02  0.00000000000E+00 0. -1.
         23    2    1    2    0    0  0.24035918841E+02  0.17022431835E+02  0.29453316967E+03  0.31108974988E+03  0.95705568613E+02 0.  0.
         23    2    1    2    0    0 -0.28107430850E+02 -0.37298713730E+02  0.17586255537E+03  0.20326124984E+03  0.90588495899E+02 0.  0.
        -11    1    4    4    0    0  0.26042794251E+02 -0.39636965326E+02  0.89767070418E+02  0.10152557847E+03  0.00000000000E+00 0.  1.
         11    1    4    4    0    0 -0.54150225101E+02  0.23382515963E+01  0.86095484956E+02  0.10173567137E+03  0.00000000000E+00 0. -1.
        -13    1    3    3    0    0  0.15072803637E+02  0.56895169756E+02  0.15979190602E+03  0.17028711924E+03  0.00000000000E+00 0. -1.
         13    1    3    3    0    0  0.89631152039E+01 -0.39872737921E+02  0.13474126366E+03  0.14080263064E+03  0.00000000000E+00 0.  1.
         21    1    1    2  502  501  0.40715120091E+01  0.20276281895E+02  0.81898118749E+01  0.22243602138E+02  0.00000000000E+00 0.  1.
<scales pt_clust_5="13000.00000" pt_clust_6="13000.00000" pt_clust_7="13000.00000" pt_clust_8="13000.00000" pt_clust_9="20.68103"></scales>
<clustering>
<clus scale="   20.681">  2  9  1 -1</clus>
<clus scale="   90.588">  5  6 -1 -1</clus>
<clus scale="   95.706">  7  8 -1 -1</clus>
<clus scale="   97.305">  2  5  1 -1</clus>
<clus scale="   20.681">  2  5  1 -1</clus>
</clustering>
</event>
<event>
 9    1  0.1435532E-005  0.9657060E+02  0.7546771E-02  0.1289763E+00
          1   -1    0    0  502    0  0.00000000000E+00  0.00000000000E+00  0.89261408972E+02  0.89261408972E+02  0.00000000000E+00 0. -1.
         -1   -1    0    0    0  501 -0.00000000000E+00 -0.00000000000E+00 -0.34201165293E+03  0.34201165293E+03  0.00000000000E+00 0.  1.
         23    2    1    2    0    0  0.18570313554E+02 -0.11251023558E+02 -0.24025029723E+03  0.25832411055E+03  0.92410490180E+02 0.  0.
         23    2    1    2    0    0 -0.39255410016E+02  0.27533577547E+02 -0.61033804858E+02  0.11773545514E+03  0.88529243496E+02 0.  0.
        -13    1    3    3    0    0  0.49114037792E+02 -0.30996492076E+02 -0.13483458808E+03  0.14681054925E+03  0.00000000000E+00 0.  1.
         13    1    3    3    0    0 -0.30543724238E+02  0.19745468518E+02 -0.10541570915E+03  0.11151356130E+03  0.00000000000E+00 0. -1.
        -13    1    4    4    0    0 -0.55720962315E+02  0.44099377420E+02 -0.26077962379E+02  0.75694391153E+02  0.00000000000E+00 0. -1.
         13    1    4    4    0    0  0.16465552298E+02 -0.16565799873E+02 -0.34955842479E+02  0.42041063989E+02  0.00000000000E+00 0.  1.
         21    1    1    2  502  501  0.20685096462E+02 -0.16282553989E+02  0.48533858124E+02  0.55213496217E+02  0.00000000000E+00 0. -1.
<scales pt_clust_5="13000.00000" pt_clust_6="13000.00000" pt_clust_7="13000.00000" pt_clust_8="13000.00000" pt_clust_9="26.32479"></scales>
<clustering>
<clus scale="   26.325">  1  9  2 -1</clus>
<clus scale="   88.529">  7  8 -1 -1</clus>
<clus scale="   92.410">  5  6 -1 -1</clus>
<clus scale="   92.863">  1  7  2 -1</clus>
<clus scale="   26.325">  1  5  2 -1</clus>
</clustering>
</event>
<event>
 9    1  0.1435532E-005  0.1510014E+03  0.7546771E-02  0.1199328E+00
          1   -1    0    0  502    0  0.00000000000E+00  0.00000000000E+00  0.22892758137E+03  0.22892758137E+03  0.00000000000E+00 0. -1.
         -1   -1    0    0    0  501 -0.00000000000E+00 -0.00000000000E+00 -0.23026046179E+03  0.23026046179E+03  0.00000000000E+00 0.  1.
         23    2    1    2    0    0  0.93515855613E+02  0.21826167487E+02 -0.48147168724E+02  0.14332813779E+03  0.94885237983E+02 0.  0.
         23    2    1    2    0    0 -0.14665343197E+03  0.51902235051E+01 -0.67351768509E+02  0.18706791831E+03  0.94466807996E+02 0.  0.
        -11    1    3    3    0    0  0.56128907218E+01  0.32451010280E+02  0.13337553531E+02  0.35531154564E+02  0.00000000000E+00 0. -1.
         11    1    3    3    0    0  0.87902964892E+02 -0.10624842793E+02 -0.61484722255E+02  0.10779698322E+03  0.00000000000E+00 0.  1.
        -13    1    4    4    0    0 -0.32683114978E+02  0.39873931170E+02 -0.29446936763E+01  0.51640948989E+02  0.00000000000E+00 0.  1.
         13    1    4    4    0    0 -0.11397031699E+03 -0.34683707665E+02 -0.64407074833E+02  0.13542696932E+03  0.00000000000E+00 0. -1.
         21    1    1    2  502  501  0.53137576353E+02 -0.27016390992E+02  0.11416605682E+03  0.12879198706E+03  0.00000000000E+00 0.  1.
<scales pt_clust_5="13000.00000" pt_clust_6="13000.00000" pt_clust_7="13000.00000" pt_clust_8="13000.00000" pt_clust_9="59.61113"></scales>
<clustering>
<clus scale="   59.611">  1  9  2 -1</clus>
<clus scale="   94.467">  7  8 -1 -1</clus>
<clus scale="   94.885">  5  6 -1 -1</clus>
<clus scale="  150.739">  1  7  2 -1</clus>
<clus scale="   59.611">  1  5  2 -1</clus>
</clustering>
</event>
<event>
 9    1  0.1435532E-005  0.9704663E+02  0.7546771E-02  0.1287777E+00
         -2   -1    0    0    0  501 -0.00000000000E+00  0.00000000000E+00  0.48033806351E+03  0.48033806351E+03  0.00000000000E+00 0.  1.
          2   -1    0    0  502    0  0.00000000000E+00 -0.00000000000E+00 -0.32893137453E+02  0.32893137453E+02  0.00000000000E+00 0. -1.
         23    2    1    2    0    0  0.23729595344E+02 -0.42704249179E+02  0.27448575197E+03  0.29232389184E+03  0.87886763004E+02 0.  0.
         23    2    1    2    0    0  0.13464718905E+02  0.18691571142E+02  0.11253591514E+03  0.14600072770E+03  0.90117738575E+02 0.  0.
        -13    1    3    3    0    0  0.20894881368E+02 -0.69976013056E+02  0.20537942786E+03  0.21797694341E+03  0.00000000000E+00 0.  1.
         13    1    3    3    0    0  0.28347139760E+01  0.27271763878E+02  0.69106324113E+02  0.74346948429E+02  0.00000000000E+00 0. -1.
        -13    1    4    4    0    0 -0.22795318119E+02 -0.18738906183E+02  0.10310773279E+02  0.31258361740E+02  0.00000000000E+00 0.  1.
         13    1    4    4    0    0  0.36260037025E+02  0.37430477325E+02  0.10222514186E+03  0.11474236596E+03  0.00000000000E+00 0. -1.
         21    1    1    2  502  501 -0.37194314249E+02  0.24012678037E+02  0.60423258949E+02  0.74906581426E+02  0.00000000000E+00 0.  1.
<scales pt_clust_5="13000.00000" pt_clust_6="13000.00000" pt_clust_7="13000.00000" pt_clust_8="13000.00000" pt_clust_9="44.27218"></scales>
<clustering>
<clus scale="   44.272">  2  9  1 -1</clus>
<clus scale="   87.887">  5  6 -1 -1</clus>
<clus scale="   90.118">  7  8 -1 -1</clus>
<clus scale="   94.979">  1  5  2 -1</clus>
<clus scale="   44.272">  2  5  1 -1</clus>
</clustering>
</event>
<event>
 9    1  0.1435532E-005  0.1129985E+03  0.7546771E-02  0.1259476E+00
          2   -1    0    0  502    0  0.00000000000E+00  0.00000000000E+00  0.75137260434E+03  0.75137260434E+03  0.00000000000E+00 0. -1.
         -2   -1    0    0    0  501 -0.00000000000E+00 -0.00000000000E+00 -0.20376109974E+03  0.20376109974E+03  0.00000000000E+00 0.  1.
         23    2    1    2    0    0 -0.14108619601E+02 -0.29372044280E+02 -0.77469133597E+02  0.13063085015E+03  0.10000591092E+03 0.  0.
         23    2    1    2    0    0  0.97848127430E+02  0.26296635865E+02 -0.50150757336E+02  0.14409180109E+03  0.89339686480E+02 0.  0.
        -11    1    3    3    0    0  0.39324064176E+02  0.63279671268E+01 -0.38948931764E+02  0.55708567356E+02  0.00000000000E+00 0.  1.
         11    1    3    3    0    0 -0.53432683777E+02 -0.35700011406E+02 -0.38520201833E+02  0.74922282796E+02  0.00000000000E+00 0. -1.
        -11    1    4    4    0    0  0.49580173222E+02 -0.31933783394E+02 -0.27977871291E+02  0.65274201493E+02  0.00000000000E+00 0.  1.
         11    1    4    4    0    0  0.48267954208E+02  0.58230419259E+02 -0.22172886044E+02  0.78817599596E+02  0.00000000000E+00 0. -1.
         21    1    1    2  502  501 -0.83739507829E+02  0.30754084145E+01  0.67523139554E+03  0.68041105284E+03  0.00000000000E+00 0. -1.
<scales pt_clust_5="13000.00000" pt_clust_6="13000.00000" pt_clust_7="13000.00000" pt_clust_8="13000.00000" pt_clust_9="83.79596"></scales>
<clustering>
<clus scale="   83.796">  1  9  2 -1</clus>
<clus scale="   89.340">  7  8 -1 -1</clus>
<clus scale="  100.006">  5  6 -1 -1</clus>
<clus scale="  103.678">  1  7  2 -1</clus>
<clus scale="   83.796">  1  5  2 -1</clus>
</clustering>
</event>
<event>
 9    1  0.1435532E-005  0.1300955E+03  0.7546771E-02  0.1227854E+00
          2   -1    0    0  502    0  0.00000000000E+00  0.00000000000E+00  0.49488339140E+03  0.49488339140E+03  0.00000000000E+00 0. -1.
         -2   -1    0    0    0  501 -0.00000000000E+00 -0.00000000000E+00 -0.47826722219E+02  0.47826722219E+02  0.00000000000E+00 0.  1.
         23    2    1    2    0    0  0.38141476936E+02  0.71184404104E+02  0.13751038101E+03  0.18453337530E+03  0.92851871625E+02 0.  0.
         23    2    1    2    0    0 -0.50834777901E+02 -0.91187272720E+02  0.18295207240E+03  0.22938492915E+03  0.90811296514E+02 0.  0.
        -11    1    4    4    0    0 -0.42050356742E+00 -0.27592621340E+02  0.12903591934E+03  0.13195377242E+03  0.00000000000E+00 0. -1.
         11    1    4    4    0    0 -0.50414274334E+02 -0.63594651381E+02  0.53916153060E+02  0.97431156729E+02  0.00000000000E+00 0.  1.
        -11    1    3    3    0    0  0.14323572743E+02 -0.17537592032E+02  0.48266609148E+01  0.23152289865E+02  0.00000000000E+00 0.  1.
         11    1    3    3    0    0  0.23817904193E+02  0.88721996136E+02  0.13268372009E+03  0.16138108544E+03  0.00000000000E+00 0. -1.
         21    1    1    2  502  501  0.12693300965E+02  0.20002868617E+02  0.12659421578E+03  0.12879180917E+03  0.00000000000E+00 0. -1.
<scales pt_clust_5="13000.00000" pt_clust_6="13000.00000" pt_clust_7="13000.00000" pt_clust_8="13000.00000" pt_clust_9="23.69039"></scales>
<clustering>
<clus scale="   23.690">  1  9  2 -1</clus>
<clus scale="   90.811">  5  6 -1 -1</clus>
<clus scale="   92.852">  7  8 -1 -1</clus>
<clus scale="  128.647">  1  5  2 -1</clus>
<clus scale="   23.690">  1  5  2 -1</clus>
</clustering>
</event>
<event>
 9    1  0.1435532E-005  0.1426852E+03  0.7546771E-02  0.1220419E+00
         -1   -1    0    0    0  501 -0.00000000000E+00  0.00000000000E+00  0.49318060063E+03  0.49318060063E+03  0.00000000000E+00 0.  1.
          1   -1    0    0  502    0  0.00000000000E+00 -0.00000000000E+00 -0.46537782765E+03  0.46537782765E+03  0.00000000000E+00 0. -1.
         23    2    1    2    0    0  0.60210147934E+02  0.81579421717E+02  0.38365883286E+03  0.40769372710E+03  0.93485887264E+02 0.  0.
         23    2    1    2    0    0 -0.24145577288E+02  0.64961966473E+02 -0.38119615002E+03  0.39783806338E+03  0.90341318884E+02 0.  0.
        -11    1    3    3    0    0  0.27507739891E+02  0.94234542086E+02  0.32344138371E+03  0.33801058174E+03  0.00000000000E+00 0.  1.
         11    1    3    3    0    0  0.32702408043E+02 -0.12655120369E+02  0.60217449158E+02  0.69683145355E+02  0.00000000000E+00 0. -1.
        -11    1    4    4    0    0 -0.32036171808E+02  0.84296237430E+02 -0.26894540894E+03  0.28366142659E+03  0.00000000000E+00 0. -1.
         11    1    4    4    0    0  0.78905945202E+01 -0.19334270957E+02 -0.11225074108E+03  0.11417663679E+03  0.00000000000E+00 0.  1.
         21    1    1    2  502  501 -0.36064570646E+02 -0.14654138819E+03  0.25340090138E+02  0.15302663780E+03  0.00000000000E+00 0.  1.
<scales pt_clust_5="13000.00000" pt_clust_6="13000.00000" pt_clust_7="13000.00000" pt_clust_8="13000.00000" pt_clust_9="107.79353"></scales>
<clustering>
<clus scale="   90.341">  7  8 -1 -1</clus>
<clus scale="   93.486">  5  6 -1 -1</clus>
<clus scale="  113.862">  2  7  1 -1</clus>
<clus scale="  107.794">  2  9  1 -1</clus>
<clus scale="  113.862">  2  5  1 -1</clus>
</clustering>
</event>
<event>
 9    1  0.1435532E-005  0.1093697E+03  0.7546771E-02  0.1264996E+00
         -2   -1    0    0    0  501 -0.00000000000E+00  0.00000000000E+00  0.10322527942E+03  0.10322527942E+03  0.00000000000E+00 0.  1.
          2   -1    0    0  502    0  0.00000000000E+00 -0.00000000000E+00 -0.28684930352E+03  0.28684930352E+03  0.00000000000E+00 0. -1.
         23    2    1    2    0    0  0.29912866112E+02 -0.33345062585E+02  0.52314344034E+02  0.11400194201E+03  0.90845910372E+02 0.  0.
         23    2    1    2    0    0 -0.45895835651E+02  0.47754162406E+02 -0.17467958796E+03  0.21114409851E+03  0.98397073790E+02 0.  0.
        -11    1    3    3    0    0 -0.24550459149E+02 -0.17093696114E+02 -0.81628137361E+01  0.31008886135E+02  0.00000000000E+00 0. -1.
         11    1    3    3    0    0  0.54463325261E+02 -0.16251366471E+02  0.60477157770E+02  0.82993055870E+02  0.00000000000E+00 0.  1.
        -11    1    4    4    0    0  0.24823170196E+02  0.40317059049E+02 -0.64542453006E+02  0.80046132129E+02  0.00000000000E+00 0.  1.
         11    1    4    4    0    0 -0.70719005847E+02  0.74371033570E+01 -0.11013713495E+03  0.13109796638E+03  0.00000000000E+00 0. -1.
         21    1    1    2  502  501  0.15982969539E+02 -0.14409099820E+02 -0.61258780173E+02  0.64928542424E+02  0.00000000000E+00 0.  1.
<scales pt_clust_5="13000.00000" pt_clust_6="13000.00000" pt_clust_7="13000.00000" pt_clust_8="13000.00000" pt_clust_9="21.51923"></scales>
<clustering>
<clus scale="   21.519">  2  9  1 -1</clus>
<clus scale="   90.846">  5  6 -1 -1</clus>
<clus scale="   98.397">  7  8 -1 -1</clus>
<clus scale="  102.629">  1  5  2 -1</clus>
<clus scale="   21.519">  2  5  1 -1</clus>
</clustering>
</event>
<event>
 9    1  0.1435532E-005  0.9539016E+02  0.7546771E-02  0.1290629E+00
          1   -1    0    0  502    0  0.00000000000E+00  0.00000000000E+00  0.15902084432E+03  0.15902084432E+03  0.00000000000E+00 0. -1.
         -1   -1    0    0    0  501 -0.00000000000E+00 -0.00000000000E+00 -0.71432534155E+02  0.71432534155E+02  0.00000000000E+00 0.  1.
         23    2    1    2    0    0 -0.31988247703E+02  0.66826274878E+01  0.34503433287E+02  0.10270482197E+03  0.91048822324E+02 0.  0.
         23    2    1    2    0    0  0.24966494473E+02  0.12828608722E+02  0.48987481617E+02  0.10661133803E+03  0.90433981407E+02 0.  0.
        -13    1    4    4    0    0  0.55135066523E+02  0.11987655056E+02  0.51412682822E+02  0.76333763101E+02  0.00000000000E+00 0.  1.
         13    1    4    4    0    0 -0.30168572050E+02  0.84095366527E+00 -0.24252012052E+01  0.30277574928E+02  0.00000000000E+00 0. -1.
        -13    1    3    3    0    0 -0.34593016238E+02 -0.16985862738E+02 -0.19860558925E+02  0.43354793347E+02  0.00000000000E+00 0.  1.
         13    1    3    3    0    0  0.26047685343E+01  0.23668490226E+02  0.54363992212E+02  0.59350028626E+02  0.00000000000E+00 0. -1.
         21    1    1    2  502  501  0.70217532303E+01 -0.19511236209E+02  0.40973952611E+01  0.21137218473E+02  0.00000000000E+00 0.  1.
<scales pt_clust_5="13000.00000" pt_clust_6="13000.00000" pt_clust_7="13000.00000" pt_clust_8="13000.00000" pt_clust_9="20.73628"></scales>
<clustering>
<clus scale="   20.736">  2  9  1 -1</clus>
<clus scale="   90.434">  5  6 -1 -1</clus>
<clus scale="   91.049">  7  8 -1 -1</clus>
<clus scale="   94.803">  1  5  2 -1</clus>
<clus scale="   94.803">  1  5  2 -1</clus>
</clustering>
</event>
<event>
 9    1  0.1435532E-005  0.1190988E+03  0.7546771E-02  0.1245878E+00
         -1   -1    0    0    0  501 -0.00000000000E+00  0.00000000000E+00  0.41792109532E+02  0.41792109532E+02  0.00000000000E+00 0.  1.
          1   -1    0    0  502    0  0.00000000000E+00 -0.00000000000E+00 -0.96082260135E+03  0.96082260135E+03  0.00000000000E+00 0. -1.
         23    2    1    2    0    0  0.44107986969E+02  0.57765457007E+02 -0.66644771434E+02  0.13481768622E+03  0.91934326666E+02 0.  0.
         23    2    1    2    0    0 -0.47386909142E+02 -0.86879145148E+02 -0.73358893079E+03  0.74544084220E+03  0.87953537933E+02 0.  0.
        -11    1    3    3    0    0 -0.25911981198E+02  0.50501577273E+01 -0.31436637316E+01  0.26586039275E+02  0.00000000000E+00 0. -1.
         11    1    3    3    0    0  0.70019968167E+02  0.52715299280E+02 -0.63501107702E+02  0.10823164694E+03  0.00000000000E+00 0.  1.
        -13    1    4    4    0    0 -0.58719636388E+02 -0.16433120351E+02 -0.32590909845E+03  0.33156414702E+03  0.00000000000E+00 0. -1.
         13    1    4    4    0    0  0.11332727245E+02 -0.70446024797E+02 -0.40767983234E+03  0.41387669518E+03  0.00000000000E+00 0.  1.
         21    1    1    2  502  501  0.32789221735E+01  0.29113688140E+02 -0.11879678960E+03  0.12235618246E+03  0.00000000000E+00 0.  1.
<scales pt_clust_5="13000.00000" pt_clust_6="13000.00000" pt_clust_7="13000.00000" pt_clust_8="13000.00000" pt_clust_9="29.29775"></scales>
<clustering>
<clus scale="   29.298">  2  9  1 -1</clus>
<clus scale="   87.954">  7  8 -1 -1</clus>
<clus scale="   91.934">  5  6 -1 -1</clus>
<clus scale="  116.054">  2  7  1 -1</clus>
<clus scale="   29.298">  2  5  1 -1</clus>
</clustering>
</event>
<event>
 9    1  0.1435532E-005  0.9365470E+02  0.7546771E-02  0.1295628E+00
         -1   -1    0    0    0  501 -0.00000000000E+00  0.00000000000E+00  0.58055690898E+03  0.58055690898E+03  0.00000000000E+00 0.  1.
          1   -1    0    0  502    0  0.00000000000E+00 -0.00000000000E+00 -0.20494738752E+02  0.20494738752E+02  0.00000000000E+00 0. -1.
         23    2    1    2    0    0 -0.18506251612E+02  0.21732873268E+02  0.34227887495E+03  0.35543432001E+03  0.91454515902E+02 0.  0.
         23    2    1    2    0    0 -0.21212369562E+01 -0.96223305910E+01  0.17605246706E+03  0.19751721803E+03  0.89002760444E+02 0.  0.
        -11    1    4    4    0    0 -0.30258315168E+02  0.28337467135E+02  0.68916214165E+02  0.80424015413E+02  0.00000000000E+00 0.  1.
         11    1    4    4    0    0  0.28137078212E+02 -0.37959797726E+02  0.10713625290E+03  0.11709320261E+03  0.00000000000E+00 0. -1.
        -13    1    3    3    0    0 -0.15820967464E+02  0.57480532042E+02  0.22792425139E+03  0.23559240002E+03  0.00000000000E+00 0.  1.
         13    1    3    3    0    0 -0.26852841480E+01 -0.35747658774E+02  0.11435462355E+03  0.11984191999E+03  0.00000000000E+00 0. -1.
         21    1    1    2  502  501  0.20627488569E+02 -0.12110542677E+02  0.41730828224E+02  0.48100109696E+02  0.00000000000E+00 0.  1.
<scales pt_clust_5="13000.00000" pt_clust_6="13000.00000" pt_clust_7="13000.00000" pt_clust_8="13000.00000" pt_clust_9="23.91984"></scales>
<clustering>
<clus scale="   23.920">  2  9  1 -1</clus>
<clus scale="   89.003">  5  6 -1 -1</clus>
<clus scale="   91.262">  2  5  1 -1</clus>
<clus scale="   91.455">  7  8 -1 -1</clus>
<clus scale="   23.920">  2  5  1 -1</clus>
</clustering>
</event>
<event>
 9    1  0.1435532E-005  0.3608653E+03  0.7546771E-02  0.1058299E+00
          1   -1    0    0  502    0  0.00000000000E+00  0.00000000000E+00  0.11819409128E+04  0.11819409128E+04  0.00000000000E+00 0. -1.
         -1   -1    0    0    0  501 -0.00000000000E+00 -0.00000000000E+00 -0.13046937904E+03  0.13046937904E+03  0.00000000000E+00 0.  1.
         23    2    1    2    0    0 -0.28275151230E+03  0.23711770053E+03  0.42430499633E+03  0.57031970441E+03  0.95166242536E+02 0.  0.
         23    2    1    2    0    0  0.25988979367E+03 -0.20967412568E+03  0.61059241124E+03  0.70271407618E+03  0.97355207191E+02 0.  0.
        -11    1    4    4    0    0  0.75012952337E+01 -0.34155395951E+02  0.10837362802E+03  0.11387582603E+03  0.00000000000E+00 0.  1.
         11    1    4    4    0    0  0.25238849843E+03 -0.17551872973E+03  0.50221878322E+03  0.58883825015E+03  0.00000000000E+00 0. -1.
        -13    1    3    3    0    0 -0.15532698057E+03  0.15627075156E+03  0.18647159820E+03  0.28864974557E+03  0.00000000000E+00 0.  1.
         13    1    3    3    0    0 -0.12742453172E+03  0.80846948968E+02  0.23783339813E+03  0.28166995883E+03  0.00000000000E+00 0. -1.
         21    1    1    2  502  501  0.22861718631E+02 -0.27443574843E+02  0.16574126179E+02  0.39376511240E+02  0.00000000000E+00 0.  1.
<scales pt_clust_5="13000.00000" pt_clust_6="13000.00000" pt_clust_7="13000.00000" pt_clust_8="13000.00000" pt_clust_9="35.71845"></scales>
<clustering>
<clus scale="   35.718">  2  9  1 -1</clus>
<clus scale="   95.166">  7  8 -1 -1</clus>
<clus scale="   97.355">  5  6 -1 -1</clus>
<clus scale="  360.281">  2  7  1 -1</clus>
<clus scale="  360.865">  1  5  2 -1</clus>
</clustering>
</event>
<event>
 9    1  0.1435532E-005  0.9804493E+02  0.7546771E-02  0.1284733E+00
         -2   -1    0    0    0  501 -0.00000000000E+00  0.00000000000E+00  0.74762895867E+02  0.74762895867E+02  0.00000000000E+00 0.  1.
          2   -1    0    0  502    0  0.00000000000E+00 -0.00000000000E+00 -0.27325054482E+03  0.27325054482E+03  0.00000000000E+00 0. -1.
         23    2    1    2    0    0 -0.45224860967E+02 -0.40954357111E+02 -0.49206210365E+02  0.12073209647E+03  0.91828321146E+02 0.  0.
         23    2    1    2    0    0  0.20756663162E+02 -0.25314200480E+02 -0.62485033693E+02  0.11537142360E+03  0.91293691656E+02 0.  0.
        -11    1    4    4    0    0 -0.22935816565E+02  0.16488892278E+02  0.23524117016E+00  0.28248727201E+02  0.00000000000E+00 0. -1.
         11    1    4    4    0    0  0.43692479727E+02 -0.41803092758E+02 -0.62720274863E+02  0.87122696398E+02  0.00000000000E+00 0.  1.
        -13    1    3    3    0    0 -0.26643177813E+02 -0.30980126482E+02  0.22042744876E+02  0.46427467758E+02  0.00000000000E+00 0.  1.
         13    1    3    3    0    0 -0.18581683154E+02 -0.99742306295E+01 -0.71248955241E+02  0.74304628715E+02  0.00000000000E+00 0. -1.
         21    1    1    2  502  501  0.24468197805E+02  0.66268557591E+02 -0.86796404892E+02  0.11190992061E+03  0.00000000000E+00 0.  1.
<scales pt_clust_5="13000.00000" pt_clust_6="13000.00000" pt_clust_7="13000.00000" pt_clust_8="13000.00000" pt_clust_9="70.64145"></scales>
<clustering>
<clus scale="   70.641">  2  9  1 -1</clus>
<clus scale="   91.294">  5  6 -1 -1</clus>
<clus scale="   91.828">  7  8 -1 -1</clus>
<clus scale="   97.544">  2  5  1 -1</clus>
<clus scale="   70.641">  2  5  1 -1</clus>
</clustering>
</event>
<event>
 9    1  0.1435532E-005  0.1411374E+03  0.7546771E-02  0.1212059E+00
          3   -1    0    0  502    0  0.00000000000E+00  0.00000000000E+00  0.59208022045E+02  0.59208022045E+02  0.00000000000E+00 0. -1.
         -3   -1    0    0    0  501 -0.00000000000E+00 -0.00000000000E+00 -0.55537488423E+03  0.55537488423E+03  0.00000000000E+00 0.  1.
         23    2    1    2    0    0 -0.92420375798E+02  0.41102057007E+02 -0.36673633107E+03  0.39151581245E+03  0.92510485483E+02 0.  0.
         23    2    1    2    0    0  0.11901269039E+03 -0.35966636645E+02 -0.11460977743E+03  0.19219350515E+03  0.91352738962E+02 0.  0.
        -11    1    4    4    0    0  0.10937593796E+03 -0.58641458447E+02 -0.11243151985E+03  0.16745973579E+03  0.00000000000E+00 0.  1.
         11    1    4    4    0    0  0.96367524249E+01  0.22674821802E+02 -0.21782575817E+01  0.24733769368E+02  0.00000000000E+00 0. -1.
        -13    1    3    3    0    0 -0.70838251593E+02 -0.13149675610E+02 -0.14087819106E+03  0.15823285554E+03  0.00000000000E+00 0.  1.
         13    1    3    3    0    0 -0.21582124205E+02  0.54251732617E+02 -0.22585814001E+03  0.23328295691E+03  0.00000000000E+00 0. -1.
         21    1    1    2  502  501 -0.26592314587E+02 -0.51354203620E+01 -0.14820753685E+02  0.30873588667E+02  0.00000000000E+00 0.  1.
<scales pt_clust_5="13000.00000" pt_clust_6="13000.00000" pt_clust_7="13000.00000" pt_clust_8="13000.00000" pt_clust_9="27.08364"></scales>
<clustering>
<clus scale="   27.084">  1  9  2 -1</clus>
<clus scale="   91.353">  5  6 -1 -1</clus>
<clus scale="   92.510">  7  8 -1 -1</clus>
<clus scale="  140.381">  1  5  2 -1</clus>
<clus scale="   27.084">  1  5  2 -1</clus>
</clustering>
</event>
<event>
 9    1  0.1435532E-005  0.1055351E+03  0.7546771E-02  0.1269667E+00
          1   -1    0    0  502    0  0.00000000000E+00  0.00000000000E+00  0.12814693464E+03  0.12814693464E+03  0.00000000000E+00 0. -1.
         -1   -1    0    0    0  501 -0.00000000000E+00 -0.00000000000E+00 -0.32487182456E+03  0.32487182456E+03  0.00000000000E+00 0.  1.
         23    2    1    2    0    0  0.57631139354E+02  0.22580985466E+02 -0.17703633011E+03  0.20842587843E+03  0.90929838295E+02 0.  0.
         23    2    1    2    0    0 -0.39555741095E+02 -0.31078947703E+00 -0.11052010389E+03  0.14934031624E+03  0.92320547261E+02 0.  0.
        -13    1    3    3    0    0  0.75484925072E+02 -0.29277925893E+01 -0.14642153358E+03  0.16475985973E+03  0.00000000000E+00 0.  1.
         13    1    3    3    0    0 -0.17853785718E+02  0.25508778056E+02 -0.30614796525E+02  0.43666018694E+02  0.00000000000E+00 0. -1.
        -13    1    4    4    0    0 -0.75953747307E+01  0.26782034228E+02  0.33192283593E+01  0.28035412456E+02  0.00000000000E+00 0.  1.
         13    1    4    4    0    0 -0.31960366364E+02 -0.27092823705E+02 -0.11383933225E+03  0.12130490379E+03  0.00000000000E+00 0. -1.
         21    1    1    2  502  501 -0.18075398259E+02 -0.22270195989E+02  0.90831544080E+02  0.95252564541E+02  0.00000000000E+00 0. -1.
<scales pt_clust_5="13000.00000" pt_clust_6="13000.00000" pt_clust_7="13000.00000" pt_clust_8="13000.00000" pt_clust_9="28.68243"></scales>
<clustering>
<clus scale="   28.682">  1  9  2 -1</clus>
<clus scale="   90.930">  5  6 -1 -1</clus>
<clus scale="   92.321">  7  8 -1 -1</clus>
<clus scale="  104.321">  2  5  1 -1</clus>
<clus scale="   28.682">  1  5  2 -1</clus>
</clustering>
</event>
<event>
 9    1  0.1435532E-005  0.1395694E+03  0.7546771E-02  0.1214455E+00
          1   -1    0    0  502    0  0.00000000000E+00  0.00000000000E+00  0.60306819956E+03  0.60306819956E+03  0.00000000000E+00 0. -1.
         -1   -1    0    0    0  501 -0.00000000000E+00 -0.00000000000E+00 -0.10704775546E+03  0.10704775546E+03  0.00000000000E+00 0.  1.
         23    2    1    2    0    0 -0.82455833095E+02  0.10420872407E+03  0.13604214074E+02  0.16253734088E+03  0.92600701700E+02 0.  0.
         23    2    1    2    0    0  0.28607659578E+02 -0.97739631267E+02  0.47345724048E+03  0.49260827263E+03  0.90164948777E+02 0.  0.
        -13    1    4    4    0    0  0.32884390956E+02  0.41251965547E+01  0.14247774911E+03  0.14628160994E+03  0.00000000000E+00 0. -1.
         13    1    4    4    0    0 -0.42767313781E+01 -0.10186482782E+03  0.33097949137E+03  0.34632666269E+03  0.00000000000E+00 0.  1.
        -13    1    3    3    0    0 -0.10161022858E+03  0.78499833286E+02  0.19227267267E+01  0.12841557248E+03  0.00000000000E+00 0.  1.
         13    1    3    3    0    0  0.19154395485E+02  0.25708890788E+02  0.11681487347E+02  0.34121768398E+02  0.00000000000E+00 0. -1.
         21    1    1    2  502  501  0.53848173517E+02 -0.64690928071E+01  0.89589895495E+01  0.54970341518E+02  0.00000000000E+00 0. -1.
<scales pt_clust_5="13000.00000" pt_clust_6="13000.00000" pt_clust_7="13000.00000" pt_clust_8="13000.00000" pt_clust_9="54.23537"></scales>
<clustering>
<clus scale="   54.235">  2  9  1 -1</clus>
<clus scale="   90.165">  5  6 -1 -1</clus>
<clus scale="   92.601">  7  8 -1 -1</clus>
<clus scale="  137.965">  1  5  2 -1</clus>
<clus scale="  137.965">  1  5  2 -1</clus>
</clustering>
</event>
<event>
 9    1  0.1435532E-005  0.1047762E+03  0.7546771E-02  0.1271541E+00
          3   -1    0    0  502    0  0.00000000000E+00  0.00000000000E+00  0.17079945720E+03  0.17079945720E+03  0.00000000000E+00 0. -1.
         -3   -1    0    0    0  501 -0.00000000000E+00 -0.00000000000E+00 -0.12319859889E+03  0.12319859889E+03  0.00000000000E+00 0.  1.
         23    2    1    2    0    0 -0.18541673857E+02  0.22454066124E-01 -0.30425123084E+02  0.96883911829E+02  0.90094450900E+02 0.  0.
         23    2    1    2    0    0  0.36754437220E+02  0.59267577765E+02  0.68214955447E+02  0.13431869177E+03  0.92329282371E+02 0.  0.
        -11    1    3    3    0    0  0.32249947540E+02  0.10377565342E+02 -0.29682348208E+02  0.45042144420E+02  0.00000000000E+00 0. -1.
         11    1    3    3    0    0 -0.50791621397E+02 -0.10355111276E+02 -0.74277487603E+00  0.51841767410E+02  0.00000000000E+00 0.  1.
        -11    1    4    4    0    0  0.39868969221E+02 -0.13912755181E+02  0.29096514592E+02  0.51280665214E+02  0.00000000000E+00 0. -1.
         11    1    4    4    0    0 -0.31145320001E+01  0.73180332946E+02  0.39118440855E+02  0.83038026558E+02  0.00000000000E+00 0.  1.
         21    1    1    2  502  501 -0.18212763363E+02 -0.59290031831E+02  0.98110259491E+01  0.62795452495E+02  0.00000000000E+00 0. -1.
<scales pt_clust_5="13000.00000" pt_clust_6="13000.00000" pt_clust_7="13000.00000" pt_clust_8="13000.00000" pt_clust_9="62.02429"></scales>
<clustering>
<clus scale="   62.024">  2  9  1 -1</clus>
<clus scale="   90.094">  5  6 -1 -1</clus>
<clus scale="   92.329">  7  8 -1 -1</clus>
<clus scale="  102.812">  2  5  1 -1</clus>
<clus scale="  104.776">  1  5  2 -1</clus>
</clustering>
</event>
<event>
 9    1  0.1435532E-005  0.1484551E+03  0.7546771E-02  0.1203632E+00
         -4   -1    0    0    0  501 -0.00000000000E+00  0.00000000000E+00  0.65221126430E+02  0.65221126430E+02  0.00000000000E+00 0.  1.
          4   -1    0    0  502    0  0.00000000000E+00 -0.00000000000E+00 -0.48875991135E+03  0.48875991135E+03  0.00000000000E+00 0. -1.
         23    2    1    2    0    0 -0.13101229421E+02  0.12002865094E+03 -0.77633919276E+02  0.16978035385E+03  0.90663244328E+02 0.  0.
         23    2    1    2    0    0 -0.54786292739E+01 -0.93487689568E+02 -0.28411634371E+03  0.31443353391E+03  0.96831745854E+02 0.  0.
        -11    1    4    4    0    0 -0.22848125258E+02  0.93362089996E+01 -0.98344582201E+02  0.10139456827E+03  0.00000000000E+00 0. -1.
         11    1    4    4    0    0  0.17369495984E+02 -0.10282389857E+03 -0.18577176151E+03  0.21303896564E+03  0.00000000000E+00 0.  1.
        -13    1    3    3    0    0 -0.24882347101E+02 -0.28872403185E+01 -0.25504291317E+02  0.35748233935E+02  0.00000000000E+00 0.  1.
         13    1    3    3    0    0  0.11781117680E+02  0.12291589126E+03 -0.52129627959E+02  0.13403211991E+03  0.00000000000E+00 0. -1.
         21    1    1    2  502  501  0.18579858695E+02 -0.26540961369E+02 -0.61788521936E+02  0.69767150025E+02  0.00000000000E+00 0.  1.
<scales pt_clust_5="13000.00000" pt_clust_6="13000.00000" pt_clust_7="13000.00000" pt_clust_8="13000.00000" pt_clust_9="32.39805"></scales>
<clustering>
<clus scale="   32.398">  2  9  1 -1</clus>
<clus scale="   90.663">  7  8 -1 -1</clus>
<clus scale="   96.832">  5  6 -1 -1</clus>
<clus scale="  144.507">  1  7  2 -1</clus>
<clus scale="   32.398">  2  5  1 -1</clus>
</clustering>
</event>
<event>
 9    1  0.1435532E-005  0.9393015E+02  0.7546771E-02  0.1308486E+00
          2   -1    0    0  502    0  0.00000000000E+00  0.00000000000E+00  0.15835000468E+03  0.15835000468E+03  0.00000000000E+00 0. -1.
         -2   -1    0    0    0  501 -0.00000000000E+00 -0.00000000000E+00 -0.90016506884E+02  0.90016506884E+02  0.00000000000E+00 0.  1.
         23    2    1    2    0    0 -0.15711701457E+02 -0.78947235355E+01 -0.40171866558E+02  0.81255278114E+02  0.68406557699E+02 0.  0.
         23    2    1    2    0    0  0.22379567950E+02  0.27660577720E+02  0.62250608778E+02  0.11637020618E+03  0.91656608988E+02 0.  0.
        -11    1    4    4    0    0 -0.29340181658E+02  0.24238889138E+02  0.37983408339E+01  0.38246534476E+02  0.00000000000E+00 0.  1.
         11    1    4    4    0    0  0.51719749609E+02  0.34216885820E+01  0.58452267944E+02  0.78123671701E+02  0.00000000000E+00 0. -1.
        -13    1    3    3    0    0  0.15686310755E+02 -0.23108881981E+02  0.15481961386E+00  0.27930355182E+02  0.00000000000E+00 0. -1.
         13    1    3    3    0    0 -0.31398012212E+02  0.15214158445E+02 -0.40326686172E+02  0.53324922931E+02  0.00000000000E+00 0.  1.
         21    1    1    2  502  501 -0.66678664934E+01 -0.19765854184E+02  0.46254755578E+02  0.50741027274E+02  0.00000000000E+00 0. -1.
<scales pt_clust_5="13000.00000" pt_clust_6="13000.00000" pt_clust_7="13000.00000" pt_clust_8="13000.00000" pt_clust_9="20.86024"></scales>
<clustering>
<clus scale="   20.860">  1  9  2 -1</clus>
<clus scale="   68.407">  7  8 -1 -1</clus>
<clus scale="   71.424">  2  7  1 -1</clus>
<clus scale="   91.657">  5  6 -1 -1</clus>
<clus scale="   20.860">  1  5  2 -1</clus>
</clustering>
</event>
<event>
 9    1  0.1435532E-005  0.1124449E+03  0.7546771E-02  0.1256118E+00
         -1   -1    0    0    0  501 -0.00000000000E+00  0.00000000000E+00  0.45186243058E+02  0.45186243058E+02  0.00000000000E+00 0.  1.
          1   -1    0    0  502    0  0.00000000000E+00 -0.00000000000E+00 -0.50930784810E+03  0.50930784810E+03  0.00000000000E+00 0. -1.
         23    2    1    2    0    0 -0.30166140179E+02  0.45645787006E+02 -0.77033224014E+02  0.13442456407E+03  0.95615437769E+02 0.  0.
         23    2    1    2    0    0  0.54603695295E+02 -0.44679381798E+02 -0.20998442056E+03  0.24128490567E+03  0.95640671948E+02 0.  0.
        -11    1    3    3    0    0  0.30434201974E+02  0.53423433709E+01 -0.45749547899E+02  0.55206905505E+02  0.00000000000E+00 0. -1.
         11    1    3    3    0    0 -0.60600342153E+02  0.40303443635E+02 -0.31283676115E+02  0.79217658569E+02  0.00000000000E+00 0.  1.
        -13    1    4    4    0    0 -0.23879079635E+02 -0.29349508852E+02 -0.53168776959E+02  0.65257359412E+02  0.00000000000E+00 0.  1.
         13    1    4    4    0    0  0.78482774930E+02 -0.15329872945E+02 -0.15681564360E+03  0.17602754626E+03  0.00000000000E+00 0. -1.
         21    1    1    2  502  501 -0.24437555116E+02 -0.96640520788E+00 -0.17710396047E+03  0.17878462141E+03  0.00000000000E+00 0. -1.
<scales pt_clust_5="13000.00000" pt_clust_6="13000.00000" pt_clust_7="13000.00000" pt_clust_8="13000.00000" pt_clust_9="24.45666"></scales>
<clustering>
<clus scale="   24.457">  2  9  1 -1</clus>
<clus scale="   95.615">  5  6 -1 -1</clus>
<clus scale="   95.641">  7  8 -1 -1</clus>
<clus scale="  112.423">  1  5  2 -1</clus>
<clus scale="   24.457">  2  5  1 -1</clus>
</clustering>
</event>
<event>
 9    1  0.1435532E-005  0.9777898E+02  0.7546771E-02  0.1286151E+00
         -4   -1    0    0    0  501 -0.00000000000E+00  0.00000000000E+00  0.10618510842E+03  0.10618510842E+03  0.00000000000E+00 0.  1.
          4   -1    0    0  502    0  0.00000000000E+00 -0.00000000000E+00 -0.16327600825E+03  0.16327600825E+03  0.00000000000E+00 0. -1.
         23    2    1    2    0    0  0.36977211861E+00  0.51651539315E+02 -0.40942258735E+01  0.10727206920E+03  0.93928248684E+02 0.  0.
         23    2    1    2    0    0 -0.20054429598E+02  0.27513133153E+01 -0.22000202295E+02  0.96554168243E+02  0.91809305806E+02 0.  0.
        -11    1    3    3    0    0  0.15668384091E+02  0.13526761698E+02 -0.44855497092E+02  0.49401287043E+02  0.00000000000E+00 0.  1.
         11    1    3    3    0    0 -0.15298611973E+02  0.38124777617E+02  0.40761271219E+02  0.57870782162E+02  0.00000000000E+00 0. -1.
        -13    1    4    4    0    0 -0.44050390860E+02  0.33089982360E+02 -0.16301279708E+02  0.57455335589E+02  0.00000000000E+00 0. -1.
         13    1    4    4    0    0  0.23995961262E+02 -0.30338669045E+02 -0.56989225874E+01  0.39098832655E+02  0.00000000000E+00 0.  1.
         21    1    1    2  502  501  0.19684657479E+02 -0.54402852631E+02 -0.30996471666E+02  0.65634879219E+02  0.00000000000E+00 0.  1.
<scales pt_clust_5="13000.00000" pt_clust_6="13000.00000" pt_clust_7="13000.00000" pt_clust_8="13000.00000" pt_clust_9="57.85461"></scales>
<clustering>
<clus scale="   57.855">  2  9  1 -1</clus>
<clus scale="   91.809">  7  8 -1 -1</clus>
<clus scale="   93.928">  5  6 -1 -1</clus>
<clus scale="   95.745">  2  7  1 -1</clus>
<clus scale="   57.855">  2  5  1 -1</clus>
</clustering>
</event>
<event>
 9    1  0.1435532E-005  0.1627227E+03  0.7546771E-02  0.1185682E+00
          2   -1    0    0  502    0  0.00000000000E+00  0.00000000000E+00  0.40003263598E+03  0.40003263598E+03  0.00000000000E+00 0. -1.
         -2   -1    0    0    0  501 -0.00000000000E+00 -0.00000000000E+00 -0.84276976762E+02  0.84276976762E+02  0.00000000000E+00 0.  1.
         23    2    1    2    0    0 -0.13715717520E+03 -0.55259461003E+02  0.92778842739E+02  0.19695928334E+03  0.91210453870E+02 0.  0.
         23    2    1    2    0    0  0.11118571918E+03  0.35951121489E+02  0.17234233040E+03  0.22725723760E+03  0.91045186063E+02 0.  0.
        -11    1    3    3    0    0 -0.75396582635E+02  0.43183088904E+01  0.73570744678E+01  0.75877658170E+02  0.00000000000E+00 0.  1.
         11    1    3    3    0    0 -0.61760592564E+02 -0.59577769894E+02  0.85421768271E+02  0.12108162517E+03  0.00000000000E+00 0. -1.
        -13    1    4    4    0    0  0.98589888022E+02  0.22567319726E+01  0.76260372117E+02  0.12466235685E+03  0.00000000000E+00 0. -1.
         13    1    4    4    0    0  0.12595831155E+02  0.33694389517E+02  0.96081958288E+02  0.10259488075E+03  0.00000000000E+00 0.  1.
         21    1    1    2  502  501  0.25971456023E+02  0.19308339514E+02  0.50634486078E+02  0.60093091808E+02  0.00000000000E+00 0. -1.
<scales pt_clust_5="13000.00000" pt_clust_6="13000.00000" pt_clust_7="13000.00000" pt_clust_8="13000.00000" pt_clust_9="32.36246"></scales>
<clustering>
<clus scale="   32.362">  1  9  2 -1</clus>
<clus scale="   91.045">  7  8 -1 -1</clus>
<clus scale="   91.210">  5  6 -1 -1</clus>
<clus scale="  162.630">  1  7  2 -1</clus>
<clus scale="   32.362">  1  5  2 -1</clus>
</clustering>
</event>
<event>
 9    1  0.1435532E-005  0.1938621E+03  0.7546771E-02  0.1155032E+00
         -1   -1    0    0    0  501 -0.00000000000E+00  0.00000000000E+00  0.37174326678E+03  0.37174326678E+03  0.00000000000E+00 0.  1.
          1   -1    0    0  502    0  0.00000000000E+00 -0.00000000000E+00 -0.21716043824E+03  0.21716043824E+03  0.00000000000E+00 0. -1.
         23    2    1    2    0    0  0.11453399358E+03  0.13399727699E+03  0.27715335744E+03  0.34082293071E+03  0.90955926861E+02 0.  0.
         23    2    1    2    0    0 -0.86457147467E+02 -0.11531677570E+03 -0.12905029430E+03  0.21374045142E+03  0.90874666475E+02 0.  0.
        -13    1    4    4    0    0 -0.66072730053E+02 -0.10170211669E+03 -0.50359853336E+02  0.13132037551E+03  0.00000000000E+00 0.  1.
         13    1    4    4    0    0 -0.20384417414E+02 -0.13614659009E+02 -0.78690440967E+02  0.82420075909E+02  0.00000000000E+00 0. -1.
        -13    1    3    3    0    0  0.13736881968E+02  0.68610464869E+02  0.57956096115E+02  0.90857068479E+02  0.00000000000E+00 0.  1.
         13    1    3    3    0    0  0.10079711161E+03  0.65386812125E+02  0.21919726132E+03  0.24996586223E+03  0.00000000000E+00 0. -1.
         21    1    1    2  502  501 -0.28076846113E+02 -0.18680501296E+02  0.64797654079E+01  0.34340322888E+02  0.00000000000E+00 0.  1.
<scales pt_clust_5="13000.00000" pt_clust_6="13000.00000" pt_clust_7="13000.00000" pt_clust_8="13000.00000" pt_clust_9="33.72344"></scales>
<clustering>
<clus scale="   33.723">  2  9  1 -1</clus>
<clus scale="   90.875">  5  6 -1 -1</clus>
<clus scale="   90.956">  7  8 -1 -1</clus>
<clus scale="  193.824">  2  5  1 -1</clus>
<clus scale="   33.723">  2  5  1 -1</clus>
</clustering>
</event>
<event>
 9    1  0.1435532E-005  0.1090320E+03  0.7546771E-02  0.1264601E+00
          4   -1    0    0  502    0  0.00000000000E+00  0.00000000000E+00  0.26479840117E+03  0.26479840117E+03  0.00000000000E+00 0. -1.
         -4   -1    0    0    0  501 -0.00000000000E+00 -0.00000000000E+00 -0.76940368521E+02  0.76940368521E+02  0.00000000000E+00 0.  1.
         23    2    1    2    0    0 -0.28398930958E+02 -0.41578502052E+02 -0.38341774854E+00  0.10137222898E+03  0.87982445335E+02 0.  0.
         23    2    1    2    0    0  0.48579951250E+02  0.60195371041E+02  0.16200715052E+03  0.20239155050E+03  0.93447999113E+02 0.  0.
        -11    1    3    3    0    0  0.13880305606E+01 -0.48812208627E+02 -0.31166697575E+02  0.57930314841E+02  0.00000000000E+00 0.  1.
         11    1    3    3    0    0 -0.29786961518E+02  0.72337065751E+01  0.30783279826E+02  0.43441914140E+02  0.00000000000E+00 0. -1.
        -11    1    4    4    0    0  0.39248904087E+02 -0.96094570769E+01  0.22832278359E+02  0.46412617599E+02  0.00000000000E+00 0.  1.
         11    1    4    4    0    0  0.93310471634E+01  0.69804828118E+02  0.13917487216E+03  0.15597893290E+03  0.00000000000E+00 0. -1.
         21    1    1    2  502  501 -0.20181020292E+02 -0.18616868989E+02  0.26234299882E+02  0.37974990208E+02  0.00000000000E+00 0.  1.
<scales pt_clust_5="13000.00000" pt_clust_6="13000.00000" pt_clust_7="13000.00000" pt_clust_8="13000.00000" pt_clust_9="27.45654"></scales>
<clustering>
<clus scale="   27.457">  1  9  2 -1</clus>
<clus scale="   87.982">  5  6 -1 -1</clus>
<clus scale="   93.448">  7  8 -1 -1</clus>
<clus scale="  104.386">  2  5  1 -1</clus>
<clus scale="   27.457">  1  5  2 -1</clus>
</clustering>
</event>
<event>
 9    1  0.1435532E-005  0.9930154E+02  0.7546771E-02  0.1282546E+00
          1   -1    0    0  502    0  0.00000000000E+00  0.00000000000E+00  0.17847576824E+03  0.17847576824E+03  0.00000000000E+00 0. -1.
         -1   -1    0    0    0  501 -0.00000000000E+00 -0.00000000000E+00 -0.99751759296E+02  0.99751759296E+02  0.00000000000E+00 0.  1.
         23    2    1    2    0    0  0.89543908442E+01 -0.35138787568E+02 -0.38844869838E+02  0.10714297243E+03  0.93036429006E+02 0.  0.
         23    2    1    2    0    0  0.13264184387E+02  0.32828631019E+02  0.76767124265E+02  0.12456805179E+03  0.91489619941E+02 0.  0.
        -13    1    4    4    0    0 -0.36079728872E+02  0.21953691284E+01  0.13245037048E+02  0.38496720477E+02  0.00000000000E+00 0.  1.
         13    1    4    4    0    0  0.49343913259E+02  0.30633261891E+02  0.63522087217E+02  0.86071331314E+02  0.00000000000E+00 0. -1.
        -13    1    3    3    0    0  0.36494706748E+02 -0.67405101583E+00  0.13291769340E+02  0.38845708869E+02  0.00000000000E+00 0. -1.
         13    1    3    3    0    0 -0.27540315903E+02 -0.34464736552E+02 -0.52136639178E+02  0.68297263565E+02  0.00000000000E+00 0.  1.
         21    1    1    2  502  501 -0.22218575231E+02  0.23101565493E+01  0.40801754516E+02  0.46516503310E+02  0.00000000000E+00 0. -1.
<scales pt_clust_5="13000.00000" pt_clust_6="13000.00000" pt_clust_7="13000.00000" pt_clust_8="13000.00000" pt_clust_9="22.33835"></scales>
<clustering>
<clus scale="   22.338">  1  9  2 -1</clus>
<clus scale="   91.490">  5  6 -1 -1</clus>
<clus scale="   93.036">  7  8 -1 -1</clus>
<clus scale="   97.854">  1  5  2 -1</clus>
<clus scale="   22.338">  1  5  2 -1</clus>
</clustering>
</event>
<event>
 9    1  0.1435532E-005  0.9913182E+02  0.7546771E-02  0.1282495E+00
          1   -1    0    0  502    0  0.00000000000E+00  0.00000000000E+00  0.48906190677E+03  0.48906190677E+03  0.00000000000E+00 0. -1.
         -1   -1    0    0    0  501 -0.00000000000E+00 -0.00000000000E+00 -0.41113333227E+02  0.41113333227E+02  0.00000000000E+00 0.  1.
         23    2    1    2    0    0 -0.98580815256E+01  0.40645425051E+02  0.46903266269E+02  0.10994790102E+03  0.90218580143E+02 0.  0.
         23    2    1    2    0    0 -0.13597992086E+02 -0.33562331932E+02  0.27719007088E+03  0.29397173641E+03  0.90959941182E+02 0.  0.
        -11    1    4    4    0    0 -0.60881909600E+01 -0.61921973662E+02  0.13309648637E+03  0.14692199147E+03  0.00000000000E+00 0.  1.
         11    1    4    4    0    0 -0.75098011258E+01  0.28359641730E+02  0.14409358451E+03  0.14704974495E+03  0.00000000000E+00 0. -1.
        -11    1    3    3    0    0  0.29681090220E+02 -0.11430180098E+02  0.47654174517E+01  0.32160928737E+02  0.00000000000E+00 0.  1.
         11    1    3    3    0    0 -0.39539171746E+02  0.52075605149E+02  0.42137848818E+02  0.77786972283E+02  0.00000000000E+00 0. -1.
         21    1    1    2  502  501  0.23456073611E+02 -0.70830931184E+01  0.12385523639E+03  0.12625560256E+03  0.00000000000E+00 0. -1.
<scales pt_clust_5="13000.00000" pt_clust_6="13000.00000" pt_clust_7="13000.00000" pt_clust_8="13000.00000" pt_clust_9="24.50220"></scales>
<clustering>
<clus scale="   24.502">  1  9  2 -1</clus>
<clus scale="   90.219">  7  8 -1 -1</clus>
<clus scale="   90.960">  5  6 -1 -1</clus>
<clus scale="   98.452">  2  7  1 -1</clus>
<clus scale="   24.502">  1  5  2 -1</clus>
</clustering>
</event>
<event>
 9    1  0.1435532E-005  0.1234520E+03  0.7546771E-02  0.1239873E+00
          1   -1    0    0  502    0  0.00000000000E+00  0.00000000000E+00  0.19931682322E+03  0.19931682322E+03  0.00000000000E+00 0. -1.
         -1   -1    0    0    0  501 -0.00000000000E+00 -0.00000000000E+00 -0.12973705419E+03  0.12973705419E+03  0.00000000000E+00 0.  1.
         23    2    1    2    0    0 -0.32105386679E+02  0.78265565542E+02 -0.38281295996E+02  0.13481265041E+03  0.97738111730E+02 0.  0.
         23    2    1    2    0    0  0.46277469496E+02 -0.44312258971E+02  0.41273598256E+02  0.11816517499E+03  0.90301263494E+02 0.  0.
        -11    1    3    3    0    0 -0.53816173873E+02  0.32860019905E+02  0.11417769248E+02  0.64080628376E+02  0.00000000000E+00 0. -1.
         11    1    3    3    0    0  0.21710787194E+02  0.45405545637E+02 -0.49699065244E+02  0.70732022036E+02  0.00000000000E+00 0.  1.
        -13    1    4    4    0    0  0.22440945449E+02 -0.13246155380E+02 -0.28212363213E+02  0.38405651968E+02  0.00000000000E+00 0.  1.
         13    1    4    4    0    0  0.23836524047E+02 -0.31066103591E+02  0.69485961469E+02  0.79759523019E+02  0.00000000000E+00 0. -1.
         21    1    1    2  502  501 -0.14172082816E+02 -0.33953306571E+02  0.66587466776E+02  0.76076052014E+02  0.00000000000E+00 0. -1.
<scales pt_clust_5="13000.00000" pt_clust_6="13000.00000" pt_clust_7="13000.00000" pt_clust_8="13000.00000" pt_clust_9="36.79232"></scales>
<clustering>
<clus scale="   36.792">  1  9  2 -1</clus>
<clus scale="   90.301">  7  8 -1 -1</clus>
<clus scale="   97.738">  5  6 -1 -1</clus>
<clus scale="  117.652">  1  7  2 -1</clus>
<clus scale="   36.792">  1  5  2 -1</clus>
</clustering>
</event>
<event>
 9    1  0.1435532E-005  0.1137240E+03  0.7546771E-02  0.1256011E+00
         -1   -1    0    0    0  501 -0.00000000000E+00  0.00000000000E+00  0.16791800462E+03  0.16791800462E+03  0.00000000000E+00 0.  1.
          1   -1    0    0  502    0  0.00000000000E+00 -0.00000000000E+00 -0.15836522021E+03  0.15836522021E+03  0.00000000000E+00 0. -1.
         23    2    1    2    0    0 -0.64656018908E+02 -0.23120635467E+02  0.47699437117E+02  0.12396814680E+03  0.91530872134E+02 0.  0.
         23    2    1    2    0    0  0.47275906908E+02  0.52368950689E+02  0.39410934036E+02  0.11762321599E+03  0.85466255606E+02 0.  0.
        -11    1    4    4    0    0  0.26355204840E+01  0.57796168518E+02  0.43620524738E+02  0.72457527159E+02  0.00000000000E+00 0. -1.
         11    1    4    4    0    0  0.44640386424E+02 -0.54272178294E+01 -0.42095907019E+01  0.45165688828E+02  0.00000000000E+00 0.  1.
        -11    1    3    3    0    0 -0.20528552782E+02 -0.16092946477E+02 -0.26607610638E+02  0.37260828621E+02  0.00000000000E+00 0. -1.
         11    1    3    3    0    0 -0.44127466126E+02 -0.70276889903E+01  0.74307047755E+02  0.86707318176E+02  0.00000000000E+00 0.  1.
         21    1    1    2  502  501  0.17380112001E+02 -0.29248315222E+02 -0.77557586739E+02  0.84691862049E+02  0.00000000000E+00 0. -1.
<scales pt_clust_5="13000.00000" pt_clust_6="13000.00000" pt_clust_7="13000.00000" pt_clust_8="13000.00000" pt_clust_9="34.02253"></scales>
<clustering>
<clus scale="   34.023">  2  9  1 -1</clus>
<clus scale="   85.466">  5  6 -1 -1</clus>
<clus scale="   91.531">  7  8 -1 -1</clus>
<clus scale="  108.902">  2  5  1 -1</clus>
<clus scale="   34.023">  2  5  1 -1</clus>
</clustering>
</event>
<event>
 9    1  0.1435532E-005  0.1347130E+03  0.7546771E-02  0.1220750E+00
         -1   -1    0    0    0  501 -0.00000000000E+00  0.00000000000E+00  0.68098160500E+02  0.68098160500E+02  0.00000000000E+00 0.  1.
          1   -1    0    0  502    0  0.00000000000E+00 -0.00000000000E+00 -0.42126742678E+03  0.42126742678E+03  0.00000000000E+00 0. -1.
         23    2    1    2    0    0 -0.61573706903E+02  0.10569970487E+03 -0.11158127140E+03  0.19122104754E+03  0.95662740407E+02 0.  0.
         23    2    1    2    0    0  0.37661172026E+02 -0.54056927723E+02 -0.13950689851E+03  0.18127137776E+03  0.95166287881E+02 0.  0.
        -11    1    4    4    0    0 -0.25008652414E+02  0.26864347257E+01 -0.60659878705E+02  0.65667880365E+02  0.00000000000E+00 0.  1.
         11    1    4    4    0    0  0.62669824440E+02 -0.56743362449E+02 -0.78847019808E+02  0.11560349740E+03  0.00000000000E+00 0. -1.
        -13    1    3    3    0    0  0.36085205721E+01  0.58706026743E+02 -0.90860761198E+02  0.10823630131E+03  0.00000000000E+00 0.  1.
         13    1    3    3    0    0 -0.65182227475E+02  0.46993678132E+02 -0.20720510202E+02  0.82984746225E+02  0.00000000000E+00 0. -1.
         21    1    1    2  502  501  0.23912534877E+02 -0.51642777151E+02 -0.10208109637E+03  0.11687316198E+03  0.00000000000E+00 0. -1.
<scales pt_clust_5="13000.00000" pt_clust_6="13000.00000" pt_clust_7="13000.00000" pt_clust_8="13000.00000" pt_clust_9="56.91033"></scales>
<clustering>
<clus scale="   56.910">  2  9  1 -1</clus>
<clus scale="   95.166">  5  6 -1 -1</clus>
<clus scale="   95.663">  7  8 -1 -1</clus>
<clus scale="  134.361">  2  5  1 -1</clus>
<clus scale="   56.910">  2  5  1 -1</clus>
</clustering>
</event>
<event>
 9    1  0.1435532E-005  0.1661157E+03  0.7546771E-02  0.1183248E+00
         -3   -1    0    0    0  501 -0.00000000000E+00  0.00000000000E+00  0.91196470818E+02  0.91196470818E+02  0.00000000000E+00 0.  1.
          3   -1    0    0  502    0  0.00000000000E+00 -0.00000000000E+00 -0.69605079557E+03  0.69605079557E+03  0.00000000000E+00 0. -1.
         23    2    1    2    0    0 -0.92219714796E+02  0.11829182907E+03 -0.30246646655E+02  0.17784169458E+03  0.90638711802E+02 0.  0.
         23    2    1    2    0    0  0.30119270921E+02 -0.91510318786E+02 -0.45278888224E+03  0.47007311526E+03  0.81667942826E+02 0.  0.
        -11    1    4    4    0    0  0.52745325793E+02 -0.55923336489E+02 -0.36051031766E+03  0.36861521686E+03  0.00000000000E+00 0. -1.
         11    1    4    4    0    0 -0.22626054872E+02 -0.35586982297E+02 -0.92278564577E+02  0.10145789840E+03  0.00000000000E+00 0.  1.
        -13    1    3    3    0    0 -0.26303741890E+02  0.98322607800E+02 -0.37759474158E+02  0.10855873954E+03  0.00000000000E+00 0.  1.
         13    1    3    3    0    0 -0.65915972907E+02  0.19969221266E+02  0.75128275033E+01  0.69282955042E+02  0.00000000000E+00 0. -1.
         21    1    1    2  502  501  0.62100443876E+02 -0.26781510281E+02 -0.12181879585E+03  0.13933245654E+03  0.00000000000E+00 0. -1.
<scales pt_clust_5="13000.00000" pt_clust_6="13000.00000" pt_clust_7="13000.00000" pt_clust_8="13000.00000" pt_clust_9="67.62924"></scales>
<clustering>
<clus scale="   67.629">  2  9  1 -1</clus>
<clus scale="   81.668">  5  6 -1 -1</clus>
<clus scale="   90.639">  7  8 -1 -1</clus>
<clus scale="  161.396">  2  5  1 -1</clus>
<clus scale="   67.629">  2  5  1 -1</clus>
</clustering>
</event>
<event>
 9    1  0.1435532E-005  0.1236453E+03  0.7546771E-02  0.1237577E+00
         -1   -1    0    0    0  501 -0.00000000000E+00  0.00000000000E+00  0.99980151017E+02  0.99980151017E+02  0.00000000000E+00 0.  1.
          1   -1    0    0  502    0  0.00000000000E+00 -0.00000000000E+00 -0.18864951971E+03  0.18864951971E+03  0.00000000000E+00 0. -1.
         23    2    1    2    0    0 -0.70369882066E+02  0.56461288468E+02 -0.10562874794E+02  0.12790438232E+03  0.90045318004E+02 0.  0.
         23    2    1    2    0    0  0.47715167062E+02 -0.57088326088E+02 -0.64788793666E+02  0.13443859163E+03  0.91325423579E+02 0.  0.
        -11    1    4    4    0    0  0.39122715659E+01 -0.71446819289E+02 -0.36108758118E+02  0.80148588685E+02  0.00000000000E+00 0. -1.
         11    1    4    4    0    0  0.43802895496E+02  0.14358493202E+02 -0.28680035548E+02  0.54290002946E+02  0.00000000000E+00 0.  1.
        -11    1    3    3    0    0 -0.60744190351E+02  0.76572359844E+02  0.91179763009E+01  0.98164761729E+02  0.00000000000E+00 0.  1.
         11    1    3    3    0    0 -0.96256917148E+01 -0.20111071376E+02 -0.19680851095E+02  0.29739620588E+02  0.00000000000E+00 0. -1.
         21    1    1    2  502  501  0.22654715004E+02  0.62703761988E+00 -0.13317700231E+02  0.26286696779E+02  0.00000000000E+00 0.  1.
<scales pt_clust_5="13000.00000" pt_clust_6="13000.00000" pt_clust_7="13000.00000" pt_clust_8="13000.00000" pt_clust_9="22.66339"></scales>
<clustering>
<clus scale="   22.663">  2  9  1 -1</clus>
<clus scale="   90.045">  7  8 -1 -1</clus>
<clus scale="   91.325">  5  6 -1 -1</clus>
<clus scale="  122.703">  1  7  2 -1</clus>
<clus scale="   22.663">  2  5  1 -1</clus>
</clustering>
</event>
<event>
 9    1  0.1435532E-005  0.1004689E+03  0.7546771E-02  0.1283748E+00
          1   -1    0    0  502    0  0.00000000000E+00  0.00000000000E+00  0.20373406487E+03  0.20373406487E+03  0.00000000000E+00 0. -1.
         -1   -1    0    0    0  501 -0.00000000000E+00 -0.00000000000E+00 -0.12884562201E+03  0.12884562201E+03  0.00000000000E+00 0.  1.
         23    2    1    2    0    0  0.14597938891E+01  0.35422751810E+02 -0.80381536885E+02  0.12911491595E+03  0.94618009408E+02 0.  0.
         23    2    1    2    0    0 -0.30269965458E+02 -0.20354867590E+02  0.13807710619E+03  0.16668621710E+03  0.85955897264E+02 0.  0.
        -13    1    3    3    0    0  0.37183302123E+02  0.29110472082E+02 -0.79927155538E+02  0.92835164318E+02  0.00000000000E+00 0.  1.
         13    1    3    3    0    0 -0.35723508234E+02  0.63122797282E+01 -0.45438134674E+00  0.36279751630E+02  0.00000000000E+00 0. -1.
        -13    1    4    4    0    0  0.24900996068E+02 -0.10702818354E+02  0.86136895127E+02  0.90300468592E+02  0.00000000000E+00 0.  1.
         13    1    4    4    0    0 -0.55170961526E+02 -0.96520492357E+01  0.51940211066E+02  0.76385748512E+02  0.00000000000E+00 0. -1.
         21    1    1    2  502  501  0.28810171569E+02 -0.15067884220E+02  0.17192873555E+02  0.36778553830E+02  0.00000000000E+00 0. -1.
<scales pt_clust_5="13000.00000" pt_clust_6="13000.00000" pt_clust_7="13000.00000" pt_clust_8="13000.00000" pt_clust_9="32.51257"></scales>
<clustering>
<clus scale="   32.513">  1  9  2 -1</clus>
<clus scale="   85.956">  7  8 -1 -1</clus>
<clus scale="   92.357">  1  7  2 -1</clus>
<clus scale="   94.618">  5  6 -1 -1</clus>
<clus scale="   32.513">  1  5  2 -1</clus>
</clustering>
</event>
<event>
 9    1  0.1435532E-005  0.1965126E+03  0.7546771E-02  0.1170100E+00
          1   -1    0    0  502    0  0.00000000000E+00  0.00000000000E+00  0.47550377051E+03  0.47550377051E+03  0.00000000000E+00 0. -1.
         -1   -1    0    0    0  501 -0.00000000000E+00 -0.00000000000E+00 -0.14692459878E+03  0.14692459878E+03  0.00000000000E+00 0.  1.
         23    2    1    2    0    0  0.94982213182E+02  0.68070449748E+01  0.24204586393E+02  0.13345155365E+03  0.90307798589E+02 0.  0.
         23    2    1    2    0    0 -0.21139486597E+03  0.68459592908E+02  0.22233145828E+03  0.32789284000E+03  0.93316300640E+02 0.  0.
        -11    1    4    4    0    0 -0.27393757430E+02  0.63865992270E+01  0.86378232449E+02  0.90842752253E+02  0.00000000000E+00 0. -1.
         11    1    4    4    0    0 -0.18400110854E+03  0.62072993681E+02  0.13595322583E+03  0.23705008775E+03  0.00000000000E+00 0.  1.
        -13    1    3    3    0    0  0.65761910884E+02 -0.13738606964E+02  0.54582946775E+02  0.86560246782E+02  0.00000000000E+00 0.  1.
         13    1    3    3    0    0  0.29220302298E+02  0.20545651939E+02 -0.30378360381E+02  0.46891306864E+02  0.00000000000E+00 0. -1.
         21    1    1    2  502  501  0.11641265279E+03 -0.75266637883E+02  0.82043127063E+02  0.16108397564E+03  0.00000000000E+00 0.  1.
<scales pt_clust_5="13000.00000" pt_clust_6="13000.00000" pt_clust_7="13000.00000" pt_clust_8="13000.00000" pt_clust_9="172.94298"></scales>
<clustering>
<clus scale="   90.308">  7  8 -1 -1</clus>
<clus scale="   93.316">  5  6 -1 -1</clus>
<clus scale="  131.238">  2  7  1 -1</clus>
<clus scale="  172.943">  1  9  2 -1</clus>
<clus scale="  172.943">  1  5  2 -1</clus>
</clustering>
</event>
<event>
 9    1  0.1435532E-005  0.2072484E+03  0.7546771E-02  0.1144020E+00
          2   -1    0    0  502    0  0.00000000000E+00  0.00000000000E+00  0.10878379435E+04  0.10878379435E+04  0.00000000000E+00 0. -1.
         -2   -1    0    0    0  501 -0.00000000000E+00 -0.00000000000E+00 -0.46395819408E+02  0.46395819408E+02  0.00000000000E+00 0.  1.
         23    2    1    2    0    0 -0.14618244082E+03 -0.11464260357E+03  0.37890130078E+03  0.43178141814E+03  0.91415342066E+02 0.  0.
         23    2    1    2    0    0  0.13340123992E+03  0.13101319832E+03  0.54199994048E+03  0.58013529811E+03  0.88502427555E+02 0.  0.
        -11    1    3    3    0    0 -0.20070766824E+02 -0.66842310693E+02  0.99536258784E+02  0.12156560777E+03  0.00000000000E+00 0. -1.
         11    1    3    3    0    0 -0.12611167400E+03 -0.47800292875E+02  0.27936504199E+03  0.31021581037E+03  0.00000000000E+00 0.  1.
        -13    1    4    4    0    0 -0.90978084056E+01  0.31487339883E+02  0.97422403719E+02  0.10278787592E+03  0.00000000000E+00 0. -1.
         13    1    4    4    0    0  0.14249904833E+03  0.99525858433E+02  0.44457753676E+03  0.47734742219E+03  0.00000000000E+00 0.  1.
         21    1    1    2  502  501  0.12781200896E+02 -0.16370594748E+02  0.12054088279E+03  0.12231704662E+03  0.00000000000E+00 0.  1.
<scales pt_clust_5="13000.00000" pt_clust_6="13000.00000" pt_clust_7="13000.00000" pt_clust_8="13000.00000" pt_clust_9="20.76910"></scales>
<clustering>
<clus scale="   20.769">  1  9  2 -1</clus>
<clus scale="   88.502">  7  8 -1 -1</clus>
<clus scale="   91.415">  5  6 -1 -1</clus>
<clus scale="  205.980">  1  7  2 -1</clus>
<clus scale="   20.769">  1  5  2 -1</clus>
</clustering>
</event>
<event>
 9    1  0.1435532E-005  0.1005814E+03  0.7546771E-02  0.1279440E+00
         -2   -1    0    0    0  501 -0.00000000000E+00  0.00000000000E+00  0.70680303014E+02  0.70680303014E+02  0.00000000000E+00 0.  1.
          2   -1    0    0  502    0  0.00000000000E+00 -0.00000000000E+00 -0.51197963958E+03  0.51197963958E+03  0.00000000000E+00 0. -1.
         23    2    1    2    0    0  0.20649859209E+02 -0.42306545319E+02  0.21851316058E+02  0.10418797762E+03  0.90340435048E+02 0.  0.
         23    2    1    2    0    0 -0.13896246407E+02  0.14906514294E+02 -0.34949081785E+03  0.36136120105E+03  0.89569950493E+02 0.  0.
        -11    1    4    4    0    0 -0.36229850902E+02  0.40372857473E+02 -0.16215395178E+03  0.17098676497E+03  0.00000000000E+00 0. -1.
         11    1    4    4    0    0  0.22333604495E+02 -0.25466343179E+02 -0.18733686607E+03  0.19037443608E+03  0.00000000000E+00 0.  1.
        -13    1    3    3    0    0 -0.10242164286E+02 -0.56067234930E+02  0.36126727134E+02  0.67480198395E+02  0.00000000000E+00 0.  1.
         13    1    3    3    0    0  0.30892023495E+02  0.13760689611E+02 -0.14275411076E+02  0.36707779224E+02  0.00000000000E+00 0. -1.
         21    1    1    2  502  501 -0.67536128019E+01  0.27400031025E+02 -0.11365983477E+03  0.11711076392E+03  0.00000000000E+00 0. -1.
<scales pt_clust_5="13000.00000" pt_clust_6="13000.00000" pt_clust_7="13000.00000" pt_clust_8="13000.00000" pt_clust_9="28.22008"></scales>
<clustering>
<clus scale="   28.220">  2  9  1 -1</clus>
<clus scale="   89.570">  5  6 -1 -1</clus>
<clus scale="   90.340">  7  8 -1 -1</clus>
<clus scale="   99.890">  2  5  1 -1</clus>
<clus scale="   28.220">  2  5  1 -1</clus>
</clustering>
</event>
<event>
 9    1  0.1435532E-005  0.1225994E+03  0.7546771E-02  0.1239038E+00
         -1   -1    0    0    0  501 -0.00000000000E+00  0.00000000000E+00  0.59360792159E+02  0.59360792159E+02  0.00000000000E+00 0.  1.
          1   -1    0    0  502    0  0.00000000000E+00 -0.00000000000E+00 -0.77515829773E+03  0.77515829773E+03  0.00000000000E+00 0. -1.
         23    2    1    2    0    0 -0.91189626746E+01 -0.49709684403E+02 -0.10978956792E+03  0.15221271508E+03  0.92524338434E+02 0.  0.
         23    2    1    2    0    0  0.54091919110E+01  0.89583336966E+02 -0.62493738385E+03  0.63801196770E+03  0.91967948646E+02 0.  0.
        -11    1    4    4    0    0  0.45966017030E+02  0.65154490330E+02 -0.34462291641E+03  0.35372720683E+03  0.00000000000E+00 0. -1.
         11    1    4    4    0    0 -0.40556825119E+02  0.24428846636E+02 -0.28031446743E+03  0.28428476087E+03  0.00000000000E+00 0.  1.
        -13    1    3    3    0    0 -0.36769421256E+02 -0.55304468489E+02 -0.41466570352E+02  0.78294642416E+02  0.00000000000E+00 0.  1.
         13    1    3    3    0    0  0.27650458582E+02  0.55947840859E+01 -0.68322997570E+02  0.73918072660E+02  0.00000000000E+00 0. -1.
         21    1    1    2  502  501  0.37097707636E+01 -0.39873652564E+02  0.18929446200E+02  0.44294407111E+02  0.00000000000E+00 0. -1.
<scales pt_clust_5="13000.00000" pt_clust_6="13000.00000" pt_clust_7="13000.00000" pt_clust_8="13000.00000" pt_clust_9="40.04586"></scales>
<clustering>
<clus scale="   40.046">  1  9  2 -1</clus>
<clus scale="   91.968">  5  6 -1 -1</clus>
<clus scale="   92.524">  7  8 -1 -1</clus>
<clus scale="  122.180">  2  5  1 -1</clus>
<clus scale="  122.180">  2  5  1 -1</clus>
</clustering>
</event>
<event>
 9    1  0.1435532E-005  0.9893091E+02  0.7546771E-02  0.1283036E+00
         -1   -1    0    0    0  501 -0.00000000000E+00  0.00000000000E+00  0.89990659580E+02  0.89990659580E+02  0.00000000000E+00 0.  1.
          1   -1    0    0  502    0  0.00000000000E+00 -0.00000000000E+00 -0.14458448584E+03  0.14458448584E+03  0.00000000000E+00 0. -1.
         23    2    1    2    0    0 -0.10466403268E+02 -0.37640150316E+02  0.48100809107E+01  0.98910507596E+02  0.90740427160E+02 0.  0.
         23    2    1    2    0    0  0.26790880813E+02  0.26041604528E+02 -0.37229066320E+02  0.10578590963E+03  0.91699175769E+02 0.  0.
        -11    1    4    4    0    0  0.48443277292E+02 -0.57376769053E+01 -0.45211895726E+02  0.66511559644E+02  0.00000000000E+00 0. -1.
         11    1    4    4    0    0 -0.21652396479E+02  0.31779281434E+02  0.79828294065E+01  0.39274349989E+02  0.00000000000E+00 0.  1.
        -11    1    3    3    0    0 -0.27900434461E+02  0.22253153678E+02 -0.40032187489E+01  0.35911876199E+02  0.00000000000E+00 0.  1.
         11    1    3    3    0    0  0.17434031193E+02 -0.59893303994E+02  0.88132996596E+01  0.62998631397E+02  0.00000000000E+00 0. -1.
         21    1    1    2  502  501 -0.16324477545E+02  0.11598545788E+02 -0.22174840848E+02  0.29878728189E+02  0.00000000000E+00 0.  1.
<scales pt_clust_5="13000.00000" pt_clust_6="13000.00000" pt_clust_7="13000.00000" pt_clust_8="13000.00000" pt_clust_9="20.02535"></scales>
<clustering>
<clus scale="   20.025">  2  9  1 -1</clus>
<clus scale="   90.740">  7  8 -1 -1</clus>
<clus scale="   91.699">  5  6 -1 -1</clus>
<clus scale="   98.043">  1  7  2 -1</clus>
<clus scale="   20.025">  2  5  1 -1</clus>
</clustering>
</event>
<event>
 9    1  0.1435532E-005  0.9806554E+02  0.7546771E-02  0.1287077E+00
         -2   -1    0    0    0  501 -0.00000000000E+00  0.00000000000E+00  0.85509705194E+02  0.85509705194E+02  0.00000000000E+00 0.  1.
          2   -1    0    0  502    0  0.00000000000E+00 -0.00000000000E+00 -0.17263700586E+03  0.17263700586E+03  0.00000000000E+00 0. -1.
         23    2    1    2    0    0 -0.28431084910E+02 -0.10125607378E+01  0.12671606795E+02  0.95512499079E+02  0.90292391668E+02 0.  0.
         23    2    1    2    0    0  0.11197524698E+02  0.15369829858E+02 -0.52769256320E+02  0.11052936709E+03  0.95239331934E+02 0.  0.
        -11    1    3    3    0    0 -0.32380280207E+02 -0.37169044584E+02  0.27252821984E+02  0.56327051474E+02  0.00000000000E+00 0.  1.
         11    1    3    3    0    0  0.39491952978E+01  0.36156483847E+02 -0.14581215188E+02  0.39185447605E+02  0.00000000000E+00 0. -1.
        -11    1    4    4    0    0  0.38760341230E+02  0.37817557399E+02 -0.10260480390E+02  0.55116323877E+02  0.00000000000E+00 0. -1.
         11    1    4    4    0    0 -0.27562816532E+02 -0.22447727541E+02 -0.42508775930E+02  0.55413043212E+02  0.00000000000E+00 0.  1.
         21    1    1    2  502  501  0.17233560211E+02 -0.14357269120E+02 -0.47029651136E+02  0.52104844882E+02  0.00000000000E+00 0.  1.
<scales pt_clust_5="13000.00000" pt_clust_6="13000.00000" pt_clust_7="13000.00000" pt_clust_8="13000.00000" pt_clust_9="22.43049"></scales>
<clustering>
<clus scale="   22.430">  2  9  1 -1</clus>
<clus scale="   90.292">  5  6 -1 -1</clus>
<clus scale="   93.269">  1  5  2 -1</clus>
<clus scale="   95.239">  7  8 -1 -1</clus>
<clus scale="   22.430">  2  5  1 -1</clus>
</clustering>
</event>
<event>
 9    1  0.1435532E-005  0.9192397E+02  0.7546771E-02  0.1298972E+00
          1   -1    0    0  502    0  0.00000000000E+00  0.00000000000E+00  0.54637977730E+02  0.54637977730E+02  0.00000000000E+00 0. -1.
         -1   -1    0    0    0  501 -0.00000000000E+00 -0.00000000000E+00 -0.30110043285E+03  0.30110043285E+03  0.00000000000E+00 0.  1.
         23    2    1    2    0    0  0.23832257672E+01  0.90538491071E+01 -0.21671825281E+03  0.23522206110E+03  0.90966834491E+02 0.  0.
         23    2    1    2    0    0 -0.15080973180E+02 -0.26096567789E+02 -0.18476459294E+02  0.96461223577E+02  0.89749214501E+02 0.  0.
        -13    1    3    3    0    0  0.37915713414E+02  0.31254187243E+02 -0.10576969792E+03  0.11662613147E+03  0.00000000000E+00 0.  1.
         13    1    3    3    0    0 -0.35532487647E+02 -0.22200338136E+02 -0.11094855489E+03  0.11859592963E+03  0.00000000000E+00 0. -1.
        -13    1    4    4    0    0  0.95000906383E+01 -0.51644370711E+02  0.67588935093E+01  0.52944077948E+02  0.00000000000E+00 0. -1.
         13    1    4    4    0    0 -0.24581063818E+02  0.25547802923E+02 -0.25235352803E+02  0.43517145629E+02  0.00000000000E+00 0.  1.
         21    1    1    2  502  501  0.12697747413E+02  0.17042718681E+02 -0.11267743009E+02  0.24055125897E+02  0.00000000000E+00 0. -1.
<scales pt_clust_5="13000.00000" pt_clust_6="13000.00000" pt_clust_7="13000.00000" pt_clust_8="13000.00000" pt_clust_9="21.25293"></scales>
<clustering>
<clus scale="   21.253">  1  9  2 -1</clus>
<clus scale="   89.749">  7  8 -1 -1</clus>
<clus scale="   90.719">  1  7  2 -1</clus>
<clus scale="   90.967">  5  6 -1 -1</clus>
<clus scale="   21.253">  1  5  2 -1</clus>
</clustering>
</event>
<event>
 9    1  0.1435532E-005  0.1252080E+03  0.7546771E-02  0.1237433E+00
         -1   -1    0    0    0  501 -0.00000000000E+00  0.00000000000E+00  0.57917071897E+03  0.57917071897E+03  0.00000000000E+00 0.  1.
          1   -1    0    0  502    0  0.00000000000E+00 -0.00000000000E+00 -0.33060273223E+02  0.33060273223E+02  0.00000000000E+00 0. -1.
         23    2    1    2    0    0  0.73625222586E+02  0.18250342465E+02  0.33469705732E+03  0.35869014042E+03  0.10432041150E+03 0.  0.
         23    2    1    2    0    0 -0.61860512219E+02  0.34248702674E+01  0.18397471367E+03  0.21664770702E+03  0.96182539893E+02 0.  0.
        -11    1    3    3    0    0  0.21969685349E+01  0.44192103352E+02  0.19185844371E+03  0.19689446689E+03  0.00000000000E+00 0.  1.
         11    1    3    3    0    0  0.71428254052E+02 -0.25941760887E+02  0.14283861361E+03  0.16179567353E+03  0.00000000000E+00 0. -1.
        -11    1    4    4    0    0 -0.35955386916E+02  0.13415687319E+02  0.18492638964E+03  0.18886646102E+03  0.00000000000E+00 0.  1.
         11    1    4    4    0    0 -0.25905125303E+02 -0.99908170512E+01 -0.95167596685E+00  0.27781246002E+02  0.00000000000E+00 0. -1.
         21    1    1    2  502  501 -0.11764710367E+02 -0.21675212732E+02  0.27438674757E+02  0.36893144748E+02  0.00000000000E+00 0. -1.
<scales pt_clust_5="13000.00000" pt_clust_6="13000.00000" pt_clust_7="13000.00000" pt_clust_8="13000.00000" pt_clust_9="24.66218"></scales>
<clustering>
<clus scale="   24.662">  2  9  1 -1</clus>
<clus scale="   96.183">  7  8 -1 -1</clus>
<clus scale="  104.320">  5  6 -1 -1</clus>
<clus scale="  118.513">  2  7  1 -1</clus>
<clus scale="   24.662">  2  5  1 -1</clus>
</clustering>
</event>
<event>
 9    1  0.1435532E-005  0.1065300E+03  0.7546771E-02  0.1267278E+00
          2   -1    0    0  502    0  0.00000000000E+00  0.00000000000E+00  0.24475241506E+03  0.24475241506E+03  0.00000000000E+00 0. -1.
         -2   -1    0    0    0  501 -0.00000000000E+00 -0.00000000000E+00 -0.21363899528E+03  0.21363899528E+03  0.00000000000E+00 0.  1.
         23    2    1    2    0    0  0.52742044307E+02  0.94701014444E+01 -0.16728647473E+03  0.19726948503E+03  0.89772373470E+02 0.  0.
         23    2    1    2    0    0 -0.45261321703E+02 -0.35376638553E+02  0.20687962443E+03  0.23285505963E+03  0.90123282190E+02 0.  0.
        -11    1    4    4    0    0 -0.69271330416E+02 -0.96406336753E+01  0.15630090570E+03  0.17123502024E+03  0.00000000000E+00 0.  1.
         11    1    4    4    0    0  0.24010008713E+02 -0.25736004878E+02  0.50578718737E+02  0.61620039391E+02  0.00000000000E+00 0. -1.
        -11    1    3    3    0    0  0.32219147847E+02 -0.15082751616E+02 -0.10273160712E+02  0.37028377163E+02  0.00000000000E+00 0. -1.
         11    1    3    3    0    0  0.20522896459E+02  0.24552853060E+02 -0.15701331402E+03  0.16024110787E+03  0.00000000000E+00 0.  1.
         21    1    1    2  502  501 -0.74807226041E+01  0.25906537109E+02 -0.84797299229E+01  0.28266865677E+02  0.00000000000E+00 0. -1.
<scales pt_clust_5="13000.00000" pt_clust_6="13000.00000" pt_clust_7="13000.00000" pt_clust_8="13000.00000" pt_clust_9="26.96497"></scales>
<clustering>
<clus scale="   26.965">  2  9  1 -1</clus>
<clus scale="   89.772">  7  8 -1 -1</clus>
<clus scale="   90.123">  5  6 -1 -1</clus>
<clus scale="  106.233">  2  7  1 -1</clus>
<clus scale="  106.530">  1  5  2 -1</clus>
</clustering>
</event>
<event>
 9    1  0.1435532E-005  0.9685876E+02  0.7546771E-02  0.1287798E+00
         -1   -1    0    0    0  501 -0.00000000000E+00  0.00000000000E+00  0.12939354527E+03  0.12939354527E+03  0.00000000000E+00 0.  1.
          1   -1    0    0  502    0  0.00000000000E+00 -0.00000000000E+00 -0.21629432130E+03  0.21629432130E+03  0.00000000000E+00 0. -1.
         23    2    1    2    0    0  0.32773343825E+02 -0.86707698842E+01  0.91056797359E+02  0.13239271197E+03  0.89928947069E+02 0.  0.
         23    2    1    2    0    0 -0.15025740854E+02  0.19147469782E+02 -0.12708646570E+03  0.15840792249E+03  0.91376701938E+02 0.  0.
        -11    1    3    3    0    0  0.20747413643E+02 -0.44195336595E+02  0.21454785327E+02  0.53329079900E+02  0.00000000000E+00 0. -1.
         11    1    3    3    0    0  0.12025930182E+02  0.35524566711E+02  0.69602012032E+02  0.79063632067E+02  0.00000000000E+00 0.  1.
        -11    1    4    4    0    0  0.33666552678E+02 -0.77745725615E+01 -0.26826378466E+02  0.43743974778E+02  0.00000000000E+00 0.  1.
         11    1    4    4    0    0 -0.48692293533E+02  0.26922042343E+02 -0.10026008724E+03  0.11466394772E+03  0.00000000000E+00 0. -1.
         21    1    1    2  502  501 -0.17747602970E+02 -0.10476699898E+02 -0.50871107688E+02  0.54887232116E+02  0.00000000000E+00 0. -1.
<scales pt_clust_5="13000.00000" pt_clust_6="13000.00000" pt_clust_7="13000.00000" pt_clust_8="13000.00000" pt_clust_9="20.60919"></scales>
<clustering>
<clus scale="   20.609">  2  9  1 -1</clus>
<clus scale="   89.929">  5  6 -1 -1</clus>
<clus scale="   91.377">  7  8 -1 -1</clus>
<clus scale="   95.494">  1  5  2 -1</clus>
<clus scale="   20.609">  2  5  1 -1</clus>
</clustering>
</event>
<event>
 9    1  0.1435532E-005  0.1546846E+03  0.7546771E-02  0.1195010E+00
         -1   -1    0    0    0  501 -0.00000000000E+00  0.00000000000E+00  0.11476357413E+03  0.11476357413E+03  0.00000000000E+00 0.  1.
          1   -1    0    0  502    0  0.00000000000E+00 -0.00000000000E+00 -0.55001668491E+03  0.55001668491E+03  0.00000000000E+00 0. -1.
         23    2    1    2    0    0 -0.14621460457E+03  0.26153585847E+02 -0.21531173579E+02  0.17595451854E+03  0.91835072368E+02 0.  0.
         23    2    1    2    0    0  0.94826665765E+02  0.25234463979E+02 -0.10044734924E+03  0.16723217809E+03  0.90818812515E+02 0.  0.
        -11    1    4    4    0    0  0.34455157842E+02 -0.33477654642E+02 -0.48610391343E+02  0.68343846897E+02  0.00000000000E+00 0. -1.
         11    1    4    4    0    0  0.60371507923E+02  0.58712118620E+02 -0.51836957895E+02  0.98888331190E+02  0.00000000000E+00 0.  1.
        -11    1    3    3    0    0 -0.12336057044E+02  0.32758808332E+02  0.13325490674E+02  0.37455126865E+02  0.00000000000E+00 0. -1.
         11    1    3    3    0    0 -0.13387854752E+03 -0.66052224853E+01 -0.34856664253E+02  0.13849939167E+03  0.00000000000E+00 0.  1.
         21    1    1    2  502  501  0.51387938800E+02 -0.51388049826E+02 -0.31327458796E+03  0.32159356241E+03  0.00000000000E+00 0. -1.
<scales pt_clust_5="13000.00000" pt_clust_6="13000.00000" pt_clust_7="13000.00000" pt_clust_8="13000.00000" pt_clust_9="72.67360"></scales>
<clustering>
<clus scale="   72.674">  2  9  1 -1</clus>
<clus scale="   90.819">  5  6 -1 -1</clus>
<clus scale="   91.835">  7  8 -1 -1</clus>
<clus scale="  154.083">  2  5  1 -1</clus>
<clus scale="   72.674">  2  5  1 -1</clus>
</clustering>
</event>
<event>
 9    1  0.1435532E-005  0.9627347E+02  0.7546771E-02  0.1288700E+00
          1   -1    0    0  502    0  0.00000000000E+00  0.00000000000E+00  0.42730012273E+03  0.42730012273E+03  0.00000000000E+00 0. -1.
         -1   -1    0    0    0  501 -0.00000000000E+00 -0.00000000000E+00 -0.29888196521E+02  0.29888196521E+02  0.00000000000E+00 0.  1.
         23    2    1    2    0    0  0.23195590240E+02 -0.16033273036E+02  0.12736483015E+03  0.15952115143E+03  0.91815557198E+02 0.  0.
         23    2    1    2    0    0 -0.25912462922E+01  0.31122432274E+02  0.18956592449E+03  0.21323115244E+03  0.92503860979E+02 0.  0.
        -11    1    4    4    0    0 -0.20207640633E+02 -0.27788668463E+02  0.88424490859E+02  0.94865427942E+02  0.00000000000E+00 0. -1.
         11    1    4    4    0    0  0.17616394341E+02  0.58911100737E+02  0.10114143363E+03  0.11836572450E+03  0.00000000000E+00 0.  1.
        -13    1    3    3    0    0  0.53612426628E+02 -0.17824040763E+02  0.11189500256E+03  0.12534943286E+03  0.00000000000E+00 0. -1.
         13    1    3    3    0    0 -0.30416836388E+02  0.17907677267E+01  0.15469827588E+02  0.34171718577E+02  0.00000000000E+00 0.  1.
         21    1    1    2  502  501 -0.20604343948E+02 -0.15089159238E+02  0.80481171562E+02  0.84436015373E+02  0.00000000000E+00 0.  1.
<scales pt_clust_5="13000.00000" pt_clust_6="13000.00000" pt_clust_7="13000.00000" pt_clust_8="13000.00000" pt_clust_9="25.53863"></scales>
<clustering>
<clus scale="   25.539">  1  9  2 -1</clus>
<clus scale="   91.816">  7  8 -1 -1</clus>
<clus scale="   92.504">  5  6 -1 -1</clus>
<clus scale="   95.612">  2  7  1 -1</clus>
<clus scale="   25.539">  1  5  2 -1</clus>
</clustering>
</event>
<event>
 9    1  0.1435532E-005  0.1482487E+03  0.7546771E-02  0.1203193E+00
         -2   -1    0    0    0  501 -0.00000000000E+00  0.00000000000E+00  0.52317143766E+02  0.52317143766E+02  0.00000000000E+00 0.  1.
          2   -1    0    0  502    0  0.00000000000E+00 -0.00000000000E+00 -0.88088359547E+03  0.88088359547E+03  0.00000000000E+00 0. -1.
         23    2    1    2    0    0 -0.10329978113E+03 -0.90503787843E+02 -0.17361010475E+03  0.23900867067E+03  0.90127109072E+02 0.  0.
         23    2    1    2    0    0  0.29763916217E+02  0.90667367986E+02 -0.25675718103E+03  0.28925981999E+03  0.92954457273E+02 0.  0.
        -11    1    3    3    0    0  0.11712741545E+02 -0.16852974879E+02 -0.34377910846E+01  0.20809360498E+02  0.00000000000E+00 0.  1.
         11    1    3    3    0    0 -0.11501252268E+03 -0.73650812963E+02 -0.17017231366E+03  0.21819931017E+03  0.00000000000E+00 0. -1.
        -11    1    4    4    0    0 -0.24632805649E+02  0.33376513620E+02 -0.15488846443E+03  0.16034713340E+03  0.00000000000E+00 0. -1.
         11    1    4    4    0    0  0.54396721867E+02  0.57290854366E+02 -0.10186871660E+03  0.12891268660E+03  0.00000000000E+00 0.  1.
         21    1    1    2  502  501  0.73535864915E+02 -0.16358014295E+00 -0.39819916593E+03  0.40493224857E+03  0.00000000000E+00 0.  1.
<scales pt_clust_5="13000.00000" pt_clust_6="13000.00000" pt_clust_7="13000.00000" pt_clust_8="13000.00000" pt_clust_9="73.53605"></scales>
<clustering>
<clus scale="   73.536">  2  9  1 -1</clus>
<clus scale="   90.127">  5  6 -1 -1</clus>
<clus scale="   92.954">  7  8 -1 -1</clus>
<clus scale="  146.493">  1  5  2 -1</clus>
<clus scale="   73.536">  2  5  1 -1</clus>
</clustering>
</event>
<event>
 9    1  0.1435532E-005  0.9677904E+02  0.7546771E-02  0.1287720E+00
          1   -1    0    0  502    0  0.00000000000E+00  0.00000000000E+00  0.58735815509E+03  0.58735815509E+03  0.00000000000E+00 0. -1.
         -1   -1    0    0    0  501 -0.00000000000E+00 -0.00000000000E+00 -0.21997368140E+03  0.21997368140E+03  0.00000000000E+00 0.  1.
         23    2    1    2    0    0  0.26819870015E+02 -0.17162953858E+02 -0.20097863564E+03  0.22258361214E+03  0.90206319051E+02 0.  0.
         23    2    1    2    0    0 -0.48687103578E+02  0.34875944833E+02  0.46497106635E+03  0.47759487393E+03  0.91170200637E+02 0.  0.
        -11    1    4    4    0    0 -0.75601879420E+02  0.31313383273E+02  0.35784314654E+03  0.36708022239E+03  0.00000000000E+00 0. -1.
         11    1    4    4    0    0  0.26914775843E+02  0.35625615593E+01  0.10712791981E+03  0.11051465155E+03  0.00000000000E+00 0.  1.
        -13    1    3    3    0    0 -0.63500205433E+01  0.25178968481E+02 -0.17326928377E+02  0.31217393575E+02  0.00000000000E+00 0. -1.
         13    1    3    3    0    0  0.33169890558E+02 -0.42341922339E+02 -0.18365170727E+03  0.19136621857E+03  0.00000000000E+00 0.  1.
         21    1    1    2  502  501  0.21867233563E+02 -0.17712990975E+02  0.10339204298E+03  0.10715335042E+03  0.00000000000E+00 0. -1.
<scales pt_clust_5="13000.00000" pt_clust_6="13000.00000" pt_clust_7="13000.00000" pt_clust_8="13000.00000" pt_clust_9="28.14118"></scales>
<clustering>
<clus scale="   28.141">  1  9  2 -1</clus>
<clus scale="   90.206">  7  8 -1 -1</clus>
<clus scale="   91.170">  5  6 -1 -1</clus>
<clus scale="   95.872">  2  7  1 -1</clus>
<clus scale="   28.141">  1  5  2 -1</clus>
</clustering>
</event>
<event>
 9    1  0.1435532E-005  0.9418305E+02  0.7546771E-02  0.1293382E+00
         -1   -1    0    0    0  501 -0.00000000000E+00  0.00000000000E+00  0.71457972926E+02  0.71457972926E+02  0.00000000000E+00 0.  1.
          1   -1    0    0  502    0  0.00000000000E+00 -0.00000000000E+00 -0.35378884981E+03  0.35378884981E+03  0.00000000000E+00 0. -1.
         23    2    1    2    0    0  0.15484692390E+02 -0.35906335535E+02  0.11315497059E+02  0.98073778606E+02  0.89226593269E+02 0.  0.
         23    2    1    2    0    0 -0.16636406146E+02 -0.10852753862E+02 -0.14249481323E+03  0.16894999527E+03  0.88570744763E+02 0.  0.
        -11    1    3    3    0    0  0.14541403674E+02  0.27493338189E+02 -0.73852909391E+01  0.31966835750E+02  0.00000000000E+00 0. -1.
         11    1    3    3    0    0  0.94328871586E+00 -0.63399673725E+02  0.18700787998E+02  0.66106942856E+02  0.00000000000E+00 0.  1.
        -13    1    4    4    0    0  0.10173250329E+02 -0.43356804836E+02 -0.47946198285E+02  0.65438104174E+02  0.00000000000E+00 0.  1.
         13    1    4    4    0    0 -0.26809656475E+02  0.32504050973E+02 -0.94548614948E+02  0.10351189110E+03  0.00000000000E+00 0. -1.
         21    1    1    2  502  501  0.11517137566E+01  0.46759089398E+02 -0.15115156071E+03  0.15822304886E+03  0.00000000000E+00 0. -1.
<scales pt_clust_5="13000.00000" pt_clust_6="13000.00000" pt_clust_7="13000.00000" pt_clust_8="13000.00000" pt_clust_9="46.77327"></scales>
<clustering>
<clus scale="   46.773">  2  9  1 -1</clus>
<clus scale="   88.571">  7  8 -1 -1</clus>
<clus scale="   89.227">  5  6 -1 -1</clus>
<clus scale="   93.562">  2  7  1 -1</clus>
<clus scale="   46.773">  2  5  1 -1</clus>
</clustering>
</event>
<event>
 9    1  0.1435532E-005  0.9839523E+02  0.7546771E-02  0.1285040E+00
          1   -1    0    0  502    0  0.00000000000E+00  0.00000000000E+00  0.48587732737E+03  0.48587732737E+03  0.00000000000E+00 0. -1.
         -1   -1    0    0    0  501 -0.00000000000E+00 -0.00000000000E+00 -0.29564893313E+02  0.29564893313E+02  0.00000000000E+00 0.  1.
         23    2    1    2    0    0 -0.30622545809E+02  0.59919808397E+01  0.12141329055E+03  0.15364782122E+03  0.88841553900E+02 0.  0.
         23    2    1    2    0    0  0.44829490391E+02  0.12948437824E+02  0.19990402362E+03  0.22473872053E+03  0.91479662184E+02 0.  0.
        -13    1    4    4    0    0  0.37304943096E+02  0.32154616899E+02  0.19798883804E+03  0.20402244522E+03  0.00000000000E+00 0. -1.
         13    1    4    4    0    0  0.75245472954E+01 -0.19206179075E+02  0.19151855832E+01  0.20716275304E+02  0.00000000000E+00 0.  1.
        -13    1    3    3    0    0  0.28531406332E+02 -0.13779964514E+02  0.37496133086E+02  0.49090615861E+02  0.00000000000E+00 0.  1.
         13    1    3    3    0    0 -0.59153952141E+02  0.19771945354E+02  0.83917157461E+02  0.10455720536E+03  0.00000000000E+00 0. -1.
         21    1    1    2  502  501 -0.14206944582E+02 -0.18940418664E+02  0.13499511989E+03  0.13705567893E+03  0.00000000000E+00 0.  1.
<scales pt_clust_5="13000.00000" pt_clust_6="13000.00000" pt_clust_7="13000.00000" pt_clust_8="13000.00000" pt_clust_9="23.67650"></scales>
<clustering>
<clus scale="   23.677">  1  9  2 -1</clus>
<clus scale="   88.842">  7  8 -1 -1</clus>
<clus scale="   91.480">  5  6 -1 -1</clus>
<clus scale="   95.947">  2  7  1 -1</clus>
<clus scale="   23.677">  1  5  2 -1</clus>
</clustering>
</event>
<event>
 9    1  0.1435532E-005  0.1848531E+03  0.7546771E-02  0.1163523E+00
          1   -1    0    0  502    0  0.00000000000E+00  0.00000000000E+00  0.14420837628E+03  0.14420837628E+03  0.00000000000E+00 0.  1.
         -1   -1    0    0    0  501 -0.00000000000E+00 -0.00000000000E+00 -0.31180320159E+03  0.31180320159E+03  0.00000000000E+00 0. -1.
         23    2    1    2    0    0 -0.97159487718E+01 -0.17980725859E+03 -0.13753889833E+03  0.24341916921E+03  0.88943203710E+02 0.  0.
         23    2    1    2    0    0 -0.29546452720E+01  0.13534775536E+03 -0.30180696232E+02  0.16636247303E+03  0.91857787905E+02 0.  0.
        -11    1    4    4    0    0  0.15768359435E+01  0.82001530360E+02 -0.63128247562E+02  0.10349837213E+03  0.00000000000E+00 0.  1.
         11    1    4    4    0    0 -0.45314812155E+01  0.53346225003E+02  0.32947551331E+02  0.62864100906E+02  0.00000000000E+00 0. -1.
        -11    1    3    3    0    0 -0.27465404871E+02 -0.88424634672E+01 -0.22523840434E+02  0.36604111966E+02  0.00000000000E+00 0.  1.
         11    1    3    3    0    0  0.17749456099E+02 -0.17096479512E+03 -0.11501505789E+03  0.20681505725E+03  0.00000000000E+00 0. -1.
         21    1    1    2  502  501  0.12670594044E+02  0.44459503223E+02  0.12476924553E+00  0.46229935622E+02  0.00000000000E+00 0. -1.
<scales pt_clust_5="13000.00000" pt_clust_6="13000.00000" pt_clust_7="13000.00000" pt_clust_8="13000.00000" pt_clust_9="46.22977"></scales>
<clustering>
<clus scale="   46.230">  1  9  2 -1</clus>
<clus scale="   88.943">  7  8 -1 -1</clus>
<clus scale="   91.858">  5  6 -1 -1</clus>
<clus scale="  183.422">  2  7  1 -1</clus>
<clus scale="   46.230">  1  5  2 -1</clus>
</clustering>
</event>
<event>
 9    1  0.1435532E-005  0.1083907E+03  0.7546771E-02  0.1263642E+00
         -2   -1    0    0    0  501 -0.00000000000E+00  0.00000000000E+00  0.14450020197E+03  0.14450020197E+03  0.00000000000E+00 0.  1.
          2   -1    0    0  502    0  0.00000000000E+00 -0.00000000000E+00 -0.14584455565E+03  0.14584455565E+03  0.00000000000E+00 0. -1.
         23    2    1    2    0    0 -0.66614428174E+02  0.53725807928E+02  0.44281640266E+02  0.13035345253E+03  0.87790742358E+02 0.  0.
         23    2    1    2    0    0  0.23329375058E+02 -0.31022120768E+02 -0.42186590270E+01  0.95931796664E+02  0.87626941118E+02 0.  0.
        -11    1    3    3    0    0 -0.30498947721E+02  0.74230518423E+02  0.21948927373E+02  0.83199225298E+02  0.00000000000E+00 0. -1.
         11    1    3    3    0    0 -0.36115480453E+02 -0.20504710494E+02  0.22332712893E+02  0.47154227233E+02  0.00000000000E+00 0.  1.
        -13    1    4    4    0    0  0.42520918196E+02  0.32818319373E+01  0.22678847366E+02  0.48302474294E+02  0.00000000000E+00 0. -1.
         13    1    4    4    0    0 -0.19191543138E+02 -0.34303952705E+02 -0.26897506393E+02  0.47629322370E+02  0.00000000000E+00 0.  1.
         21    1    1    2  502  501  0.43285053116E+02 -0.22703687161E+02 -0.41407334922E+02  0.64059508422E+02  0.00000000000E+00 0. -1.
<scales pt_clust_5="13000.00000" pt_clust_6="13000.00000" pt_clust_7="13000.00000" pt_clust_8="13000.00000" pt_clust_9="48.87794"></scales>
<clustering>
<clus scale="   48.878">  2  9  1 -1</clus>
<clus scale="   87.627">  7  8 -1 -1</clus>
<clus scale="   87.791">  5  6 -1 -1</clus>
<clus scale="  108.258">  2  7  1 -1</clus>
<clus scale="   48.878">  2  5  1 -1</clus>
</clustering>
</event>
<event>
 9    1  0.1435532E-005  0.9727388E+02  0.7546771E-02  0.1286326E+00
         -2   -1    0    0    0  501 -0.00000000000E+00  0.00000000000E+00  0.43991136707E+02  0.43991136707E+02  0.00000000000E+00 0.  1.
          2   -1    0    0  502    0  0.00000000000E+00 -0.00000000000E+00 -0.41989034571E+03  0.41989034571E+03  0.00000000000E+00 0. -1.
         23    2    1    2    0    0 -0.35078572599E+02  0.25210177039E+02 -0.59701754557E+02  0.11772883365E+03  0.91813503874E+02 0.  0.
         23    2    1    2    0    0  0.87475682239E+01  0.12034220480E+02 -0.24111084111E+03  0.25829784560E+03  0.91443955110E+02 0.  0.
        -13    1    4    4    0    0  0.46440684311E+02  0.47577629649E+01 -0.79529833066E+02  0.92219129335E+02  0.00000000000E+00 0. -1.
         13    1    4    4    0    0 -0.37693116088E+02  0.72764575151E+01 -0.16158100805E+03  0.16607871626E+03  0.00000000000E+00 0.  1.
        -13    1    3    3    0    0 -0.11016660144E+02 -0.34373740574E+02 -0.13302922415E+02  0.38469320069E+02  0.00000000000E+00 0. -1.
         13    1    3    3    0    0 -0.24061912455E+02  0.59583917613E+02 -0.46398832142E+02  0.79259513582E+02  0.00000000000E+00 0.  1.
         21    1    1    2  502  501  0.26331004376E+02 -0.37244397519E+02 -0.75086613337E+02  0.87854803172E+02  0.00000000000E+00 0. -1.
<scales pt_clust_5="13000.00000" pt_clust_6="13000.00000" pt_clust_7="13000.00000" pt_clust_8="13000.00000" pt_clust_9="45.61214"></scales>
<clustering>
<clus scale="   45.612">  2  9  1 -1</clus>
<clus scale="   91.444">  5  6 -1 -1</clus>
<clus scale="   91.814">  7  8 -1 -1</clus>
<clus scale="   96.925">  2  5  1 -1</clus>
<clus scale="   45.612">  2  5  1 -1</clus>
</clustering>
</event>
<event>
 9    1  0.1435532E-005  0.1071670E+03  0.7546771E-02  0.1266204E+00
          1   -1    0    0  502    0  0.00000000000E+00  0.00000000000E+00  0.48554418698E+03  0.48554418698E+03  0.00000000000E+00 0. -1.
         -1   -1    0    0    0  501 -0.00000000000E+00 -0.00000000000E+00 -0.36704592735E+02  0.36704592735E+02  0.00000000000E+00 0.  1.
         23    2    1    2    0    0 -0.49379390466E+02  0.55199697169E+02  0.14798404291E+03  0.18938784495E+03  0.92104006910E+02 0.  0.
         23    2    1    2    0    0  0.28803227994E+02 -0.17626437061E+02  0.18060369815E+03  0.20520657122E+03  0.91387766472E+02 0.  0.
        -11    1    3    3    0    0  0.24718399627E+02  0.72365209931E+01  0.15087416118E+02  0.29849566853E+02  0.00000000000E+00 0.  1.
         11    1    3    3    0    0 -0.74097790093E+02  0.47963176176E+02  0.13289662680E+03  0.15953827810E+03  0.00000000000E+00 0. -1.
        -13    1    4    4    0    0  0.55952686110E+02 -0.19710601155E+02  0.16120496283E+03  0.17177383654E+03  0.00000000000E+00 0.  1.
         13    1    4    4    0    0 -0.27149458116E+02  0.20841640940E+01  0.19398735324E+02  0.33432734679E+02  0.00000000000E+00 0. -1.
         21    1    1    2  502  501  0.20576162472E+02 -0.37573260108E+02  0.12025185318E+03  0.12765436353E+03  0.00000000000E+00 0. -1.
<scales pt_clust_5="13000.00000" pt_clust_6="13000.00000" pt_clust_7="13000.00000" pt_clust_8="13000.00000" pt_clust_9="42.83840"></scales>
<clustering>
<clus scale="   42.838">  1  9  2 -1</clus>
<clus scale="   91.388">  7  8 -1 -1</clus>
<clus scale="   92.104">  5  6 -1 -1</clus>
<clus scale="  106.552">  1  7  2 -1</clus>
<clus scale="   42.838">  1  5  2 -1</clus>
</clustering>
</event>
<event>
 9    1  0.1435532E-005  0.1268278E+03  0.7546771E-02  0.1234401E+00
          1   -1    0    0  502    0  0.00000000000E+00  0.00000000000E+00  0.40850419358E+03  0.40850419358E+03  0.00000000000E+00 0. -1.
         -1   -1    0    0    0  501 -0.00000000000E+00 -0.00000000000E+00 -0.58860569060E+02  0.58860569060E+02  0.00000000000E+00 0.  1.
         23    2    1    2    0    0 -0.87547055530E+02 -0.22007398790E+02  0.61012257091E+02  0.14432945801E+03  0.94655609456E+02 0.  0.
         23    2    1    2    0    0  0.73672771669E+02  0.33117807000E+01  0.18969527030E+03  0.22139686110E+03  0.87141433038E+02 0.  0.
        -11    1    3    3    0    0 -0.35712182997E+02 -0.37286390436E+01 -0.23934123819E+02  0.43152115203E+02  0.00000000000E+00 0.  1.
         11    1    3    3    0    0 -0.51834872533E+02 -0.18278759747E+02  0.84946380910E+02  0.10117734281E+03  0.00000000000E+00 0. -1.
        -11    1    4    4    0    0  0.19953510136E+02  0.38007342890E+02  0.11673542930E+03  0.12437789648E+03  0.00000000000E+00 0. -1.
         11    1    4    4    0    0  0.53719261533E+02 -0.34695562190E+02  0.72959841004E+02  0.97018964614E+02  0.00000000000E+00 0.  1.
         21    1    1    2  502  501  0.13874283861E+02  0.18695618090E+02  0.98936097124E+02  0.10163844353E+03  0.00000000000E+00 0. -1.
<scales pt_clust_5="13000.00000" pt_clust_6="13000.00000" pt_clust_7="13000.00000" pt_clust_8="13000.00000" pt_clust_9="23.28136"></scales>
<clustering>
<clus scale="   23.281">  1  9  2 -1</clus>
<clus scale="   87.141">  7  8 -1 -1</clus>
<clus scale="   94.656">  5  6 -1 -1</clus>
<clus scale="  121.323">  1  7  2 -1</clus>
<clus scale="   23.281">  1  5  2 -1</clus>
</clustering>
</event>
<event>
 9    1  0.1435532E-005  0.1075579E+03  0.7546771E-02  0.1265173E+00
          1   -1    0    0  502    0  0.00000000000E+00  0.00000000000E+00  0.89644515214E+02  0.89644515214E+02  0.00000000000E+00 0. -1.
         -1   -1    0    0    0  501 -0.00000000000E+00 -0.00000000000E+00 -0.24332146163E+03  0.24332146163E+03  0.00000000000E+00 0.  1.
         23    2    1    2    0    0 -0.55132882914E+02 -0.18342809017E+02 -0.15491435046E+03  0.18864254216E+03  0.90617102765E+02 0.  0.
         23    2    1    2    0    0  0.62693463388E+02 -0.13553170027E+02 -0.43029739454E+01  0.11107871112E+03  0.90585902382E+02 0.  0.
        -11    1    3    3    0    0 -0.12984010750E+01  0.31483227744E+02 -0.28497830632E+02  0.42485360129E+02  0.00000000000E+00 0. -1.
         11    1    3    3    0    0 -0.53834481839E+02 -0.49826036761E+02 -0.12641651982E+03  0.14615718203E+03  0.00000000000E+00 0.  1.
        -13    1    4    4    0    0  0.15087557766E+02 -0.40356421748E+02 -0.28152814177E+02  0.51467039178E+02  0.00000000000E+00 0.  1.
         13    1    4    4    0    0  0.47605905622E+02  0.26803251721E+02  0.23849840232E+02  0.59611671944E+02  0.00000000000E+00 0. -1.
         21    1    1    2  502  501 -0.75605804736E+01  0.31895979045E+02  0.55403779895E+01  0.33244723560E+02  0.00000000000E+00 0.  1.
<scales pt_clust_5="13000.00000" pt_clust_6="13000.00000" pt_clust_7="13000.00000" pt_clust_8="13000.00000" pt_clust_9="32.77981"></scales>
<clustering>
<clus scale="   32.780">  1  9  2 -1</clus>
<clus scale="   90.586">  7  8 -1 -1</clus>
<clus scale="   90.617">  5  6 -1 -1</clus>
<clus scale="  107.532">  1  7  2 -1</clus>
<clus scale="   32.780">  1  5  2 -1</clus>
</clustering>
</event>
<event>
 9    1  0.1435532E-005  0.1185119E+03  0.7546771E-02  0.1248007E+00
          3   -1    0    0  502    0  0.00000000000E+00  0.00000000000E+00  0.14101816556E+03  0.14101816556E+03  0.00000000000E+00 0. -1.
         -3   -1    0    0    0  501 -0.00000000000E+00 -0.00000000000E+00 -0.14050974304E+03  0.14050974304E+03  0.00000000000E+00 0.  1.
         23    2    1    2    0    0 -0.24872603216E+02  0.47146424184E+02 -0.13392068187E+02  0.11074799953E+03  0.96147491932E+02 0.  0.
         23    2    1    2    0    0  0.56130002858E+02 -0.74222426260E+02  0.12030690014E+02  0.12938388178E+03  0.89083699865E+02 0.  0.
        -11    1    3    3    0    0  0.41630315473E+01 -0.27794898537E+02  0.43602959261E+01  0.28441156744E+02  0.00000000000E+00 0.  1.
         11    1    3    3    0    0 -0.29035634763E+02  0.74941322721E+02 -0.17752364113E+02  0.82306842783E+02  0.00000000000E+00 0. -1.
        -13    1    4    4    0    0  0.24295727294E+02 -0.68677106651E+02 -0.27907345234E+02  0.78010558648E+02  0.00000000000E+00 0.  1.
         13    1    4    4    0    0  0.31834275563E+02 -0.55453196097E+01  0.39938035247E+02  0.51373323132E+02  0.00000000000E+00 0. -1.
         21    1    1    2  502  501 -0.31257399641E+02  0.27076002076E+02  0.18698006876E+01  0.41396027290E+02  0.00000000000E+00 0. -1.
<scales pt_clust_5="13000.00000" pt_clust_6="13000.00000" pt_clust_7="13000.00000" pt_clust_8="13000.00000" pt_clust_9="41.35378"></scales>
<clustering>
<clus scale="   41.354">  1  9  2 -1</clus>
<clus scale="   89.084">  7  8 -1 -1</clus>
<clus scale="   96.147">  5  6 -1 -1</clus>
<clus scale="  112.857">  1  7  2 -1</clus>
<clus scale="   41.354">  1  5  2 -1</clus>
</clustering>
</event>
<event>
 9    1  0.1435532E-005  0.1545249E+03  0.7546771E-02  0.1195944E+00
         -1   -1    0    0    0  501 -0.00000000000E+00  0.00000000000E+00  0.36499094058E+03  0.36499094058E+03  0.00000000000E+00 0.  1.
          1   -1    0    0  502    0  0.00000000000E+00 -0.00000000000E+00 -0.12631644336E+03  0.12631644336E+03  0.00000000000E+00 0. -1.
         23    2    1    2    0    0 -0.75541030897E+02  0.85882031753E+02  0.22850866623E+03  0.27240722588E+03  0.94378575145E+02 0.  0.
         23    2    1    2    0    0  0.10778241814E+03 -0.11014302013E+03  0.42915310232E+01  0.17812504299E+03  0.89227681559E+02 0.  0.
        -11    1    3    3    0    0 -0.66301067493E+02  0.47828900856E+02  0.65483629051E+02  0.10474512390E+03  0.00000000000E+00 0. -1.
         11    1    3    3    0    0 -0.92399634041E+01  0.38053130896E+02  0.16302503717E+03  0.16766210198E+03  0.00000000000E+00 0.  1.
        -13    1    4    4    0    0  0.78892652963E+02 -0.20682474367E+02  0.16847712893E+02  0.83280615195E+02  0.00000000000E+00 0. -1.
         13    1    4    4    0    0  0.28889765182E+02 -0.89460545759E+02 -0.12556181869E+02  0.94844427791E+02  0.00000000000E+00 0.  1.
         21    1    1    2  502  501 -0.32241387248E+02  0.24260988374E+02  0.58742999724E+01  0.40775115067E+02  0.00000000000E+00 0. -1.
<scales pt_clust_5="13000.00000" pt_clust_6="13000.00000" pt_clust_7="13000.00000" pt_clust_8="13000.00000" pt_clust_9="40.34975"></scales>
<clustering>
<clus scale="   40.350">  2  9  1 -1</clus>
<clus scale="   89.228">  7  8 -1 -1</clus>
<clus scale="   94.379">  5  6 -1 -1</clus>
<clus scale="  151.434">  2  7  1 -1</clus>
<clus scale="   40.350">  2  5  1 -1</clus>
</clustering>
</event>
<event>
 9    1  0.1435532E-005  0.9429475E+02  0.7546771E-02  0.1293928E+00
         -1   -1    0    0    0  501 -0.00000000000E+00  0.00000000000E+00  0.51685229278E+03  0.51685229278E+03  0.00000000000E+00 0.  1.
          1   -1    0    0  502    0  0.00000000000E+00 -0.00000000000E+00 -0.56105291219E+02  0.56105291219E+02  0.00000000000E+00 0. -1.
         23    2    1    2    0    0 -0.69866386158E+01 -0.11611419847E+01  0.33529166410E+03  0.34742365841E+03  0.90733329232E+02 0.  0.
         23    2    1    2    0    0  0.23436506045E+02  0.47141382348E+02  0.13866180643E+03  0.17494547370E+03  0.92775225476E+02 0.  0.
        -11    1    3    3    0    0 -0.46388901600E+02 -0.15542282429E+02  0.19012958075E+03  0.19632307610E+03  0.00000000000E+00 0. -1.
         11    1    3    3    0    0  0.39402262984E+02  0.14381140444E+02  0.14516208336E+03  0.15110058231E+03  0.00000000000E+00 0.  1.
        -13    1    4    4    0    0  0.55889583014E+02  0.46781102079E+02  0.10803271687E+03  0.13031954924E+03  0.00000000000E+00 0.  1.
         13    1    4    4    0    0 -0.32453076969E+02  0.36028026876E+00  0.30629089561E+02  0.44625924461E+02  0.00000000000E+00 0. -1.
         21    1    1    2  502  501 -0.16449867429E+02 -0.45980240363E+02 -0.13206468967E+02  0.50588451892E+02  0.00000000000E+00 0. -1.
<scales pt_clust_5="13000.00000" pt_clust_6="13000.00000" pt_clust_7="13000.00000" pt_clust_8="13000.00000" pt_clust_9="48.83422"></scales>
<clustering>
<clus scale="   48.834">  2  9  1 -1</clus>
<clus scale="   90.733">  5  6 -1 -1</clus>
<clus scale="   92.286">  1  5  2 -1</clus>
<clus scale="   92.775">  7  8 -1 -1</clus>
<clus scale="   48.834">  2  5  1 -1</clus>
</clustering>
</event>
<event>
 9    1  0.1435532E-005  0.1648438E+03  0.7546771E-02  0.1183395E+00
          1   -1    0    0  502    0  0.00000000000E+00  0.00000000000E+00  0.75631057265E+03  0.75631057265E+03  0.00000000000E+00 0. -1.
         -1   -1    0    0    0  501 -0.00000000000E+00 -0.00000000000E+00 -0.53607861544E+02  0.53607861544E+02  0.00000000000E+00 0.  1.
         23    2    1    2    0    0  0.11752169634E+03  0.83704833406E+02  0.14885111564E+03  0.22662272063E+03  0.91560660931E+02 0.  0.
         23    2    1    2    0    0 -0.10242148156E+03 -0.64725291090E+02  0.40442257888E+03  0.43191120145E+03  0.91159971663E+02 0.  0.
        -13    1    4    4    0    0 -0.20371555143E+02 -0.65909115280E+02  0.20363390171E+03  0.21500180851E+03  0.00000000000E+00 0.  1.
         13    1    4    4    0    0 -0.82049926413E+02  0.11838241902E+01  0.20078867717E+03  0.21690939294E+03  0.00000000000E+00 0. -1.
        -13    1    3    3    0    0  0.81475507299E+02  0.53605355928E+01  0.93569500461E+02  0.12418633197E+03  0.00000000000E+00 0.  1.
         13    1    3    3    0    0  0.36046189045E+02  0.78344297813E+02  0.55281615183E+02  0.10243638866E+03  0.00000000000E+00 0. -1.
         21    1    1    2  502  501 -0.15100214788E+02 -0.18979542316E+02  0.14942901657E+03  0.15138451211E+03  0.00000000000E+00 0.  1.
<scales pt_clust_5="13000.00000" pt_clust_6="13000.00000" pt_clust_7="13000.00000" pt_clust_8="13000.00000" pt_clust_9="24.25365"></scales>
<clustering>
<clus scale="   24.254">  1  9  2 -1</clus>
<clus scale="   91.160">  5  6 -1 -1</clus>
<clus scale="   91.561">  7  8 -1 -1</clus>
<clus scale="  164.622">  1  5  2 -1</clus>
<clus scale="   24.254">  1  5  2 -1</clus>
</clustering>
</event>
<event>
 9    1  0.1435532E-005  0.9035013E+02  0.7546771E-02  0.1311446E+00
         -1   -1    0    0    0  501 -0.00000000000E+00  0.00000000000E+00  0.58229624483E+02  0.58229624483E+02  0.00000000000E+00 0.  1.
          1   -1    0    0  502    0  0.00000000000E+00 -0.00000000000E+00 -0.44322603116E+03  0.44322603116E+03  0.00000000000E+00 0. -1.
         23    2    1    2    0    0 -0.54903487725E+01  0.87122573906E+01  0.20104507216E+02  0.78373998533E+02  0.75048284971E+02 0.  0.
         23    2    1    2    0    0  0.14887361187E+02 -0.28330874684E+02 -0.27004733715E+03  0.28628742266E+03  0.89502246286E+02 0.  0.
        -11    1    3    3    0    0 -0.28266801909E+02  0.31846757760E+02  0.16666788262E+02  0.45727561722E+02  0.00000000000E+00 0.  1.
         11    1    3    3    0    0  0.22776453137E+02 -0.23134500370E+02  0.34377189537E+01  0.32646436811E+02  0.00000000000E+00 0. -1.
        -13    1    4    4    0    0  0.14407995540E+02 -0.56290418204E+02 -0.23140437641E+03  0.23858790191E+03  0.00000000000E+00 0. -1.
         13    1    4    4    0    0  0.47936564741E+00  0.27959543519E+02 -0.38642960741E+02  0.47699520753E+02  0.00000000000E+00 0.  1.
         21    1    1    2  502  501 -0.93970124146E+01  0.19618617294E+02 -0.13505357675E+03  0.13679423445E+03  0.00000000000E+00 0.  1.
<scales pt_clust_5="13000.00000" pt_clust_6="13000.00000" pt_clust_7="13000.00000" pt_clust_8="13000.00000" pt_clust_9="21.75302"></scales>
<clustering>
<clus scale="   21.753">  2  9  1 -1</clus>
<clus scale="   75.048">  5  6 -1 -1</clus>
<clus scale="   76.057">  1  5  2 -1</clus>
<clus scale="   89.502">  7  8 -1 -1</clus>
<clus scale="   21.753">  2  5  1 -1</clus>
</clustering>
</event>
<event>
 9    1  0.1435532E-005  0.9167150E+02  0.7546771E-02  0.1299517E+00
          2   -1    0    0  502    0  0.00000000000E+00  0.00000000000E+00  0.26309294837E+03  0.26309294837E+03  0.00000000000E+00 0. -1.
         -2   -1    0    0    0  501 -0.00000000000E+00 -0.00000000000E+00 -0.78070825765E+02  0.78070825765E+02  0.00000000000E+00 0.  1.
         23    2    1    2    0    0 -0.23629383025E+01  0.14984212396E+01  0.10427528341E+02  0.91892434654E+02  0.91255999560E+02 0.  0.
         23    2    1    2    0    0 -0.11973948278E+02  0.18081431690E+02  0.22694355470E+02  0.95444815425E+02  0.90135261757E+02 0.  0.
        -11    1    3    3    0    0  0.26900756937E+02  0.32272287692E+02  0.22612562475E+02  0.47712464392E+02  0.00000000000E+00 0.  1.
         11    1    3    3    0    0 -0.29263695240E+02 -0.30773866452E+02 -0.12185034133E+02  0.44179970262E+02  0.00000000000E+00 0. -1.
        -13    1    4    4    0    0  0.96561526601E+01  0.51698300890E+02  0.10285404190E+02  0.53588666138E+02  0.00000000000E+00 0.  1.
         13    1    4    4    0    0 -0.21630100938E+02 -0.33616869199E+02  0.12408951281E+02  0.41856149288E+02  0.00000000000E+00 0. -1.
         21    1    1    2  502  501  0.14336886580E+02 -0.19579852930E+02  0.15190023879E+03  0.15382652405E+03  0.00000000000E+00 0. -1.
<scales pt_clust_5="13000.00000" pt_clust_6="13000.00000" pt_clust_7="13000.00000" pt_clust_8="13000.00000" pt_clust_9="24.26761"></scales>
<clustering>
<clus scale="   24.268">  1  9  2 -1</clus>
<clus scale="   90.135">  7  8 -1 -1</clus>
<clus scale="   90.556">  1  7  2 -1</clus>
<clus scale="   91.256">  5  6 -1 -1</clus>
<clus scale="   24.268">  1  5  2 -1</clus>
</clustering>
</event>
<event>
 9    1  0.1435532E-005  0.9850176E+02  0.7546771E-02  0.1283484E+00
          2   -1    0    0  502    0  0.00000000000E+00  0.00000000000E+00  0.10317864711E+03  0.10317864711E+03  0.00000000000E+00 0.  1.
         -2   -1    0    0    0  501 -0.00000000000E+00 -0.00000000000E+00 -0.20956183298E+03  0.20956183298E+03  0.00000000000E+00 0. -1.
         23    2    1    2    0    0 -0.35455010166E+02 -0.24538836138E+02 -0.94358112634E+02  0.13892457901E+03  0.92397905863E+02 0.  0.
         23    2    1    2    0    0 -0.37601993634E+01  0.34338506073E+02 -0.56537663616E+02  0.11368906105E+03  0.92387353553E+02 0.  0.
        -13    1    3    3    0    0 -0.26509563430E+02  0.23833682100E+01 -0.10522948220E+03  0.10854345361E+03  0.00000000000E+00 0. -1.
         13    1    3    3    0    0 -0.89454467358E+01 -0.26922204348E+02  0.10871369566E+02  0.30381125399E+02  0.00000000000E+00 0.  1.
        -13    1    4    4    0    0  0.17695718800E+02  0.47720732765E+02  0.92935096246E+00  0.50904523303E+02  0.00000000000E+00 0.  1.
         13    1    4    4    0    0 -0.21455918164E+02 -0.13382226692E+02 -0.57467014579E+02  0.62784537747E+02  0.00000000000E+00 0. -1.
         21    1    1    2  502  501  0.39215209529E+02 -0.97996699350E+01  0.44512590381E+02  0.60126840027E+02  0.00000000000E+00 0.  1.
<scales pt_clust_5="13000.00000" pt_clust_6="13000.00000" pt_clust_7="13000.00000" pt_clust_8="13000.00000" pt_clust_9="40.42111"></scales>
<clustering>
<clus scale="   40.421">  1  9  2 -1</clus>
<clus scale="   92.387">  7  8 -1 -1</clus>
<clus scale="   92.398">  5  6 -1 -1</clus>
<clus scale="   98.492">  1  7  2 -1</clus>
<clus scale="   40.421">  1  5  2 -1</clus>
</clustering>
</event>
<event>
 9    1  0.1435532E-005  0.1432623E+03  0.7546771E-02  0.1209375E+00
          1   -1    0    0  502    0  0.00000000000E+00  0.00000000000E+00  0.10927576651E+03  0.10927576651E+03  0.00000000000E+00 0. -1.
         -1   -1    0    0    0  501 -0.00000000000E+00 -0.00000000000E+00 -0.24184033694E+03  0.24184033694E+03  0.00000000000E+00 0.  1.
         23    2    1    2    0    0  0.45585789441E+02  0.10804389573E+03 -0.10847877663E+03  0.18559973035E+03  0.94488450741E+02 0.  0.
         23    2    1    2    0    0 -0.53340025036E+02 -0.78807271158E+02 -0.25111597065E+02  0.13525153114E+03  0.92771979123E+02 0.  0.
        -13    1    4    4    0    0 -0.71427706964E+02 -0.24268525564E+02 -0.13877535644E+02  0.76703746002E+02  0.00000000000E+00 0.  1.
         13    1    4    4    0    0  0.18087681928E+02 -0.54538745594E+02 -0.11234061421E+02  0.58547785138E+02  0.00000000000E+00 0. -1.
        -13    1    3    3    0    0  0.48874493893E+02  0.14053125244E+02 -0.15055407361E+02  0.53036513585E+02  0.00000000000E+00 0. -1.
         13    1    3    3    0    0 -0.32887044525E+01  0.93990770488E+02 -0.93423369269E+02  0.13256321677E+03  0.00000000000E+00 0.  1.
         21    1    1    2  502  501  0.77542355950E+01 -0.29236624574E+02  0.10258032612E+01  0.30264841954E+02  0.00000000000E+00 0. -1.
<scales pt_clust_5="13000.00000" pt_clust_6="13000.00000" pt_clust_7="13000.00000" pt_clust_8="13000.00000" pt_clust_9="30.24745"></scales>
<clustering>
<clus scale="   30.247">  1  9  2 -1</clus>
<clus scale="   92.772">  5  6 -1 -1</clus>
<clus scale="   94.488">  7  8 -1 -1</clus>
<clus scale="  142.136">  1  5  2 -1</clus>
<clus scale="   30.247">  1  5  2 -1</clus>
</clustering>
</event>
<event>
 9    1  0.1435532E-005  0.1038502E+03  0.7546771E-02  0.1273419E+00
          2   -1    0    0  502    0  0.00000000000E+00  0.00000000000E+00  0.22973386465E+03  0.22973386465E+03  0.00000000000E+00 0. -1.
         -2   -1    0    0    0  501 -0.00000000000E+00 -0.00000000000E+00 -0.96003843253E+02  0.96003843253E+02  0.00000000000E+00 0.  1.
         23    2    1    2    0    0 -0.39770576035E+02  0.23321923352E+02 -0.35380251580E+02  0.10930646241E+03  0.92577155367E+02 0.  0.
         23    2    1    2    0    0  0.22716759548E+02 -0.42816835124E+02  0.15780534963E+03  0.18817022050E+03  0.90311521836E+02 0.  0.
        -13    1    3    3    0    0  0.25301425348E+02  0.11608055332E+02 -0.32962486452E+02  0.43144345937E+02  0.00000000000E+00 0.  1.
         13    1    3    3    0    0 -0.65072001383E+02  0.11713868020E+02 -0.24177651275E+01  0.66162116473E+02  0.00000000000E+00 0. -1.
        -13    1    4    4    0    0  0.13319660024E+02 -0.61538371814E+02  0.15466318588E+03  0.16698827988E+03  0.00000000000E+00 0.  1.
         13    1    4    4    0    0  0.93970995240E+01  0.18721536690E+02  0.31421637468E+01  0.21181940622E+02  0.00000000000E+00 0. -1.
         21    1    1    2  502  501  0.17053816488E+02  0.19494911772E+02  0.11304923348E+02  0.28261024994E+02  0.00000000000E+00 0. -1.
<scales pt_clust_5="13000.00000" pt_clust_6="13000.00000" pt_clust_7="13000.00000" pt_clust_8="13000.00000" pt_clust_9="25.90143"></scales>
<clustering>
<clus scale="   25.901">  2  9  1 -1</clus>
<clus scale="   90.312">  7  8 -1 -1</clus>
<clus scale="   92.577">  5  6 -1 -1</clus>
<clus scale="  101.836">  1  7  2 -1</clus>
<clus scale="  101.836">  1  5  2 -1</clus>
</clustering>
</event>
<event>
 9    1  0.1435532E-005  0.1076672E+03  0.7546771E-02  0.1265604E+00
         -1   -1    0    0    0  501 -0.00000000000E+00  0.00000000000E+00  0.23649644707E+02  0.23649644707E+02  0.00000000000E+00 0.  1.
          1   -1    0    0  502    0  0.00000000000E+00 -0.00000000000E+00 -0.84659308119E+03  0.84659308119E+03  0.00000000000E+00 0. -1.
         23    2    1    2    0    0  0.41811889565E+02 -0.59984310636E+02 -0.22533671869E+03  0.25438839020E+03  0.92684759516E+02 0.  0.
         23    2    1    2    0    0 -0.27728419288E+02  0.16995611265E+02 -0.31091746166E+03  0.32561804922E+03  0.91102853808E+02 0.  0.
        -13    1    3    3    0    0 -0.41682540574E+01 -0.57151078644E+02 -0.60900610724E+02  0.83621196587E+02  0.00000000000E+00 0.  1.
         13    1    3    3    0    0  0.45980143623E+02 -0.28332319919E+01 -0.16443610797E+03  0.17076719361E+03  0.00000000000E+00 0. -1.
        -13    1    4    4    0    0  0.32469993309E+02  0.13885624051E+02 -0.13989743896E+03  0.14428584285E+03  0.00000000000E+00 0. -1.
         13    1    4    4    0    0 -0.60198412597E+02  0.31099872143E+01 -0.17102002270E+03  0.18133220637E+03  0.00000000000E+00 0.  1.
         21    1    1    2  502  501 -0.14083470277E+02  0.42988699371E+02 -0.28668925614E+03  0.29023628648E+03  0.00000000000E+00 0.  1.
<scales pt_clust_5="13000.00000" pt_clust_6="13000.00000" pt_clust_7="13000.00000" pt_clust_8="13000.00000" pt_clust_9="45.23685"></scales>
<clustering>
<clus scale="   45.237">  2  9  1 -1</clus>
<clus scale="   91.103">  7  8 -1 -1</clus>
<clus scale="   92.685">  5  6 -1 -1</clus>
<clus scale="  106.308">  2  7  1 -1</clus>
<clus scale="   45.237">  2  5  1 -1</clus>
</clustering>
</event>
<event>
 9    1  0.1435532E-005  0.1029689E+03  0.7546771E-02  0.1276597E+00
         -3   -1    0    0    0  501 -0.00000000000E+00  0.00000000000E+00  0.56123256510E+02  0.56123256510E+02  0.00000000000E+00 0.  1.
          3   -1    0    0  502    0  0.00000000000E+00 -0.00000000000E+00 -0.38895318071E+03  0.38895318071E+03  0.00000000000E+00 0. -1.
         23    2    1    2    0    0 -0.42357799987E+02 -0.26348490823E+02 -0.63044992276E+02  0.12459778766E+03  0.95191971570E+02 0.  0.
         23    2    1    2    0    0  0.34510079879E+02 -0.36679008512E+02 -0.12325983644E+03  0.16078000839E+03  0.90116194664E+02 0.  0.
        -11    1    4    4    0    0  0.40945860672E+02  0.18329423608E+02 -0.36425696566E+02  0.57787218710E+02  0.00000000000E+00 0. -1.
         11    1    4    4    0    0 -0.64357807927E+01 -0.55008432120E+02 -0.86834139877E+02  0.10299278968E+03  0.00000000000E+00 0.  1.
        -13    1    3    3    0    0  0.23702733143E+02 -0.29622212348E+02 -0.38492925890E+02  0.54046279857E+02  0.00000000000E+00 0.  1.
         13    1    3    3    0    0 -0.66060533130E+02  0.32737215248E+01 -0.24552066386E+02  0.70551507807E+02  0.00000000000E+00 0. -1.
         21    1    1    2  502  501  0.78477201079E+01  0.63027499335E+02 -0.14652509548E+03  0.15969864116E+03  0.00000000000E+00 0. -1.
<scales pt_clust_5="13000.00000" pt_clust_6="13000.00000" pt_clust_7="13000.00000" pt_clust_8="13000.00000" pt_clust_9="63.51419"></scales>
<clustering>
<clus scale="   63.514">  2  9  1 -1</clus>
<clus scale="   90.116">  5  6 -1 -1</clus>
<clus scale="   95.192">  7  8 -1 -1</clus>
<clus scale="   98.296">  2  5  1 -1</clus>
<clus scale="   63.514">  2  5  1 -1</clus>
</clustering>
</event>
<event>
 9    1  0.1435532E-005  0.1097834E+03  0.7546771E-02  0.1266136E+00
          2   -1    0    0  502    0  0.00000000000E+00  0.00000000000E+00  0.16320307306E+03  0.16320307306E+03  0.00000000000E+00 0. -1.
         -2   -1    0    0    0  501 -0.00000000000E+00 -0.00000000000E+00 -0.31865440139E+03  0.31865440139E+03  0.00000000000E+00 0.  1.
         23    2    1    2    0    0  0.66906667028E+01  0.57285194690E+02 -0.19673386738E+03  0.22455488546E+03  0.91620540588E+02 0.  0.
         23    2    1    2    0    0  0.24099620479E+02 -0.66153870038E+02 -0.79610377540E+02  0.13223543715E+03  0.78684638897E+02 0.  0.
        -11    1    3    3    0    0  0.16460580131E+02  0.80080222245E+02 -0.13240938633E+03  0.15561503231E+03  0.00000000000E+00 0. -1.
         11    1    3    3    0    0 -0.97699134284E+01 -0.22795027556E+02 -0.64324481043E+02  0.68939853141E+02  0.00000000000E+00 0.  1.
        -13    1    4    4    0    0  0.53005740125E+02 -0.43141641063E+02 -0.56323968781E+02  0.88561837939E+02  0.00000000000E+00 0.  1.
         13    1    4    4    0    0 -0.28906119645E+02 -0.23012228975E+02 -0.23286408758E+02  0.43673599213E+02  0.00000000000E+00 0. -1.
         21    1    1    2  502  501 -0.30790287182E+02  0.88686753488E+01  0.12089291659E+03  0.12506715183E+03  0.00000000000E+00 0. -1.
<scales pt_clust_5="13000.00000" pt_clust_6="13000.00000" pt_clust_7="13000.00000" pt_clust_8="13000.00000" pt_clust_9="32.04208"></scales>
<clustering>
<clus scale="   32.042">  1  9  2 -1</clus>
<clus scale="   78.685">  7  8 -1 -1</clus>
<clus scale="   91.621">  5  6 -1 -1</clus>
<clus scale="   99.244">  1  7  2 -1</clus>
<clus scale="   32.042">  1  5  2 -1</clus>
</clustering>
</event>
<event>
 9    1  0.1435532E-005  0.9631298E+02  0.7546771E-02  0.1288367E+00
         -1   -1    0    0    0  501 -0.00000000000E+00  0.00000000000E+00  0.48819771216E+03  0.48819771216E+03  0.00000000000E+00 0.  1.
          1   -1    0    0  502    0  0.00000000000E+00 -0.00000000000E+00 -0.83845337708E+02  0.83845337708E+02  0.00000000000E+00 0. -1.
         23    2    1    2    0    0 -0.11415109265E+02 -0.22741436886E+02  0.37172241163E+03  0.38367056748E+03  0.91531827092E+02 0.  0.
         23    2    1    2    0    0  0.22573981836E+02  0.43219392209E+02  0.83124456464E+02  0.13275269292E+03  0.91302254610E+02 0.  0.
        -13    1    4    4    0    0  0.57813985862E+02  0.26280289459E+02  0.42789628294E+02  0.76577169345E+02  0.00000000000E+00 0.  1.
         13    1    4    4    0    0 -0.35240004026E+02  0.16939102750E+02  0.40334828170E+02  0.56175523578E+02  0.00000000000E+00 0. -1.
        -13    1    3    3    0    0 -0.27904072879E+02 -0.51772414879E+02  0.18957312392E+03  0.19848674902E+03  0.00000000000E+00 0. -1.
         13    1    3    3    0    0  0.16488963614E+02  0.29030977992E+02  0.18214928771E+03  0.18518381846E+03  0.00000000000E+00 0.  1.
         21    1    1    2  502  501 -0.11158872571E+02 -0.20477955323E+02 -0.50494493646E+02  0.55619789463E+02  0.00000000000E+00 0. -1.
<scales pt_clust_5="13000.00000" pt_clust_6="13000.00000" pt_clust_7="13000.00000" pt_clust_8="13000.00000" pt_clust_9="23.32096"></scales>
<clustering>
<clus scale="   23.321">  2  9  1 -1</clus>
<clus scale="   91.302">  5  6 -1 -1</clus>
<clus scale="   91.532">  7  8 -1 -1</clus>
<clus scale="   96.095">  2  5  1 -1</clus>
<clus scale="   23.321">  2  5  1 -1</clus>
</clustering>
</event>
<event>
 9    1  0.1435532E-005  0.1161310E+03  0.7546771E-02  0.1249939E+00
          2   -1    0    0  502    0  0.00000000000E+00  0.00000000000E+00  0.91698347427E+02  0.91698347427E+02  0.00000000000E+00 0. -1.
         -2   -1    0    0    0  501 -0.00000000000E+00 -0.00000000000E+00 -0.35397202478E+03  0.35397202478E+03  0.00000000000E+00 0.  1.
         23    2    1    2    0    0 -0.57389579611E+01 -0.61064372959E+02 -0.19198001073E+03  0.22084411437E+03  0.90299529608E+02 0.  0.
         23    2    1    2    0    0  0.12507459709E+02  0.93036534246E+02 -0.11169232655E+03  0.17208272026E+03  0.91241731400E+02 0.  0.
        -11    1    4    4    0    0  0.19338986936E+02  0.45603281119E+02 -0.11380049624E+03  0.12411369227E+03  0.00000000000E+00 0.  1.
         11    1    4    4    0    0 -0.68315272270E+01  0.47433253127E+02  0.21081696938E+01  0.47969027986E+02  0.00000000000E+00 0. -1.
        -13    1    3    3    0    0  0.13414059150E+02 -0.70897618012E+02 -0.18440734050E+03  0.19802140403E+03  0.00000000000E+00 0.  1.
         13    1    3    3    0    0 -0.19153017111E+02  0.98332450523E+01 -0.75726702246E+01  0.22822710335E+02  0.00000000000E+00 0. -1.
         21    1    1    2  502  501 -0.67685017482E+01 -0.31972161286E+02  0.41398659924E+02  0.52743537582E+02  0.00000000000E+00 0. -1.
<scales pt_clust_5="13000.00000" pt_clust_6="13000.00000" pt_clust_7="13000.00000" pt_clust_8="13000.00000" pt_clust_9="32.68075"></scales>
<clustering>
<clus scale="   32.681">  1  9  2 -1</clus>
<clus scale="   90.300">  7  8 -1 -1</clus>
<clus scale="   91.242">  5  6 -1 -1</clus>
<clus scale="  115.392">  2  7  1 -1</clus>
<clus scale="   32.681">  1  5  2 -1</clus>
</clustering>
</event>
<event>
 9    1  0.1435532E-005  0.9973177E+02  0.7546771E-02  0.1281469E+00
         -1   -1    0    0    0  501 -0.00000000000E+00  0.00000000000E+00  0.10746375078E+03  0.10746375078E+03  0.00000000000E+00 0.  1.
          1   -1    0    0  502    0  0.00000000000E+00 -0.00000000000E+00 -0.17940179097E+03  0.17940179097E+03  0.00000000000E+00 0. -1.
         23    2    1    2    0    0 -0.24859522519E+02  0.52898383328E+01  0.11563630886E+01  0.95366220551E+02  0.91909741578E+02 0.  0.
         23    2    1    2    0    0  0.52520086713E+02 -0.24386995667E+01  0.86414520669E+01  0.10516285235E+03  0.90665561582E+02 0.  0.
        -11    1    3    3    0    0  0.16002604770E+02  0.39145268811E+02  0.95875653523E+00  0.42300764105E+02  0.00000000000E+00 0.  1.
         11    1    3    3    0    0 -0.40862127289E+02 -0.33855430479E+02  0.19760655337E+00  0.53065456446E+02  0.00000000000E+00 0. -1.
        -13    1    4    4    0    0  0.74146036149E+02 -0.20058745841E+02  0.42990670139E+01  0.76931592590E+02  0.00000000000E+00 0. -1.
         13    1    4    4    0    0 -0.21625949436E+02  0.17620046274E+02  0.43423850530E+01  0.28231259761E+02  0.00000000000E+00 0.  1.
         21    1    1    2  502  501 -0.27660564193E+02 -0.28511387661E+01 -0.81735855342E+02  0.86336468843E+02  0.00000000000E+00 0. -1.
<scales pt_clust_5="13000.00000" pt_clust_6="13000.00000" pt_clust_7="13000.00000" pt_clust_8="13000.00000" pt_clust_9="27.80712"></scales>
<clustering>
<clus scale="   27.807">  2  9  1 -1</clus>
<clus scale="   90.666">  7  8 -1 -1</clus>
<clus scale="   91.910">  5  6 -1 -1</clus>
<clus scale="   98.586">  2  7  1 -1</clus>
<clus scale="   27.807">  2  5  1 -1</clus>
</clustering>
</event>
<event>
 9    1  0.1435532E-005  0.1093210E+03  0.7546771E-02  0.1264304E+00
         -3   -1    0    0    0  501 -0.00000000000E+00  0.00000000000E+00  0.91147120899E+02  0.91147120899E+02  0.00000000000E+00 0.  1.
          3   -1    0    0  502    0  0.00000000000E+00 -0.00000000000E+00 -0.24753558236E+03  0.24753558236E+03  0.00000000000E+00 0. -1.
         23    2    1    2    0    0  0.42986990482E+02  0.56172633862E+02 -0.82279540687E+00  0.11452374579E+03  0.90065338570E+02 0.  0.
         23    2    1    2    0    0 -0.22462872903E+02  0.25620188002E+01 -0.10436063279E+03  0.14358008768E+03  0.95984140883E+02 0.  0.
        -11    1    4    4    0    0 -0.48756651263E+01  0.48050908214E+02 -0.39284758801E+02  0.62257161554E+02  0.00000000000E+00 0.  1.
         11    1    4    4    0    0 -0.17587207777E+02 -0.45488889414E+02 -0.65075873991E+02  0.81322926123E+02  0.00000000000E+00 0. -1.
        -13    1    3    3    0    0 -0.20348602179E+02  0.34974633957E+02 -0.19860307996E+02  0.45074632164E+02  0.00000000000E+00 0. -1.
         13    1    3    3    0    0  0.63335592661E+02  0.21197999905E+02  0.19037512589E+02  0.69449113625E+02  0.00000000000E+00 0.  1.
         21    1    1    2  502  501 -0.20524117579E+02 -0.58734652662E+02 -0.51205033266E+02  0.80578869796E+02  0.00000000000E+00 0. -1.
<scales pt_clust_5="13000.00000" pt_clust_6="13000.00000" pt_clust_7="13000.00000" pt_clust_8="13000.00000" pt_clust_9="62.21735"></scales>
<clustering>
<clus scale="   62.217">  2  9  1 -1</clus>
<clus scale="   90.065">  7  8 -1 -1</clus>
<clus scale="   95.984">  5  6 -1 -1</clus>
<clus scale="  104.163">  1  7  2 -1</clus>
<clus scale="   62.217">  2  5  1 -1</clus>
</clustering>
</event>
<event>
 9    1  0.1435532E-005  0.1067896E+03  0.7546771E-02  0.1268303E+00
         -3   -1    0    0    0  501 -0.00000000000E+00  0.00000000000E+00  0.16833834820E+03  0.16833834820E+03  0.00000000000E+00 0.  1.
          3   -1    0    0  502    0  0.00000000000E+00 -0.00000000000E+00 -0.10283818990E+03  0.10283818990E+03  0.00000000000E+00 0. -1.
         23    2    1    2    0    0  0.53715309650E+02  0.41155076740E+01  0.78822719165E+02  0.13209235902E+03  0.91285805912E+02 0.  0.
         23    2    1    2    0    0 -0.33152527174E+02 -0.29227392032E+02 -0.26812049184E+01  0.10492758067E+03  0.95127692193E+02 0.  0.
        -13    1    4    4    0    0  0.23703658933E+02  0.99357771073E+01 -0.21345966190E+02  0.33410079110E+02  0.00000000000E+00 0.  1.
         13    1    4    4    0    0 -0.56856186107E+02 -0.39163169140E+02  0.18664761272E+02  0.71517501558E+02  0.00000000000E+00 0. -1.
        -13    1    3    3    0    0  0.28892622106E+02  0.35311334506E+02  0.80124880221E+02  0.92204503074E+02  0.00000000000E+00 0. -1.
         13    1    3    3    0    0  0.24822687544E+02 -0.31195826832E+02 -0.13021610559E+01  0.39887855947E+02  0.00000000000E+00 0.  1.
         21    1    1    2  502  501 -0.20562782475E+02  0.25111884358E+02 -0.10641355943E+02  0.34156598418E+02  0.00000000000E+00 0. -1.
<scales pt_clust_5="13000.00000" pt_clust_6="13000.00000" pt_clust_7="13000.00000" pt_clust_8="13000.00000" pt_clust_9="32.45666"></scales>
<clustering>
<clus scale="   32.457">  2  9  1 -1</clus>
<clus scale="   91.286">  7  8 -1 -1</clus>
<clus scale="   95.128">  5  6 -1 -1</clus>
<clus scale="  103.382">  1  7  2 -1</clus>
<clus scale="   32.457">  2  5  1 -1</clus>
</clustering>
</event>
<event>
 9    1  0.1435532E-005  0.1027827E+03  0.7546771E-02  0.1275254E+00
          3   -1    0    0  502    0  0.00000000000E+00  0.00000000000E+00  0.43437779459E+03  0.43437779459E+03  0.00000000000E+00 0. -1.
         -3   -1    0    0    0  501 -0.00000000000E+00 -0.00000000000E+00 -0.65546091440E+02  0.65546091440E+02  0.00000000000E+00 0.  1.
         23    2    1    2    0    0 -0.47611197532E+02  0.38598938936E+01 -0.62515430238E+01  0.10406703723E+03  0.92245008195E+02 0.  0.
         23    2    1    2    0    0  0.32328943621E+02  0.18838983775E+02  0.27028120858E+03  0.28754132167E+03  0.90708390203E+02 0.  0.
        -11    1    3    3    0    0  0.19345215626E+02  0.16599891355E+02  0.18561847081E+02  0.31533092581E+02  0.00000000000E+00 0. -1.
         11    1    3    3    0    0 -0.66956413158E+02 -0.12739997462E+02 -0.24813390105E+02  0.72533944652E+02  0.00000000000E+00 0.  1.
        -13    1    4    4    0    0  0.20152954502E+02 -0.28507826649E+02  0.44670656582E+02  0.56694843812E+02  0.00000000000E+00 0.  1.
         13    1    4    4    0    0  0.12175989119E+02  0.47346810424E+02  0.22561055200E+03  0.23084647786E+03  0.00000000000E+00 0. -1.
         21    1    1    2  502  501  0.15282253911E+02 -0.22698877669E+02  0.10480203759E+03  0.10831552712E+03  0.00000000000E+00 0.  1.
<scales pt_clust_5="13000.00000" pt_clust_6="13000.00000" pt_clust_7="13000.00000" pt_clust_8="13000.00000" pt_clust_9="27.36396"></scales>
<clustering>
<clus scale="   27.364">  1  9  2 -1</clus>
<clus scale="   90.708">  7  8 -1 -1</clus>
<clus scale="   92.245">  5  6 -1 -1</clus>
<clus scale="  101.406">  1  7  2 -1</clus>
<clus scale="   27.364">  1  5  2 -1</clus>
</clustering>
</event>
<event>
 9    1  0.1435532E-005  0.1241339E+03  0.7546771E-02  0.1236676E+00
          1   -1    0    0  502    0  0.00000000000E+00  0.00000000000E+00  0.30162642413E+02  0.30162642413E+02  0.00000000000E+00 0. -1.
         -1   -1    0    0    0  501 -0.00000000000E+00 -0.00000000000E+00 -0.84209074545E+03  0.84209074545E+03  0.00000000000E+00 0.  1.
         23    2    1    2    0    0  0.91493418499E+02 -0.65300065009E+01 -0.52324198595E+03  0.53946364085E+03  0.93942308456E+02 0.  0.
         23    2    1    2    0    0 -0.61672849568E+02 -0.31919007910E+02 -0.21730188040E+03  0.24639934079E+03  0.93113717990E+02 0.  0.
        -11    1    4    4    0    0 -0.85139504089E+02 -0.22268203590E+02 -0.14326611806E+03  0.16813622046E+03  0.00000000000E+00 0. -1.
         11    1    4    4    0    0  0.23466654521E+02 -0.96508043202E+01 -0.74035762339E+02  0.78263120329E+02  0.00000000000E+00 0.  1.
        -11    1    3    3    0    0 -0.10525241177E+02 -0.21337618485E+02 -0.53640657724E+02  0.58680446705E+02  0.00000000000E+00 0. -1.
         11    1    3    3    0    0  0.10201865968E+03  0.14807611984E+02 -0.46960132823E+03  0.48078319414E+03  0.00000000000E+00 0.  1.
         21    1    1    2  502  501 -0.29820568931E+02  0.38449014411E+02 -0.71384236689E+02  0.86390406228E+02  0.00000000000E+00 0. -1.
<scales pt_clust_5="13000.00000" pt_clust_6="13000.00000" pt_clust_7="13000.00000" pt_clust_8="13000.00000" pt_clust_9="48.65792"></scales>
<clustering>
<clus scale="   48.658">  1  9  2 -1</clus>
<clus scale="   93.114">  5  6 -1 -1</clus>
<clus scale="   93.942">  7  8 -1 -1</clus>
<clus scale="  123.508">  1  5  2 -1</clus>
<clus scale="   48.658">  1  5  2 -1</clus>
</clustering>
</event>
<event>
 9    1  0.1435532E-005  0.2492297E+03  0.7546771E-02  0.1114015E+00
         -1   -1    0    0    0  501 -0.00000000000E+00  0.00000000000E+00  0.13196442786E+04  0.13196442786E+04  0.00000000000E+00 0.  1.
          1   -1    0    0  502    0  0.00000000000E+00 -0.00000000000E+00 -0.11293393834E+03  0.11293393834E+03  0.00000000000E+00 0. -1.
         23    2    1    2    0    0 -0.72938303051E+02 -0.21046267490E+03  0.83428762008E+03  0.86815576575E+03  0.89688722822E+02 0.  0.
         23    2    1    2    0    0  0.26837655175E+02  0.25432718220E+03  0.40875805854E+03  0.49114474968E+03  0.93474271203E+02 0.  0.
        -11    1    3    3    0    0 -0.27815188182E+02 -0.66419237552E+02  0.13759152882E+03  0.15529529489E+03  0.00000000000E+00 0.  1.
         11    1    3    3    0    0 -0.45123114869E+02 -0.14404343735E+03  0.69669609126E+03  0.71286047086E+03  0.00000000000E+00 0. -1.
        -11    1    4    4    0    0 -0.25740380177E+02  0.10561376247E+03  0.11857737420E+03  0.16086462528E+03  0.00000000000E+00 0. -1.
         11    1    4    4    0    0  0.52578035351E+02  0.14871341973E+03  0.29018068434E+03  0.33028012440E+03  0.00000000000E+00 0.  1.
         21    1    1    2  502  501  0.46100647876E+02 -0.43864507294E+02 -0.36335338314E+02  0.73277701555E+02  0.00000000000E+00 0. -1.
<scales pt_clust_5="13000.00000" pt_clust_6="13000.00000" pt_clust_7="13000.00000" pt_clust_8="13000.00000" pt_clust_9="63.63462"></scales>
<clustering>
<clus scale="   63.635">  2  9  1 -1</clus>
<clus scale="   89.689">  5  6 -1 -1</clus>
<clus scale="   93.474">  7  8 -1 -1</clus>
<clus scale="  247.835">  1  5  2 -1</clus>
<clus scale="   63.635">  2  5  1 -1</clus>
</clustering>
</event>
<event>
 9    1  0.1435532E-005  0.1568738E+03  0.7546771E-02  0.1192794E+00
         -1   -1    0    0    0  501 -0.00000000000E+00  0.00000000000E+00  0.45250697776E+03  0.45250697776E+03  0.00000000000E+00 0.  1.
          1   -1    0    0  502    0  0.00000000000E+00 -0.00000000000E+00 -0.25494760118E+03  0.25494760118E+03  0.00000000000E+00 0. -1.
         23    2    1    2    0    0 -0.12481912913E+03 -0.73611141570E+02  0.33882915100E+03  0.38054462464E+03  0.94924194046E+02 0.  0.
         23    2    1    2    0    0  0.41580719603E+02  0.78140024017E+02  0.34648448133E+02  0.13224006803E+03  0.91935308990E+02 0.  0.
        -11    1    4    4    0    0 -0.16125445806E+02  0.12793358720E+02  0.39906660731E+02  0.44902578996E+02  0.00000000000E+00 0.  1.
         11    1    4    4    0    0  0.57706165409E+02  0.65346665297E+02 -0.52582125973E+01  0.87337489037E+02  0.00000000000E+00 0. -1.
        -11    1    3    3    0    0 -0.41117667923E+02  0.16271291501E+02  0.50368737256E+02  0.67025571503E+02  0.00000000000E+00 0. -1.
         11    1    3    3    0    0 -0.83701461210E+02 -0.89882433071E+02  0.28846041374E+03  0.31351905313E+03  0.00000000000E+00 0.  1.
         21    1    1    2  502  501  0.83238409529E+02 -0.45288824469E+01 -0.17591822255E+03  0.19466988627E+03  0.00000000000E+00 0. -1.
<scales pt_clust_5="13000.00000" pt_clust_6="13000.00000" pt_clust_7="13000.00000" pt_clust_8="13000.00000" pt_clust_9="83.36152"></scales>
<clustering>
<clus scale="   83.362">  2  9  1 -1</clus>
<clus scale="   91.935">  5  6 -1 -1</clus>
<clus scale="   94.924">  7  8 -1 -1</clus>
<clus scale="  155.084">  2  5  1 -1</clus>
<clus scale="   83.362">  2  5  1 -1</clus>
</clustering>
</event>
<event>
 9    1  0.1435532E-005  0.1214119E+03  0.7546771E-02  0.1241251E+00
          2   -1    0    0  502    0  0.00000000000E+00  0.00000000000E+00  0.27537844771E+02  0.27537844771E+02  0.00000000000E+00 0. -1.
         -2   -1    0    0    0  501 -0.00000000000E+00 -0.00000000000E+00 -0.64825524314E+03  0.64825524314E+03  0.00000000000E+00 0.  1.
         23    2    1    2    0    0  0.11620034641E+02 -0.67453961258E+02 -0.27783541319E+03  0.30076570911E+03  0.92641420866E+02 0.  0.
         23    2    1    2    0    0 -0.23780555523E+02  0.84817486094E+02 -0.25687135450E+03  0.28644296226E+03  0.91143607022E+02 0.  0.
        -11    1    4    4    0    0  0.29054406704E+02  0.49234749637E+02 -0.79044230932E+02  0.97551061318E+02  0.00000000000E+00 0.  1.
         11    1    4    4    0    0 -0.52834962227E+02  0.35582736457E+02 -0.17782712356E+03  0.18889190094E+03  0.00000000000E+00 0. -1.
        -13    1    3    3    0    0  0.13589157756E+02  0.21534905724E+02 -0.76654113305E+02  0.80772956239E+02  0.00000000000E+00 0.  1.
         13    1    3    3    0    0 -0.19691231155E+01 -0.88988866982E+02 -0.20118129988E+03  0.21999275287E+03  0.00000000000E+00 0. -1.
         21    1    1    2  502  501  0.12160520883E+02 -0.17363524836E+02 -0.86010630685E+02  0.88584416540E+02  0.00000000000E+00 0.  1.
<scales pt_clust_5="13000.00000" pt_clust_6="13000.00000" pt_clust_7="13000.00000" pt_clust_8="13000.00000" pt_clust_9="21.19836"></scales>
<clustering>
<clus scale="   21.198">  2  9  1 -1</clus>
<clus scale="   91.144">  5  6 -1 -1</clus>
<clus scale="   92.641">  7  8 -1 -1</clus>
<clus scale="  120.273">  1  5  2 -1</clus>
<clus scale="  120.273">  1  5  2 -1</clus>
</clustering>
</event>
<event>
 9    1  0.1435532E-005  0.9585403E+02  0.7546771E-02  0.1289828E+00
          1   -1    0    0  502    0  0.00000000000E+00  0.00000000000E+00  0.10752571054E+03  0.10752571054E+03  0.00000000000E+00 0. -1.
         -1   -1    0    0    0  501 -0.00000000000E+00 -0.00000000000E+00 -0.17546626831E+03  0.17546626831E+03  0.00000000000E+00 0.  1.
         23    2    1    2    0    0 -0.35931196799E+02 -0.13816212312E+02 -0.10738408935E+03  0.14554833284E+03  0.90393782537E+02 0.  0.
         23    2    1    2    0    0  0.81406924480E+00 -0.38204630277E+01  0.20422658364E+02  0.93785215176E+02  0.91451205374E+02 0.  0.
        -11    1    3    3    0    0  0.85506131018E+00  0.36112843344E+02 -0.42867897541E+02  0.56058230652E+02  0.00000000000E+00 0.  1.
         11    1    3    3    0    0 -0.36786258109E+02 -0.49929055656E+02 -0.64516191805E+02  0.89490102187E+02  0.00000000000E+00 0. -1.
        -11    1    4    4    0    0 -0.26294047727E+02  0.35249692309E+02  0.93300463973E+01  0.44955172333E+02  0.00000000000E+00 0.  1.
         11    1    4    4    0    0  0.27108116972E+02 -0.39070155337E+02  0.11092611966E+02  0.48830042843E+02  0.00000000000E+00 0. -1.
         21    1    1    2  502  501  0.35117127554E+02  0.17636675340E+02  0.19020873213E+02  0.43658430830E+02  0.00000000000E+00 0. -1.
<scales pt_clust_5="13000.00000" pt_clust_6="13000.00000" pt_clust_7="13000.00000" pt_clust_8="13000.00000" pt_clust_9="39.29714"></scales>
<clustering>
<clus scale="   39.297">  1  9  2 -1</clus>
<clus scale="   90.394">  5  6 -1 -1</clus>
<clus scale="   91.451">  7  8 -1 -1</clus>
<clus scale="   94.846">  2  5  1 -1</clus>
<clus scale="   39.297">  1  5  2 -1</clus>
</clustering>
</event>
<event>
 9    1  0.1435532E-005  0.1064305E+03  0.7546771E-02  0.1267665E+00
         -1   -1    0    0    0  501 -0.00000000000E+00  0.00000000000E+00  0.31537949374E+03  0.31537949374E+03  0.00000000000E+00 0.  1.
          1   -1    0    0  502    0  0.00000000000E+00 -0.00000000000E+00 -0.84493061475E+02  0.84493061475E+02  0.00000000000E+00 0. -1.
         23    2    1    2    0    0 -0.60071312421E+02 -0.70787674664E+02  0.86552461230E+02  0.15583978674E+03  0.90417106387E+02 0.  0.
         23    2    1    2    0    0  0.44451415100E+02  0.35639872743E+01  0.20340707487E+02  0.10212669128E+03  0.89596240887E+02 0.  0.
        -11    1    4    4    0    0 -0.75090611595E+01  0.31527958112E+02 -0.12333016752E+02  0.34677102595E+02  0.00000000000E+00 0.  1.
         11    1    4    4    0    0  0.51960476260E+02 -0.27963970837E+02  0.32673724239E+02  0.67449588685E+02  0.00000000000E+00 0. -1.
        -11    1    3    3    0    0  0.41844535823E+01 -0.64228387545E+02  0.50936773694E+02  0.82081364102E+02  0.00000000000E+00 0. -1.
         11    1    3    3    0    0 -0.64255766003E+02 -0.65592871184E+01  0.35615687536E+02  0.73758422643E+02  0.00000000000E+00 0.  1.
         21    1    1    2  502  501  0.15619897320E+02  0.67223687390E+02  0.12399326355E+03  0.14190607719E+03  0.00000000000E+00 0. -1.
<scales pt_clust_5="13000.00000" pt_clust_6="13000.00000" pt_clust_7="13000.00000" pt_clust_8="13000.00000" pt_clust_9="69.01453"></scales>
<clustering>
<clus scale="   69.015">  1  9  2 -1</clus>
<clus scale="   89.596">  5  6 -1 -1</clus>
<clus scale="   90.417">  7  8 -1 -1</clus>
<clus scale="  105.734">  2  5  1 -1</clus>
<clus scale="  105.734">  2  5  1 -1</clus>
</clustering>
</event>
<event>
 9    1  0.1435532E-005  0.1338164E+03  0.7546771E-02  0.1222906E+00
         -1   -1    0    0    0  501 -0.00000000000E+00  0.00000000000E+00  0.54459788101E+03  0.54459788101E+03  0.00000000000E+00 0.  1.
          1   -1    0    0  502    0  0.00000000000E+00 -0.00000000000E+00 -0.24904517757E+03  0.24904517757E+03  0.00000000000E+00 0. -1.
         23    2    1    2    0    0 -0.86537678285E+02  0.41878774159E+02  0.45083812776E+03  0.46910570061E+03  0.86962862279E+02 0.  0.
         23    2    1    2    0    0  0.74280244315E+02 -0.10390813054E+03 -0.19322943671E-01  0.15689056266E+03  0.91105400447E+02 0.  0.
        -11    1    3    3    0    0 -0.43196783117E+02  0.66834860828E+02  0.27093521536E+03  0.28238050856E+03  0.00000000000E+00 0. -1.
         11    1    3    3    0    0 -0.43340895169E+02 -0.24956086669E+02  0.17990291240E+03  0.18672519205E+03  0.00000000000E+00 0.  1.
        -13    1    4    4    0    0  0.43409069413E+02 -0.11551457506E+03 -0.51700572117E+01  0.12350989374E+03  0.00000000000E+00 0. -1.
         13    1    4    4    0    0  0.30871174902E+02  0.11606444522E+02  0.51507342681E+01  0.33380668924E+02  0.00000000000E+00 0.  1.
         21    1    1    2  502  501  0.12257433970E+02  0.62029356384E+02 -0.15526610137E+03  0.16764679530E+03  0.00000000000E+00 0. -1.
<scales pt_clust_5="13000.00000" pt_clust_6="13000.00000" pt_clust_7="13000.00000" pt_clust_8="13000.00000" pt_clust_9="63.22884"></scales>
<clustering>
<clus scale="   63.229">  2  9  1 -1</clus>
<clus scale="   86.963">  5  6 -1 -1</clus>
<clus scale="   91.105">  7  8 -1 -1</clus>
<clus scale="  131.031">  1  5  2 -1</clus>
<clus scale="   63.229">  2  5  1 -1</clus>
</clustering>
</event>
<event>
 9    1  0.1435532E-005  0.1142662E+03  0.7546771E-02  0.1254101E+00
         -2   -1    0    0    0  501 -0.00000000000E+00  0.00000000000E+00  0.42944815231E+02  0.42944815231E+02  0.00000000000E+00 0.  1.
          2   -1    0    0  502    0  0.00000000000E+00 -0.00000000000E+00 -0.59890782589E+03  0.59890782589E+03  0.00000000000E+00 0. -1.
         23    2    1    2    0    0  0.23139462325E+00  0.83516462064E+02 -0.15242570709E+03  0.19745507994E+03  0.93700904130E+02 0.  0.
         23    2    1    2    0    0 -0.45748868473E+02 -0.38464303894E+02 -0.16463500399E+03  0.19706004658E+03  0.90307894334E+02 0.  0.
        -11    1    4    4    0    0 -0.20202917224E-01 -0.55690537861E+02 -0.61708213327E+02  0.83122439855E+02  0.00000000000E+00 0. -1.
         11    1    4    4    0    0 -0.45728665556E+02  0.17226233967E+02 -0.10292679066E+03  0.11393760672E+03  0.00000000000E+00 0.  1.
        -13    1    3    3    0    0  0.26105265762E+02  0.85169218506E+02 -0.77167894775E+02  0.11785654273E+03  0.00000000000E+00 0.  1.
         13    1    3    3    0    0 -0.25873871139E+02 -0.16527564413E+01 -0.75257812312E+02  0.79598537207E+02  0.00000000000E+00 0. -1.
         21    1    1    2  502  501  0.45517473850E+02 -0.45052158170E+02 -0.23890229959E+03  0.24733751461E+03  0.00000000000E+00 0. -1.
<scales pt_clust_5="13000.00000" pt_clust_6="13000.00000" pt_clust_7="13000.00000" pt_clust_8="13000.00000" pt_clust_9="64.04325"></scales>
<clustering>
<clus scale="   64.043">  2  9  1 -1</clus>
<clus scale="   90.308">  5  6 -1 -1</clus>
<clus scale="   93.701">  7  8 -1 -1</clus>
<clus scale="  111.501">  2  5  1 -1</clus>
<clus scale="   64.043">  2  5  1 -1</clus>
</clustering>
</event>
<event>
 9    1  0.1435532E-005  0.1091046E+03  0.7546771E-02  0.1262755E+00
         -1   -1    0    0    0  501 -0.00000000000E+00  0.00000000000E+00  0.10445034281E+03  0.10445034281E+03  0.00000000000E+00 0.  1.
          1   -1    0    0  502    0  0.00000000000E+00 -0.00000000000E+00 -0.25112371417E+03  0.25112371417E+03  0.00000000000E+00 0. -1.
         23    2    1    2    0    0 -0.45287100713E+02  0.40297168111E+02  0.50147650468E+02  0.12041775775E+03  0.91163952768E+02 0.  0.
         23    2    1    2    0    0  0.40954816210E+02 -0.18350424662E+02 -0.17958319321E+03  0.20691500018E+03  0.92464365890E+02 0.  0.
        -11    1    3    3    0    0 -0.31609966373E+02  0.66734695428E+02  0.52432672874E+02  0.90564312688E+02  0.00000000000E+00 0.  1.
         11    1    3    3    0    0 -0.13677134340E+02 -0.26437527317E+02 -0.22850224064E+01  0.29853445057E+02  0.00000000000E+00 0. -1.
        -11    1    4    4    0    0  0.59086267856E+02 -0.42262838640E+02 -0.13164212138E+03  0.15035618610E+03  0.00000000000E+00 0.  1.
         11    1    4    4    0    0 -0.18131451646E+02  0.23912413978E+02 -0.47941071832E+02  0.56558814074E+02  0.00000000000E+00 0. -1.
         21    1    1    2  502  501  0.43322845028E+01 -0.21946743449E+02 -0.17237828625E+02  0.28241299063E+02  0.00000000000E+00 0.  1.
<scales pt_clust_5="13000.00000" pt_clust_6="13000.00000" pt_clust_7="13000.00000" pt_clust_8="13000.00000" pt_clust_9="22.37025"></scales>
<clustering>
<clus scale="   22.370">  2  9  1 -1</clus>
<clus scale="   91.164">  5  6 -1 -1</clus>
<clus scale="   92.464">  7  8 -1 -1</clus>
<clus scale="  108.005">  1  5  2 -1</clus>
<clus scale="   22.370">  2  5  1 -1</clus>
</clustering>
</event>
<event>
 9    1  0.1435532E-005  0.1007194E+03  0.7546771E-02  0.1281585E+00
         -1   -1    0    0    0  501 -0.00000000000E+00  0.00000000000E+00  0.22278461605E+03  0.22278461605E+03  0.00000000000E+00 0.  1.
          1   -1    0    0  502    0  0.00000000000E+00 -0.00000000000E+00 -0.59200993815E+02  0.59200993815E+02  0.00000000000E+00 0. -1.
         23    2    1    2    0    0  0.20901770309E+02  0.19979009591E+02  0.93778323362E+02  0.13507194147E+03  0.92811694378E+02 0.  0.
         23    2    1    2    0    0 -0.20762712659E+02  0.85005235423E+01  0.52124619674E+02  0.11339189097E+03  0.98170238997E+02 0.  0.
        -11    1    3    3    0    0 -0.10742297836E+02  0.19677153971E+02  0.10028855580E+03  0.10276371818E+03  0.00000000000E+00 0.  1.
         11    1    3    3    0    0  0.31644068145E+02  0.30185562028E+00 -0.65102324336E+01  0.32308223286E+02  0.00000000000E+00 0. -1.
        -11    1    4    4    0    0 -0.32606658526E+02  0.35165311844E+02  0.65594876207E+02  0.81255652862E+02  0.00000000000E+00 0.  1.
         11    1    4    4    0    0  0.11843945867E+02 -0.26664788301E+02 -0.13470256533E+02  0.32136238111E+02  0.00000000000E+00 0. -1.
         21    1    1    2  502  501 -0.13905764992E+00 -0.28479533133E+02  0.17680679196E+02  0.33521777419E+02  0.00000000000E+00 0.  1.
<scales pt_clust_5="13000.00000" pt_clust_6="13000.00000" pt_clust_7="13000.00000" pt_clust_8="13000.00000" pt_clust_9="28.47987"></scales>
<clustering>
<clus scale="   28.480">  2  9  1 -1</clus>
<clus scale="   92.812">  5  6 -1 -1</clus>
<clus scale="   95.504">  1  5  2 -1</clus>
<clus scale="   98.170">  7  8 -1 -1</clus>
<clus scale="   28.480">  2  5  1 -1</clus>
</clustering>
</event>
<event>
 9    1  0.1435532E-005  0.1144795E+03  0.7546771E-02  0.1261227E+00
          1   -1    0    0  502    0  0.00000000000E+00  0.00000000000E+00  0.27153194476E+03  0.27153194476E+03  0.00000000000E+00 0. -1.
         -1   -1    0    0    0  501 -0.00000000000E+00 -0.00000000000E+00 -0.74947115822E+02  0.74947115822E+02  0.00000000000E+00 0.  1.
         23    2    1    2    0    0 -0.45365658224E+01 -0.10098518554E+02  0.71047075189E+02  0.11568960471E+03  0.90630222550E+02 0.  0.
         23    2    1    2    0    0  0.53480226227E+02  0.26287139500E+02  0.12847629082E+03  0.17915430948E+03  0.10972219922E+03 0.  0.
        -11    1    4    4    0    0  0.41133577308E+02  0.68330429957E+02  0.94815874708E+02  0.12389943074E+03  0.00000000000E+00 0.  1.
         11    1    4    4    0    0  0.12346648919E+02 -0.42043290457E+02  0.33660416115E+02  0.55254878744E+02  0.00000000000E+00 0. -1.
        -13    1    3    3    0    0 -0.31390951940E+02 -0.86078636124E+01  0.80776590566E+02  0.87088143643E+02  0.00000000000E+00 0. -1.
         13    1    3    3    0    0  0.26854386118E+02 -0.14906549412E+01 -0.97295153772E+01  0.28601461071E+02  0.00000000000E+00 0.  1.
         21    1    1    2  502  501 -0.48943660405E+02 -0.16188620946E+02 -0.29385370781E+01  0.51635146384E+02  0.00000000000E+00 0. -1.
<scales pt_clust_5="13000.00000" pt_clust_6="13000.00000" pt_clust_7="13000.00000" pt_clust_8="13000.00000" pt_clust_9="51.55146"></scales>
<clustering>
<clus scale="   51.551">  2  9  1 -1</clus>
<clus scale="   90.630">  7  8 -1 -1</clus>
<clus scale="   96.335">  2  7  1 -1</clus>
<clus scale="  109.722">  5  6 -1 -1</clus>
<clus scale="  114.479">  1  5  2 -1</clus>
</clustering>
</event>
<event>
 9    1  0.1435532E-005  0.9922192E+02  0.7546771E-02  0.1282509E+00
          3   -1    0    0  502    0  0.00000000000E+00  0.00000000000E+00  0.54214151131E+03  0.54214151131E+03  0.00000000000E+00 0. -1.
         -3   -1    0    0    0  501 -0.00000000000E+00 -0.00000000000E+00 -0.56736564608E+02  0.56736564608E+02  0.00000000000E+00 0.  1.
         23    2    1    2    0    0  0.23517199537E+02  0.36450868877E+02  0.43907195031E+02  0.11087483209E+03  0.92106797255E+02 0.  0.
         23    2    1    2    0    0 -0.61366180266E+02  0.44492506755E+02  0.26082404382E+03  0.28644093556E+03  0.90960631572E+02 0.  0.
        -11    1    3    3    0    0  0.33717420653E+02  0.59499071809E+02  0.10754412652E+02  0.69229050211E+02  0.00000000000E+00 0.  1.
         11    1    3    3    0    0 -0.10200221116E+02 -0.23048202932E+02  0.33152782379E+02  0.41645781883E+02  0.00000000000E+00 0. -1.
        -13    1    4    4    0    0  0.21453960682E+02 -0.46787952650E+01  0.53769204370E+02  0.58080038677E+02  0.00000000000E+00 0.  1.
         13    1    4    4    0    0 -0.82820140947E+02  0.49171302020E+02  0.20705483944E+03  0.22836089689E+03  0.00000000000E+00 0. -1.
         21    1    1    2  502  501  0.37848980728E+02 -0.80943375632E+02  0.18067370786E+03  0.20156230826E+03  0.00000000000E+00 0.  1.
<scales pt_clust_5="13000.00000" pt_clust_6="13000.00000" pt_clust_7="13000.00000" pt_clust_8="13000.00000" pt_clust_9="89.35533"></scales>
<clustering>
<clus scale="   89.355">  1  9  2 -1</clus>
<clus scale="   90.961">  7  8 -1 -1</clus>
<clus scale="   92.107">  5  6 -1 -1</clus>
<clus scale="   98.159">  1  7  2 -1</clus>
<clus scale="   89.355">  1  5  2 -1</clus>
</clustering>
</event>
<event>
 9    1  0.1435532E-005  0.9235314E+02  0.7546771E-02  0.1298907E+00
         -2   -1    0    0    0  501 -0.00000000000E+00  0.00000000000E+00  0.47884510458E+02  0.47884510458E+02  0.00000000000E+00 0.  1.
          2   -1    0    0  502    0  0.00000000000E+00 -0.00000000000E+00 -0.38158876993E+03  0.38158876993E+03  0.00000000000E+00 0. -1.
         23    2    1    2    0    0  0.25104647003E+01 -0.59381868763E+01 -0.39774296812E+02  0.97415672635E+02  0.88691905446E+02 0.  0.
         23    2    1    2    0    0 -0.32751518987E+02 -0.12398979125E+02 -0.12171532866E+03  0.15624903804E+03  0.91502699291E+02 0.  0.
        -11    1    3    3    0    0 -0.15453590198E+02  0.26035775149E+02 -0.50783654962E+02  0.59124061505E+02  0.00000000000E+00 0. -1.
         11    1    3    3    0    0  0.17964054898E+02 -0.31973962025E+02  0.11009358150E+02  0.38291611129E+02  0.00000000000E+00 0.  1.
        -13    1    4    4    0    0  0.98201953590E+01 -0.39345759556E+02 -0.26259141323E+02  0.48312188265E+02  0.00000000000E+00 0. -1.
         13    1    4    4    0    0 -0.42571714346E+02  0.26946780431E+02 -0.95456187336E+02  0.10793684977E+03  0.00000000000E+00 0.  1.
         21    1    1    2  502  501  0.30241054287E+02  0.18337166001E+02 -0.17221463400E+03  0.17580856972E+03  0.00000000000E+00 0. -1.
<scales pt_clust_5="13000.00000" pt_clust_6="13000.00000" pt_clust_7="13000.00000" pt_clust_8="13000.00000" pt_clust_9="35.36627"></scales>
<clustering>
<clus scale="   35.366">  2  9  1 -1</clus>
<clus scale="   88.692">  5  6 -1 -1</clus>
<clus scale="   89.569">  1  5  2 -1</clus>
<clus scale="   91.503">  7  8 -1 -1</clus>
<clus scale="   35.366">  2  5  1 -1</clus>
</clustering>
</event>
<event>
 9    1  0.1435532E-005  0.9427929E+02  0.7546771E-02  0.1293209E+00
          1   -1    0    0  502    0  0.00000000000E+00  0.00000000000E+00  0.90925192291E+03  0.90925192291E+03  0.00000000000E+00 0. -1.
         -1   -1    0    0    0  501 -0.00000000000E+00 -0.00000000000E+00 -0.14972200994E+02  0.14972200994E+02  0.00000000000E+00 0.  1.
         23    2    1    2    0    0  0.25841862720E+01 -0.51138249708E+01  0.23961725857E+03  0.25692769662E+03  0.92534217783E+02 0.  0.
         23    2    1    2    0    0 -0.32119792633E+02  0.67627791268E+01  0.47042624527E+03  0.48070045964E+03  0.93245178927E+02 0.  0.
        -11    1    4    4    0    0  0.32437343517E+02  0.66862939092E+00  0.11909024945E+03  0.12343061141E+03  0.00000000000E+00 0.  1.
         11    1    4    4    0    0 -0.64557136150E+02  0.60941497358E+01  0.35133599583E+03  0.35726984823E+03  0.00000000000E+00 0. -1.
        -11    1    3    3    0    0 -0.35233392472E+02  0.11985567297E+02  0.47314988252E+02  0.60197623556E+02  0.00000000000E+00 0. -1.
         11    1    3    3    0    0  0.37817578744E+02 -0.17099392268E+02  0.19230227032E+03  0.19673007306E+03  0.00000000000E+00 0.  1.
         21    1    1    2  502  501  0.29535606361E+02 -0.16489541560E+01  0.18423621807E+03  0.18659596764E+03  0.00000000000E+00 0. -1.
<scales pt_clust_5="13000.00000" pt_clust_6="13000.00000" pt_clust_7="13000.00000" pt_clust_8="13000.00000" pt_clust_9="29.58160"></scales>
<clustering>
<clus scale="   29.582">  1  9  2 -1</clus>
<clus scale="   92.534">  7  8 -1 -1</clus>
<clus scale="   93.245">  5  6 -1 -1</clus>
<clus scale="   93.576">  2  7  1 -1</clus>
<clus scale="   29.582">  1  5  2 -1</clus>
</clustering>
</event>
<event>
 9    1  0.1435532E-005  0.9711475E+02  0.7546771E-02  0.1287521E+00
          2   -1    0    0  502    0  0.00000000000E+00  0.00000000000E+00  0.18198918093E+03  0.18198918093E+03  0.00000000000E+00 0. -1.
         -2   -1    0    0    0  501 -0.00000000000E+00 -0.00000000000E+00 -0.21375486071E+03  0.21375486071E+03  0.00000000000E+00 0.  1.
         23    2    1    2    0    0  0.13684184468E+02  0.20811847006E+02 -0.17248848513E+03  0.19729648675E+03  0.92483708305E+02 0.  0.
         23    2    1    2    0    0  0.20389413736E+02 -0.94208998813E+01  0.12734255166E+03  0.16010964988E+03  0.94416592681E+02 0.  0.
        -11    1    3    3    0    0  0.41632378180E+02 -0.78929723801E+01 -0.37827065918E+02  0.56801767947E+02  0.00000000000E+00 0.  1.
         11    1    3    3    0    0 -0.27948193712E+02  0.28704819386E+02 -0.13466141922E+03  0.14049471881E+03  0.00000000000E+00 0. -1.
        -13    1    4    4    0    0  0.16004341721E+02 -0.50298702941E+02  0.91180278140E+02  0.10535626034E+03  0.00000000000E+00 0.  1.
         13    1    4    4    0    0  0.43850720146E+01  0.40877803060E+02  0.36162273524E+02  0.54753389539E+02  0.00000000000E+00 0. -1.
         21    1    1    2  502  501 -0.34073598204E+02 -0.11390947125E+02  0.13380253690E+02  0.38337905000E+02  0.00000000000E+00 0.  1.
<scales pt_clust_5="13000.00000" pt_clust_6="13000.00000" pt_clust_7="13000.00000" pt_clust_8="13000.00000" pt_clust_9="35.92720"></scales>
<clustering>
<clus scale="   35.927">  1  9  2 -1</clus>
<clus scale="   92.484">  5  6 -1 -1</clus>
<clus scale="   94.417">  7  8 -1 -1</clus>
<clus scale="   95.237">  2  5  1 -1</clus>
<clus scale="   35.927">  1  5  2 -1</clus>
</clustering>
</event>
<event>
 9    1  0.1435532E-005  0.9883617E+02  0.7546771E-02  0.1283043E+00
          1   -1    0    0  502    0  0.00000000000E+00  0.00000000000E+00  0.39866785553E+02  0.39866785553E+02  0.00000000000E+00 0. -1.
         -1   -1    0    0    0  501 -0.00000000000E+00 -0.00000000000E+00 -0.51465459776E+03  0.51465459776E+03  0.00000000000E+00 0.  1.
         23    2    1    2    0    0  0.15981728101E+02  0.25882952815E+02 -0.35081128442E+03  0.36515402219E+03  0.96662090646E+02 0.  0.
         23    2    1    2    0    0 -0.43605933886E+01  0.57107330421E+01 -0.12221899601E+03  0.15565830187E+03  0.96126982204E+02 0.  0.
        -11    1    3    3    0    0 -0.27206584556E+02  0.43437508449E+02 -0.13589147211E+03  0.14523604090E+03  0.00000000000E+00 0. -1.
         11    1    3    3    0    0  0.43188312657E+02 -0.17554555634E+02 -0.21491981231E+03  0.21991798129E+03  0.00000000000E+00 0.  1.
        -13    1    4    4    0    0  0.28582092916E+01 -0.41340027754E+02 -0.87257783211E+02  0.96597556832E+02  0.00000000000E+00 0.  1.
         13    1    4    4    0    0 -0.72188026802E+01  0.47050760796E+02 -0.34961212798E+02  0.59060745033E+02  0.00000000000E+00 0. -1.
         21    1    1    2  502  501 -0.11621134713E+02 -0.31593685857E+02 -0.17575317813E+01  0.33709059258E+02  0.00000000000E+00 0.  1.
<scales pt_clust_5="13000.00000" pt_clust_6="13000.00000" pt_clust_7="13000.00000" pt_clust_8="13000.00000" pt_clust_9="33.66321"></scales>
<clustering>
<clus scale="   33.663">  1  9  2 -1</clus>
<clus scale="   96.127">  7  8 -1 -1</clus>
<clus scale="   96.662">  5  6 -1 -1</clus>
<clus scale="   98.313">  1  7  2 -1</clus>
<clus scale="   33.663">  1  5  2 -1</clus>
</clustering>
</event>
<event>
 9    1  0.1435532E-005  0.1104825E+03  0.7546771E-02  0.1259691E+00
          2   -1    0    0  502    0  0.00000000000E+00  0.00000000000E+00  0.36451877212E+03  0.36451877212E+03  0.00000000000E+00 0. -1.
         -2   -1    0    0    0  501 -0.00000000000E+00 -0.00000000000E+00 -0.94841455934E+02  0.94841455934E+02  0.00000000000E+00 0.  1.
         23    2    1    2    0    0  0.89128974062E+02  0.21251681586E+02 -0.18692889318E+02  0.13077751237E+03  0.91420597483E+02 0.  0.
         23    2    1    2    0    0 -0.55377271121E+02 -0.16886843082E+02  0.26777521268E+03  0.28880353776E+03  0.91389886041E+02 0.  0.
        -13    1    4    4    0    0  0.15076926621E+02  0.22737441214E+02  0.72179768842E+02  0.77163618237E+02  0.00000000000E+00 0.  1.
         13    1    4    4    0    0 -0.70454197742E+02 -0.39624284297E+02  0.19559544384E+03  0.21163991952E+03  0.00000000000E+00 0. -1.
        -13    1    3    3    0    0  0.72222510286E+02  0.49333188875E+02 -0.34951807797E+02  0.94188552303E+02  0.00000000000E+00 0.  1.
         13    1    3    3    0    0  0.16906463775E+02 -0.28081507289E+02  0.16258918478E+02  0.36588960071E+02  0.00000000000E+00 0. -1.
         21    1    1    2  502  501 -0.33751702941E+02 -0.43648385033E+01  0.20594992822E+02  0.39779177919E+02  0.00000000000E+00 0.  1.
<scales pt_clust_5="13000.00000" pt_clust_6="13000.00000" pt_clust_7="13000.00000" pt_clust_8="13000.00000" pt_clust_9="34.03277"></scales>
<clustering>
<clus scale="   34.033">  2  9  1 -1</clus>
<clus scale="   91.390">  5  6 -1 -1</clus>
<clus scale="   91.421">  7  8 -1 -1</clus>
<clus scale="  110.457">  1  5  2 -1</clus>
<clus scale="  110.457">  1  5  2 -1</clus>
</clustering>
</event>
<event>
 9    1  0.1435532E-005  0.1245092E+03  0.7546771E-02  0.1236396E+00
          1   -1    0    0  502    0  0.00000000000E+00  0.00000000000E+00  0.43285764738E+03  0.43285764738E+03  0.00000000000E+00 0. -1.
         -1   -1    0    0    0  501 -0.00000000000E+00 -0.00000000000E+00 -0.10241069497E+03  0.10241069497E+03  0.00000000000E+00 0.  1.
         23    2    1    2    0    0 -0.93277855032E+02 -0.22927537707E+02 -0.15859094193E+02  0.13266513352E+03  0.90122675050E+02 0.  0.
         23    2    1    2    0    0  0.68239683901E+02 -0.74808748284E+01  0.90522966174E+02  0.14380489778E+03  0.88163616493E+02 0.  0.
        -11    1    4    4    0    0  0.13503684473E+02  0.36902135686E+02  0.19935702398E+02  0.44063015588E+02  0.00000000000E+00 0. -1.
         11    1    4    4    0    0  0.54735999428E+02 -0.44383010515E+02  0.70587263776E+02  0.99741882192E+02  0.00000000000E+00 0.  1.
        -11    1    3    3    0    0 -0.59862672479E+02 -0.62666301819E-01 -0.51314615667E+02  0.78846263478E+02  0.00000000000E+00 0.  1.
         11    1    3    3    0    0 -0.33415182553E+02 -0.22864871406E+02  0.35455521474E+02  0.53818870041E+02  0.00000000000E+00 0. -1.
         21    1    1    2  502  501  0.25038171131E+02  0.30408412536E+02  0.25578308044E+03  0.25879831105E+03  0.00000000000E+00 0. -1.
<scales pt_clust_5="13000.00000" pt_clust_6="13000.00000" pt_clust_7="13000.00000" pt_clust_8="13000.00000" pt_clust_9="39.39012"></scales>
<clustering>
<clus scale="   39.390">  1  9  2 -1</clus>
<clus scale="   88.164">  5  6 -1 -1</clus>
<clus scale="   90.123">  7  8 -1 -1</clus>
<clus scale="  123.099">  1  5  2 -1</clus>
<clus scale="   39.390">  1  5  2 -1</clus>
</clustering>
</event>
<event>
 9    1  0.1435532E-005  0.3050891E+03  0.7546771E-02  0.1123356E+00
         -1   -1    0    0    0  501 -0.00000000000E+00  0.00000000000E+00  0.57700777260E+03  0.57700777260E+03  0.00000000000E+00 0.  1.
          1   -1    0    0  502    0  0.00000000000E+00 -0.00000000000E+00 -0.38007534429E+03  0.38007534429E+03  0.00000000000E+00 0. -1.
         23    2    1    2    0    0  0.42070110701E+02  0.28626109079E+00  0.28574405683E+03  0.30508569271E+03  0.98273280832E+02 0.  0.
         23    2    1    2    0    0 -0.28214699243E+03  0.11512332271E+03 -0.18703514879E+03  0.36808873972E+03  0.87446375862E+02 0.  0.
        -11    1    4    4    0    0 -0.65492703678E+02  0.12464510368E+02 -0.83739514423E+02  0.10703721096E+03  0.00000000000E+00 0.  1.
         11    1    4    4    0    0 -0.21665428876E+03  0.10265881234E+03 -0.10329563437E+03  0.26105152876E+03  0.00000000000E+00 0. -1.
        -13    1    3    3    0    0  0.58561689898E+02 -0.19491884444E+02  0.26478381128E+03  0.27188209173E+03  0.00000000000E+00 0.  1.
         13    1    3    3    0    0 -0.16491579197E+02  0.19778145535E+02  0.20960245541E+02  0.33203600984E+02  0.00000000000E+00 0. -1.
         21    1    1    2  502  501  0.24007688173E+03 -0.11540958380E+03  0.98223520272E+02  0.28390868446E+03  0.00000000000E+00 0.  1.
<scales pt_clust_5="13000.00000" pt_clust_6="13000.00000" pt_clust_7="13000.00000" pt_clust_8="13000.00000" pt_clust_9="292.28837"></scales>
<clustering>
<clus scale="   87.446">  5  6 -1 -1</clus>
<clus scale="   98.273">  7  8 -1 -1</clus>
<clus scale="  106.900">  1  7  2 -1</clus>
<clus scale="  292.288">  1  9  2 -1</clus>
<clus scale="  305.089">  2  5  1 -1</clus>
</clustering>
</event>
<event>
 9    1  0.1435532E-005  0.9888143E+02  0.7546771E-02  0.1283028E+00
         -1   -1    0    0    0  501 -0.00000000000E+00  0.00000000000E+00  0.28241740627E+03  0.28241740627E+03  0.00000000000E+00 0.  1.
          1   -1    0    0  502    0  0.00000000000E+00 -0.00000000000E+00 -0.73457335838E+02  0.73457335838E+02  0.00000000000E+00 0. -1.
         23    2    1    2    0    0  0.43431251634E+02  0.27161606989E+01  0.19552935714E+03  0.22072828856E+03  0.92712441024E+02 0.  0.
         23    2    1    2    0    0 -0.68816976941E+01 -0.12210796346E+02  0.23679988657E+02  0.96017619609E+02  0.91990108719E+02 0.  0.
        -13    1    4    4    0    0 -0.13018571906E+02  0.38868796155E+02  0.15988837346E+02  0.43998970996E+02  0.00000000000E+00 0.  1.
         13    1    4    4    0    0  0.61368742122E+01 -0.51079592500E+02  0.76911513111E+01  0.52018648614E+02  0.00000000000E+00 0. -1.
        -13    1    3    3    0    0  0.48503189464E+02 -0.36108066517E+02  0.92507605236E+02  0.11051700721E+03  0.00000000000E+00 0. -1.
         13    1    3    3    0    0 -0.50719378306E+01  0.38824227216E+02  0.10302175191E+03  0.11021128136E+03  0.00000000000E+00 0.  1.
         21    1    1    2  502  501 -0.36549553939E+02  0.94946356467E+01 -0.10249275370E+02  0.39128833932E+02  0.00000000000E+00 0. -1.
<scales pt_clust_5="13000.00000" pt_clust_6="13000.00000" pt_clust_7="13000.00000" pt_clust_8="13000.00000" pt_clust_9="37.76265"></scales>
<clustering>
<clus scale="   37.763">  2  9  1 -1</clus>
<clus scale="   91.990">  5  6 -1 -1</clus>
<clus scale="   92.712">  7  8 -1 -1</clus>
<clus scale="   98.204">  2  5  1 -1</clus>
<clus scale="   37.763">  2  5  1 -1</clus>
</clustering>
</event>
<event>
 9    1  0.1484326E-005  0.2453966E+03  0.7546771E-02  0.1116447E+00
          2   -1    0    0  502    0  0.00000000000E+00  0.00000000000E+00  0.65835393483E+03  0.65835393483E+03  0.00000000000E+00 0. -1.
         -2   -1    0    0    0  501 -0.00000000000E+00 -0.00000000000E+00 -0.24236009237E+03  0.24236009237E+03  0.00000000000E+00 0.  1.
         23    2    1    2    0    0  0.20737531113E+03 -0.63863787200E+02 -0.13894739968E+03  0.27360590390E+03  0.92036448170E+02 0.  0.
         23    2    1    2    0    0 -0.20917821838E+03  0.93231092862E+02  0.54183056300E+03  0.59489664982E+03  0.88736132723E+02 0.  0.
        -13    1    4    4    0    0 -0.37664935863E+02  0.59137665175E+02  0.17479400213E+03  0.18833176581E+03  0.00000000000E+00 0.  1.
         13    1    4    4    0    0 -0.17151328251E+03  0.34093427686E+02  0.36703656087E+03  0.40656488400E+03  0.00000000000E+00 0. -1.
        -13    1    3    3    0    0  0.85401380067E+02 -0.65687821855E+02 -0.34843783556E+02  0.11323592588E+03  0.00000000000E+00 0. -1.
         13    1    3    3    0    0  0.12197393106E+03  0.18240346554E+01 -0.10410361612E+03  0.16036997802E+03  0.00000000000E+00 0.  1.
         21    1    1    2  502  501  0.18029072452E+01 -0.29367305662E+02  0.13110679139E+02  0.32211473482E+02  0.00000000000E+00 0.  1.
<scales pt_clust_5="13000.00000" pt_clust_6="13000.00000" pt_clust_7="13000.00000" pt_clust_8="13000.00000" pt_clust_9="29.42260"></scales>
<clustering>
<clus scale="   29.423">  2  9  1 -1</clus>
<clus scale="   88.736">  5  6 -1 -1</clus>
<clus scale="   92.036">  7  8 -1 -1</clus>
<clus scale="  244.178">  1  5  2 -1</clus>
<clus scale="  244.178">  1  5  2 -1</clus>
</clustering>
</event>
<event>
 9    1  0.1435532E-005  0.1036408E+03  0.7546771E-02  0.1278688E+00
          4   -1    0    0  502    0  0.00000000000E+00  0.00000000000E+00  0.12945199842E+03  0.12945199842E+03  0.00000000000E+00 0. -1.
         -4   -1    0    0    0  501 -0.00000000000E+00 -0.00000000000E+00 -0.10750553632E+03  0.10750553632E+03  0.00000000000E+00 0.  1.
         23    2    1    2    0    0  0.12386949537E+02 -0.19199713148E+02 -0.13076991320E+02  0.94980709012E+02  0.91259311189E+02 0.  0.
         23    2    1    2    0    0 -0.17342501012E+02 -0.13189540666E+02  0.24306566193E+02  0.10750259006E+03  0.10242690752E+03 0.  0.
        -11    1    4    4    0    0 -0.29793500149E+02  0.23957125736E+02 -0.24126869389E+02  0.45207326300E+02  0.00000000000E+00 0.  1.
         11    1    4    4    0    0  0.12450999137E+02 -0.37146666402E+02  0.48433435582E+02  0.62295263757E+02  0.00000000000E+00 0. -1.
        -13    1    3    3    0    0 -0.30635033233E+02  0.10506002026E+02  0.14939307867E+02  0.35666009859E+02  0.00000000000E+00 0.  1.
         13    1    3    3    0    0  0.43021982770E+02 -0.29705715174E+02 -0.28016299187E+02  0.59314699153E+02  0.00000000000E+00 0. -1.
         21    1    1    2  502  501  0.49555514743E+01  0.32389253814E+02  0.10716887234E+02  0.34474235670E+02  0.00000000000E+00 0.  1.
<scales pt_clust_5="13000.00000" pt_clust_6="13000.00000" pt_clust_7="13000.00000" pt_clust_8="13000.00000" pt_clust_9="32.76616"></scales>
<clustering>
<clus scale="   32.766">  1  9  2 -1</clus>
<clus scale="   91.259">  7  8 -1 -1</clus>
<clus scale="   92.620">  2  7  1 -1</clus>
<clus scale="  102.427">  5  6 -1 -1</clus>
<clus scale="   32.766">  1  5  2 -1</clus>
</clustering>
</event>
<event>
 9    1  0.2634165E-005  0.9431309E+02  0.7546771E-02  0.1293161E+00
         -2   -1    0    0    0  501 -0.00000000000E+00  0.00000000000E+00  0.29369162272E+03  0.29369162272E+03  0.00000000000E+00 0.  1.
          2   -1    0    0  502    0  0.00000000000E+00 -0.00000000000E+00 -0.99726000456E+02  0.99726000456E+02  0.00000000000E+00 0. -1.
         23    2    1    2    0    0  0.17625597437E+02 -0.35161798686E+01  0.23942816958E+03  0.25705003313E+03  0.91792406755E+02 0.  0.
         23    2    1    2    0    0 -0.15085964067E+02 -0.17262094322E+02 -0.59530205757E+02  0.11114685592E+03  0.91017646479E+02 0.  0.
        -11    1    4    4    0    0 -0.45064983131E+01 -0.49825818767E+02 -0.58386051851E+02  0.76888567380E+02  0.00000000000E+00 0.  1.
         11    1    4    4    0    0 -0.10579465753E+02  0.32563724445E+02 -0.11441539056E+01  0.34258288537E+02  0.00000000000E+00 0. -1.
        -13    1    3    3    0    0  0.90325084089E+01 -0.42782117723E+02  0.67049646103E+02  0.80047178885E+02  0.00000000000E+00 0.  1.
         13    1    3    3    0    0  0.85930890279E+01  0.39265937854E+02  0.17237852348E+03  0.17700285425E+03  0.00000000000E+00 0. -1.
         21    1    1    2  502  501 -0.25396333702E+01  0.20778274191E+02  0.14067658443E+02  0.25220734131E+02  0.00000000000E+00 0. -1.
<scales pt_clust_5="13000.00000" pt_clust_6="13000.00000" pt_clust_7="13000.00000" pt_clust_8="13000.00000" pt_clust_9="20.93290"></scales>
<clustering>
<clus scale="   20.933">  1  9  2 -1</clus>
<clus scale="   91.018">  5  6 -1 -1</clus>
<clus scale="   91.792">  7  8 -1 -1</clus>
<clus scale="   93.559">  2  5  1 -1</clus>
<clus scale="   93.559">  2  5  1 -1</clus>
</clustering>
</event>
<event>
 9    1  0.1435532E-005  0.1416995E+03  0.7546771E-02  0.1217576E+00
         -2   -1    0    0    0  501 -0.00000000000E+00  0.00000000000E+00  0.33664885865E+02  0.33664885865E+02  0.00000000000E+00 0.  1.
          2   -1    0    0  502    0  0.00000000000E+00 -0.00000000000E+00 -0.73935641088E+03  0.73935641088E+03  0.00000000000E+00 0. -1.
         23    2    1    2    0    0 -0.62078863743E+02 -0.73970129428E+02 -0.29424766050E+03  0.33036615415E+03  0.11504236058E+03 0.  0.
         23    2    1    2    0    0  0.20151818503E+02  0.75004995025E+02 -0.32740568923E+03  0.34873303138E+03  0.91588191204E+02 0.  0.
        -13    1    3    3    0    0 -0.32358350606E+02 -0.10157529864E+03 -0.24016777716E+03  0.26276446741E+03  0.00000000000E+00 0. -1.
         13    1    3    3    0    0 -0.29720513137E+02  0.27605169209E+02 -0.54079883340E+02  0.67601686742E+02  0.00000000000E+00 0.  1.
        -13    1    4    4    0    0 -0.36287391522E+02  0.20943169549E+02 -0.11040445068E+03  0.11808697585E+03  0.00000000000E+00 0.  1.
         13    1    4    4    0    0  0.56439210025E+02  0.54061825476E+02 -0.21700123854E+03  0.23064605553E+03  0.00000000000E+00 0. -1.
         21    1    1    2  502  501  0.41927045240E+02 -0.10348655969E+01 -0.84038175287E+02  0.93922111214E+02  0.00000000000E+00 0. -1.
<scales pt_clust_5="13000.00000" pt_clust_6="13000.00000" pt_clust_7="13000.00000" pt_clust_8="13000.00000" pt_clust_9="41.93981"></scales>
<clustering>
<clus scale="   41.940">  1  9  2 -1</clus>
<clus scale="   91.588">  7  8 -1 -1</clus>
<clus scale="  115.042">  5  6 -1 -1</clus>
<clus scale="  123.420">  2  7  1 -1</clus>
<clus scale="  123.420">  2  5  1 -1</clus>
</clustering>
</event>
<event>
 9    1  0.1435532E-005  0.9593925E+02  0.7546771E-02  0.1290400E+00
          1   -1    0    0  502    0  0.00000000000E+00  0.00000000000E+00  0.10933233046E+03  0.10933233046E+03  0.00000000000E+00 0. -1.
         -1   -1    0    0    0  501 -0.00000000000E+00 -0.00000000000E+00 -0.20509311448E+03  0.20509311448E+03  0.00000000000E+00 0.  1.
         23    2    1    2    0    0  0.21781461293E+02 -0.15750268696E+02 -0.14415801404E+03  0.17403184283E+03  0.93717908031E+02 0.  0.
         23    2    1    2    0    0  0.98561304955E+01 -0.49383121826E+01  0.45144873914E+02  0.10245243169E+03  0.91306685857E+02 0.  0.
        -13    1    3    3    0    0  0.33704585999E+02 -0.47717245515E+02 -0.11566257453E+03  0.12957918731E+03  0.00000000000E+00 0.  1.
         13    1    3    3    0    0 -0.11923124707E+02  0.31966976819E+02 -0.28495439513E+02  0.44452655520E+02  0.00000000000E+00 0. -1.
        -13    1    4    4    0    0  0.56731380719E+01  0.36068840515E+02  0.48938420355E+02  0.61058289679E+02  0.00000000000E+00 0. -1.
         13    1    4    4    0    0  0.41829924235E+01 -0.41007152698E+02 -0.37935464403E+01  0.41394142008E+02  0.00000000000E+00 0.  1.
         21    1    1    2  502  501 -0.31637591788E+02  0.20688580878E+02  0.32523561040E+01  0.37941170424E+02  0.00000000000E+00 0. -1.
<scales pt_clust_5="13000.00000" pt_clust_6="13000.00000" pt_clust_7="13000.00000" pt_clust_8="13000.00000" pt_clust_9="37.80152"></scales>
<clustering>
<clus scale="   37.802">  1  9  2 -1</clus>
<clus scale="   91.307">  7  8 -1 -1</clus>
<clus scale="   93.585">  1  7  2 -1</clus>
<clus scale="   93.718">  5  6 -1 -1</clus>
<clus scale="   37.802">  1  5  2 -1</clus>
</clustering>
</event>
<event>
 9    1  0.1435532E-005  0.1140555E+03  0.7546771E-02  0.1253461E+00
          4   -1    0    0  502    0  0.00000000000E+00  0.00000000000E+00  0.35210168885E+03  0.35210168885E+03  0.00000000000E+00 0. -1.
         -4   -1    0    0    0  501 -0.00000000000E+00 -0.00000000000E+00 -0.54477860094E+02  0.54477860094E+02  0.00000000000E+00 0.  1.
         23    2    1    2    0    0 -0.41724104389E+02  0.55254957227E+02  0.85164697781E+02  0.14385010251E+03  0.92982875087E+02 0.  0.
         23    2    1    2    0    0  0.64213313638E+02 -0.22943723582E+02  0.14990601868E+03  0.18881955393E+03  0.92364741155E+02 0.  0.
        -13    1    3    3    0    0 -0.27087991732E+02  0.73211622973E+02  0.29312492158E+02  0.83384190534E+02  0.00000000000E+00 0.  1.
         13    1    3    3    0    0 -0.14636112657E+02 -0.17956665746E+02  0.55852205624E+02  0.60465911979E+02  0.00000000000E+00 0. -1.
        -13    1    4    4    0    0 -0.20219191021E+01  0.29014264685E+02  0.25939087597E+02  0.38971168541E+02  0.00000000000E+00 0.  1.
         13    1    4    4    0    0  0.66235232740E+02 -0.51957988266E+02  0.12396693109E+03  0.14984838539E+03  0.00000000000E+00 0. -1.
         21    1    1    2  502  501 -0.22489209248E+02 -0.32311233645E+02  0.62553112295E+02  0.73909892505E+02  0.00000000000E+00 0. -1.
<scales pt_clust_5="13000.00000" pt_clust_6="13000.00000" pt_clust_7="13000.00000" pt_clust_8="13000.00000" pt_clust_9="39.36725"></scales>
<clustering>
<clus scale="   39.367">  1  9  2 -1</clus>
<clus scale="   92.365">  7  8 -1 -1</clus>
<clus scale="   92.983">  5  6 -1 -1</clus>
<clus scale="  113.552">  1  7  2 -1</clus>
<clus scale="   39.367">  1  5  2 -1</clus>
</clustering>
</event>
<event>
 9    1  0.1435532E-005  0.1029780E+03  0.7546771E-02  0.1275343E+00
          4   -1    0    0  502    0  0.00000000000E+00  0.00000000000E+00  0.12016460534E+03  0.12016460534E+03  0.00000000000E+00 0. -1.
         -4   -1    0    0    0  501 -0.00000000000E+00 -0.00000000000E+00 -0.20917104945E+03  0.20917104945E+03  0.00000000000E+00 0.  1.
         23    2    1    2    0    0 -0.61981206312E+02 -0.15029095051E+01 -0.57515013370E+02  0.12681695357E+03  0.94502033183E+02 0.  0.
         23    2    1    2    0    0 -0.34027836726E+01  0.55432294864E+02 -0.45392279702E+02  0.11663110985E+03  0.91967594712E+02 0.  0.
        -11    1    4    4    0    0  0.23353283497E+02 -0.17849135321E+02 -0.13633116304E+02  0.32401070075E+02  0.00000000000E+00 0. -1.
         11    1    4    4    0    0 -0.26756067170E+02  0.73281430185E+02 -0.31759163398E+02  0.84230039773E+02  0.00000000000E+00 0.  1.
        -11    1    3    3    0    0 -0.18570764778E+02 -0.44277275650E+02 -0.42332178534E+02  0.64010653667E+02  0.00000000000E+00 0. -1.
         11    1    3    3    0    0 -0.43410441534E+02  0.42774366145E+02 -0.15182834836E+02  0.62806299898E+02  0.00000000000E+00 0.  1.
         21    1    1    2  502  501  0.65383989985E+02 -0.53929385359E+02  0.13900848957E+02  0.85887591381E+02  0.00000000000E+00 0. -1.
<scales pt_clust_5="13000.00000" pt_clust_6="13000.00000" pt_clust_7="13000.00000" pt_clust_8="13000.00000" pt_clust_9="84.75520"></scales>
<clustering>
<clus scale="   84.755">  1  9  2 -1</clus>
<clus scale="   91.968">  5  6 -1 -1</clus>
<clus scale="   94.502">  7  8 -1 -1</clus>
<clus scale="  100.657">  1  5  2 -1</clus>
<clus scale="   84.755">  1  5  2 -1</clus>
</clustering>
</event>
<event>
 9    1  0.1435532E-005  0.1410450E+03  0.7546771E-02  0.1211994E+00
         -1   -1    0    0    0  501 -0.00000000000E+00  0.00000000000E+00  0.75002255282E+02  0.75002255282E+02  0.00000000000E+00 0.  1.
          1   -1    0    0  502    0  0.00000000000E+00 -0.00000000000E+00 -0.69758253208E+03  0.69758253208E+03  0.00000000000E+00 0. -1.
         23    2    1    2    0    0 -0.99827280132E+02 -0.48961553942E+02 -0.43640929185E+02  0.15040795761E+03  0.91407348656E+02 0.  0.
         23    2    1    2    0    0  0.42653644808E+02  0.10576581218E+03 -0.39986033897E+03  0.42579750379E+03  0.91703233905E+02 0.  0.
        -11    1    4    4    0    0  0.20128538175E+02  0.17710817147E+01 -0.11770125987E+02  0.23384410304E+02  0.00000000000E+00 0.  1.
         11    1    4    4    0    0  0.22525106632E+02  0.10399473047E+03 -0.38809021299E+03  0.40241309349E+03  0.00000000000E+00 0. -1.
        -11    1    3    3    0    0  0.10681758346E+01 -0.22638155919E+02 -0.40116531313E+02  0.46075624658E+02  0.00000000000E+00 0. -1.
         11    1    3    3    0    0 -0.10089545597E+03 -0.26323398023E+02 -0.35243978723E+01  0.10433233295E+03  0.00000000000E+00 0.  1.
         21    1    1    2  502  501  0.57173635324E+02 -0.56804258241E+02 -0.17907900864E+03  0.19637932596E+03  0.00000000000E+00 0. -1.
<scales pt_clust_5="13000.00000" pt_clust_6="13000.00000" pt_clust_7="13000.00000" pt_clust_8="13000.00000" pt_clust_9="80.59496"></scales>
<clustering>
<clus scale="   80.595">  2  9  1 -1</clus>
<clus scale="   91.407">  7  8 -1 -1</clus>
<clus scale="   91.703">  5  6 -1 -1</clus>
<clus scale="  140.853">  1  7  2 -1</clus>
<clus scale="   80.595">  2  5  1 -1</clus>
</clustering>
</event>
<event>
 9    1  0.1435532E-005  0.9428997E+02  0.7546771E-02  0.1293365E+00
          2   -1    0    0  502    0  0.00000000000E+00  0.00000000000E+00  0.35028786815E+02  0.35028786815E+02  0.00000000000E+00 0. -1.
         -2   -1    0    0    0  501 -0.00000000000E+00 -0.00000000000E+00 -0.54938022820E+03  0.54938022820E+03  0.00000000000E+00 0.  1.
         23    2    1    2    0    0  0.15739566350E+02  0.14022575778E+02 -0.38456338426E+03  0.39540344742E+03  0.89501525888E+02 0.  0.
         23    2    1    2    0    0 -0.30014953414E+02 -0.41157263923E+02 -0.82622365358E+02  0.13275007492E+03  0.90561080666E+02 0.  0.
        -11    1    3    3    0    0 -0.20664582442E+02 -0.23852113137E+02 -0.74306203941E+02  0.80730169161E+02  0.00000000000E+00 0. -1.
         11    1    3    3    0    0  0.36404148792E+02  0.37874688915E+02 -0.31025718032E+03  0.31467327826E+03  0.00000000000E+00 0.  1.
        -13    1    4    4    0    0  0.27893734341E+01 -0.30739572131E+02 -0.92030521500E+02  0.97068629260E+02  0.00000000000E+00 0.  1.
         13    1    4    4    0    0 -0.32804326848E+02 -0.10417691792E+02  0.94081561419E+01  0.35681445658E+02  0.00000000000E+00 0. -1.
         21    1    1    2  502  501  0.14275387064E+02  0.27134688145E+02 -0.47165691762E+02  0.56255492674E+02  0.00000000000E+00 0.  1.
<scales pt_clust_5="13000.00000" pt_clust_6="13000.00000" pt_clust_7="13000.00000" pt_clust_8="13000.00000" pt_clust_9="30.66069"></scales>
<clustering>
<clus scale="   30.661">  1  9  2 -1</clus>
<clus scale="   89.502">  5  6 -1 -1</clus>
<clus scale="   90.561">  7  8 -1 -1</clus>
<clus scale="   93.273">  2  5  1 -1</clus>
<clus scale="   30.661">  1  5  2 -1</clus>
</clustering>
</event>
<event>
 9    1  0.1435532E-005  0.1006971E+03  0.7546771E-02  0.1279080E+00
          3   -1    0    0  502    0  0.00000000000E+00  0.00000000000E+00  0.24559894734E+03  0.24559894734E+03  0.00000000000E+00 0. -1.
         -3   -1    0    0    0  501 -0.00000000000E+00 -0.00000000000E+00 -0.51274778901E+02  0.51274778901E+02  0.00000000000E+00 0.  1.
         23    2    1    2    0    0  0.28090343923E+01 -0.36915667945E+02  0.71115117062E+02  0.12153901230E+03  0.91343934780E+02 0.  0.
         23    2    1    2    0    0 -0.20921217827E+02  0.45945411208E+02  0.96407337363E+02  0.14175020373E+03  0.90829881616E+02 0.  0.
        -11    1    3    3    0    0 -0.39996719299E+02 -0.13694391109E+02  0.10088259105E+02  0.43463166869E+02  0.00000000000E+00 0. -1.
         11    1    3    3    0    0  0.42805753691E+02 -0.23221276837E+02  0.61026857957E+02  0.78075845427E+02  0.00000000000E+00 0.  1.
        -11    1    4    4    0    0  0.19222671194E+02 -0.85159795146E+01  0.62759069390E+02  0.66187111930E+02  0.00000000000E+00 0. -1.
         11    1    4    4    0    0 -0.40143889021E+02  0.54461390723E+02  0.33648267973E+02  0.75563091803E+02  0.00000000000E+00 0.  1.
         21    1    1    2  502  501  0.18112183435E+02 -0.90297432625E+01  0.26801714012E+02  0.33584510211E+02  0.00000000000E+00 0. -1.
<scales pt_clust_5="13000.00000" pt_clust_6="13000.00000" pt_clust_7="13000.00000" pt_clust_8="13000.00000" pt_clust_9="20.23827"></scales>
<clustering>
<clus scale="   20.238">  1  9  2 -1</clus>
<clus scale="   90.830">  7  8 -1 -1</clus>
<clus scale="   91.344">  5  6 -1 -1</clus>
<clus scale="  100.231">  1  7  2 -1</clus>
<clus scale="   20.238">  1  5  2 -1</clus>
</clustering>
</event>
<event>
 9    1  0.1435532E-005  0.1265680E+03  0.7546771E-02  0.1241573E+00
         -2   -1    0    0    0  501 -0.00000000000E+00  0.00000000000E+00  0.98717577606E+02  0.98717577606E+02  0.00000000000E+00 0.  1.
          2   -1    0    0  502    0  0.00000000000E+00 -0.00000000000E+00 -0.30618518290E+03  0.30618518290E+03  0.00000000000E+00 0. -1.
         23    2    1    2    0    0  0.25456509664E+02 -0.54579926692E+02  0.30885455986E+02  0.13288591810E+03  0.11435800609E+03 0.  0.
         23    2    1    2    0    0 -0.26096578011E+02  0.26169498449E+02 -0.14841570464E+03  0.17769669482E+03  0.90460046068E+02 0.  0.
        -11    1    3    3    0    0 -0.60379585211E+01 -0.62278695619E+02 -0.25721776171E+02  0.67651331402E+02  0.00000000000E+00 0. -1.
         11    1    3    3    0    0  0.31494468185E+02  0.76987689270E+01  0.56607232157E+02  0.65234586699E+02  0.00000000000E+00 0.  1.
        -13    1    4    4    0    0 -0.17391692266E+02  0.58025693289E+02 -0.69762724383E+02  0.92392043786E+02  0.00000000000E+00 0. -1.
         13    1    4    4    0    0 -0.87048857452E+01 -0.31856194840E+02 -0.78652980257E+02  0.85304651039E+02  0.00000000000E+00 0.  1.
         21    1    1    2  502  501  0.64006834728E+00  0.28410428243E+02 -0.89937356641E+02  0.94320147582E+02  0.00000000000E+00 0. -1.
<scales pt_clust_5="13000.00000" pt_clust_6="13000.00000" pt_clust_7="13000.00000" pt_clust_8="13000.00000" pt_clust_9="28.41764"></scales>
<clustering>
<clus scale="   28.418">  2  9  1 -1</clus>
<clus scale="   90.460">  7  8 -1 -1</clus>
<clus scale="  105.474">  2  7  1 -1</clus>
<clus scale="  114.358">  5  6 -1 -1</clus>
<clus scale="   28.418">  2  5  1 -1</clus>
</clustering>
</event>
<event>
 9    1  0.1435532E-005  0.9273314E+02  0.7546771E-02  0.1299673E+00
          1   -1    0    0  502    0  0.00000000000E+00  0.00000000000E+00  0.13567628235E+03  0.13567628235E+03  0.00000000000E+00 0. -1.
         -1   -1    0    0    0  501 -0.00000000000E+00 -0.00000000000E+00 -0.12731618453E+03  0.12731618453E+03  0.00000000000E+00 0.  1.
         23    2    1    2    0    0 -0.51684881511E+01  0.89663767778E+00 -0.50462796057E+02  0.10011852884E+03  0.86311695623E+02 0.  0.
         23    2    1    2    0    0  0.20284518864E+00 -0.35477417708E+02  0.48762591814E+01  0.98603203233E+02  0.91870155495E+02 0.  0.
        -11    1    3    3    0    0  0.37257124703E+02  0.15898190546E+02 -0.31378444151E+02  0.51239170184E+02  0.00000000000E+00 0.  1.
         11    1    3    3    0    0 -0.42425612854E+02 -0.15001552868E+02 -0.19084351906E+02  0.48879358652E+02  0.00000000000E+00 0. -1.
        -11    1    4    4    0    0  0.40882029517E+02  0.48376785399E+01  0.34785640467E+01  0.41313967116E+02  0.00000000000E+00 0.  1.
         11    1    4    4    0    0 -0.40679184328E+02 -0.40315096248E+02  0.13976951347E+01  0.57289236116E+02  0.00000000000E+00 0. -1.
         21    1    1    2  502  501  0.49656429624E+01  0.34580780030E+02  0.53946634704E+02  0.64270734813E+02  0.00000000000E+00 0. -1.
<scales pt_clust_5="13000.00000" pt_clust_6="13000.00000" pt_clust_7="13000.00000" pt_clust_8="13000.00000" pt_clust_9="34.93548"></scales>
<clustering>
<clus scale="   34.935">  1  9  2 -1</clus>
<clus scale="   86.312">  5  6 -1 -1</clus>
<clus scale="   87.230">  2  5  1 -1</clus>
<clus scale="   91.870">  7  8 -1 -1</clus>
<clus scale="   34.935">  1  5  2 -1</clus>
</clustering>
</event>
<event>
 9    1  0.1435532E-005  0.9344490E+02  0.7546771E-02  0.1295219E+00
          1   -1    0    0  502    0  0.00000000000E+00  0.00000000000E+00  0.48391525973E+03  0.48391525973E+03  0.00000000000E+00 0. -1.
         -1   -1    0    0    0  501 -0.00000000000E+00 -0.00000000000E+00 -0.35751313509E+02  0.35751313509E+02  0.00000000000E+00 0.  1.
         23    2    1    2    0    0  0.75791473931E-02  0.16682509446E+02  0.52588997415E+02  0.10655141260E+03  0.91155332806E+02 0.  0.
         23    2    1    2    0    0  0.47707248192E+01 -0.37177196890E+02  0.33630966645E+03  0.35022447695E+03  0.90266764222E+02 0.  0.
        -13    1    3    3    0    0  0.12545293443E+02  0.34425562596E+02  0.69801390039E+02  0.78833608309E+02  0.00000000000E+00 0.  1.
         13    1    3    3    0    0 -0.12537714295E+02 -0.17743053150E+02 -0.17212392624E+02  0.27717804290E+02  0.00000000000E+00 0. -1.
        -13    1    4    4    0    0  0.12289667569E+01 -0.66839225201E+02  0.25442472652E+03  0.26306070373E+03  0.00000000000E+00 0. -1.
         13    1    4    4    0    0  0.35417580623E+01  0.29662028311E+02  0.81884939934E+02  0.87163773219E+02  0.00000000000E+00 0.  1.
         21    1    1    2  502  501 -0.47783039666E+01  0.20494687444E+02  0.59265282351E+02  0.62890683685E+02  0.00000000000E+00 0. -1.
<scales pt_clust_5="13000.00000" pt_clust_6="13000.00000" pt_clust_7="13000.00000" pt_clust_8="13000.00000" pt_clust_9="21.04434"></scales>
<clustering>
<clus scale="   21.044">  1  9  2 -1</clus>
<clus scale="   90.267">  7  8 -1 -1</clus>
<clus scale="   91.155">  5  6 -1 -1</clus>
<clus scale="   92.578">  1  7  2 -1</clus>
<clus scale="   21.044">  1  5  2 -1</clus>
</clustering>
</event>
<event>
 9    1  0.1435532E-005  0.1028295E+03  0.7546771E-02  0.1275271E+00
         -1   -1    0    0    0  501 -0.00000000000E+00  0.00000000000E+00  0.26640960817E+02  0.26640960817E+02  0.00000000000E+00 0.  1.
          1   -1    0    0  502    0  0.00000000000E+00 -0.00000000000E+00 -0.73443442561E+03  0.73443442561E+03  0.00000000000E+00 0. -1.
         23    2    1    2    0    0  0.40731764329E+02 -0.18047280078E+02 -0.15565620841E+03  0.18507218933E+03  0.89655335058E+02 0.  0.
         23    2    1    2    0    0 -0.59597579830E+02 -0.27762397292E+02 -0.34054568776E+03  0.35868905249E+03  0.91454079709E+02 0.  0.
        -13    1    3    3    0    0  0.16563837388E+01 -0.25649820985E+02 -0.13992880256E+03  0.14226990795E+03  0.00000000000E+00 0. -1.
         13    1    3    3    0    0  0.39075380591E+02  0.76025409079E+01 -0.15727405853E+02  0.42802281381E+02  0.00000000000E+00 0.  1.
        -13    1    4    4    0    0 -0.83919887102E+02 -0.25716017174E+02 -0.27897960979E+03  0.29246108061E+03  0.00000000000E+00 0. -1.
         13    1    4    4    0    0  0.24322307272E+02 -0.20463801181E+01 -0.61566077968E+02  0.66227971877E+02  0.00000000000E+00 0.  1.
         21    1    1    2  502  501  0.18865815500E+02  0.45809677370E+02 -0.21159156863E+03  0.21731414462E+03  0.00000000000E+00 0.  1.
<scales pt_clust_5="13000.00000" pt_clust_6="13000.00000" pt_clust_7="13000.00000" pt_clust_8="13000.00000" pt_clust_9="49.54236"></scales>
<clustering>
<clus scale="   49.542">  2  9  1 -1</clus>
<clus scale="   89.655">  5  6 -1 -1</clus>
<clus scale="   91.454">  7  8 -1 -1</clus>
<clus scale="  101.233">  1  5  2 -1</clus>
<clus scale="   49.542">  2  5  1 -1</clus>
</clustering>
</event>
<event>
 9    1  0.1435532E-005  0.1464411E+03  0.7546771E-02  0.1205704E+00
          1   -1    0    0  502    0  0.00000000000E+00  0.00000000000E+00  0.59328354356E+03  0.59328354356E+03  0.00000000000E+00 0. -1.
         -1   -1    0    0    0  501 -0.00000000000E+00 -0.00000000000E+00 -0.43422606601E+02  0.43422606601E+02  0.00000000000E+00 0.  1.
         23    2    1    2    0    0  0.10904094676E+03  0.28971268187E+02  0.19598665771E+03  0.24292243105E+03  0.88720206578E+02 0.  0.
         23    2    1    2    0    0 -0.11554596570E+03 -0.57091270213E+01  0.29493444744E+03  0.33008641731E+03  0.92667417618E+02 0.  0.
        -11    1    3    3    0    0  0.82448751951E+02  0.58558081042E+02  0.11822760553E+03  0.15557831553E+03  0.00000000000E+00 0.  1.
         11    1    3    3    0    0  0.26592194808E+02 -0.29586812855E+02  0.77759052185E+02  0.87344115522E+02  0.00000000000E+00 0. -1.
        -13    1    4    4    0    0 -0.84269630188E+02 -0.46646557313E+02  0.20330996085E+03  0.22497158057E+03  0.00000000000E+00 0. -1.
         13    1    4    4    0    0 -0.31276335509E+02  0.40937430292E+02  0.91624486584E+02  0.10511483674E+03  0.00000000000E+00 0.  1.
         21    1    1    2  502  501  0.65050189374E+01 -0.23262141166E+02  0.58939831805E+02  0.63697301797E+02  0.00000000000E+00 0. -1.
<scales pt_clust_5="13000.00000" pt_clust_6="13000.00000" pt_clust_7="13000.00000" pt_clust_8="13000.00000" pt_clust_9="24.15455"></scales>
<clustering>
<clus scale="   24.155">  1  9  2 -1</clus>
<clus scale="   88.720">  5  6 -1 -1</clus>
<clus scale="   92.667">  7  8 -1 -1</clus>
<clus scale="  143.976">  2  5  1 -1</clus>
<clus scale="   24.155">  1  5  2 -1</clus>
</clustering>
</event>
<event>
 9    1  0.1435532E-005  0.1207815E+03  0.7546771E-02  0.1241968E+00
          1   -1    0    0  502    0  0.00000000000E+00  0.00000000000E+00  0.19259313491E+03  0.19259313491E+03  0.00000000000E+00 0. -1.
         -1   -1    0    0    0  501 -0.00000000000E+00 -0.00000000000E+00 -0.11838893182E+03  0.11838893182E+03  0.00000000000E+00 0.  1.
         23    2    1    2    0    0 -0.53329425496E+02  0.62516435226E+02 -0.14458732824E+02  0.12258971705E+03  0.89815652727E+02 0.  0.
         23    2    1    2    0    0  0.68661962293E+02 -0.42920742839E+02  0.29350358975E+02  0.12407237123E+03  0.89307639650E+02 0.  0.
        -11    1    3    3    0    0 -0.24299858872E+02  0.93276120435E+01 -0.47061988712E+02  0.53780277697E+02  0.00000000000E+00 0. -1.
         11    1    3    3    0    0 -0.29029566624E+02  0.53188823183E+02  0.32603255887E+02  0.68809439355E+02  0.00000000000E+00 0.  1.
        -13    1    4    4    0    0  0.32208762002E+01  0.22606558765E+02 -0.80279875589E+01  0.24204940135E+02  0.00000000000E+00 0.  1.
         13    1    4    4    0    0  0.65441086093E+02 -0.65527301605E+02  0.37378346534E+02  0.99867431099E+02  0.00000000000E+00 0. -1.
         21    1    1    2  502  501 -0.15332536797E+02 -0.19595692387E+02  0.59312576935E+02  0.64319978447E+02  0.00000000000E+00 0. -1.
<scales pt_clust_5="13000.00000" pt_clust_6="13000.00000" pt_clust_7="13000.00000" pt_clust_8="13000.00000" pt_clust_9="24.88127"></scales>
<clustering>
<clus scale="   24.881">  1  9  2 -1</clus>
<clus scale="   89.308">  7  8 -1 -1</clus>
<clus scale="   89.816">  5  6 -1 -1</clus>
<clus scale="  120.404">  1  7  2 -1</clus>
<clus scale="   24.881">  1  5  2 -1</clus>
</clustering>
</event>
<event>
 9    1  0.1435532E-005  0.1206941E+03  0.7546771E-02  0.1243044E+00
          2   -1    0    0  502    0  0.00000000000E+00  0.00000000000E+00  0.24854066788E+03  0.24854066788E+03  0.00000000000E+00 0. -1.
         -2   -1    0    0    0  501 -0.00000000000E+00 -0.00000000000E+00 -0.34911881549E+03  0.34911881549E+03  0.00000000000E+00 0.  1.
         23    2    1    2    0    0 -0.39561582534E+02  0.69607358457E+02 -0.16239499191E+03  0.20231340968E+03  0.90267819145E+02 0.  0.
         23    2    1    2    0    0  0.62353408161E+02 -0.43154668161E+02 -0.14331980778E+03  0.18725893289E+03  0.93675331599E+02 0.  0.
        -11    1    3    3    0    0  0.30990917903E+01  0.77120846458E+02 -0.98981196195E+02  0.12551695714E+03  0.00000000000E+00 0. -1.
         11    1    3    3    0    0 -0.42660674325E+02 -0.75134880015E+01 -0.63413795719E+02  0.76796452543E+02  0.00000000000E+00 0.  1.
        -13    1    4    4    0    0  0.47661004533E+02  0.53000658168E+01 -0.16515047965E+02  0.50718920139E+02  0.00000000000E+00 0. -1.
         13    1    4    4    0    0  0.14692403628E+02 -0.48454733978E+02 -0.12680475982E+03  0.13654001275E+03  0.00000000000E+00 0.  1.
         21    1    1    2  502  501 -0.22791825627E+02 -0.26452690295E+02  0.20513665208E+03  0.20808714080E+03  0.00000000000E+00 0. -1.
<scales pt_clust_5="13000.00000" pt_clust_6="13000.00000" pt_clust_7="13000.00000" pt_clust_8="13000.00000" pt_clust_9="34.91722"></scales>
<clustering>
<clus scale="   34.917">  1  9  2 -1</clus>
<clus scale="   90.268">  5  6 -1 -1</clus>
<clus scale="   93.675">  7  8 -1 -1</clus>
<clus scale="  118.069">  2  5  1 -1</clus>
<clus scale="   34.917">  1  5  2 -1</clus>
</clustering>
</event>
<event>
 9    1  0.1435532E-005  0.1151610E+03  0.7546771E-02  0.1251872E+00
         -3   -1    0    0    0  501 -0.00000000000E+00  0.00000000000E+00  0.12212808255E+03  0.12212808255E+03  0.00000000000E+00 0.  1.
          3   -1    0    0  502    0  0.00000000000E+00 -0.00000000000E+00 -0.43010211789E+03  0.43010211789E+03  0.00000000000E+00 0. -1.
         23    2    1    2    0    0  0.25444106652E+01 -0.68117954369E+02  0.72220506174E+02  0.13527709226E+03  0.91856194370E+02 0.  0.
         23    2    1    2    0    0 -0.38673672863E+02  0.81310625771E+02 -0.32968927681E+03  0.35346963059E+03  0.90214686553E+02 0.  0.
        -11    1    4    4    0    0  0.27836030957E+02  0.41395817492E+02 -0.13082652768E+03  0.14001442308E+03  0.00000000000E+00 0.  1.
         11    1    4    4    0    0 -0.66509703819E+02  0.39914808279E+02 -0.19886274913E+03  0.21345520751E+03  0.00000000000E+00 0. -1.
        -13    1    3    3    0    0  0.28125160709E+02 -0.76525702861E+02  0.33568972093E+02  0.88170764716E+02  0.00000000000E+00 0.  1.
         13    1    3    3    0    0 -0.25580750044E+02  0.84077484914E+01  0.38651534081E+02  0.47106327540E+02  0.00000000000E+00 0. -1.
         21    1    1    2  502  501  0.36129262198E+02 -0.13192671401E+02 -0.50505264699E+02  0.63483477598E+02  0.00000000000E+00 0.  1.
<scales pt_clust_5="13000.00000" pt_clust_6="13000.00000" pt_clust_7="13000.00000" pt_clust_8="13000.00000" pt_clust_9="38.46258"></scales>
<clustering>
<clus scale="   38.463">  2  9  1 -1</clus>
<clus scale="   90.215">  5  6 -1 -1</clus>
<clus scale="   91.856">  7  8 -1 -1</clus>
<clus scale="  113.856">  2  5  1 -1</clus>
<clus scale="   38.463">  2  5  1 -1</clus>
</clustering>
</event>
<event>
 9    1  0.1435532E-005  0.9699908E+02  0.7546771E-02  0.1288679E+00
          1   -1    0    0  502    0  0.00000000000E+00  0.00000000000E+00  0.14931771999E+03  0.14931771999E+03  0.00000000000E+00 0. -1.
         -1   -1    0    0    0  501 -0.00000000000E+00 -0.00000000000E+00 -0.16234375134E+03  0.16234375134E+03  0.00000000000E+00 0.  1.
         23    2    1    2    0    0 -0.36691827125E+01  0.36112995127E+02 -0.86888424741E+02  0.13230356268E+03  0.92935585359E+02 0.  0.
         23    2    1    2    0    0 -0.22301205688E+02 -0.10195362117E+02 -0.46226754186E+01  0.92720210159E+02  0.89299378834E+02 0.  0.
        -11    1    4    4    0    0  0.19309961092E+02  0.13994636828E+02  0.26307026534E+02  0.35507521771E+02  0.00000000000E+00 0. -1.
         11    1    4    4    0    0 -0.41611166780E+02 -0.24189998944E+02 -0.30929701952E+02  0.57212688388E+02  0.00000000000E+00 0.  1.
        -11    1    3    3    0    0 -0.34850118260E+02  0.48924730267E+02 -0.32449643068E+02  0.68272537008E+02  0.00000000000E+00 0.  1.
         11    1    3    3    0    0  0.31180935547E+02 -0.12811735140E+02 -0.54438781674E+02  0.64031025675E+02  0.00000000000E+00 0. -1.
         21    1    1    2  502  501  0.25970388401E+02 -0.25917633010E+02  0.78485068810E+02  0.86637698496E+02  0.00000000000E+00 0. -1.
<scales pt_clust_5="13000.00000" pt_clust_6="13000.00000" pt_clust_7="13000.00000" pt_clust_8="13000.00000" pt_clust_9="36.69039"></scales>
<clustering>
<clus scale="   36.690">  1  9  2 -1</clus>
<clus scale="   89.299">  5  6 -1 -1</clus>
<clus scale="   92.936">  7  8 -1 -1</clus>
<clus scale="   93.521">  1  5  2 -1</clus>
<clus scale="   36.690">  1  5  2 -1</clus>
</clustering>
</event>
<event>
 9    1  0.1435532E-005  0.1077258E+03  0.7546771E-02  0.1265639E+00
          1   -1    0    0  502    0  0.00000000000E+00  0.00000000000E+00  0.27068365953E+03  0.27068365953E+03  0.00000000000E+00 0. -1.
         -1   -1    0    0    0  501 -0.00000000000E+00 -0.00000000000E+00 -0.10917732557E+03  0.10917732557E+03  0.00000000000E+00 0.  1.
         23    2    1    2    0    0  0.17333748131E+02  0.27317747875E+02 -0.96997147385E+01  0.99811425565E+02  0.93922936677E+02 0.  0.
         23    2    1    2    0    0 -0.67414451790E+02 -0.79095716638E+02  0.68999796513E+02  0.15500895448E+03  0.92010669763E+02 0.  0.
        -11    1    3    3    0    0  0.43456464186E+01  0.61432459786E+02  0.15759321576E+01  0.61606130542E+02  0.00000000000E+00 0.  1.
         11    1    3    3    0    0  0.12988101713E+02 -0.34114711911E+02 -0.11275646896E+02  0.38205295023E+02  0.00000000000E+00 0. -1.
        -11    1    4    4    0    0 -0.47386318781E+02 -0.27667989693E+02  0.81661765577E+02  0.98385084329E+02  0.00000000000E+00 0. -1.
         11    1    4    4    0    0 -0.20028133009E+02 -0.51427726945E+02 -0.12661969064E+02  0.56623870153E+02  0.00000000000E+00 0.  1.
         21    1    1    2  502  501  0.50080703659E+02  0.51777968763E+02  0.10220625218E+03  0.12504060505E+03  0.00000000000E+00 0.  1.
<scales pt_clust_5="13000.00000" pt_clust_6="13000.00000" pt_clust_7="13000.00000" pt_clust_8="13000.00000" pt_clust_9="72.03496"></scales>
<clustering>
<clus scale="   72.035">  1  9  2 -1</clus>
<clus scale="   92.011">  7  8 -1 -1</clus>
<clus scale="   93.923">  5  6 -1 -1</clus>
<clus scale="  106.063">  1  7  2 -1</clus>
<clus scale="   72.035">  1  5  2 -1</clus>
</clustering>
</event>
<event>
 9    1  0.1435532E-005  0.1078490E+03  0.7546771E-02  0.1267769E+00
          3   -1    0    0  502    0  0.00000000000E+00  0.00000000000E+00  0.27389924478E+03  0.27389924478E+03  0.00000000000E+00 0. -1.
         -3   -1    0    0    0  501 -0.00000000000E+00 -0.00000000000E+00 -0.73086241530E+02  0.73086241530E+02  0.00000000000E+00 0.  1.
         23    2    1    2    0    0 -0.32186431080E+02 -0.14536637339E+02 -0.42916815538E+01  0.10924839864E+03  0.10329333911E+03 0.  0.
         23    2    1    2    0    0  0.18338287888E+02 -0.24174832989E+01  0.16915260264E+03  0.19564474289E+03  0.96551154391E+02 0.  0.
        -11    1    3    3    0    0 -0.45926060818E+02 -0.50826358658E+02 -0.12377593573E+02  0.69611253540E+02  0.00000000000E+00 0.  1.
         11    1    3    3    0    0  0.13739629739E+02  0.36289721319E+02  0.80859120191E+01  0.39637145104E+02  0.00000000000E+00 0. -1.
        -13    1    4    4    0    0 -0.32472439943E+02  0.24490494233E+02  0.65003938691E+02  0.76679565133E+02  0.00000000000E+00 0.  1.
         13    1    4    4    0    0  0.50810727831E+02 -0.26907977532E+02  0.10414866394E+03  0.11896517776E+03  0.00000000000E+00 0. -1.
         21    1    1    2  502  501  0.13848143192E+02  0.16954120638E+02  0.35952082169E+02  0.42092344776E+02  0.00000000000E+00 0.  1.
<scales pt_clust_5="13000.00000" pt_clust_6="13000.00000" pt_clust_7="13000.00000" pt_clust_8="13000.00000" pt_clust_9="21.89094"></scales>
<clustering>
<clus scale="   21.891">  1  9  2 -1</clus>
<clus scale="   96.551">  7  8 -1 -1</clus>
<clus scale="  101.410">  1  7  2 -1</clus>
<clus scale="  103.293">  5  6 -1 -1</clus>
<clus scale="   21.891">  1  5  2 -1</clus>
</clustering>
</event>
<event>
 9    1  0.1435532E-005  0.1253017E+03  0.7546771E-02  0.1235669E+00
          1   -1    0    0  502    0  0.00000000000E+00  0.00000000000E+00  0.50901262506E+03  0.50901262506E+03  0.00000000000E+00 0. -1.
         -1   -1    0    0    0  501 -0.00000000000E+00 -0.00000000000E+00 -0.11600246468E+03  0.11600246468E+03  0.00000000000E+00 0.  1.
         23    2    1    2    0    0  0.39059062422E+02  0.76975697464E+02 -0.48723610108E+02  0.13753798444E+03  0.95351133311E+02 0.  0.
         23    2    1    2    0    0  0.21974159484E+02 -0.74912673625E+02  0.16627520534E+03  0.20533045663E+03  0.91751731078E+02 0.  0.
        -11    1    3    3    0    0 -0.28584587527E+02  0.37045834181E+02 -0.35530004727E+01  0.46926498768E+02  0.00000000000E+00 0. -1.
         11    1    3    3    0    0  0.67643649949E+02  0.39929863283E+02 -0.45170609635E+02  0.90611485669E+02  0.00000000000E+00 0.  1.
        -11    1    4    4    0    0 -0.22305904641E+02 -0.18119282879E+02  0.56330630169E+01  0.29284692125E+02  0.00000000000E+00 0.  1.
         11    1    4    4    0    0  0.44280064125E+02 -0.56793390746E+02  0.16064214232E+03  0.17604576451E+03  0.00000000000E+00 0. -1.
         21    1    1    2  502  501 -0.61033221906E+02 -0.20630238396E+01  0.27545856515E+03  0.28214664867E+03  0.00000000000E+00 0. -1.
<scales pt_clust_5="13000.00000" pt_clust_6="13000.00000" pt_clust_7="13000.00000" pt_clust_8="13000.00000" pt_clust_9="61.06808"></scales>
<clustering>
<clus scale="   61.068">  1  9  2 -1</clus>
<clus scale="   91.752">  7  8 -1 -1</clus>
<clus scale="   95.351">  5  6 -1 -1</clus>
<clus scale="  122.585">  1  7  2 -1</clus>
<clus scale="   61.068">  1  5  2 -1</clus>
</clustering>
</event>
<event>
 9    1  0.1435532E-005  0.1688577E+03  0.7546771E-02  0.1179108E+00
          2   -1    0    0  502    0  0.00000000000E+00  0.00000000000E+00  0.14358930001E+03  0.14358930001E+03  0.00000000000E+00 0. -1.
         -2   -1    0    0    0  501 -0.00000000000E+00 -0.00000000000E+00 -0.45482588561E+03  0.45482588561E+03  0.00000000000E+00 0.  1.
         23    2    1    2    0    0  0.95535187398E+02  0.58820582474E+02 -0.99139536723E+02  0.17511622990E+03  0.90830684673E+02 0.  0.
         23    2    1    2    0    0 -0.76889326865E+02 -0.17024722770E+03 -0.22902838624E+03  0.30906132810E+03  0.90381500863E+02 0.  0.
        -11    1    4    4    0    0 -0.45555336458E+02 -0.33464792768E+02 -0.11539589550E+03  0.12849666818E+03  0.00000000000E+00 0. -1.
         11    1    4    4    0    0 -0.31333990407E+02 -0.13678243493E+03 -0.11363249074E+03  0.18056465992E+03  0.00000000000E+00 0.  1.
        -13    1    3    3    0    0  0.86087311122E+02  0.76574297578E+01 -0.36846845910E+02  0.93953985654E+02  0.00000000000E+00 0. -1.
         13    1    3    3    0    0  0.94478762762E+01  0.51163152716E+02 -0.62292690813E+02  0.81162244244E+02  0.00000000000E+00 0.  1.
         21    1    1    2  502  501 -0.18645860533E+02  0.11142664522E+03  0.16931337367E+02  0.11423762763E+03  0.00000000000E+00 0. -1.
<scales pt_clust_5="13000.00000" pt_clust_6="13000.00000" pt_clust_7="13000.00000" pt_clust_8="13000.00000" pt_clust_9="112.97595"></scales>
<clustering>
<clus scale="   90.382">  5  6 -1 -1</clus>
<clus scale="   90.831">  7  8 -1 -1</clus>
<clus scale="  112.976">  1  9  2 -1</clus>
<clus scale="  168.616">  1  5  2 -1</clus>
<clus scale="  112.976">  1  5  2 -1</clus>
</clustering>
</event>
<event>
 9    1  0.1435532E-005  0.1150955E+03  0.7546771E-02  0.1252307E+00
         -1   -1    0    0    0  501 -0.00000000000E+00  0.00000000000E+00  0.70130532682E+03  0.70130532682E+03  0.00000000000E+00 0.  1.
          1   -1    0    0  502    0  0.00000000000E+00 -0.00000000000E+00 -0.41098965735E+02  0.41098965735E+02  0.00000000000E+00 0. -1.
         23    2    1    2    0    0  0.73441222465E+02 -0.16883087249E+02  0.46110292990E+03  0.47550430583E+03  0.88372965932E+02 0.  0.
         23    2    1    2    0    0 -0.58508339127E+02 -0.36526288418E+02  0.93233187013E+02  0.14738404212E+03  0.90951818113E+02 0.  0.
        -11    1    4    4    0    0 -0.24354960256E+02 -0.28251768649E+02 -0.97637213410E+01  0.38557188374E+02  0.00000000000E+00 0. -1.
         11    1    4    4    0    0 -0.34153378870E+02 -0.82745197686E+01  0.10299690835E+03  0.10882685375E+03  0.00000000000E+00 0.  1.
        -13    1    3    3    0    0  0.87377233033E+02  0.63513656209E+01  0.31735139891E+03  0.32922185694E+03  0.00000000000E+00 0.  1.
         13    1    3    3    0    0 -0.13936010568E+02 -0.23234452870E+02  0.14375153098E+03  0.14628244888E+03  0.00000000000E+00 0. -1.
         21    1    1    2  502  501 -0.14932883339E+02  0.53409375667E+02  0.10587024418E+03  0.11951594461E+03  0.00000000000E+00 0.  1.
<scales pt_clust_5="13000.00000" pt_clust_6="13000.00000" pt_clust_7="13000.00000" pt_clust_8="13000.00000" pt_clust_9="55.45766"></scales>
<clustering>
<clus scale="   55.458">  2  9  1 -1</clus>
<clus scale="   88.373">  7  8 -1 -1</clus>
<clus scale="   90.952">  5  6 -1 -1</clus>
<clus scale="  113.069">  1  7  2 -1</clus>
<clus scale="   55.458">  2  5  1 -1</clus>
</clustering>
</event>
<event>
 9    1  0.1435532E-005  0.1189781E+03  0.7546771E-02  0.1244821E+00
         -4   -1    0    0    0  501 -0.00000000000E+00  0.00000000000E+00  0.10215986310E+03  0.10215986310E+03  0.00000000000E+00 0.  1.
          4   -1    0    0  502    0  0.00000000000E+00 -0.00000000000E+00 -0.23314817336E+03  0.23314817336E+03  0.00000000000E+00 0. -1.
         23    2    1    2    0    0 -0.39686712324E+02 -0.49781866697E+02 -0.56013395540E+01  0.11108463796E+03  0.90857869221E+02 0.  0.
         23    2    1    2    0    0  0.80619171834E+02  0.66090524708E+02 -0.74900512951E+02  0.15721354113E+03  0.90766746951E+02 0.  0.
        -11    1    3    3    0    0 -0.21292932088E+02  0.25218776194E+02  0.40799843039E+01  0.33256907576E+02  0.00000000000E+00 0. -1.
         11    1    3    3    0    0 -0.18393780236E+02 -0.75000642890E+02 -0.96813238579E+01  0.77827730386E+02  0.00000000000E+00 0.  1.
        -11    1    4    4    0    0  0.62870171932E+02 -0.30033406160E+01 -0.16627934417E+02  0.65101204110E+02  0.00000000000E+00 0.  1.
         11    1    4    4    0    0  0.17748999902E+02  0.69093865324E+02 -0.58272578534E+02  0.92112337024E+02  0.00000000000E+00 0. -1.
         21    1    1    2  502  501 -0.40932459509E+02 -0.16308658011E+02 -0.50486457752E+02  0.67009857364E+02  0.00000000000E+00 0.  1.
<scales pt_clust_5="13000.00000" pt_clust_6="13000.00000" pt_clust_7="13000.00000" pt_clust_8="13000.00000" pt_clust_9="44.06176"></scales>
<clustering>
<clus scale="   44.062">  2  9  1 -1</clus>
<clus scale="   90.767">  7  8 -1 -1</clus>
<clus scale="   90.858">  5  6 -1 -1</clus>
<clus scale="  118.909">  2  7  1 -1</clus>
<clus scale="   44.062">  2  5  1 -1</clus>
</clustering>
</event>
<event>
 9    1  0.1435532E-005  0.2069968E+03  0.7546771E-02  0.1144405E+00
         -2   -1    0    0    0  501 -0.00000000000E+00  0.00000000000E+00  0.82972070774E+03  0.82972070774E+03  0.00000000000E+00 0.  1.
          2   -1    0    0  502    0  0.00000000000E+00 -0.00000000000E+00 -0.80709656788E+02  0.80709656788E+02  0.00000000000E+00 0. -1.
         23    2    1    2    0    0  0.91833788818E+02  0.15301779372E+03  0.53571244026E+03  0.57179891054E+03  0.90101528769E+02 0.  0.
         23    2    1    2    0    0 -0.82570722870E+02 -0.18095909462E+03  0.21659965133E+03  0.30901021910E+03  0.94909369169E+02 0.  0.
        -11    1    4    4    0    0  0.20909099758E+02 -0.39113607607E+02  0.35940796041E+02  0.57085948997E+02  0.00000000000E+00 0.  1.
         11    1    4    4    0    0 -0.10347982263E+03 -0.14184548701E+03  0.18065885529E+03  0.25192427011E+03  0.00000000000E+00 0. -1.
        -11    1    3    3    0    0  0.43841093228E+02  0.13998954195E+03  0.44202967408E+03  0.46573527467E+03  0.00000000000E+00 0. -1.
         11    1    3    3    0    0  0.47992695590E+02  0.13028251765E+02  0.93682766185E+02  0.10606363587E+03  0.00000000000E+00 0.  1.
         21    1    1    2  502  501 -0.92630659473E+01  0.27941300898E+02 -0.33010406334E+01  0.29621234881E+02  0.00000000000E+00 0. -1.
<scales pt_clust_5="13000.00000" pt_clust_6="13000.00000" pt_clust_7="13000.00000" pt_clust_8="13000.00000" pt_clust_9="29.43672"></scales>
<clustering>
<clus scale="   29.437">  2  9  1 -1</clus>
<clus scale="   90.102">  7  8 -1 -1</clus>
<clus scale="   94.909">  5  6 -1 -1</clus>
<clus scale="  204.837">  1  7  2 -1</clus>
<clus scale="   29.437">  2  5  1 -1</clus>
</clustering>
</event>
<event>
 9    1  0.1435532E-005  0.1898826E+03  0.7546771E-02  0.1159011E+00
         -2   -1    0    0    0  501 -0.00000000000E+00  0.00000000000E+00  0.10851617451E+03  0.10851617451E+03  0.00000000000E+00 0.  1.
          2   -1    0    0  502    0  0.00000000000E+00 -0.00000000000E+00 -0.74437381305E+03  0.74437381305E+03  0.00000000000E+00 0. -1.
         23    2    1    2    0    0  0.10257198044E+03 -0.11475888653E+03 -0.41041434408E+01  0.17905273948E+03  0.91391609629E+02 0.  0.
         23    2    1    2    0    0 -0.94703022179E+02  0.13960507682E+03 -0.61294713191E+03  0.64169797347E+03  0.87257451001E+02 0.  0.
        -11    1    3    3    0    0 -0.14886904447E+02 -0.28960866371E+02  0.65139701756E+01  0.33208184419E+02  0.00000000000E+00 0. -1.
         11    1    3    3    0    0  0.11745888489E+03 -0.85798020162E+02 -0.10618113616E+02  0.14584455506E+03  0.00000000000E+00 0.  1.
        -11    1    4    4    0    0 -0.10636647366E+03  0.97158136453E+02 -0.50426258037E+03  0.52443710792E+03  0.00000000000E+00 0. -1.
         11    1    4    4    0    0  0.11663451482E+02  0.42446940367E+02 -0.10868455154E+03  0.11726086555E+03  0.00000000000E+00 0.  1.
         21    1    1    2  502  501 -0.78689582650E+01 -0.24846190287E+02 -0.18806363195E+02  0.32139274612E+02  0.00000000000E+00 0. -1.
<scales pt_clust_5="13000.00000" pt_clust_6="13000.00000" pt_clust_7="13000.00000" pt_clust_8="13000.00000" pt_clust_9="26.06250"></scales>
<clustering>
<clus scale="   26.062">  1  9  2 -1</clus>
<clus scale="   87.257">  7  8 -1 -1</clus>
<clus scale="   91.392">  5  6 -1 -1</clus>
<clus scale="  187.928">  2  7  1 -1</clus>
<clus scale="  187.928">  2  5  1 -1</clus>
</clustering>
</event>
<event>
 9    1  0.1435532E-005  0.2927804E+03  0.7546771E-02  0.1115500E+00
          2   -1    0    0  502    0  0.00000000000E+00  0.00000000000E+00  0.27668013215E+03  0.27668013215E+03  0.00000000000E+00 0. -1.
         -2   -1    0    0    0  501 -0.00000000000E+00 -0.00000000000E+00 -0.54720066174E+03  0.54720066174E+03  0.00000000000E+00 0.  1.
         23    2    1    2    0    0  0.69703046014E+02  0.91997452230E+02 -0.17651804057E+03  0.22986895254E+03  0.91427954461E+02 0.  0.
         23    2    1    2    0    0 -0.80493338380E+01 -0.32898120629E+03 -0.48811808601E+02  0.34500445691E+03  0.91389587822E+02 0.  0.
        -13    1    3    3    0    0  0.96316603296E+01  0.85830974178E+02 -0.94575368370E+02  0.12807898076E+03  0.00000000000E+00 0.  1.
         13    1    3    3    0    0  0.60071385684E+02  0.61664780518E+01 -0.81942672195E+02  0.10178997179E+03  0.00000000000E+00 0. -1.
        -13    1    4    4    0    0 -0.34838697990E+02 -0.98365577911E+02 -0.42718486483E+02  0.11275810784E+03  0.00000000000E+00 0.  1.
         13    1    4    4    0    0  0.26789364152E+02 -0.23061562838E+03 -0.60933221181E+01  0.23224634907E+03  0.00000000000E+00 0. -1.
         21    1    1    2  502  501 -0.61653712176E+02  0.23698375406E+03 -0.45190680424E+02  0.24900738445E+03  0.00000000000E+00 0.  1.
<scales pt_clust_5="13000.00000" pt_clust_6="13000.00000" pt_clust_7="13000.00000" pt_clust_8="13000.00000" pt_clust_9="278.15162"></scales>
<clustering>
<clus scale="   91.390">  7  8 -1 -1</clus>
<clus scale="   91.428">  5  6 -1 -1</clus>
<clus scale="  147.245">  2  5  1 -1</clus>
<clus scale="  278.152">  1  9  2 -1</clus>
<clus scale="  278.152">  1  5  2 -1</clus>
</clustering>
</event>
<event>
 9    1  0.1435532E-005  0.9822273E+02  0.7546771E-02  0.1285389E+00
          1   -1    0    0  502    0  0.00000000000E+00  0.00000000000E+00  0.31034417747E+03  0.31034417747E+03  0.00000000000E+00 0. -1.
         -1   -1    0    0    0  501 -0.00000000000E+00 -0.00000000000E+00 -0.82106768020E+02  0.82106768020E+02  0.00000000000E+00 0.  1.
         23    2    1    2    0    0 -0.13174390384E+02 -0.29646904127E+02 -0.28834449211E+02  0.99011646207E+02  0.88990882325E+02 0.  0.
         23    2    1    2    0    0  0.40974027303E+02  0.36351832990E+02  0.16058628447E+03  0.19280510077E+03  0.91572514691E+02 0.  0.
        -11    1    4    4    0    0  0.90413442489E+00  0.35959367497E+02  0.10515212637E+02  0.37476169316E+02  0.00000000000E+00 0.  1.
         11    1    4    4    0    0  0.40069892878E+02  0.39246549352E+00  0.15007107184E+03  0.15532893145E+03  0.00000000000E+00 0. -1.
        -11    1    3    3    0    0  0.13592766988E+02 -0.55551856517E+02 -0.13727945045E+02  0.58815206809E+02  0.00000000000E+00 0. -1.
         11    1    3    3    0    0 -0.26767157373E+02  0.25904952390E+02 -0.15106504166E+02  0.40196439398E+02  0.00000000000E+00 0.  1.
         21    1    1    2  502  501 -0.27799636919E+02 -0.67049288632E+01  0.96485574193E+02  0.10063419852E+03  0.00000000000E+00 0. -1.
<scales pt_clust_5="13000.00000" pt_clust_6="13000.00000" pt_clust_7="13000.00000" pt_clust_8="13000.00000" pt_clust_9="28.59678"></scales>
<clustering>
<clus scale="   28.597">  1  9  2 -1</clus>
<clus scale="   88.991">  7  8 -1 -1</clus>
<clus scale="   91.573">  5  6 -1 -1</clus>
<clus scale="   95.820">  2  7  1 -1</clus>
<clus scale="   28.597">  1  5  2 -1</clus>
</clustering>
</event>
<event>
 9    1  0.1435532E-005  0.1474796E+03  0.7546771E-02  0.1215782E+00
          2   -1    0    0  502    0  0.00000000000E+00  0.00000000000E+00  0.21761463489E+03  0.21761463489E+03  0.00000000000E+00 0. -1.
         -2   -1    0    0    0  501 -0.00000000000E+00 -0.00000000000E+00 -0.23138411569E+03  0.23138411569E+03  0.00000000000E+00 0.  1.
         23    2    1    2    0    0  0.95337081307E+01  0.64817213592E+02 -0.10114050959E+03  0.15217026730E+03  0.92920529492E+02 0.  0.
         23    2    1    2    0    0  0.10403704546E+03 -0.75444455055E+01 -0.78203174840E+01  0.13795784897E+03  0.89947680576E+02 0.  0.
        -11    1    3    3    0    0  0.33299463740E+02  0.58251506064E+02 -0.10748705078E+03  0.12671052967E+03  0.00000000000E+00 0.  1.
         11    1    3    3    0    0 -0.23765755610E+02  0.65657075278E+01  0.63465411887E+01  0.25459737628E+02  0.00000000000E+00 0. -1.
        -13    1    4    4    0    0  0.59161180340E+02  0.10018887551E+02 -0.46703263211E+02  0.76036952605E+02  0.00000000000E+00 0.  1.
         13    1    4    4    0    0  0.44875865124E+02 -0.17563333057E+02  0.38882945727E+02  0.61920896369E+02  0.00000000000E+00 0. -1.
         21    1    1    2  502  501 -0.11357075360E+03 -0.57272768086E+02  0.95191346276E+02  0.15887063430E+03  0.00000000000E+00 0. -1.
<scales pt_clust_5="13000.00000" pt_clust_6="13000.00000" pt_clust_7="13000.00000" pt_clust_8="13000.00000" pt_clust_9="116.87447"></scales>
<clustering>
<clus scale="   89.948">  7  8 -1 -1</clus>
<clus scale="   92.921">  5  6 -1 -1</clus>
<clus scale="  113.694">  2  5  1 -1</clus>
<clus scale="  116.874">  1  9  2 -1</clus>
<clus scale="  116.874">  1  5  2 -1</clus>
</clustering>
</event>
<event>
 9    1  0.1435532E-005  0.9756105E+02  0.7546771E-02  0.1285850E+00
          3   -1    0    0  502    0  0.00000000000E+00  0.00000000000E+00  0.19286485939E+03  0.19286485939E+03  0.00000000000E+00 0. -1.
         -3   -1    0    0    0  501 -0.00000000000E+00 -0.00000000000E+00 -0.61367139864E+02  0.61367139864E+02  0.00000000000E+00 0.  1.
         23    2    1    2    0    0 -0.21670643721E+02 -0.43406536893E+01  0.54008649532E+02  0.11149836408E+03  0.95007857018E+02 0.  0.
         23    2    1    2    0    0  0.20980387387E+02 -0.16899041543E+02  0.58603635959E+02  0.11430370858E+03  0.94367353399E+02 0.  0.
        -11    1    4    4    0    0 -0.26338192387E+02  0.21228323778E+02  0.69183776289E+01  0.34528337024E+02  0.00000000000E+00 0.  1.
         11    1    4    4    0    0  0.47318579774E+02 -0.38127365321E+02  0.51685258331E+02  0.79775371556E+02  0.00000000000E+00 0. -1.
        -13    1    3    3    0    0 -0.23566335004E+02  0.19833567408E+02 -0.17890463161E+02  0.35620376385E+02  0.00000000000E+00 0.  1.
         13    1    3    3    0    0  0.18956912830E+01 -0.24174221097E+02  0.71899112693E+02  0.75877987698E+02  0.00000000000E+00 0. -1.
         21    1    1    2  502  501  0.69025633417E+00  0.21239695233E+02  0.18885434037E+02  0.28429926594E+02  0.00000000000E+00 0. -1.
<scales pt_clust_5="13000.00000" pt_clust_6="13000.00000" pt_clust_7="13000.00000" pt_clust_8="13000.00000" pt_clust_9="21.25091"></scales>
<clustering>
<clus scale="   21.251">  1  9  2 -1</clus>
<clus scale="   94.367">  5  6 -1 -1</clus>
<clus scale="   95.008">  7  8 -1 -1</clus>
<clus scale="   96.937">  1  5  2 -1</clus>
<clus scale="   21.251">  1  5  2 -1</clus>
</clustering>
</event>
<event>
 9    1  0.1435532E-005  0.1194568E+03  0.7546771E-02  0.1244154E+00
          2   -1    0    0  502    0  0.00000000000E+00  0.00000000000E+00  0.65551692931E+02  0.65551692931E+02  0.00000000000E+00 0. -1.
         -2   -1    0    0    0  501 -0.00000000000E+00 -0.00000000000E+00 -0.36923763811E+03  0.36923763811E+03  0.00000000000E+00 0.  1.
         23    2    1    2    0    0  0.61764957541E+02  0.60010402570E+02 -0.22435448857E+03  0.25686387076E+03  0.90708065595E+02 0.  0.
         23    2    1    2    0    0 -0.47346368987E+02 -0.42120103016E+02 -0.98157791738E+02  0.14822042016E+03  0.91206135430E+02 0.  0.
        -11    1    4    4    0    0  0.27074904566E+02 -0.16717558194E+02 -0.21510841811E+02  0.38408899030E+02  0.00000000000E+00 0.  1.
         11    1    4    4    0    0 -0.74421273553E+02 -0.25402544822E+02 -0.76646949926E+02  0.10981152113E+03  0.00000000000E+00 0. -1.
        -13    1    3    3    0    0  0.74993331937E+02  0.42199769922E+02 -0.21708394559E+03  0.23351715108E+03  0.00000000000E+00 0.  1.
         13    1    3    3    0    0 -0.13228374397E+02  0.17810632648E+02 -0.72705429789E+01  0.23346719678E+02  0.00000000000E+00 0. -1.
         21    1    1    2  502  501 -0.14418588554E+02 -0.17890299554E+02  0.18826335128E+02  0.29705040117E+02  0.00000000000E+00 0. -1.
<scales pt_clust_5="13000.00000" pt_clust_6="13000.00000" pt_clust_7="13000.00000" pt_clust_8="13000.00000" pt_clust_9="22.97735"></scales>
<clustering>
<clus scale="   22.977">  1  9  2 -1</clus>
<clus scale="   90.708">  7  8 -1 -1</clus>
<clus scale="   91.206">  5  6 -1 -1</clus>
<clus scale="  119.077">  2  7  1 -1</clus>
<clus scale="   22.977">  1  5  2 -1</clus>
</clustering>
</event>
<event>
 9    1  0.1435532E-005  0.1153404E+03  0.7546771E-02  0.1254663E+00
          3   -1    0    0  502    0  0.00000000000E+00  0.00000000000E+00  0.59938282698E+02  0.59938282698E+02  0.00000000000E+00 0. -1.
         -3   -1    0    0    0  501 -0.00000000000E+00 -0.00000000000E+00 -0.35265551407E+03  0.35265551407E+03  0.00000000000E+00 0.  1.
         23    2    1    2    0    0  0.32421895945E+02 -0.35407790577E+02 -0.13414482689E+03  0.17459863253E+03  0.10092054761E+03 0.  0.
         23    2    1    2    0    0 -0.74491377832E+02  0.13410506209E+01 -0.13396626519E+03  0.17853218274E+03  0.91520578436E+02 0.  0.
        -11    1    3    3    0    0 -0.21481598676E+02 -0.51044254610E+02 -0.72486224709E+02  0.91220763990E+02  0.00000000000E+00 0.  1.
         11    1    3    3    0    0  0.53903494620E+02  0.15636464034E+02 -0.61658602183E+02  0.83377868544E+02  0.00000000000E+00 0. -1.
        -13    1    4    4    0    0 -0.48580654695E+02 -0.42386691125E+02 -0.55652831741E+02  0.85170119619E+02  0.00000000000E+00 0.  1.
         13    1    4    4    0    0 -0.25910723137E+02  0.43727741746E+02 -0.78313433454E+02  0.93362063126E+02  0.00000000000E+00 0. -1.
         21    1    1    2  502  501  0.42069481887E+02  0.34066739956E+02 -0.24606139288E+02  0.59462981494E+02  0.00000000000E+00 0. -1.
<scales pt_clust_5="13000.00000" pt_clust_6="13000.00000" pt_clust_7="13000.00000" pt_clust_8="13000.00000" pt_clust_9="54.13302"></scales>
<clustering>
<clus scale="   54.133">  1  9  2 -1</clus>
<clus scale="   91.521">  7  8 -1 -1</clus>
<clus scale="  100.921">  5  6 -1 -1</clus>
<clus scale="  107.212">  1  7  2 -1</clus>
<clus scale="   54.133">  1  5  2 -1</clus>
</clustering>
</event>
<event>
 9    1  0.1435532E-005  0.9495983E+02  0.7546771E-02  0.1291309E+00
         -1   -1    0    0    0  501 -0.00000000000E+00  0.00000000000E+00  0.85163297132E+02  0.85163297132E+02  0.00000000000E+00 0.  1.
          1   -1    0    0  502    0  0.00000000000E+00 -0.00000000000E+00 -0.20015064215E+03  0.20015064215E+03  0.00000000000E+00 0. -1.
         23    2    1    2    0    0 -0.28436527227E+02 -0.10676696816E+02  0.16810658007E+02  0.98048565233E+02  0.91696755592E+02 0.  0.
         23    2    1    2    0    0  0.21591766125E+02 -0.13006060089E+02 -0.13185267550E+03  0.16261326017E+03  0.91774628215E+02 0.  0.
        -11    1    3    3    0    0  0.20377321415E+02 -0.32727509078E+02 -0.74184400459E+01  0.39260136668E+02  0.00000000000E+00 0. -1.
         11    1    3    3    0    0 -0.48813848642E+02  0.22050812262E+02  0.24229098053E+02  0.58788428565E+02  0.00000000000E+00 0.  1.
        -13    1    4    4    0    0  0.22638835853E+02  0.19246451924E+02 -0.30969205123E+01  0.29875302795E+02  0.00000000000E+00 0.  1.
         13    1    4    4    0    0 -0.10470697275E+01 -0.32252512014E+02 -0.12875575499E+03  0.13273795738E+03  0.00000000000E+00 0. -1.
         21    1    1    2  502  501  0.68447611016E+01  0.23682756905E+02  0.54672480886E-01  0.24652113870E+02  0.00000000000E+00 0.  1.
<scales pt_clust_5="13000.00000" pt_clust_6="13000.00000" pt_clust_7="13000.00000" pt_clust_8="13000.00000" pt_clust_9="24.65205"></scales>
<clustering>
<clus scale="   24.652">  1  9  2 -1</clus>
<clus scale="   91.697">  5  6 -1 -1</clus>
<clus scale="   91.775">  7  8 -1 -1</clus>
<clus scale="   94.885">  1  5  2 -1</clus>
<clus scale="   94.960">  2  5  1 -1</clus>
</clustering>
</event>
<event>
 9    1  0.1435532E-005  0.9895652E+02  0.7546771E-02  0.1282859E+00
          1   -1    0    0  502    0  0.00000000000E+00  0.00000000000E+00  0.40512444283E+03  0.40512444283E+03  0.00000000000E+00 0. -1.
         -1   -1    0    0    0  501 -0.00000000000E+00 -0.00000000000E+00 -0.38971535577E+02  0.38971535577E+02  0.00000000000E+00 0.  1.
         23    2    1    2    0    0 -0.12698753742E+02 -0.38625574825E+02  0.71858617003E+02  0.12229525196E+03  0.90217927466E+02 0.  0.
         23    2    1    2    0    0 -0.16896951291E+02  0.39275375078E+02  0.22223805606E+03  0.24390060526E+03  0.90937833888E+02 0.  0.
        -11    1    4    4    0    0 -0.37319145794E+02  0.11752338172E+01  0.17865586264E+03  0.18251579951E+03  0.00000000000E+00 0. -1.
         11    1    4    4    0    0  0.20422194504E+02  0.38100141261E+02  0.43582193422E+02  0.61384805741E+02  0.00000000000E+00 0.  1.
        -13    1    3    3    0    0 -0.51626005113E+02 -0.17114901812E+02  0.36892239449E+02  0.65720632982E+02  0.00000000000E+00 0. -1.
         13    1    3    3    0    0  0.38927251371E+02 -0.21510673013E+02  0.34966377554E+02  0.56574618974E+02  0.00000000000E+00 0.  1.
         21    1    1    2  502  501  0.29595705032E+02 -0.64980025264E+00  0.72056234193E+02  0.77900121199E+02  0.00000000000E+00 0.  1.
<scales pt_clust_5="13000.00000" pt_clust_6="13000.00000" pt_clust_7="13000.00000" pt_clust_8="13000.00000" pt_clust_9="29.60284"></scales>
<clustering>
<clus scale="   29.603">  1  9  2 -1</clus>
<clus scale="   90.218">  7  8 -1 -1</clus>
<clus scale="   90.938">  5  6 -1 -1</clus>
<clus scale="   98.295">  2  7  1 -1</clus>
<clus scale="   29.603">  1  5  2 -1</clus>
</clustering>
</event>
<event>
 9    1  0.1435532E-005  0.1009900E+03  0.7546771E-02  0.1278316E+00
         -1   -1    0    0    0  501 -0.00000000000E+00  0.00000000000E+00  0.18119547158E+03  0.18119547158E+03  0.00000000000E+00 0.  1.
          1   -1    0    0  502    0  0.00000000000E+00 -0.00000000000E+00 -0.20736219578E+03  0.20736219578E+03  0.00000000000E+00 0. -1.
         23    2    1    2    0    0 -0.31461398634E+02 -0.39448063427E+02  0.13265235639E+03  0.16887160326E+03  0.91515033854E+02 0.  0.
         23    2    1    2    0    0  0.38413237860E+00 -0.11337842401E+02 -0.10208051563E+03  0.13744088514E+03  0.91328369135E+02 0.  0.
        -11    1    4    4    0    0 -0.21975091798E+02 -0.42388142529E+01 -0.11032735792E+03  0.11257441144E+03  0.00000000000E+00 0.  1.
         11    1    4    4    0    0  0.22359224177E+02 -0.70990281484E+01  0.82468422901E+01  0.24866473698E+02  0.00000000000E+00 0. -1.
        -13    1    3    3    0    0 -0.35257713055E+02  0.22837466228E+02  0.49873292112E+02  0.65207372740E+02  0.00000000000E+00 0.  1.
         13    1    3    3    0    0  0.37963144206E+01 -0.62285529655E+02  0.82779064275E+02  0.10366423052E+03  0.00000000000E+00 0. -1.
         21    1    1    2  502  501  0.31077266256E+02  0.50785905828E+02 -0.56738564960E+02  0.82245178961E+02  0.00000000000E+00 0.  1.
<scales pt_clust_5="13000.00000" pt_clust_6="13000.00000" pt_clust_7="13000.00000" pt_clust_8="13000.00000" pt_clust_9="59.53994"></scales>
<clustering>
<clus scale="   59.540">  2  9  1 -1</clus>
<clus scale="   91.328">  5  6 -1 -1</clus>
<clus scale="   91.515">  7  8 -1 -1</clus>
<clus scale="  100.821">  2  5  1 -1</clus>
<clus scale="   59.540">  2  5  1 -1</clus>
</clustering>
</event>
<event>
 9    1  0.1435532E-005  0.2892409E+03  0.7546771E-02  0.1090811E+00
         -1   -1    0    0    0  501 -0.00000000000E+00  0.00000000000E+00  0.25431369832E+03  0.25431369832E+03  0.00000000000E+00 0.  1.
          1   -1    0    0  502    0  0.00000000000E+00 -0.00000000000E+00 -0.45872612019E+03  0.45872612019E+03  0.00000000000E+00 0. -1.
         23    2    1    2    0    0 -0.11617886905E+03 -0.24660524784E+03  0.99554343858E+01  0.28715939981E+03  0.89720300643E+02 0.  0.
         23    2    1    2    0    0  0.13809618521E+03  0.24092837176E+03 -0.99489864660E+02  0.30879263700E+03  0.91310584322E+02 0.  0.
        -11    1    4    4    0    0  0.12347646252E+03  0.19620390476E+03 -0.11561300912E+03  0.25905361784E+03  0.00000000000E+00 0. -1.
         11    1    4    4    0    0  0.14619722689E+02  0.44724466999E+02  0.16123144459E+02  0.49739019161E+02  0.00000000000E+00 0.  1.
        -13    1    3    3    0    0 -0.12985355587E+03 -0.21291020721E+03 -0.27041659242E+00  0.24938479390E+03  0.00000000000E+00 0.  1.
         13    1    3    3    0    0  0.13674686821E+02 -0.33695040635E+02  0.10225850978E+02  0.37774605905E+02  0.00000000000E+00 0. -1.
         21    1    1    2  502  501 -0.21917316161E+02  0.56768760840E+01 -0.11487799160E+03  0.11708778170E+03  0.00000000000E+00 0.  1.
<scales pt_clust_5="13000.00000" pt_clust_6="13000.00000" pt_clust_7="13000.00000" pt_clust_8="13000.00000" pt_clust_9="22.64058"></scales>
<clustering>
<clus scale="   22.641">  2  9  1 -1</clus>
<clus scale="   89.720">  7  8 -1 -1</clus>
<clus scale="   91.311">  5  6 -1 -1</clus>
<clus scale="  288.743">  1  7  2 -1</clus>
<clus scale="   22.641">  2  5  1 -1</clus>
</clustering>
</event>
<event>
 9    1  0.1435532E-005  0.9110660E+02  0.7546771E-02  0.1301789E+00
          2   -1    0    0  502    0  0.00000000000E+00  0.00000000000E+00  0.54498372026E+03  0.54498372026E+03  0.00000000000E+00 0. -1.
         -2   -1    0    0    0  501 -0.00000000000E+00 -0.00000000000E+00 -0.20030551988E+02  0.20030551988E+02  0.00000000000E+00 0.  1.
         23    2    1    2    0    0  0.17479973856E+02 -0.43765528019E+01  0.17897779247E+03  0.20142313321E+03  0.90628498244E+02 0.  0.
         23    2    1    2    0    0  0.24508365846E+01 -0.77251904432E+01  0.26624798901E+03  0.28052402401E+03  0.87977560932E+02 0.  0.
        -11    1    4    4    0    0 -0.66409069532E+01  0.37474184986E+02  0.79082545862E+02  0.87763689790E+02  0.00000000000E+00 0.  1.
         11    1    4    4    0    0  0.90917435378E+01 -0.45199375430E+02  0.18716544314E+03  0.19276033422E+03  0.00000000000E+00 0. -1.
        -13    1    3    3    0    0 -0.27222776336E+02 -0.25305981842E+02  0.43404331892E+02  0.57143751149E+02  0.00000000000E+00 0.  1.
         13    1    3    3    0    0  0.44702750191E+02  0.20929429040E+02  0.13557346057E+03  0.14427938206E+03  0.00000000000E+00 0. -1.
         21    1    1    2  502  501 -0.19930810440E+02  0.12101743245E+02  0.79727386802E+02  0.83067115038E+02  0.00000000000E+00 0. -1.
<scales pt_clust_5="13000.00000" pt_clust_6="13000.00000" pt_clust_7="13000.00000" pt_clust_8="13000.00000" pt_clust_9="23.31715"></scales>
<clustering>
<clus scale="   23.317">  1  9  2 -1</clus>
<clus scale="   87.978">  5  6 -1 -1</clus>
<clus scale="   88.470">  1  5  2 -1</clus>
<clus scale="   90.628">  7  8 -1 -1</clus>
<clus scale="   23.317">  1  5  2 -1</clus>
</clustering>
</event>
<event>
 9    1  0.1435532E-005  0.1067120E+03  0.7546771E-02  0.1268068E+00
         -1   -1    0    0    0  501 -0.00000000000E+00  0.00000000000E+00  0.19200299827E+03  0.19200299827E+03  0.00000000000E+00 0.  1.
          1   -1    0    0  502    0  0.00000000000E+00 -0.00000000000E+00 -0.15927436236E+03  0.15927436236E+03  0.00000000000E+00 0. -1.
         23    2    1    2    0    0 -0.19317130765E+02  0.61867253282E+02  0.14174077940E+03  0.17922800038E+03  0.88495869991E+02 0.  0.
         23    2    1    2    0    0 -0.10713191995E+01 -0.39482661037E+02 -0.51832355962E+02  0.10734783813E+03  0.85304964565E+02 0.  0.
        -13    1    3    3    0    0  0.38393878510E+01  0.25229392430E+02  0.13246936429E+03  0.13490513562E+03  0.00000000000E+00 0.  1.
         13    1    3    3    0    0 -0.23156518616E+02  0.36637860852E+02  0.92714151096E+01  0.44322864758E+02  0.00000000000E+00 0. -1.
        -13    1    4    4    0    0 -0.36224634837E+02  0.57780719914E+01 -0.19331690218E+02  0.41464738413E+02  0.00000000000E+00 0. -1.
         13    1    4    4    0    0  0.35153315638E+02 -0.45260733028E+02 -0.32500665745E+02  0.65883099718E+02  0.00000000000E+00 0.  1.
         21    1    1    2  502  501  0.20388449965E+02 -0.22384592245E+02 -0.57179787532E+02  0.64701522116E+02  0.00000000000E+00 0.  1.
<scales pt_clust_5="13000.00000" pt_clust_6="13000.00000" pt_clust_7="13000.00000" pt_clust_8="13000.00000" pt_clust_9="30.27803"></scales>
<clustering>
<clus scale="   30.278">  2  9  1 -1</clus>
<clus scale="   85.305">  7  8 -1 -1</clus>
<clus scale="   88.496">  5  6 -1 -1</clus>
<clus scale="  104.081">  2  7  1 -1</clus>
<clus scale="   30.278">  2  5  1 -1</clus>
</clustering>
</event>
<event>
 9    1  0.1435532E-005  0.9690465E+02  0.7546771E-02  0.1289631E+00
          1   -1    0    0  502    0  0.00000000000E+00  0.00000000000E+00  0.45062487587E+03  0.45062487587E+03  0.00000000000E+00 0. -1.
         -1   -1    0    0    0  501 -0.00000000000E+00 -0.00000000000E+00 -0.19883592530E+03  0.19883592530E+03  0.00000000000E+00 0.  1.
         23    2    1    2    0    0 -0.27682241515E+02  0.31354746813E+02 -0.12962528411E+03  0.16170484611E+03  0.87156849027E+02 0.  0.
         23    2    1    2    0    0 -0.16007606841E+02 -0.93840022532E+01 -0.88399991467E+01  0.94449606927E+02  0.92186114403E+02 0.  0.
        -11    1    4    4    0    0 -0.45913240819E+02  0.19658597188E+02 -0.15365062016E+02  0.52254868258E+02  0.00000000000E+00 0.  1.
         11    1    4    4    0    0  0.29905633978E+02 -0.29042599441E+02  0.65250628697E+01  0.42194738669E+02  0.00000000000E+00 0. -1.
        -11    1    3    3    0    0 -0.23876495371E+02 -0.14483701157E+02 -0.43632289201E+01  0.28264861525E+02  0.00000000000E+00 0. -1.
         11    1    3    3    0    0 -0.38057461436E+01  0.45838447971E+02 -0.12526205519E+03  0.13343998459E+03  0.00000000000E+00 0.  1.
         21    1    1    2  502  501  0.43689848356E+02 -0.21970744560E+02  0.39025423383E+03  0.39330634814E+03  0.00000000000E+00 0. -1.
<scales pt_clust_5="13000.00000" pt_clust_6="13000.00000" pt_clust_7="13000.00000" pt_clust_8="13000.00000" pt_clust_9="48.90313"></scales>
<clustering>
<clus scale="   48.903">  1  9  2 -1</clus>
<clus scale="   87.157">  7  8 -1 -1</clus>
<clus scale="   92.133">  2  7  1 -1</clus>
<clus scale="   92.186">  5  6 -1 -1</clus>
<clus scale="   48.903">  1  5  2 -1</clus>
</clustering>
</event>
<event>
 9    1  0.1435532E-005  0.9469500E+02  0.7546771E-02  0.1292588E+00
          2   -1    0    0  502    0  0.00000000000E+00  0.00000000000E+00  0.50540079908E+03  0.50540079908E+03  0.00000000000E+00 0. -1.
         -2   -1    0    0    0  501 -0.00000000000E+00 -0.00000000000E+00 -0.28911340942E+02  0.28911340942E+02  0.00000000000E+00 0.  1.
         23    2    1    2    0    0  0.12489418120E+02  0.47975272895E+00  0.14255758793E+03  0.16962111891E+03  0.91062848498E+02 0.  0.
         23    2    1    2    0    0 -0.40892934861E+02  0.31514067603E+02  0.24620670668E+03  0.26708944009E+03  0.89742175213E+02 0.  0.
        -11    1    4    4    0    0 -0.19912337006E+02 -0.31392836722E+02  0.92205301399E+02  0.99417448009E+02  0.00000000000E+00 0.  1.
         11    1    4    4    0    0 -0.20980597855E+02  0.62906904325E+02  0.15400140528E+03  0.16767199208E+03  0.00000000000E+00 0. -1.
        -11    1    3    3    0    0  0.16122010277E+02 -0.34292573725E+02  0.12476494032E+03  0.13039244672E+03  0.00000000000E+00 0. -1.
         11    1    3    3    0    0 -0.36325921578E+01  0.34772326454E+02  0.17792647604E+02  0.39228672187E+02  0.00000000000E+00 0.  1.
         21    1    1    2  502  501  0.28403516741E+02 -0.31993820332E+02  0.87725163532E+02  0.97601581030E+02  0.00000000000E+00 0.  1.
<scales pt_clust_5="13000.00000" pt_clust_6="13000.00000" pt_clust_7="13000.00000" pt_clust_8="13000.00000" pt_clust_9="42.78276"></scales>
<clustering>
<clus scale="   42.783">  1  9  2 -1</clus>
<clus scale="   89.742">  5  6 -1 -1</clus>
<clus scale="   91.063">  7  8 -1 -1</clus>
<clus scale="   93.426">  1  5  2 -1</clus>
<clus scale="   42.783">  1  5  2 -1</clus>
</clustering>
</event>
<event>
 9    1  0.1435532E-005  0.9429551E+02  0.7546771E-02  0.1293364E+00
          1   -1    0    0  502    0  0.00000000000E+00  0.00000000000E+00  0.10556502239E+03  0.10556502239E+03  0.00000000000E+00 0. -1.
         -1   -1    0    0    0  501 -0.00000000000E+00 -0.00000000000E+00 -0.14517652565E+03  0.14517652565E+03  0.00000000000E+00 0.  1.
         23    2    1    2    0    0  0.20354527869E+02  0.18030026053E+02 -0.51600810585E+02  0.10813267444E+03  0.91052968010E+02 0.  0.
         23    2    1    2    0    0  0.39706988144E+01 -0.17349260438E+02 -0.26124810141E+02  0.97388678495E+02  0.92115610552E+02 0.  0.
        -11    1    3    3    0    0 -0.12268003060E+02 -0.29458200038E+02 -0.36680039815E+02  0.48618049831E+02  0.00000000000E+00 0.  1.
         11    1    3    3    0    0  0.32622530928E+02  0.47488226091E+02 -0.14920770770E+02  0.59514624604E+02  0.00000000000E+00 0. -1.
        -13    1    4    4    0    0  0.16252743920E+02 -0.42636687646E+02 -0.44554266288E+02  0.63773987352E+02  0.00000000000E+00 0.  1.
         13    1    4    4    0    0 -0.12282045105E+02  0.25287427208E+02  0.18429456147E+02  0.33614691143E+02  0.00000000000E+00 0. -1.
         21    1    1    2  502  501 -0.24325226683E+02 -0.68076561453E+00  0.38114117472E+02  0.45220195108E+02  0.00000000000E+00 0. -1.
<scales pt_clust_5="13000.00000" pt_clust_6="13000.00000" pt_clust_7="13000.00000" pt_clust_8="13000.00000" pt_clust_9="24.33475"></scales>
<clustering>
<clus scale="   24.335">  1  9  2 -1</clus>
<clus scale="   91.053">  5  6 -1 -1</clus>
<clus scale="   92.116">  7  8 -1 -1</clus>
<clus scale="   93.258">  2  5  1 -1</clus>
<clus scale="   24.335">  1  5  2 -1</clus>
</clustering>
</event>
<event>
 9    1  0.1435532E-005  0.1023493E+03  0.7546771E-02  0.1276689E+00
         -2   -1    0    0    0  501 -0.00000000000E+00  0.00000000000E+00  0.17075066507E+02  0.17075066507E+02  0.00000000000E+00 0.  1.
          2   -1    0    0  502    0  0.00000000000E+00 -0.00000000000E+00 -0.74723329558E+03  0.74723329558E+03  0.00000000000E+00 0. -1.
         23    2    1    2    0    0  0.25866641157E+02 -0.30076520938E+02 -0.29602954269E+03  0.31184213433E+03  0.89656825541E+02 0.  0.
         23    2    1    2    0    0 -0.16096746614E+02  0.48266871046E+02 -0.33478980116E+03  0.35100414718E+03  0.92362894523E+02 0.  0.
        -11    1    4    4    0    0 -0.31308593652E+02  0.71197121571E+02 -0.23867714991E+03  0.25102995846E+03  0.00000000000E+00 0. -1.
         11    1    4    4    0    0  0.15211847038E+02 -0.22930250525E+02 -0.96112651245E+02  0.99974188713E+02  0.00000000000E+00 0.  1.
        -11    1    3    3    0    0 -0.83932751044E+00 -0.53828059714E+02 -0.23526890962E+03  0.24134958942E+03  0.00000000000E+00 0.  1.
         11    1    3    3    0    0  0.26705968667E+02  0.23751538777E+02 -0.60760633072E+02  0.70492544911E+02  0.00000000000E+00 0. -1.
         21    1    1    2  502  501 -0.97698945424E+01 -0.18190350108E+02 -0.99338885226E+02  0.10146208057E+03  0.00000000000E+00 0.  1.
<scales pt_clust_5="13000.00000" pt_clust_6="13000.00000" pt_clust_7="13000.00000" pt_clust_8="13000.00000" pt_clust_9="20.64799"></scales>
<clustering>
<clus scale="   20.648">  2  9  1 -1</clus>
<clus scale="   89.657">  7  8 -1 -1</clus>
<clus scale="   92.363">  5  6 -1 -1</clus>
<clus scale="   99.914">  1  7  2 -1</clus>
<clus scale="   20.648">  2  5  1 -1</clus>
</clustering>
</event>
<event>
 9    1  0.1435532E-005  0.1586921E+03  0.7546771E-02  0.1190663E+00
          1   -1    0    0  502    0  0.00000000000E+00  0.00000000000E+00  0.61069330772E+02  0.61069330772E+02  0.00000000000E+00 0. -1.
         -1   -1    0    0    0  501 -0.00000000000E+00 -0.00000000000E+00 -0.91202269032E+03  0.91202269032E+03  0.00000000000E+00 0.  1.
         23    2    1    2    0    0 -0.97588695687E+02  0.76498285477E+02 -0.72230762221E+03  0.73897845146E+03  0.94790871980E+02 0.  0.
         23    2    1    2    0    0  0.11776327148E+03 -0.83557232013E+02 -0.12603517505E+03  0.21258086730E+03  0.91955210077E+02 0.  0.
        -13    1    4    4    0    0  0.70376490962E+02 -0.27453852745E+02 -0.11338105709E+02  0.76387938523E+02  0.00000000000E+00 0. -1.
         13    1    4    4    0    0  0.47386780516E+02 -0.56103379268E+02 -0.11469706934E+03  0.13619292877E+03  0.00000000000E+00 0.  1.
        -13    1    3    3    0    0 -0.10488318761E+03  0.30343197394E+02 -0.52119833477E+03  0.53251187483E+03  0.00000000000E+00 0.  1.
         13    1    3    3    0    0  0.72944919278E+01  0.46155088083E+02 -0.20110928744E+03  0.20646657662E+03  0.00000000000E+00 0. -1.
         21    1    1    2  502  501 -0.20174575791E+02  0.70589465358E+01 -0.26105622909E+01  0.21532702339E+02  0.00000000000E+00 0.  1.
<scales pt_clust_5="13000.00000" pt_clust_6="13000.00000" pt_clust_7="13000.00000" pt_clust_8="13000.00000" pt_clust_9="21.37387"></scales>
<clustering>
<clus scale="   21.374">  1  9  2 -1</clus>
<clus scale="   91.955">  5  6 -1 -1</clus>
<clus scale="   94.791">  7  8 -1 -1</clus>
<clus scale="  157.015">  1  5  2 -1</clus>
<clus scale="   21.374">  1  5  2 -1</clus>
</clustering>
</event>
<event>
 9    1  0.1435532E-005  0.1132983E+03  0.7546771E-02  0.1254801E+00
          2   -1    0    0  502    0  0.00000000000E+00  0.00000000000E+00  0.24203499318E+03  0.24203499318E+03  0.00000000000E+00 0. -1.
         -2   -1    0    0    0  501 -0.00000000000E+00 -0.00000000000E+00 -0.14872496259E+03  0.14872496259E+03  0.00000000000E+00 0.  1.
         23    2    1    2    0    0  0.61423197937E+02  0.27078772518E+02 -0.90359515999E+02  0.14413084812E+03  0.90015499128E+02 0.  0.
         23    2    1    2    0    0 -0.73962788084E+02 -0.80507044136E+01  0.83626406992E+02  0.14402336473E+03  0.90631373046E+02 0.  0.
        -11    1    3    3    0    0  0.29936880864E+02 -0.26306899253E+02 -0.66879250164E+02  0.77853091696E+02  0.00000000000E+00 0.  1.
         11    1    3    3    0    0  0.31486317072E+02  0.53385671771E+02 -0.23480265836E+02  0.66277756427E+02  0.00000000000E+00 0. -1.
        -13    1    4    4    0    0 -0.20071354050E+02  0.34912219748E+02  0.68481241162E+01  0.40848734926E+02  0.00000000000E+00 0.  1.
         13    1    4    4    0    0 -0.53891434034E+02 -0.42962924161E+02  0.76778282876E+02  0.10317462981E+03  0.00000000000E+00 0. -1.
         21    1    1    2  502  501  0.12539590147E+02 -0.19028068104E+02  0.10004313960E+03  0.10260574291E+03  0.00000000000E+00 0.  1.
<scales pt_clust_5="13000.00000" pt_clust_6="13000.00000" pt_clust_7="13000.00000" pt_clust_8="13000.00000" pt_clust_9="22.78835"></scales>
<clustering>
<clus scale="   22.788">  1  9  2 -1</clus>
<clus scale="   90.015">  5  6 -1 -1</clus>
<clus scale="   90.631">  7  8 -1 -1</clus>
<clus scale="  112.806">  2  5  1 -1</clus>
<clus scale="   22.788">  1  5  2 -1</clus>
</clustering>
</event>
<event>
 9    1  0.1435532E-005  0.1487954E+03  0.7546771E-02  0.1203409E+00
         -2   -1    0    0    0  501 -0.00000000000E+00  0.00000000000E+00  0.12891003220E+03  0.12891003220E+03  0.00000000000E+00 0.  1.
          2   -1    0    0  502    0  0.00000000000E+00 -0.00000000000E+00 -0.35514885522E+03  0.35514885522E+03  0.00000000000E+00 0. -1.
         23    2    1    2    0    0 -0.95082611540E+02  0.54353420883E+02  0.42089051385E+02  0.14583377330E+03  0.86608335684E+02 0.  0.
         23    2    1    2    0    0  0.11932844640E+03 -0.73692323088E+02 -0.19118085724E+03  0.25507755911E+03  0.94045756844E+02 0.  0.
        -11    1    4    4    0    0  0.44461760040E+02 -0.81608136900E+02 -0.11661215815E+03  0.14911449139E+03  0.00000000000E+00 0.  1.
         11    1    4    4    0    0  0.74866686365E+02  0.79158138116E+01 -0.74568699092E+02  0.10596306772E+03  0.00000000000E+00 0. -1.
        -11    1    3    3    0    0 -0.83325741335E+02  0.28902021716E+01  0.41287408360E+02  0.93038607721E+02  0.00000000000E+00 0.  1.
         11    1    3    3    0    0 -0.11756870205E+02  0.51463218711E+02  0.80164302570E+00  0.52795165580E+02  0.00000000000E+00 0. -1.
         21    1    1    2  502  501 -0.24245834864E+02  0.19338902205E+02 -0.77147017166E+02  0.83147555011E+02  0.00000000000E+00 0.  1.
<scales pt_clust_5="13000.00000" pt_clust_6="13000.00000" pt_clust_7="13000.00000" pt_clust_8="13000.00000" pt_clust_9="31.01377"></scales>
<clustering>
<clus scale="   31.014">  2  9  1 -1</clus>
<clus scale="   86.608">  7  8 -1 -1</clus>
<clus scale="   94.046">  5  6 -1 -1</clus>
<clus scale="  144.210">  1  7  2 -1</clus>
<clus scale="   31.014">  2  5  1 -1</clus>
</clustering>
</event>
<event>
 9    1  0.1435532E-005  0.1198502E+03  0.7546771E-02  0.1243898E+00
         -1   -1    0    0    0  501 -0.00000000000E+00  0.00000000000E+00  0.65629133337E+02  0.65629133337E+02  0.00000000000E+00 0.  1.
          1   -1    0    0  502    0  0.00000000000E+00 -0.00000000000E+00 -0.40957908034E+03  0.40957908034E+03  0.00000000000E+00 0. -1.
         23    2    1    2    0    0  0.85724944218E+02  0.23900305920E+02 -0.51816640173E+02  0.13854684782E+03  0.92683731898E+02 0.  0.
         23    2    1    2    0    0 -0.34054478014E+02 -0.49725559168E+02 -0.17897913019E+03  0.20961551400E+03  0.90954911672E+02 0.  0.
        -11    1    3    3    0    0  0.10563127214E+03  0.17473785258E+02 -0.47773728122E+02  0.11724174991E+03  0.00000000000E+00 0.  1.
         11    1    3    3    0    0 -0.19906327918E+02  0.64265206624E+01 -0.40429120509E+01  0.21305097908E+02  0.00000000000E+00 0. -1.
        -11    1    4    4    0    0  0.23165097771E+02  0.10475517939E+02 -0.32934773570E+02  0.41605979630E+02  0.00000000000E+00 0.  1.
         11    1    4    4    0    0 -0.57219575785E+02 -0.60201077107E+02 -0.14604435662E+03  0.16800953437E+03  0.00000000000E+00 0. -1.
         21    1    1    2  502  501 -0.51670466204E+02  0.25825253248E+02 -0.11315417663E+03  0.12704585185E+03  0.00000000000E+00 0. -1.
<scales pt_clust_5="13000.00000" pt_clust_6="13000.00000" pt_clust_7="13000.00000" pt_clust_8="13000.00000" pt_clust_9="57.76487"></scales>
<clustering>
<clus scale="   57.765">  2  9  1 -1</clus>
<clus scale="   90.955">  7  8 -1 -1</clus>
<clus scale="   92.684">  5  6 -1 -1</clus>
<clus scale="  118.518">  2  7  1 -1</clus>
<clus scale="   57.765">  2  5  1 -1</clus>
</clustering>
</event>
<event>
 9    1  0.1435532E-005  0.1046172E+03  0.7546771E-02  0.1271366E+00
          3   -1    0    0  502    0  0.00000000000E+00  0.00000000000E+00  0.29003662915E+02  0.29003662915E+02  0.00000000000E+00 0. -1.
         -3   -1    0    0    0  501 -0.00000000000E+00 -0.00000000000E+00 -0.60260449309E+03  0.60260449309E+03  0.00000000000E+00 0.  1.
         23    2    1    2    0    0  0.39352060607E+02  0.17904591346E+02 -0.35589216221E+03  0.36988271211E+03  0.91021044430E+02 0.  0.
         23    2    1    2    0    0 -0.51490612043E+02 -0.35327263009E+02 -0.21246112449E+03  0.23985238670E+03  0.92141952133E+02 0.  0.
        -13    1    3    3    0    0  0.64135938976E+02 -0.80560403558E+01 -0.24071028329E+03  0.24923835768E+03  0.00000000000E+00 0.  1.
         13    1    3    3    0    0 -0.24783878369E+02  0.25960631702E+02 -0.11518187892E+03  0.12064435443E+03  0.00000000000E+00 0. -1.
        -13    1    4    4    0    0  0.15845698958E+02 -0.39803236294E+02 -0.98415693826E+02  0.10733607309E+03  0.00000000000E+00 0.  1.
         13    1    4    4    0    0 -0.67336311001E+02  0.44759732845E+01 -0.11404543067E+03  0.13251631361E+03  0.00000000000E+00 0. -1.
         21    1    1    2  502  501  0.12138551436E+02  0.17422671663E+02 -0.52475434734E+01  0.21873057202E+02  0.00000000000E+00 0. -1.
<scales pt_clust_5="13000.00000" pt_clust_6="13000.00000" pt_clust_7="13000.00000" pt_clust_8="13000.00000" pt_clust_9="21.23426"></scales>
<clustering>
<clus scale="   21.234">  1  9  2 -1</clus>
<clus scale="   91.021">  5  6 -1 -1</clus>
<clus scale="   92.142">  7  8 -1 -1</clus>
<clus scale="  103.631">  2  5  1 -1</clus>
<clus scale="   21.234">  1  5  2 -1</clus>
</clustering>
</event>
<event>
 9    1  0.1435532E-005  0.1061834E+03  0.7546771E-02  0.1268209E+00
          1   -1    0    0  502    0  0.00000000000E+00  0.00000000000E+00  0.37207689426E+03  0.37207689426E+03  0.00000000000E+00 0. -1.
         -1   -1    0    0    0  501 -0.00000000000E+00 -0.00000000000E+00 -0.52151750694E+02  0.52151750694E+02  0.00000000000E+00 0.  1.
         23    2    1    2    0    0 -0.10992682670E+01  0.53390672235E+02  0.62949731709E+02  0.12327083393E+03  0.91549208098E+02 0.  0.
         23    2    1    2    0    0 -0.38040197344E+02 -0.41315296332E+02  0.22250156582E+03  0.24742129515E+03  0.92500487429E+02 0.  0.
        -11    1    4    4    0    0 -0.39646738624E+02 -0.68247383351E+02  0.18580595077E+03  0.20187476455E+03  0.00000000000E+00 0. -1.
         11    1    4    4    0    0  0.16065412800E+01  0.26932087019E+02  0.36695615049E+02  0.45546530603E+02  0.00000000000E+00 0.  1.
        -13    1    3    3    0    0  0.37307088106E+02  0.49105671806E+02  0.18530061705E+02  0.64393703211E+02  0.00000000000E+00 0. -1.
         13    1    3    3    0    0 -0.38406356373E+02  0.42850004286E+01  0.44419670004E+02  0.58877130720E+02  0.00000000000E+00 0.  1.
         21    1    1    2  502  501  0.39139465611E+02 -0.12075375903E+02  0.34473846031E+02  0.53536515872E+02  0.00000000000E+00 0. -1.
<scales pt_clust_5="13000.00000" pt_clust_6="13000.00000" pt_clust_7="13000.00000" pt_clust_8="13000.00000" pt_clust_9="40.95989"></scales>
<clustering>
<clus scale="   40.960">  2  9  1 -1</clus>
<clus scale="   91.549">  7  8 -1 -1</clus>
<clus scale="   92.500">  5  6 -1 -1</clus>
<clus scale="  105.356">  2  7  1 -1</clus>
<clus scale="  106.183">  1  5  2 -1</clus>
</clustering>
</event>
<event>
 9    1  0.1435532E-005  0.1668745E+03  0.7546771E-02  0.1181469E+00
          1   -1    0    0  502    0  0.00000000000E+00  0.00000000000E+00  0.36171951819E+03  0.36171951819E+03  0.00000000000E+00 0. -1.
         -1   -1    0    0    0  501 -0.00000000000E+00 -0.00000000000E+00 -0.21308635208E+03  0.21308635208E+03  0.00000000000E+00 0.  1.
         23    2    1    2    0    0  0.12761397975E+03  0.93050976059E+02 -0.97369769302E+02  0.20680391263E+03  0.91340978386E+02 0.  0.
         23    2    1    2    0    0 -0.11937937572E+03 -0.48907604387E+00  0.61028085640E+02  0.16099662174E+03  0.89128056377E+02 0.  0.
        -13    1    4    4    0    0 -0.95611145274E+02 -0.18850219736E+02  0.79474576476E+02  0.12574987153E+03  0.00000000000E+00 0. -1.
         13    1    4    4    0    0 -0.23768230444E+02  0.18361143692E+02 -0.18446490836E+02  0.35246750209E+02  0.00000000000E+00 0.  1.
        -13    1    3    3    0    0 -0.70825297455E+01  0.30916457780E+02 -0.30810813031E+02  0.44218726676E+02  0.00000000000E+00 0. -1.
         13    1    3    3    0    0  0.13469650950E+03  0.62134518279E+02 -0.66558956270E+02  0.16258518596E+03  0.00000000000E+00 0.  1.
         21    1    1    2  502  501 -0.82346040323E+01 -0.92561900015E+02  0.18497484977E+03  0.20700533589E+03  0.00000000000E+00 0. -1.
<scales pt_clust_5="13000.00000" pt_clust_6="13000.00000" pt_clust_7="13000.00000" pt_clust_8="13000.00000" pt_clust_9="92.92747"></scales>
<clustering>
<clus scale="   89.128">  5  6 -1 -1</clus>
<clus scale="   91.341">  7  8 -1 -1</clus>
<clus scale="   92.927">  1  9  2 -1</clus>
<clus scale="  165.674">  1  5  2 -1</clus>
<clus scale="   92.927">  1  5  2 -1</clus>
</clustering>
</event>
<event>
 9    1  0.1435532E-005  0.9301895E+02  0.7546771E-02  0.1296740E+00
          1   -1    0    0  502    0  0.00000000000E+00  0.00000000000E+00  0.38293089357E+03  0.38293089357E+03  0.00000000000E+00 0. -1.
         -1   -1    0    0    0  501 -0.00000000000E+00 -0.00000000000E+00 -0.11239104123E+03  0.11239104123E+03  0.00000000000E+00 0.  1.
         23    2    1    2    0    0  0.60232441757E+01  0.12567927327E+01 -0.21062900090E+02  0.91616048386E+02  0.88949398892E+02 0.  0.
         23    2    1    2    0    0  0.20907236824E+02  0.51698462886E+02  0.42745208932E+00  0.10653158498E+03  0.90768674484E+02 0.  0.
        -11    1    3    3    0    0  0.31518885845E+02 -0.33517915328E+02 -0.96350851364E+01  0.47007719349E+02  0.00000000000E+00 0.  1.
         11    1    3    3    0    0 -0.25495641669E+02  0.34774708061E+02 -0.11427814954E+02  0.44608329037E+02  0.00000000000E+00 0. -1.
        -13    1    4    4    0    0 -0.97158052757E+01  0.58142976552E+02  0.27596875982E+02  0.65089094006E+02  0.00000000000E+00 0. -1.
         13    1    4    4    0    0  0.30623042100E+02 -0.64445136667E+01 -0.27169423892E+02  0.41442490978E+02  0.00000000000E+00 0.  1.
         21    1    1    2  502  501 -0.26930481000E+02 -0.52955255618E+02  0.29117530034E+03  0.29717430143E+03  0.00000000000E+00 0. -1.
<scales pt_clust_5="13000.00000" pt_clust_6="13000.00000" pt_clust_7="13000.00000" pt_clust_8="13000.00000" pt_clust_9="59.40968"></scales>
<clustering>
<clus scale="   59.410">  1  9  2 -1</clus>
<clus scale="   88.949">  5  6 -1 -1</clus>
<clus scale="   90.769">  7  8 -1 -1</clus>
<clus scale="   91.245">  2  5  1 -1</clus>
<clus scale="   59.410">  1  5  2 -1</clus>
</clustering>
</event>
<event>
 9    1  0.1435532E-005  0.1554135E+03  0.7546771E-02  0.1201751E+00
          1   -1    0    0  502    0  0.00000000000E+00  0.00000000000E+00  0.22506393180E+03  0.22506393180E+03  0.00000000000E+00 0. -1.
         -1   -1    0    0    0  501 -0.00000000000E+00 -0.00000000000E+00 -0.22444438406E+03  0.22444438406E+03  0.00000000000E+00 0.  1.
         23    2    1    2    0    0 -0.92400304101E+02 -0.31596510866E+02 -0.97989218872E+02  0.16485825469E+03  0.89667170284E+02 0.  0.
         23    2    1    2    0    0  0.79736104384E+02  0.49062191083E+02 -0.27641080443E+02  0.15657018055E+03  0.12241424417E+03 0.  0.
        -11    1    3    3    0    0 -0.65171097681E+02  0.24402806141E+02 -0.60236563568E+02  0.92039190083E+02  0.00000000000E+00 0.  1.
         11    1    3    3    0    0 -0.27229206419E+02 -0.55999317007E+02 -0.37752655304E+02  0.72819064606E+02  0.00000000000E+00 0. -1.
        -13    1    4    4    0    0  0.34250618377E+02  0.50837367330E+02 -0.70933680925E+02  0.93750359284E+02  0.00000000000E+00 0.  1.
         13    1    4    4    0    0  0.45485486007E+02 -0.17751762466E+01  0.43292600482E+02  0.62819821271E+02  0.00000000000E+00 0. -1.
         21    1    1    2  502  501  0.12664199717E+02 -0.17465680217E+02  0.12624984705E+03  0.12807988062E+03  0.00000000000E+00 0. -1.
<scales pt_clust_5="13000.00000" pt_clust_6="13000.00000" pt_clust_7="13000.00000" pt_clust_8="13000.00000" pt_clust_9="21.57387"></scales>
<clustering>
<clus scale="   21.574">  1  9  2 -1</clus>
<clus scale="   89.667">  5  6 -1 -1</clus>
<clus scale="  122.414">  7  8 -1 -1</clus>
<clus scale="  131.180">  2  5  1 -1</clus>
<clus scale="   21.574">  1  5  2 -1</clus>
</clustering>
</event>
<event>
 9    1  0.1435532E-005  0.1068875E+03  0.7546771E-02  0.1266775E+00
         -3   -1    0    0    0  501 -0.00000000000E+00  0.00000000000E+00  0.28570344361E+03  0.28570344361E+03  0.00000000000E+00 0.  1.
          3   -1    0    0  502    0  0.00000000000E+00 -0.00000000000E+00 -0.68457322088E+02  0.68457322088E+02  0.00000000000E+00 0. -1.
         23    2    1    2    0    0  0.72305325244E+01 -0.46278916455E+02  0.11886095873E+03  0.15627009937E+03  0.89991098112E+02 0.  0.
         23    2    1    2    0    0 -0.31241092344E+02  0.62498813805E+02  0.11675760709E+03  0.16358121045E+03  0.90798491297E+02 0.  0.
        -11    1    3    3    0    0 -0.22080692047E+02  0.18954718352E+02  0.43874461313E+02  0.52647950242E+02  0.00000000000E+00 0.  1.
         11    1    3    3    0    0  0.29311224571E+02 -0.65233634807E+02  0.74986497415E+02  0.10362214913E+03  0.00000000000E+00 0. -1.
        -13    1    4    4    0    0 -0.14909750140E+02 -0.17910624663E+02  0.32605311985E+01  0.23531302317E+02  0.00000000000E+00 0. -1.
         13    1    4    4    0    0 -0.16331342204E+02  0.80409438468E+02  0.11349707589E+03  0.14004990813E+03  0.00000000000E+00 0.  1.
         21    1    1    2  502  501  0.24010559819E+02 -0.16219897350E+02 -0.18372444295E+02  0.34309455872E+02  0.00000000000E+00 0. -1.
<scales pt_clust_5="13000.00000" pt_clust_6="13000.00000" pt_clust_7="13000.00000" pt_clust_8="13000.00000" pt_clust_9="28.97571"></scales>
<clustering>
<clus scale="   28.976">  2  9  1 -1</clus>
<clus scale="   89.991">  5  6 -1 -1</clus>
<clus scale="   90.798">  7  8 -1 -1</clus>
<clus scale="  106.202">  1  5  2 -1</clus>
<clus scale="   28.976">  2  5  1 -1</clus>
</clustering>
</event>
<event>
 9    1  0.1435532E-005  0.1403113E+03  0.7546771E-02  0.1213291E+00
          4   -1    0    0  502    0  0.00000000000E+00  0.00000000000E+00  0.29989544026E+03  0.29989544026E+03  0.00000000000E+00 0. -1.
         -4   -1    0    0    0  501 -0.00000000000E+00 -0.00000000000E+00 -0.78537077419E+02  0.78537077419E+02  0.00000000000E+00 0.  1.
         23    2    1    2    0    0 -0.10797131356E+03  0.21742930091E+02  0.77678369339E+02  0.16297731299E+03  0.91635778646E+02 0.  0.
         23    2    1    2    0    0  0.92810378254E+02 -0.35277264654E+02  0.10600847498E+03  0.17265128572E+03  0.93340334149E+02 0.  0.
        -11    1    3    3    0    0 -0.98899084751E+02  0.40587666113E+02  0.30186068708E+02  0.11108369074E+03  0.00000000000E+00 0.  1.
         11    1    3    3    0    0 -0.90722288042E+01 -0.18844736022E+02  0.47492300630E+02  0.51893622252E+02  0.00000000000E+00 0. -1.
        -13    1    4    4    0    0  0.97698940201E+02 -0.57229276509E+02  0.82330352639E+02  0.13999485695E+03  0.00000000000E+00 0. -1.
         13    1    4    4    0    0 -0.48885619475E+01  0.21952011854E+02  0.23678122343E+02  0.32656428771E+02  0.00000000000E+00 0.  1.
         21    1    1    2  502  501  0.15160935301E+02  0.13534334563E+02  0.37671518520E+02  0.42803918966E+02  0.00000000000E+00 0. -1.
<scales pt_clust_5="13000.00000" pt_clust_6="13000.00000" pt_clust_7="13000.00000" pt_clust_8="13000.00000" pt_clust_9="20.32319"></scales>
<clustering>
<clus scale="   20.323">  1  9  2 -1</clus>
<clus scale="   91.636">  5  6 -1 -1</clus>
<clus scale="   93.340">  7  8 -1 -1</clus>
<clus scale="  139.183">  2  5  1 -1</clus>
<clus scale="   20.323">  1  5  2 -1</clus>
</clustering>
</event>
<event>
 9    1  0.1435532E-005  0.1105740E+03  0.7546771E-02  0.1259642E+00
         -1   -1    0    0    0  501 -0.00000000000E+00  0.00000000000E+00  0.38253364960E+03  0.38253364960E+03  0.00000000000E+00 0.  1.
          1   -1    0    0  502    0  0.00000000000E+00 -0.00000000000E+00 -0.13811452874E+03  0.13811452874E+03  0.00000000000E+00 0. -1.
         23    2    1    2    0    0 -0.61895324456E+02 -0.17761806051E+02  0.33387649845E+03  0.35192601579E+03  0.90729771443E+02 0.  0.
         23    2    1    2    0    0  0.33251588471E+02  0.41439782835E+02 -0.71882284110E+02  0.12761262465E+03  0.91076865688E+02 0.  0.
        -11    1    4    4    0    0  0.48859253809E+01 -0.28626855422E+02 -0.27279096775E+02  0.39843672509E+02  0.00000000000E+00 0.  1.
         11    1    4    4    0    0  0.28365663090E+02  0.70066638257E+02 -0.44603187335E+02  0.87768952140E+02  0.00000000000E+00 0. -1.
        -13    1    3    3    0    0  0.10636101459E+02 -0.35105985051E+02  0.10983634959E+03  0.11579974323E+03  0.00000000000E+00 0. -1.
         13    1    3    3    0    0 -0.72531425915E+02  0.17344179000E+02  0.22404014886E+03  0.23612627256E+03  0.00000000000E+00 0.  1.
         21    1    1    2  502  501  0.28643735985E+02 -0.23677976784E+02 -0.17575093488E+02  0.41109537906E+02  0.00000000000E+00 0.  1.
<scales pt_clust_5="13000.00000" pt_clust_6="13000.00000" pt_clust_7="13000.00000" pt_clust_8="13000.00000" pt_clust_9="37.16329"></scales>
<clustering>
<clus scale="   37.163">  2  9  1 -1</clus>
<clus scale="   90.730">  7  8 -1 -1</clus>
<clus scale="   91.077">  5  6 -1 -1</clus>
<clus scale="  110.288">  1  7  2 -1</clus>
<clus scale="   37.163">  2  5  1 -1</clus>
</clustering>
</event>
<event>
 9    1  0.1435532E-005  0.1499651E+03  0.7546771E-02  0.1201341E+00
          1   -1    0    0  502    0  0.00000000000E+00  0.00000000000E+00  0.26476281748E+03  0.26476281748E+03  0.00000000000E+00 0. -1.
         -1   -1    0    0    0  501 -0.00000000000E+00 -0.00000000000E+00 -0.19935949179E+03  0.19935949179E+03  0.00000000000E+00 0.  1.
         23    2    1    2    0    0 -0.11909085001E+02  0.11495954654E+03 -0.11763349873E+03  0.18697496081E+03  0.88116243102E+02 0.  0.
         23    2    1    2    0    0 -0.27580909815E+02 -0.13324672492E+03  0.14206548693E+03  0.21737669445E+03  0.92491234316E+02 0.  0.
        -11    1    3    3    0    0 -0.20662101901E+02  0.30179506691E+02 -0.90368570518E+02  0.97489505161E+02  0.00000000000E+00 0.  1.
         11    1    3    3    0    0  0.87530169007E+01  0.84780039850E+02 -0.27264928217E+02  0.89485455648E+02  0.00000000000E+00 0. -1.
        -13    1    4    4    0    0 -0.38210098002E+01 -0.11844491838E+03  0.14713858088E+03  0.18892739555E+03  0.00000000000E+00 0. -1.
         13    1    4    4    0    0 -0.23759900015E+02 -0.14801806543E+02 -0.50730939526E+01  0.28449298900E+02  0.00000000000E+00 0.  1.
         21    1    1    2  502  501  0.39489994816E+02  0.18287178381E+02  0.40971337501E+02  0.59770654006E+02  0.00000000000E+00 0. -1.
<scales pt_clust_5="13000.00000" pt_clust_6="13000.00000" pt_clust_7="13000.00000" pt_clust_8="13000.00000" pt_clust_9="43.51874"></scales>
<clustering>
<clus scale="   43.519">  1  9  2 -1</clus>
<clus scale="   88.116">  5  6 -1 -1</clus>
<clus scale="   92.491">  7  8 -1 -1</clus>
<clus scale="  147.307">  2  5  1 -1</clus>
<clus scale="   43.519">  1  5  2 -1</clus>
</clustering>
</event>
<event>
 9    1  0.1435532E-005  0.1526234E+03  0.7546771E-02  0.1215256E+00
          2   -1    0    0  502    0  0.00000000000E+00  0.00000000000E+00  0.72199315129E+02  0.72199315129E+02  0.00000000000E+00 0. -1.
         -2   -1    0    0    0  501 -0.00000000000E+00 -0.00000000000E+00 -0.58189532324E+03  0.58189532324E+03  0.00000000000E+00 0.  1.
         23    2    1    2    0    0 -0.88247627399E+02  0.72880258896E+02 -0.27560309863E+03  0.31136968231E+03  0.88852885184E+02 0.  0.
         23    2    1    2    0    0 -0.49902716208E+02 -0.23887250356E+02 -0.98559577692E+02  0.14308749377E+03  0.87744850018E+02 0.  0.
        -11    1    3    3    0    0 -0.71807847256E+02  0.21743885420E+01 -0.12468817826E+03  0.14390356733E+03  0.00000000000E+00 0.  1.
         11    1    3    3    0    0 -0.16439780143E+02  0.70705870354E+02 -0.15091492038E+03  0.16746611498E+03  0.00000000000E+00 0. -1.
        -11    1    4    4    0    0 -0.74949486291E+01 -0.46953943095E+02 -0.76357181728E+02  0.89951465961E+02  0.00000000000E+00 0. -1.
         11    1    4    4    0    0 -0.42407767579E+02  0.23066692739E+02 -0.22202395963E+02  0.53136027810E+02  0.00000000000E+00 0.  1.
         21    1    1    2  502  501  0.13815034361E+03 -0.48993008540E+02 -0.13553333179E+03  0.19963746229E+03  0.00000000000E+00 0. -1.
<scales pt_clust_5="13000.00000" pt_clust_6="13000.00000" pt_clust_7="13000.00000" pt_clust_8="13000.00000" pt_clust_9="124.09298"></scales>
<clustering>
<clus scale="   87.745">  7  8 -1 -1</clus>
<clus scale="   88.853">  5  6 -1 -1</clus>
<clus scale="  103.731">  1  7  2 -1</clus>
<clus scale="  124.093">  1  9  2 -1</clus>
<clus scale="  103.731">  1  5  2 -1</clus>
</clustering>
</event>
<event>
 9    1  0.1435532E-005  0.1096839E+03  0.7546771E-02  0.1265309E+00
          1   -1    0    0  502    0  0.00000000000E+00  0.00000000000E+00  0.54844493446E+03  0.54844493446E+03  0.00000000000E+00 0. -1.
         -1   -1    0    0    0  501 -0.00000000000E+00 -0.00000000000E+00 -0.59211602126E+02  0.59211602126E+02  0.00000000000E+00 0.  1.
         23    2    1    2    0    0 -0.46573361144E+02  0.62604897264E+01  0.32312894183E+02  0.11163112341E+03  0.95964122893E+02 0.  0.
         23    2    1    2    0    0  0.57704854282E+02 -0.54423313666E+02  0.17983492006E+03  0.21456502150E+03  0.86056973569E+02 0.  0.
        -11    1    3    3    0    0 -0.44047380537E+01  0.28902399714E+02 -0.23928765249E+02  0.37780103665E+02  0.00000000000E+00 0.  1.
         11    1    3    3    0    0 -0.42168623090E+02 -0.22641909988E+02  0.56241659432E+02  0.73851019742E+02  0.00000000000E+00 0. -1.
        -13    1    4    4    0    0  0.69788646252E+02 -0.10519225569E+02  0.95868910475E+02  0.11904602995E+03  0.00000000000E+00 0.  1.
         13    1    4    4    0    0 -0.12083791970E+02 -0.43904088098E+02  0.83966009590E+02  0.95518991549E+02  0.00000000000E+00 0. -1.
         21    1    1    2  502  501 -0.11131493138E+02  0.48162823940E+02  0.27708551808E+03  0.28146039167E+03  0.00000000000E+00 0.  1.
<scales pt_clust_5="13000.00000" pt_clust_6="13000.00000" pt_clust_7="13000.00000" pt_clust_8="13000.00000" pt_clust_9="49.43246"></scales>
<clustering>
<clus scale="   49.432">  1  9  2 -1</clus>
<clus scale="   86.057">  7  8 -1 -1</clus>
<clus scale="   95.964">  5  6 -1 -1</clus>
<clus scale="  101.130">  1  7  2 -1</clus>
<clus scale="   49.432">  1  5  2 -1</clus>
</clustering>
</event>
<event>
 9    1  0.1435532E-005  0.1204989E+03  0.7546771E-02  0.1242928E+00
          1   -1    0    0  502    0  0.00000000000E+00  0.00000000000E+00  0.61000238708E+03  0.61000238708E+03  0.00000000000E+00 0. -1.
         -1   -1    0    0    0  501 -0.00000000000E+00 -0.00000000000E+00 -0.46235987492E+02  0.46235987492E+02  0.00000000000E+00 0.  1.
         23    2    1    2    0    0 -0.77756617078E+02 -0.19878982067E+02  0.59884062077E+02  0.13439013387E+03  0.89628911430E+02 0.  0.
         23    2    1    2    0    0  0.62280033201E+02  0.32768050666E+02  0.42707062777E+03  0.44243985643E+03  0.91712364377E+02 0.  0.
        -11    1    3    3    0    0 -0.27316027983E+02  0.30396331369E+02 -0.72561529858E+00  0.40873327036E+02  0.00000000000E+00 0. -1.
         11    1    3    3    0    0 -0.50440589095E+02 -0.50275313436E+02  0.60609677376E+02  0.93516806837E+02  0.00000000000E+00 0.  1.
        -13    1    4    4    0    0  0.77707798595E+01 -0.29331914683E+02  0.77319963352E+02  0.83060959369E+02  0.00000000000E+00 0.  1.
         13    1    4    4    0    0  0.54509253341E+02  0.62099965349E+02  0.34975066442E+03  0.35937889706E+03  0.00000000000E+00 0. -1.
         21    1    1    2  502  501  0.15476583877E+02 -0.12889068599E+02  0.76811709749E+02  0.79408384270E+02  0.00000000000E+00 0. -1.
<scales pt_clust_5="13000.00000" pt_clust_6="13000.00000" pt_clust_7="13000.00000" pt_clust_8="13000.00000" pt_clust_9="20.14082"></scales>
<clustering>
<clus scale="   20.141">  1  9  2 -1</clus>
<clus scale="   89.629">  5  6 -1 -1</clus>
<clus scale="   91.712">  7  8 -1 -1</clus>
<clus scale="  118.921">  2  5  1 -1</clus>
<clus scale="   20.141">  1  5  2 -1</clus>
</clustering>
</event>
<event>
 9    1  0.1435532E-005  0.1021120E+03  0.7546771E-02  0.1276405E+00
         -1   -1    0    0    0  501 -0.00000000000E+00  0.00000000000E+00  0.88917645167E+02  0.88917645167E+02  0.00000000000E+00 0.  1.
          1   -1    0    0  502    0  0.00000000000E+00 -0.00000000000E+00 -0.27420357378E+03  0.27420357378E+03  0.00000000000E+00 0. -1.
         23    2    1    2    0    0 -0.48455974576E+02 -0.13696452953E+02  0.35611488692E+02  0.10814831403E+03  0.88838648154E+02 0.  0.
         23    2    1    2    0    0  0.41284482555E+02 -0.11369745231E+02 -0.19019908488E+03  0.21469720253E+03  0.89919504430E+02 0.  0.
        -11    1    4    4    0    0  0.67129206259E+02 -0.11055688506E+01 -0.16068021315E+03  0.17414271020E+03  0.00000000000E+00 0.  1.
         11    1    4    4    0    0 -0.25844723705E+02 -0.10264176381E+02 -0.29518871727E+02  0.40554492330E+02  0.00000000000E+00 0. -1.
        -11    1    3    3    0    0 -0.65384368889E+02 -0.35175340962E+02  0.21084498843E+02  0.77181451128E+02  0.00000000000E+00 0. -1.
         11    1    3    3    0    0  0.16928394313E+02  0.21478888009E+02  0.14526989849E+02  0.30966862905E+02  0.00000000000E+00 0.  1.
         21    1    1    2  502  501  0.71714920215E+01  0.25066198185E+02 -0.30698332427E+02  0.40275702391E+02  0.00000000000E+00 0.  1.
<scales pt_clust_5="13000.00000" pt_clust_6="13000.00000" pt_clust_7="13000.00000" pt_clust_8="13000.00000" pt_clust_9="26.07191"></scales>
<clustering>
<clus scale="   26.072">  2  9  1 -1</clus>
<clus scale="   88.839">  7  8 -1 -1</clus>
<clus scale="   89.920">  5  6 -1 -1</clus>
<clus scale="  101.162">  1  7  2 -1</clus>
<clus scale="   26.072">  2  5  1 -1</clus>
</clustering>
</event>
<event>
 9    1  0.1435532E-005  0.9483843E+02  0.7546771E-02  0.1292953E+00
          2   -1    0    0  502    0  0.00000000000E+00  0.00000000000E+00  0.24880269775E+03  0.24880269775E+03  0.00000000000E+00 0. -1.
         -2   -1    0    0    0  501 -0.00000000000E+00 -0.00000000000E+00 -0.57820679503E+02  0.57820679503E+02  0.00000000000E+00 0.  1.
         23    2    1    2    0    0 -0.14622050952E+02  0.59638655462E+00  0.19959090412E+02  0.95384061358E+02  0.92117282960E+02 0.  0.
         23    2    1    2    0    0 -0.12773270827E+02  0.57785825582E+01  0.12649800345E+03  0.15857421571E+03  0.94591165263E+02 0.  0.
        -11    1    4    4    0    0  0.11916426990E+02 -0.30393205192E+02  0.10466671058E+03  0.10963972117E+03  0.00000000000E+00 0.  1.
         11    1    4    4    0    0 -0.24689697817E+02  0.36171787750E+02  0.21831292872E+02  0.48934494540E+02  0.00000000000E+00 0. -1.
        -13    1    3    3    0    0  0.31422000705E+02  0.36535192617E+01 -0.17317252374E+02  0.36063521197E+02  0.00000000000E+00 0.  1.
         13    1    3    3    0    0 -0.46044051658E+02 -0.30571327071E+01  0.37276342786E+02  0.59320540161E+02  0.00000000000E+00 0. -1.
         21    1    1    2  502  501  0.27395321779E+02 -0.63749691128E+01  0.44524924378E+02  0.52665100184E+02  0.00000000000E+00 0. -1.
<scales pt_clust_5="13000.00000" pt_clust_6="13000.00000" pt_clust_7="13000.00000" pt_clust_8="13000.00000" pt_clust_9="28.12728"></scales>
<clustering>
<clus scale="   28.127">  1  9  2 -1</clus>
<clus scale="   92.117">  7  8 -1 -1</clus>
<clus scale="   92.371">  2  7  1 -1</clus>
<clus scale="   94.591">  5  6 -1 -1</clus>
<clus scale="   28.127">  1  5  2 -1</clus>
</clustering>
</event>
<event>
 9    1  0.1435532E-005  0.9213472E+02  0.7546771E-02  0.1298049E+00
         -2   -1    0    0    0  501 -0.00000000000E+00  0.00000000000E+00  0.12084147537E+03  0.12084147537E+03  0.00000000000E+00 0.  1.
          2   -1    0    0  502    0  0.00000000000E+00 -0.00000000000E+00 -0.99389264593E+02  0.99389264593E+02  0.00000000000E+00 0. -1.
         23    2    1    2    0    0 -0.10981400722E+02  0.21150441252E+01  0.33224650967E+02  0.97396808090E+02  0.90869115880E+02 0.  0.
         23    2    1    2    0    0 -0.17210092543E+01 -0.22210010806E+02  0.43061780832E+01  0.94134090923E+02  0.91358838933E+02 0.  0.
        -11    1    4    4    0    0  0.22619602199E+02  0.29311237833E+02  0.28518214495E+01  0.37133919165E+02  0.00000000000E+00 0.  1.
         11    1    4    4    0    0 -0.24340611453E+02 -0.51521248639E+02  0.14543566337E+01  0.57000171758E+02  0.00000000000E+00 0. -1.
        -13    1    3    3    0    0  0.34514909020E+02  0.72770560977E+01 -0.75641538413E+01  0.36075627693E+02  0.00000000000E+00 0. -1.
         13    1    3    3    0    0 -0.45496309741E+02 -0.51620119725E+01  0.40788804808E+02  0.61321180398E+02  0.00000000000E+00 0.  1.
         21    1    1    2  502  501  0.12702409976E+02  0.20094966681E+02 -0.16078618272E+02  0.28699840951E+02  0.00000000000E+00 0. -1.
<scales pt_clust_5="13000.00000" pt_clust_6="13000.00000" pt_clust_7="13000.00000" pt_clust_8="13000.00000" pt_clust_9="23.77307"></scales>
<clustering>
<clus scale="   23.773">  2  9  1 -1</clus>
<clus scale="   90.869">  7  8 -1 -1</clus>
<clus scale="   91.359">  5  6 -1 -1</clus>
<clus scale="   91.649">  1  7  2 -1</clus>
<clus scale="   23.773">  2  5  1 -1</clus>
</clustering>
</event>
<event>
 9    1  0.1435532E-005  0.1678374E+03  0.7546771E-02  0.1180282E+00
          1   -1    0    0  502    0  0.00000000000E+00  0.00000000000E+00  0.89982168417E+02  0.89982168417E+02  0.00000000000E+00 0. -1.
         -1   -1    0    0    0  501 -0.00000000000E+00 -0.00000000000E+00 -0.42699234569E+03  0.42699234569E+03  0.00000000000E+00 0.  1.
         23    2    1    2    0    0 -0.57740442396E+02  0.11150182225E+03 -0.20215470869E+03  0.25515245556E+03  0.92030615997E+02 0.  0.
         23    2    1    2    0    0  0.72335434931E+02 -0.12947274307E+03 -0.60881121116E+02  0.18430966028E+03  0.90928178354E+02 0.  0.
        -13    1    4    4    0    0  0.26625222264E+02  0.48047546153E+01 -0.27525789989E+02  0.38596078066E+02  0.00000000000E+00 0.  1.
         13    1    4    4    0    0  0.45710212666E+02 -0.13427749768E+03 -0.33355331127E+02  0.14571358221E+03  0.00000000000E+00 0. -1.
        -13    1    3    3    0    0 -0.24038234014E+02  0.77407069918E+02 -0.18868204630E+03  0.20535482893E+03  0.00000000000E+00 0.  1.
         13    1    3    3    0    0 -0.33702208381E+02  0.34094752333E+02 -0.13472662386E+02  0.49797626632E+02  0.00000000000E+00 0. -1.
         21    1    1    2  502  501 -0.14594992535E+02  0.17970920816E+02 -0.73974347471E+02  0.77512398272E+02  0.00000000000E+00 0. -1.
<scales pt_clust_5="13000.00000" pt_clust_6="13000.00000" pt_clust_7="13000.00000" pt_clust_8="13000.00000" pt_clust_9="23.15098"></scales>
<clustering>
<clus scale="   23.151">  2  9  1 -1</clus>
<clus scale="   90.928">  5  6 -1 -1</clus>
<clus scale="   92.031">  7  8 -1 -1</clus>
<clus scale="  167.235">  1  5  2 -1</clus>
<clus scale="  167.235">  1  5  2 -1</clus>
</clustering>
</event>
<event>
 9    1  0.1435532E-005  0.1014132E+03  0.7546771E-02  0.1277843E+00
          2   -1    0    0  502    0  0.00000000000E+00  0.00000000000E+00  0.28150039047E+03  0.28150039047E+03  0.00000000000E+00 0. -1.
         -2   -1    0    0    0  501 -0.00000000000E+00 -0.00000000000E+00 -0.10374140508E+03  0.10374140508E+03  0.00000000000E+00 0.  1.
         23    2    1    2    0    0  0.24921322992E+02  0.35999289344E+02 -0.52544274499E+02  0.11487043556E+03  0.92289192270E+02 0.  0.
         23    2    1    2    0    0 -0.28030398786E+02 -0.69977688741E+01  0.11242183635E+03  0.14893502047E+03  0.93318267281E+02 0.  0.
        -11    1    3    3    0    0 -0.22944008363E+02 -0.13432065940E+02  0.25702793812E+01  0.26710564413E+02  0.00000000000E+00 0. -1.
         11    1    3    3    0    0  0.47865331355E+02  0.49431355285E+02 -0.55114553880E+02  0.88159871145E+02  0.00000000000E+00 0.  1.
        -11    1    4    4    0    0  0.28101362655E+02  0.18895977950E+02  0.26063685551E+02  0.42732426449E+02  0.00000000000E+00 0.  1.
         11    1    4    4    0    0 -0.56131761441E+02 -0.25893746824E+02  0.86358150795E+02  0.10620259402E+03  0.00000000000E+00 0. -1.
         21    1    1    2  502  501  0.31090757943E+01 -0.29001520470E+02  0.11788142354E+03  0.12143633953E+03  0.00000000000E+00 0. -1.
<scales pt_clust_5="13000.00000" pt_clust_6="13000.00000" pt_clust_7="13000.00000" pt_clust_8="13000.00000" pt_clust_9="29.16770"></scales>
<clustering>
<clus scale="   29.168">  1  9  2 -1</clus>
<clus scale="   92.289">  5  6 -1 -1</clus>
<clus scale="   93.318">  7  8 -1 -1</clus>
<clus scale="  100.467">  2  5  1 -1</clus>
<clus scale="   29.168">  1  5  2 -1</clus>
</clustering>
</event>
<event>
 9    1  0.1435532E-005  0.1186045E+03  0.7546771E-02  0.1245821E+00
         -4   -1    0    0    0  501 -0.00000000000E+00  0.00000000000E+00  0.23227743867E+03  0.23227743867E+03  0.00000000000E+00 0.  1.
          4   -1    0    0  502    0  0.00000000000E+00 -0.00000000000E+00 -0.35706124980E+03  0.35706124980E+03  0.00000000000E+00 0. -1.
         23    2    1    2    0    0  0.78574142540E+02 -0.58165884125E+01  0.18954758383E+03  0.22532563303E+03  0.92928067825E+02 0.  0.
         23    2    1    2    0    0 -0.29226390085E+02 -0.46435840137E+02 -0.14554112025E+03  0.18055822776E+03  0.91698346773E+02 0.  0.
        -13    1    3    3    0    0  0.19827093041E+02  0.28898662757E+02  0.15389440629E+02  0.38276379276E+02  0.00000000000E+00 0. -1.
         13    1    3    3    0    0  0.58747049499E+02 -0.34715251169E+02  0.17415814320E+03  0.18704925376E+03  0.00000000000E+00 0.  1.
        -13    1    4    4    0    0  0.25355222544E+01 -0.51610730785E+02 -0.28164530948E+02  0.58850124969E+02  0.00000000000E+00 0.  1.
         13    1    4    4    0    0 -0.31761912339E+02  0.51748906483E+01 -0.11737658930E+03  0.12170810279E+03  0.00000000000E+00 0. -1.
         21    1    1    2  502  501 -0.49347752455E+02  0.52252428550E+02 -0.16879027471E+03  0.18345482768E+03  0.00000000000E+00 0. -1.
<scales pt_clust_5="13000.00000" pt_clust_6="13000.00000" pt_clust_7="13000.00000" pt_clust_8="13000.00000" pt_clust_9="71.87153"></scales>
<clustering>
<clus scale="   71.872">  2  9  1 -1</clus>
<clus scale="   91.698">  7  8 -1 -1</clus>
<clus scale="   92.928">  5  6 -1 -1</clus>
<clus scale="  117.644">  2  7  1 -1</clus>
<clus scale="   71.872">  2  5  1 -1</clus>
</clustering>
</event>
<event>
 9    1  0.1435532E-005  0.1592489E+03  0.7546771E-02  0.1189717E+00
         -3   -1    0    0    0  501 -0.00000000000E+00  0.00000000000E+00  0.78705000246E+03  0.78705000246E+03  0.00000000000E+00 0.  1.
          3   -1    0    0  502    0  0.00000000000E+00 -0.00000000000E+00 -0.56422781528E+02  0.56422781528E+02  0.00000000000E+00 0. -1.
         23    2    1    2    0    0 -0.36316741939E+02  0.12543935509E+03  0.59622143388E+03  0.61721751440E+03  0.91779759828E+02 0.  0.
         23    2    1    2    0    0  0.57775489522E+02 -0.11650526608E+03  0.11366329896E+03  0.19510167259E+03  0.90740470026E+02 0.  0.
        -11    1    3    3    0    0 -0.51661061753E+02  0.24615218976E+02  0.19361551555E+03  0.20189537431E+03  0.00000000000E+00 0. -1.
         11    1    3    3    0    0  0.15344319814E+02  0.10082413611E+03  0.40260591833E+03  0.41532214009E+03  0.00000000000E+00 0.  1.
        -11    1    4    4    0    0 -0.98456899554E+01 -0.79850730888E+02  0.70068796247E+02  0.10668979821E+03  0.00000000000E+00 0. -1.
         11    1    4    4    0    0  0.67621179477E+02 -0.36654535194E+02  0.43594502718E+02  0.88411874380E+02  0.00000000000E+00 0.  1.
         21    1    1    2  502  501 -0.21458747583E+02 -0.89340890039E+01  0.20742488090E+02  0.31153597005E+02  0.00000000000E+00 0.  1.
<scales pt_clust_5="13000.00000" pt_clust_6="13000.00000" pt_clust_7="13000.00000" pt_clust_8="13000.00000" pt_clust_9="23.24426"></scales>
<clustering>
<clus scale="   23.244">  2  9  1 -1</clus>
<clus scale="   90.740">  7  8 -1 -1</clus>
<clus scale="   91.780">  5  6 -1 -1</clus>
<clus scale="  158.652">  2  7  1 -1</clus>
<clus scale="   23.244">  2  5  1 -1</clus>
</clustering>
</event>
<event>
 9    1  0.1435532E-005  0.1024500E+03  0.7546771E-02  0.1277278E+00
         -3   -1    0    0    0  501 -0.00000000000E+00  0.00000000000E+00  0.16153059404E+03  0.16153059404E+03  0.00000000000E+00 0.  1.
          3   -1    0    0  502    0  0.00000000000E+00 -0.00000000000E+00 -0.16684076271E+03  0.16684076271E+03  0.00000000000E+00 0. -1.
         23    2    1    2    0    0 -0.37754279350E+02  0.26632910250E+02  0.74983816089E+02  0.12700509443E+03  0.91504228417E+02 0.  0.
         23    2    1    2    0    0  0.48271615972E+02 -0.78107007689E+01  0.17364835117E+02  0.10135558769E+03  0.87064698367E+02 0.  0.
        -11    1    3    3    0    0 -0.48897515869E+02 -0.97266576357E+01  0.73669289190E+02  0.88953578324E+02  0.00000000000E+00 0.  1.
         11    1    3    3    0    0  0.11143236518E+02  0.36359567886E+02  0.13145268992E+01  0.38051516106E+02  0.00000000000E+00 0. -1.
        -11    1    4    4    0    0  0.55703634579E+01 -0.19855024650E+02  0.44711180549E+02  0.49237593554E+02  0.00000000000E+00 0.  1.
         11    1    4    4    0    0  0.42701252514E+02  0.12044323881E+02 -0.27346345432E+02  0.52117994133E+02  0.00000000000E+00 0. -1.
         21    1    1    2  502  501 -0.10517336621E+02 -0.18822209481E+02 -0.97658819884E+02  0.10001067463E+03  0.00000000000E+00 0. -1.
<scales pt_clust_5="13000.00000" pt_clust_6="13000.00000" pt_clust_7="13000.00000" pt_clust_8="13000.00000" pt_clust_9="21.56131"></scales>
<clustering>
<clus scale="   21.561">  2  9  1 -1</clus>
<clus scale="   87.065">  7  8 -1 -1</clus>
<clus scale="   91.504">  5  6 -1 -1</clus>
<clus scale="   98.505">  2  7  1 -1</clus>
<clus scale="   21.561">  2  5  1 -1</clus>
</clustering>
</event>
<event>
 9    1  0.1435532E-005  0.1405532E+03  0.7546771E-02  0.1212847E+00
         -2   -1    0    0    0  501 -0.00000000000E+00  0.00000000000E+00  0.36181555324E+03  0.36181555324E+03  0.00000000000E+00 0.  1.
          2   -1    0    0  502    0  0.00000000000E+00 -0.00000000000E+00 -0.22241742751E+03  0.22241742751E+03  0.00000000000E+00 0. -1.
         23    2    1    2    0    0  0.10913594204E+03  0.32290910315E+02  0.30095446412E+03  0.33448230255E+03  0.91386347525E+02 0.  0.
         23    2    1    2    0    0 -0.34211990189E+02 -0.53804149319E+02 -0.91276221712E+02  0.14479491222E+03  0.92568197546E+02 0.  0.
        -11    1    3    3    0    0  0.65350246785E+02  0.12873952714E+02  0.26846734743E+03  0.27660641723E+03  0.00000000000E+00 0.  1.
         11    1    3    3    0    0  0.43785695256E+02  0.19416957601E+02  0.32487116681E+02  0.57875885322E+02  0.00000000000E+00 0. -1.
        -13    1    4    4    0    0  0.14585695973E+02  0.16156773246E+02 -0.28821265946E+01  0.21956559440E+02  0.00000000000E+00 0.  1.
         13    1    4    4    0    0 -0.48797686162E+02 -0.69960922565E+02 -0.88394095118E+02  0.12283835278E+03  0.00000000000E+00 0. -1.
         21    1    1    2  502  501 -0.74923951853E+02  0.21513239004E+02 -0.70280116678E+02  0.10495576599E+03  0.00000000000E+00 0. -1.
<scales pt_clust_5="13000.00000" pt_clust_6="13000.00000" pt_clust_7="13000.00000" pt_clust_8="13000.00000" pt_clust_9="77.95138"></scales>
<clustering>
<clus scale="   77.951">  2  9  1 -1</clus>
<clus scale="   91.386">  5  6 -1 -1</clus>
<clus scale="   92.568">  7  8 -1 -1</clus>
<clus scale="  139.778">  1  5  2 -1</clus>
<clus scale="   77.951">  2  5  1 -1</clus>
</clustering>
</event>
<event>
 9    1  0.1435532E-005  0.1022971E+03  0.7546771E-02  0.1278445E+00
         -2   -1    0    0    0  501 -0.00000000000E+00  0.00000000000E+00  0.34870066803E+02  0.34870066803E+02  0.00000000000E+00 0.  1.
          2   -1    0    0  502    0  0.00000000000E+00 -0.00000000000E+00 -0.41367028249E+03  0.41367028249E+03  0.00000000000E+00 0. -1.
         23    2    1    2    0    0 -0.35809096625E+02  0.16652744382E+02 -0.97588362250E+02  0.13898864825E+03  0.90745526612E+02 0.  0.
         23    2    1    2    0    0  0.16094744219E+02 -0.20711975579E+02 -0.17646218584E+03  0.20288574625E+03  0.96621406934E+02 0.  0.
        -11    1    3    3    0    0  0.94422140477E+01 -0.27703211173E+02 -0.56022161144E+02  0.63206849745E+02  0.00000000000E+00 0.  1.
         11    1    3    3    0    0 -0.45251310672E+02  0.44355955555E+02 -0.41566201106E+02  0.75781798508E+02  0.00000000000E+00 0. -1.
        -11    1    4    4    0    0  0.26283451404E+02  0.21936380096E+02 -0.18424564060E+02  0.38877874816E+02  0.00000000000E+00 0.  1.
         11    1    4    4    0    0 -0.10188707185E+02 -0.42648355675E+02 -0.15803762178E+03  0.16400787144E+03  0.00000000000E+00 0. -1.
         21    1    1    2  502  501  0.19714352406E+02  0.40592311977E+01 -0.10474966759E+03  0.10666595478E+03  0.00000000000E+00 0. -1.
<scales pt_clust_5="13000.00000" pt_clust_6="13000.00000" pt_clust_7="13000.00000" pt_clust_8="13000.00000" pt_clust_9="20.12792"></scales>
<clustering>
<clus scale="   20.128">  2  9  1 -1</clus>
<clus scale="   90.746">  5  6 -1 -1</clus>
<clus scale="   96.621">  7  8 -1 -1</clus>
<clus scale="   96.766">  1  5  2 -1</clus>
<clus scale="   20.128">  2  5  1 -1</clus>
</clustering>
</event>
<event>
 9    1  0.1435532E-005  0.1487691E+03  0.7546771E-02  0.1202675E+00
          1   -1    0    0  502    0  0.00000000000E+00  0.00000000000E+00  0.45649274158E+03  0.45649274158E+03  0.00000000000E+00 0. -1.
         -1   -1    0    0    0  501 -0.00000000000E+00 -0.00000000000E+00 -0.22881647138E+03  0.22881647138E+03  0.00000000000E+00 0.  1.
         23    2    1    2    0    0  0.91967649478E+02  0.69037651623E+02 -0.18026599626E+03  0.23201052663E+03  0.90048926533E+02 0.  0.
         23    2    1    2    0    0 -0.11692872944E+03 -0.54027840901E+02  0.38366378941E+03  0.41538042716E+03  0.93550310554E+02 0.  0.
        -11    1    3    3    0    0 -0.13443143211E+02  0.19334398301E+02 -0.97811131446E+01  0.25499161386E+02  0.00000000000E+00 0. -1.
         11    1    3    3    0    0  0.10541079269E+03  0.49703253322E+02 -0.17048488311E+03  0.20651136525E+03  0.00000000000E+00 0.  1.
        -11    1    4    4    0    0 -0.91282127011E+02 -0.80836762592E+02  0.28597874495E+03  0.31088720054E+03  0.00000000000E+00 0. -1.
         11    1    4    4    0    0 -0.25646602428E+02  0.26808921691E+02  0.97685044458E+02  0.10449322662E+03  0.00000000000E+00 0.  1.
         21    1    1    2  502  501  0.24961079961E+02 -0.15009810721E+02  0.24278477053E+02  0.37918259173E+02  0.00000000000E+00 0. -1.
<scales pt_clust_5="13000.00000" pt_clust_6="13000.00000" pt_clust_7="13000.00000" pt_clust_8="13000.00000" pt_clust_9="29.12645"></scales>
<clustering>
<clus scale="   29.126">  1  9  2 -1</clus>
<clus scale="   90.049">  5  6 -1 -1</clus>
<clus scale="   93.550">  7  8 -1 -1</clus>
<clus scale="  146.593">  2  5  1 -1</clus>
<clus scale="   29.126">  1  5  2 -1</clus>
</clustering>
</event>
<event>
 9    1  0.1435532E-005  0.3172467E+03  0.7546771E-02  0.1076999E+00
         -1   -1    0    0    0  501 -0.00000000000E+00  0.00000000000E+00  0.12723608858E+03  0.12723608858E+03  0.00000000000E+00 0.  1.
          1   -1    0    0  502    0  0.00000000000E+00 -0.00000000000E+00 -0.15849977043E+04  0.15849977043E+04  0.00000000000E+00 0. -1.
         23    2    1    2    0    0  0.60296038131E+02 -0.29026412655E+03 -0.19234030391E+03  0.36521479700E+03  0.92185574048E+02 0.  0.
         23    2    1    2    0    0 -0.15923457998E+03  0.29530093911E+03 -0.81670498908E+03  0.88749691498E+03  0.89919068160E+02 0.  0.
        -11    1    4    4    0    0 -0.45444231555E+02  0.79364293128E+02 -0.13199053053E+03  0.16057823438E+03  0.00000000000E+00 0.  1.
         11    1    4    4    0    0 -0.11379034842E+03  0.21593664598E+03 -0.68471445855E+03  0.72691868061E+03  0.00000000000E+00 0. -1.
        -13    1    3    3    0    0  0.21384421570E+02 -0.55763410074E+01 -0.22000540024E+02  0.31183534538E+02  0.00000000000E+00 0. -1.
         13    1    3    3    0    0  0.38911616561E+02 -0.28468778555E+03 -0.17033976389E+03  0.33403126247E+03  0.00000000000E+00 0.  1.
         21    1    1    2  502  501  0.98938541844E+02 -0.50368125517E+01 -0.44871632276E+03  0.45952208093E+03  0.00000000000E+00 0.  1.
<scales pt_clust_5="13000.00000" pt_clust_6="13000.00000" pt_clust_7="13000.00000" pt_clust_8="13000.00000" pt_clust_9="99.06667"></scales>
<clustering>
<clus scale="   89.919">  5  6 -1 -1</clus>
<clus scale="   92.186">  7  8 -1 -1</clus>
<clus scale="   99.067">  2  9  1 -1</clus>
<clus scale="  316.596">  2  5  1 -1</clus>
<clus scale="   99.067">  2  5  1 -1</clus>
</clustering>
</event>
<event>
 9    1  0.1435532E-005  0.1012347E+03  0.7546771E-02  0.1277746E+00
          1   -1    0    0  502    0  0.00000000000E+00  0.00000000000E+00  0.49539135714E+03  0.49539135714E+03  0.00000000000E+00 0. -1.
         -1   -1    0    0    0  501 -0.00000000000E+00 -0.00000000000E+00 -0.80198235646E+02  0.80198235646E+02  0.00000000000E+00 0.  1.
         23    2    1    2    0    0  0.12978846319E+02  0.83872863444E+02  0.29311851701E+02  0.12714795803E+03  0.90023946301E+02 0.  0.
         23    2    1    2    0    0 -0.25237358265E+02  0.38570851518E+01  0.61107219119E+02  0.11180384872E+03  0.90078893208E+02 0.  0.
        -11    1    3    3    0    0  0.24147363292E+02 -0.74086718521E+01  0.24299462691E+02  0.35049214822E+02  0.00000000000E+00 0.  1.
         11    1    3    3    0    0 -0.11168516972E+02  0.91281535296E+02  0.50123890100E+01  0.92098743210E+02  0.00000000000E+00 0. -1.
        -13    1    4    4    0    0 -0.56470736444E+02 -0.71919167748E+01  0.23235724965E+02  0.61486312754E+02  0.00000000000E+00 0.  1.
         13    1    4    4    0    0  0.31233378179E+02  0.11049001927E+02  0.37871494155E+02  0.50317535964E+02  0.00000000000E+00 0. -1.
         21    1    1    2  502  501  0.12258511946E+02 -0.87729948596E+02  0.32477405067E+03  0.33663778603E+03  0.00000000000E+00 0. -1.
<scales pt_clust_5="13000.00000" pt_clust_6="13000.00000" pt_clust_7="13000.00000" pt_clust_8="13000.00000" pt_clust_9="88.58225"></scales>
<clustering>
<clus scale="   88.582">  1  9  2 -1</clus>
<clus scale="   90.024">  5  6 -1 -1</clus>
<clus scale="   90.079">  7  8 -1 -1</clus>
<clus scale="  101.186">  2  5  1 -1</clus>
<clus scale="   88.582">  1  5  2 -1</clus>
</clustering>
</event>
<event>
 9    1  0.1435532E-005  0.1370372E+03  0.7546771E-02  0.1218113E+00
          1   -1    0    0  502    0  0.00000000000E+00  0.00000000000E+00  0.30135318814E+03  0.30135318814E+03  0.00000000000E+00 0. -1.
         -1   -1    0    0    0  501 -0.00000000000E+00 -0.00000000000E+00 -0.49920597193E+03  0.49920597193E+03  0.00000000000E+00 0.  1.
         23    2    1    2    0    0 -0.23905676311E+02 -0.93943840608E+02 -0.45491002281E+03  0.47481860678E+03  0.95460221812E+02 0.  0.
         23    2    1    2    0    0  0.38972934226E+02  0.11792373423E+03  0.15203764939E+03  0.21696936333E+03  0.92387017989E+02 0.  0.
        -11    1    4    4    0    0  0.47619527216E+02  0.31892236580E+02  0.23250767808E+02  0.61849271055E+02  0.00000000000E+00 0.  1.
         11    1    4    4    0    0 -0.86465929900E+01  0.86031497655E+02  0.12878688159E+03  0.15512009228E+03  0.00000000000E+00 0. -1.
        -13    1    3    3    0    0  0.11270562258E+02 -0.80711912595E+02 -0.40039381917E+03  0.40860329029E+03  0.00000000000E+00 0.  1.
         13    1    3    3    0    0 -0.35176238569E+02 -0.13231928013E+02 -0.54516203636E+02  0.66215316489E+02  0.00000000000E+00 0. -1.
         21    1    1    2  502  501 -0.15067257916E+02 -0.23979893626E+02  0.10501958962E+03  0.10877118995E+03  0.00000000000E+00 0.  1.
<scales pt_clust_5="13000.00000" pt_clust_6="13000.00000" pt_clust_7="13000.00000" pt_clust_8="13000.00000" pt_clust_9="28.32062"></scales>
<clustering>
<clus scale="   28.321">  1  9  2 -1</clus>
<clus scale="   92.387">  5  6 -1 -1</clus>
<clus scale="   95.460">  7  8 -1 -1</clus>
<clus scale="  134.914">  1  5  2 -1</clus>
<clus scale="   28.321">  1  5  2 -1</clus>
</clustering>
</event>
<event>
 9    1  0.1435532E-005  0.9416236E+02  0.7546771E-02  0.1293266E+00
         -1   -1    0    0    0  501 -0.00000000000E+00  0.00000000000E+00  0.43245318186E+03  0.43245318186E+03  0.00000000000E+00 0.  1.
          1   -1    0    0  502    0  0.00000000000E+00 -0.00000000000E+00 -0.54701865338E+02  0.54701865338E+02  0.00000000000E+00 0. -1.
         23    2    1    2    0    0  0.32985117786E+02  0.23496199674E+02  0.22161441788E+03  0.24328626642E+03  0.91843169714E+02 0.  0.
         23    2    1    2    0    0  0.35998284614E+02  0.55458372679E+01  0.42615131657E+02  0.10789326351E+03  0.92186083866E+02 0.  0.
        -11    1    4    4    0    0  0.57833962743E+02 -0.19061927786E+02  0.43739529827E+02  0.74975134591E+02  0.00000000000E+00 0.  1.
         11    1    4    4    0    0 -0.21835678129E+02  0.24607765054E+02 -0.11243981699E+01  0.32918128919E+02  0.00000000000E+00 0. -1.
        -11    1    3    3    0    0 -0.17540304032E+02  0.38903147557E+02  0.13742028386E+03  0.14389388997E+03  0.00000000000E+00 0. -1.
         11    1    3    3    0    0  0.50525421818E+02 -0.15406947883E+02  0.84194134023E+02  0.99392376453E+02  0.00000000000E+00 0.  1.
         21    1    1    2  502  501 -0.68983402400E+02 -0.29042036942E+02  0.11352176699E+03  0.13597551727E+03  0.00000000000E+00 0. -1.
<scales pt_clust_5="13000.00000" pt_clust_6="13000.00000" pt_clust_7="13000.00000" pt_clust_8="13000.00000" pt_clust_9="74.84751"></scales>
<clustering>
<clus scale="   74.848">  1  9  2 -1</clus>
<clus scale="   91.843">  7  8 -1 -1</clus>
<clus scale="   92.186">  5  6 -1 -1</clus>
<clus scale="   93.827">  1  7  2 -1</clus>
<clus scale="   94.162">  2  5  1 -1</clus>
</clustering>
</event>
<event>
 9    1  0.1435532E-005  0.1424194E+03  0.7546771E-02  0.1210116E+00
         -1   -1    0    0    0  501 -0.00000000000E+00  0.00000000000E+00  0.99642278961E+02  0.99642278961E+02  0.00000000000E+00 0.  1.
          1   -1    0    0  502    0  0.00000000000E+00 -0.00000000000E+00 -0.58176945618E+03  0.58176945618E+03  0.00000000000E+00 0. -1.
         23    2    1    2    0    0 -0.11618449819E+02 -0.91204633899E+02  0.54589549300E+01  0.12973295259E+03  0.91365010688E+02 0.  0.
         23    2    1    2    0    0 -0.42513308750E+02  0.10550402859E+03 -0.47129843543E+03  0.49336918610E+03  0.91391777954E+02 0.  0.
        -11    1    4    4    0    0 -0.55667738194E+02  0.24321949965E+02 -0.15303359116E+03  0.16465033965E+03  0.00000000000E+00 0.  1.
         11    1    4    4    0    0  0.13154429444E+02  0.81182078626E+02 -0.31826484428E+03  0.32871884645E+03  0.00000000000E+00 0. -1.
        -13    1    3    3    0    0 -0.38881260843E+02 -0.69229003683E+02  0.32191855546E+02  0.85678019113E+02  0.00000000000E+00 0.  1.
         13    1    3    3    0    0  0.27262811023E+02 -0.21975630216E+02 -0.26732900616E+02  0.44054933477E+02  0.00000000000E+00 0. -1.
         21    1    1    2  502  501  0.54131758569E+02 -0.14299394692E+02 -0.16287696715E+02  0.58309596454E+02  0.00000000000E+00 0.  1.
<scales pt_clust_5="13000.00000" pt_clust_6="13000.00000" pt_clust_7="13000.00000" pt_clust_8="13000.00000" pt_clust_9="55.98857"></scales>
<clustering>
<clus scale="   55.989">  1  9  2 -1</clus>
<clus scale="   91.365">  7  8 -1 -1</clus>
<clus scale="   91.392">  5  6 -1 -1</clus>
<clus scale="  142.402">  1  7  2 -1</clus>
<clus scale="  142.419">  2  5  1 -1</clus>
</clustering>
</event>
<event>
 9    1  0.1435532E-005  0.1064371E+03  0.7546771E-02  0.1271350E+00
          1   -1    0    0  502    0  0.00000000000E+00  0.00000000000E+00  0.11684070990E+03  0.11684070990E+03  0.00000000000E+00 0. -1.
         -1   -1    0    0    0  501 -0.00000000000E+00 -0.00000000000E+00 -0.13844490030E+03  0.13844490030E+03  0.00000000000E+00 0.  1.
         23    2    1    2    0    0  0.59322142042E+02 -0.20858696201E+01 -0.57801838197E+02  0.12546315089E+03  0.94215085538E+02 0.  0.
         23    2    1    2    0    0 -0.33202508373E+02 -0.13119427730E+02  0.16438321036E+02  0.93713356236E+02  0.85073196674E+02 0.  0.
        -11    1    4    4    0    0 -0.31703748234E+02 -0.41431334518E+02 -0.12026514278E+02  0.53538025530E+02  0.00000000000E+00 0.  1.
         11    1    4    4    0    0 -0.14987601394E+01  0.28311906788E+02  0.28464835314E+02  0.40175330706E+02  0.00000000000E+00 0. -1.
        -13    1    3    3    0    0  0.38241260985E+02  0.31599969853E+02  0.63375611987E+01  0.50011166937E+02  0.00000000000E+00 0. -1.
         13    1    3    3    0    0  0.21080881057E+02 -0.33685839473E+02 -0.64139399396E+02  0.75451983950E+02  0.00000000000E+00 0.  1.
         21    1    1    2  502  501 -0.26119633669E+02  0.15205297350E+02  0.19759326768E+02  0.36109103074E+02  0.00000000000E+00 0.  1.
<scales pt_clust_5="13000.00000" pt_clust_6="13000.00000" pt_clust_7="13000.00000" pt_clust_8="13000.00000" pt_clust_9="30.22311"></scales>
<clustering>
<clus scale="   30.223">  1  9  2 -1</clus>
<clus scale="   85.073">  5  6 -1 -1</clus>
<clus scale="   94.215">  7  8 -1 -1</clus>
<clus scale="   98.437">  1  5  2 -1</clus>
<clus scale="   30.223">  1  5  2 -1</clus>
</clustering>
</event>
<event>
 9    1  0.1435532E-005  0.1232009E+03  0.7546771E-02  0.1238157E+00
         -3   -1    0    0    0  501 -0.00000000000E+00  0.00000000000E+00  0.99731494243E+02  0.99731494243E+02  0.00000000000E+00 0.  1.
          3   -1    0    0  502    0  0.00000000000E+00 -0.00000000000E+00 -0.36185155197E+03  0.36185155197E+03  0.00000000000E+00 0. -1.
         23    2    1    2    0    0  0.75086125790E+02 -0.35614867236E+02  0.37435278101E+02  0.12839880162E+03  0.90435099143E+02 0.  0.
         23    2    1    2    0    0 -0.63422743855E+02  0.53305866171E+02 -0.27009212079E+03  0.29689255185E+03  0.91276907405E+02 0.  0.
        -13    1    4    4    0    0 -0.18404696476E+02  0.69713030244E+02 -0.12762276345E+03  0.14658174917E+03  0.00000000000E+00 0.  1.
         13    1    4    4    0    0 -0.45018047378E+02 -0.16407164073E+02 -0.14246935734E+03  0.15031080269E+03  0.00000000000E+00 0. -1.
        -13    1    3    3    0    0  0.35774241192E+02 -0.10261298930E+02 -0.28975854123E+02  0.47166627087E+02  0.00000000000E+00 0. -1.
         13    1    3    3    0    0  0.39311884598E+02 -0.25353568306E+02  0.66411132223E+02  0.81232174535E+02  0.00000000000E+00 0.  1.
         21    1    1    2  502  501 -0.11663381935E+02 -0.17690998935E+02 -0.29463215032E+02  0.36291692734E+02  0.00000000000E+00 0. -1.
<scales pt_clust_5="13000.00000" pt_clust_6="13000.00000" pt_clust_7="13000.00000" pt_clust_8="13000.00000" pt_clust_9="21.18976"></scales>
<clustering>
<clus scale="   21.190">  2  9  1 -1</clus>
<clus scale="   90.435">  7  8 -1 -1</clus>
<clus scale="   91.277">  5  6 -1 -1</clus>
<clus scale="  122.579">  1  7  2 -1</clus>
<clus scale="   21.190">  2  5  1 -1</clus>
</clustering>
</event>
<event>
 9    1  0.1435532E-005  0.9780878E+02  0.7546771E-02  0.1287711E+00
          1   -1    0    0  502    0  0.00000000000E+00  0.00000000000E+00  0.22804611610E+03  0.22804611610E+03  0.00000000000E+00 0. -1.
         -1   -1    0    0    0  501 -0.00000000000E+00 -0.00000000000E+00 -0.61867232569E+02  0.61867232569E+02  0.00000000000E+00 0.  1.
         23    2    1    2    0    0 -0.16579477637E+02 -0.11584351144E+02  0.68178955017E+02  0.11490509145E+03  0.90253719389E+02 0.  0.
         23    2    1    2    0    0  0.25539573351E+02 -0.21012407537E+02  0.98783578911E+02  0.14119337736E+03  0.95307834253E+02 0.  0.
        -11    1    4    4    0    0  0.46477291465E+01  0.31780056646E+02  0.71120983349E+02  0.78036963416E+02  0.00000000000E+00 0. -1.
         11    1    4    4    0    0  0.20891844205E+02 -0.52792464184E+02  0.27662595562E+02  0.63156413942E+02  0.00000000000E+00 0.  1.
        -13    1    3    3    0    0 -0.31378260882E+02 -0.43844584030E+02  0.55069647613E+02  0.77068858127E+02  0.00000000000E+00 0.  1.
         13    1    3    3    0    0  0.14798783244E+02  0.32260232887E+02  0.13109307404E+02  0.37836233322E+02  0.00000000000E+00 0. -1.
         21    1    1    2  502  501 -0.89600957139E+01  0.32596758681E+02 -0.78365040132E+00  0.33814879856E+02  0.00000000000E+00 0. -1.
<scales pt_clust_5="13000.00000" pt_clust_6="13000.00000" pt_clust_7="13000.00000" pt_clust_8="13000.00000" pt_clust_9="33.80580"></scales>
<clustering>
<clus scale="   33.806">  2  9  1 -1</clus>
<clus scale="   90.254">  7  8 -1 -1</clus>
<clus scale="   92.891">  2  7  1 -1</clus>
<clus scale="   95.308">  5  6 -1 -1</clus>
<clus scale="   97.809">  1  5  2 -1</clus>
</clustering>
</event>
<event>
 9    1  0.1435532E-005  0.1013520E+03  0.7546771E-02  0.1277799E+00
         -2   -1    0    0    0  501 -0.00000000000E+00  0.00000000000E+00  0.47333909251E+03  0.47333909251E+03  0.00000000000E+00 0.  1.
          2   -1    0    0  502    0  0.00000000000E+00 -0.00000000000E+00 -0.45604682983E+02  0.45604682983E+02  0.00000000000E+00 0. -1.
         23    2    1    2    0    0  0.31228155865E+02  0.18309430634E+02  0.31661592911E+03  0.33192482936E+03  0.92833252704E+02 0.  0.
         23    2    1    2    0    0 -0.58904277229E+02  0.97845482911E+01  0.79892643999E+02  0.13671693618E+03  0.93505266226E+02 0.  0.
        -11    1    4    4    0    0 -0.31867092523E+02  0.49252736362E+02  0.24631705688E+02  0.63624402159E+02  0.00000000000E+00 0.  1.
         11    1    4    4    0    0 -0.27037184705E+02 -0.39468188071E+02  0.55260938311E+02  0.73092534020E+02  0.00000000000E+00 0. -1.
        -11    1    3    3    0    0  0.24374709171E+02  0.47993860863E+02  0.27573824205E+03  0.28094325986E+03  0.00000000000E+00 0.  1.
         11    1    3    3    0    0  0.68534466937E+01 -0.29684430229E+02  0.40877687059E+02  0.50981569502E+02  0.00000000000E+00 0. -1.
         21    1    1    2  502  501  0.27676121364E+02 -0.28093978925E+02  0.31225836411E+02  0.50302009951E+02  0.00000000000E+00 0. -1.
<scales pt_clust_5="13000.00000" pt_clust_6="13000.00000" pt_clust_7="13000.00000" pt_clust_8="13000.00000" pt_clust_9="39.43652"></scales>
<clustering>
<clus scale="   39.437">  2  9  1 -1</clus>
<clus scale="   92.833">  7  8 -1 -1</clus>
<clus scale="   93.505">  5  6 -1 -1</clus>
<clus scale="  100.732">  1  7  2 -1</clus>
<clus scale="   39.437">  2  5  1 -1</clus>
</clustering>
</event>
<event>
 9    1  0.1435532E-005  0.9752735E+02  0.7546771E-02  0.1291231E+00
         -2   -1    0    0    0  501 -0.00000000000E+00  0.00000000000E+00  0.17410494257E+03  0.17410494257E+03  0.00000000000E+00 0.  1.
          2   -1    0    0  502    0  0.00000000000E+00 -0.00000000000E+00 -0.82956007023E+02  0.82956007023E+02  0.00000000000E+00 0. -1.
         23    2    1    2    0    0  0.16855277974E+02  0.28031048803E+02  0.10069632144E+03  0.13453482899E+03  0.83006210412E+02 0.  0.
         23    2    1    2    0    0  0.38299771131E+01 -0.20741203261E+02  0.56616295069E+01  0.95836501352E+02  0.93315136529E+02 0.  0.
        -11    1    3    3    0    0  0.39588463715E+02  0.41281594082E+02  0.88873342736E+02  0.10568768858E+03  0.00000000000E+00 0.  1.
         11    1    3    3    0    0 -0.22733185742E+02 -0.13250545278E+02  0.11822978708E+02  0.28847140407E+02  0.00000000000E+00 0. -1.
        -13    1    4    4    0    0 -0.16865428982E+02  0.19053699410E+02 -0.29416063182E+02  0.38894613111E+02  0.00000000000E+00 0. -1.
         13    1    4    4    0    0  0.20695406095E+02 -0.39794902671E+02  0.35077692689E+02  0.56941888241E+02  0.00000000000E+00 0.  1.
         21    1    1    2  502  501 -0.20685255087E+02 -0.72898455423E+01 -0.15209015404E+02  0.26689619248E+02  0.00000000000E+00 0. -1.
<scales pt_clust_5="13000.00000" pt_clust_6="13000.00000" pt_clust_7="13000.00000" pt_clust_8="13000.00000" pt_clust_9="21.93221"></scales>
<clustering>
<clus scale="   21.932">  2  9  1 -1</clus>
<clus scale="   83.006">  5  6 -1 -1</clus>
<clus scale="   87.715">  1  5  2 -1</clus>
<clus scale="   93.315">  7  8 -1 -1</clus>
<clus scale="   21.932">  2  5  1 -1</clus>
</clustering>
</event>
<event>
 9    1  0.1435532E-005  0.1081599E+03  0.7546771E-02  0.1267341E+00
          2   -1    0    0  502    0  0.00000000000E+00  0.00000000000E+00  0.27248219053E+03  0.27248219053E+03  0.00000000000E+00 0. -1.
         -2   -1    0    0    0  501 -0.00000000000E+00 -0.00000000000E+00 -0.79533818886E+02  0.79533818886E+02  0.00000000000E+00 0.  1.
         23    2    1    2    0    0 -0.41413168797E+02  0.15370943671E+02 -0.43909040229E+01  0.10488092821E+03  0.95023221394E+02 0.  0.
         23    2    1    2    0    0  0.72870818904E+02 -0.22100419882E+02  0.14314451709E+03  0.18411174063E+03  0.87224970388E+02 0.  0.
        -13    1    3    3    0    0 -0.24346707598E+02  0.55746424716E+02 -0.38857877347E-01  0.60831139636E+02  0.00000000000E+00 0.  1.
         13    1    3    3    0    0 -0.17066461200E+02 -0.40375481045E+02 -0.43520461455E+01  0.44049788571E+02  0.00000000000E+00 0. -1.
        -13    1    4    4    0    0  0.34947732248E+02  0.25788728782E+02  0.22572011235E+02  0.48947913262E+02  0.00000000000E+00 0.  1.
         13    1    4    4    0    0  0.37923086656E+02 -0.47889148664E+02  0.12057250586E+03  0.13516382737E+03  0.00000000000E+00 0. -1.
         21    1    1    2  502  501 -0.31457650106E+02  0.67294762108E+01  0.54194758577E+02  0.63023340577E+02  0.00000000000E+00 0. -1.
<scales pt_clust_5="13000.00000" pt_clust_6="13000.00000" pt_clust_7="13000.00000" pt_clust_8="13000.00000" pt_clust_9="32.16939"></scales>
<clustering>
<clus scale="   32.169">  1  9  2 -1</clus>
<clus scale="   87.225">  7  8 -1 -1</clus>
<clus scale="   95.023">  5  6 -1 -1</clus>
<clus scale="  101.377">  1  7  2 -1</clus>
<clus scale="   32.169">  1  5  2 -1</clus>
</clustering>
</event>
<event>
 9    1  0.1435532E-005  0.9392841E+02  0.7546771E-02  0.1297238E+00
         -1   -1    0    0    0  501 -0.00000000000E+00  0.00000000000E+00  0.43460319499E+02  0.43460319499E+02  0.00000000000E+00 0.  1.
          1   -1    0    0  502    0  0.00000000000E+00 -0.00000000000E+00 -0.53821729656E+03  0.53821729656E+03  0.00000000000E+00 0. -1.
         23    2    1    2    0    0 -0.14444196204E+02  0.22689008666E+02 -0.24370819844E+02  0.96168133753E+02  0.89055865452E+02 0.  0.
         23    2    1    2    0    0  0.18411730389E+02 -0.42419245296E+02 -0.31750817991E+03  0.33131253191E+03  0.82572182393E+02 0.  0.
        -11    1    4    4    0    0 -0.12646824956E+01 -0.55029091471E+02 -0.29017918961E+03  0.29535362265E+03  0.00000000000E+00 0. -1.
         11    1    4    4    0    0  0.19676412884E+02  0.12609846175E+02 -0.27328990301E+02  0.35958909263E+02  0.00000000000E+00 0.  1.
        -13    1    3    3    0    0 -0.58039492452E+01 -0.25082975472E+02 -0.37857602266E+02  0.45782524338E+02  0.00000000000E+00 0. -1.
         13    1    3    3    0    0 -0.86402469590E+01  0.47771984138E+02  0.13486782422E+02  0.50385609415E+02  0.00000000000E+00 0.  1.
         21    1    1    2  502  501 -0.39675341844E+01  0.19730236630E+02 -0.15287797732E+03  0.15419695040E+03  0.00000000000E+00 0. -1.
<scales pt_clust_5="13000.00000" pt_clust_6="13000.00000" pt_clust_7="13000.00000" pt_clust_8="13000.00000" pt_clust_9="20.12520"></scales>
<clustering>
<clus scale="   20.125">  2  9  1 -1</clus>
<clus scale="   82.572">  5  6 -1 -1</clus>
<clus scale="   87.805">  2  5  1 -1</clus>
<clus scale="   89.056">  7  8 -1 -1</clus>
<clus scale="   20.125">  2  5  1 -1</clus>
</clustering>
</event>
<event>
 9    1  0.1435532E-005  0.1009274E+03  0.7546771E-02  0.1279553E+00
         -3   -1    0    0    0  501 -0.00000000000E+00  0.00000000000E+00  0.51064875249E+03  0.51064875249E+03  0.00000000000E+00 0.  1.
          3   -1    0    0  502    0  0.00000000000E+00 -0.00000000000E+00 -0.10951790756E+03  0.10951790756E+03  0.00000000000E+00 0. -1.
         23    2    1    2    0    0  0.29716763203E+02  0.26136921041E+02  0.41946915914E+03  0.43060553919E+03  0.88884927023E+02 0.  0.
         23    2    1    2    0    0 -0.30288459030E+02 -0.85031915652E+02 -0.21460036047E+01  0.12847807780E+03  0.91401278506E+02 0.  0.
        -11    1    4    4    0    0  0.31124446359E+02 -0.32165984168E+02  0.11717944009E+02  0.46267611895E+02  0.00000000000E+00 0.  1.
         11    1    4    4    0    0 -0.61412905389E+02 -0.52865931484E+02 -0.13863947614E+02  0.82210465900E+02  0.00000000000E+00 0. -1.
        -13    1    3    3    0    0  0.52131449546E+02  0.44096548586E+02  0.27944790525E+03  0.28766877721E+03  0.00000000000E+00 0.  1.
         13    1    3    3    0    0 -0.22414686343E+02 -0.17959627545E+02  0.14002125389E+03  0.14293676198E+03  0.00000000000E+00 0. -1.
         21    1    1    2  502  501  0.57169582769E+00  0.58894994611E+02 -0.16192310614E+02  0.61083043060E+02  0.00000000000E+00 0.  1.
<scales pt_clust_5="13000.00000" pt_clust_6="13000.00000" pt_clust_7="13000.00000" pt_clust_8="13000.00000" pt_clust_9="58.89777"></scales>
<clustering>
<clus scale="   58.898">  2  9  1 -1</clus>
<clus scale="   88.885">  7  8 -1 -1</clus>
<clus scale="   91.401">  5  6 -1 -1</clus>
<clus scale="   98.654">  1  7  2 -1</clus>
<clus scale="   58.898">  2  5  1 -1</clus>
</clustering>
</event>
<event>
 9    1  0.1435532E-005  0.1291870E+03  0.7546771E-02  0.1229710E+00
         -2   -1    0    0    0  501 -0.00000000000E+00  0.00000000000E+00  0.31212422486E+03  0.31212422486E+03  0.00000000000E+00 0.  1.
          2   -1    0    0  502    0  0.00000000000E+00 -0.00000000000E+00 -0.11462784382E+03  0.11462784382E+03  0.00000000000E+00 0. -1.
         23    2    1    2    0    0 -0.57688442978E+02  0.51455419104E+02  0.14992052398E+03  0.19084309189E+03  0.89270967309E+02 0.  0.
         23    2    1    2    0    0  0.10159987209E+03  0.14492066293E+02 -0.84927049087E+01  0.13884730526E+03  0.93133743335E+02 0.  0.
        -13    1    3    3    0    0 -0.44822982398E+02  0.72908962079E+02  0.82265942194E+02  0.11871184333E+03  0.00000000000E+00 0.  1.
         13    1    3    3    0    0 -0.12865460580E+02 -0.21453542976E+02  0.67654581782E+02  0.72131248556E+02  0.00000000000E+00 0. -1.
        -13    1    4    4    0    0 -0.10799101309E+02  0.23316819937E+02 -0.40631540904E+01  0.26015455065E+02  0.00000000000E+00 0.  1.
         13    1    4    4    0    0  0.11239897340E+03 -0.88247536442E+01 -0.44295508184E+01  0.11283185020E+03  0.00000000000E+00 0. -1.
         21    1    1    2  502  501 -0.43911429116E+02 -0.65947485396E+02  0.56068561978E+02  0.97061671526E+02  0.00000000000E+00 0. -1.
<scales pt_clust_5="13000.00000" pt_clust_6="13000.00000" pt_clust_7="13000.00000" pt_clust_8="13000.00000" pt_clust_9="79.22932"></scales>
<clustering>
<clus scale="   79.229">  1  9  2 -1</clus>
<clus scale="   89.271">  5  6 -1 -1</clus>
<clus scale="   93.134">  7  8 -1 -1</clus>
<clus scale="  126.431">  1  5  2 -1</clus>
<clus scale="  129.187">  2  5  1 -1</clus>
</clustering>
</event>
<event>
 9    1  0.1435532E-005  0.9845503E+02  0.7546771E-02  0.1283864E+00
          2   -1    0    0  502    0  0.00000000000E+00  0.00000000000E+00  0.47372884992E+03  0.47372884992E+03  0.00000000000E+00 0. -1.
         -2   -1    0    0    0  501 -0.00000000000E+00 -0.00000000000E+00 -0.16009841934E+03  0.16009841934E+03  0.00000000000E+00 0.  1.
         23    2    1    2    0    0  0.38960344157E+02  0.41067864672E+01 -0.13058771559E+03  0.16330308233E+03  0.89888659597E+02 0.  0.
         23    2    1    2    0    0 -0.27650950192E+02 -0.46025109095E+02  0.24501646393E+03  0.26664589389E+03  0.90465901957E+02 0.  0.
        -11    1    3    3    0    0  0.60846234438E+02 -0.57594957099E+01 -0.12425811893E+03  0.13847568796E+03  0.00000000000E+00 0.  1.
         11    1    3    3    0    0 -0.21885890281E+02  0.98662821771E+01 -0.63295966615E+01  0.24827394372E+02  0.00000000000E+00 0. -1.
        -13    1    4    4    0    0 -0.59946594514E+02 -0.31863336055E+02  0.18464233777E+03  0.19672737297E+03  0.00000000000E+00 0. -1.
         13    1    4    4    0    0  0.32295644323E+02 -0.14161773041E+02  0.60374126162E+02  0.69918520920E+02  0.00000000000E+00 0.  1.
         21    1    1    2  502  501 -0.11309393965E+02  0.41918322628E+02  0.19920168225E+03  0.20387829304E+03  0.00000000000E+00 0. -1.
<scales pt_clust_5="13000.00000" pt_clust_6="13000.00000" pt_clust_7="13000.00000" pt_clust_8="13000.00000" pt_clust_9="43.41714"></scales>
<clustering>
<clus scale="   43.417">  1  9  2 -1</clus>
<clus scale="   89.889">  5  6 -1 -1</clus>
<clus scale="   90.466">  7  8 -1 -1</clus>
<clus scale="   97.925">  2  5  1 -1</clus>
<clus scale="   43.417">  1  5  2 -1</clus>
</clustering>
</event>
<event>
 9    1  0.1435532E-005  0.1033197E+03  0.7546771E-02  0.1274175E+00
          2   -1    0    0  502    0  0.00000000000E+00  0.00000000000E+00  0.34564203341E+03  0.34564203341E+03  0.00000000000E+00 0. -1.
         -2   -1    0    0    0  501 -0.00000000000E+00 -0.00000000000E+00 -0.39695688609E+02  0.39695688609E+02  0.00000000000E+00 0.  1.
         23    2    1    2    0    0  0.37599512136E+02 -0.29769152282E+02  0.99702564432E+02  0.14281200134E+03  0.90303602542E+02 0.  0.
         23    2    1    2    0    0 -0.20567867972E+02  0.44967459624E+02  0.16107454124E+03  0.19191617996E+03  0.91878738966E+02 0.  0.
        -11    1    4    4    0    0  0.17367373398E+02  0.54908839695E+02  0.58454354269E+02  0.82058015260E+02  0.00000000000E+00 0.  1.
         11    1    4    4    0    0 -0.37935241370E+02 -0.99413800714E+01  0.10262018698E+03  0.10985816470E+03  0.00000000000E+00 0. -1.
        -13    1    3    3    0    0  0.60152518699E+02  0.54704134436E+01  0.57981905738E+02  0.83726652400E+02  0.00000000000E+00 0.  1.
         13    1    3    3    0    0 -0.22553006563E+02 -0.35239565725E+02  0.41720658694E+02  0.59085348940E+02  0.00000000000E+00 0. -1.
         21    1    1    2  502  501 -0.17031644164E+02 -0.15198307342E+02  0.45169239120E+02  0.50609540718E+02  0.00000000000E+00 0.  1.
<scales pt_clust_5="13000.00000" pt_clust_6="13000.00000" pt_clust_7="13000.00000" pt_clust_8="13000.00000" pt_clust_9="22.82686"></scales>
<clustering>
<clus scale="   22.827">  1  9  2 -1</clus>
<clus scale="   90.304">  7  8 -1 -1</clus>
<clus scale="   91.879">  5  6 -1 -1</clus>
<clus scale="  101.922">  2  7  1 -1</clus>
<clus scale="   22.827">  1  5  2 -1</clus>
</clustering>
</event>
<event>
 9    1  0.1435532E-005  0.1402934E+03  0.7546771E-02  0.1213074E+00
         -1   -1    0    0    0  501 -0.00000000000E+00  0.00000000000E+00  0.49565008899E+03  0.49565008899E+03  0.00000000000E+00 0.  1.
          1   -1    0    0  502    0  0.00000000000E+00 -0.00000000000E+00 -0.13156745682E+03  0.13156745682E+03  0.00000000000E+00 0. -1.
         23    2    1    2    0    0 -0.83546639423E+02 -0.59696828618E+02  0.31620038605E+03  0.34457420443E+03  0.90581156523E+02 0.  0.
         23    2    1    2    0    0  0.10752246762E+03  0.47584674187E+02  0.12915454502E+03  0.19704701440E+03  0.91220869997E+02 0.  0.
        -11    1    4    4    0    0  0.18720364972E+02  0.35383485839E+02  0.23879326044E+00  0.40031239764E+02  0.00000000000E+00 0.  1.
         11    1    4    4    0    0  0.88802102651E+02  0.12201188348E+02  0.12891575176E+03  0.15701577464E+03  0.00000000000E+00 0. -1.
        -13    1    3    3    0    0 -0.73610754688E+02 -0.15360643299E+02  0.26793584435E+03  0.27828781730E+03  0.00000000000E+00 0.  1.
         13    1    3    3    0    0 -0.99358847347E+01 -0.44336185319E+02  0.48264541699E+02  0.66286387136E+02  0.00000000000E+00 0. -1.
         21    1    1    2  502  501 -0.23975828199E+02  0.12112154431E+02 -0.81272298905E+02  0.85596326978E+02  0.00000000000E+00 0. -1.
<scales pt_clust_5="13000.00000" pt_clust_6="13000.00000" pt_clust_7="13000.00000" pt_clust_8="13000.00000" pt_clust_9="26.86158"></scales>
<clustering>
<clus scale="   26.862">  2  9  1 -1</clus>
<clus scale="   90.581">  7  8 -1 -1</clus>
<clus scale="   91.221">  5  6 -1 -1</clus>
<clus scale="  139.878">  1  7  2 -1</clus>
<clus scale="   26.862">  2  5  1 -1</clus>
</clustering>
</event>
<event>
 9    1  0.1435532E-005  0.1043729E+03  0.7546771E-02  0.1272170E+00
          3   -1    0    0  502    0  0.00000000000E+00  0.00000000000E+00  0.32597169493E+03  0.32597169493E+03  0.00000000000E+00 0. -1.
         -3   -1    0    0    0  501 -0.00000000000E+00 -0.00000000000E+00 -0.43556023601E+02  0.43556023601E+02  0.00000000000E+00 0.  1.
         23    2    1    2    0    0  0.17579135727E+02 -0.37426223154E+02  0.88271972050E+02  0.13259167060E+03  0.89882489231E+02 0.  0.
         23    2    1    2    0    0 -0.24096916293E+02  0.56817607755E+02  0.13581527401E+03  0.17512413602E+03  0.91726617922E+02 0.  0.
        -11    1    3    3    0    0  0.35922617770E+02 -0.47404022605E+02  0.93730064333E+02  0.11100856177E+03  0.00000000000E+00 0.  1.
         11    1    3    3    0    0 -0.18343482044E+02  0.99777994506E+01 -0.54580922829E+01  0.21583108829E+02  0.00000000000E+00 0. -1.
        -13    1    4    4    0    0  0.30497076799E+02 -0.14769408871E+01  0.33482830049E+02  0.45313937765E+02  0.00000000000E+00 0.  1.
         13    1    4    4    0    0 -0.54593993092E+02  0.58294548642E+02  0.10233244397E+03  0.12981019825E+03  0.00000000000E+00 0. -1.
         21    1    1    2  502  501  0.65177805659E+01 -0.19391384601E+02  0.58328425265E+02  0.61811911911E+02  0.00000000000E+00 0. -1.
<scales pt_clust_5="13000.00000" pt_clust_6="13000.00000" pt_clust_7="13000.00000" pt_clust_8="13000.00000" pt_clust_9="20.45745"></scales>
<clustering>
<clus scale="   20.457">  1  9  2 -1</clus>
<clus scale="   89.882">  5  6 -1 -1</clus>
<clus scale="   91.727">  7  8 -1 -1</clus>
<clus scale="  102.756">  2  5  1 -1</clus>
<clus scale="   20.457">  1  5  2 -1</clus>
</clustering>
</event>
<event>
 9    1  0.1435532E-005  0.9705688E+02  0.7546771E-02  0.1286864E+00
          2   -1    0    0  502    0  0.00000000000E+00  0.00000000000E+00  0.58175401761E+03  0.58175401761E+03  0.00000000000E+00 0. -1.
         -2   -1    0    0    0  501 -0.00000000000E+00 -0.00000000000E+00 -0.58138190788E+02  0.58138190788E+02  0.00000000000E+00 0.  1.
         23    2    1    2    0    0 -0.16340745868E+02  0.23182199109E+02  0.13619022848E+01  0.95880506946E+02  0.91579378155E+02 0.  0.
         23    2    1    2    0    0  0.54426227934E+02 -0.33496344249E+02  0.34844444963E+03  0.36577977641E+03  0.91088369142E+02 0.  0.
        -11    1    4    4    0    0  0.15446956652E+02  0.27144177764E+02  0.51669609394E+02  0.60375188540E+02  0.00000000000E+00 0.  1.
         11    1    4    4    0    0  0.38979271282E+02 -0.60640522014E+02  0.29677484023E+03  0.30540458787E+03  0.00000000000E+00 0. -1.
        -13    1    3    3    0    0  0.27636506021E+02  0.21116850451E+02  0.27800675000E+02  0.44526120070E+02  0.00000000000E+00 0. -1.
         13    1    3    3    0    0 -0.43977251889E+02  0.20653486580E+01 -0.26438772715E+02  0.51354386876E+02  0.00000000000E+00 0.  1.
         21    1    1    2  502  501 -0.38085482066E+02  0.10314145140E+02  0.17380947491E+03  0.17823192504E+03  0.00000000000E+00 0. -1.
<scales pt_clust_5="13000.00000" pt_clust_6="13000.00000" pt_clust_7="13000.00000" pt_clust_8="13000.00000" pt_clust_9="39.45739"></scales>
<clustering>
<clus scale="   39.457">  1  9  2 -1</clus>
<clus scale="   91.088">  5  6 -1 -1</clus>
<clus scale="   91.579">  7  8 -1 -1</clus>
<clus scale="   96.594">  1  5  2 -1</clus>
<clus scale="   39.457">  1  5  2 -1</clus>
</clustering>
</event>
<event>
 9    1  0.1435532E-005  0.9442101E+02  0.7546771E-02  0.1293178E+00
         -4   -1    0    0    0  501 -0.00000000000E+00  0.00000000000E+00  0.12006960313E+03  0.12006960313E+03  0.00000000000E+00 0.  1.
          4   -1    0    0  502    0  0.00000000000E+00 -0.00000000000E+00 -0.17201503479E+03  0.17201503479E+03  0.00000000000E+00 0. -1.
         23    2    1    2    0    0 -0.14350432459E+02  0.28767402731E+02  0.28766488965E+02  0.99193676880E+02  0.89321757002E+02 0.  0.
         23    2    1    2    0    0 -0.16652275191E+02 -0.24070217131E+02  0.11128258078E+02  0.95845353935E+02  0.90585981925E+02 0.  0.
        -11    1    4    4    0    0 -0.46669155591E+02 -0.34127994653E+01 -0.17028629673E+02  0.49795898549E+02  0.00000000000E+00 0. -1.
         11    1    4    4    0    0  0.30016880399E+02 -0.20657417666E+02  0.28156887751E+02  0.46049455386E+02  0.00000000000E+00 0.  1.
        -13    1    3    3    0    0  0.35115853287E+02  0.27455150044E+02  0.20346008679E+02  0.48998657994E+02  0.00000000000E+00 0.  1.
         13    1    3    3    0    0 -0.49466285746E+02  0.13122526869E+01  0.84204802854E+01  0.50195018885E+02  0.00000000000E+00 0. -1.
         21    1    1    2  502  501  0.31002707650E+02 -0.46971856003E+01 -0.91840178699E+02  0.97045607102E+02  0.00000000000E+00 0. -1.
<scales pt_clust_5="13000.00000" pt_clust_6="13000.00000" pt_clust_7="13000.00000" pt_clust_8="13000.00000" pt_clust_9="31.35652"></scales>
<clustering>
<clus scale="   31.357">  2  9  1 -1</clus>
<clus scale="   89.322">  7  8 -1 -1</clus>
<clus scale="   90.586">  5  6 -1 -1</clus>
<clus scale="   93.209">  1  7  2 -1</clus>
<clus scale="   31.357">  2  5  1 -1</clus>
</clustering>
</event>
<event>
 9    1  0.1435532E-005  0.1094146E+03  0.7546771E-02  0.1262917E+00
         -1   -1    0    0    0  501 -0.00000000000E+00  0.00000000000E+00  0.66662227146E+02  0.66662227146E+02  0.00000000000E+00 0.  1.
          1   -1    0    0  502    0  0.00000000000E+00 -0.00000000000E+00 -0.68404959769E+03  0.68404959769E+03  0.00000000000E+00 0. -1.
         23    2    1    2    0    0 -0.21417389734E+02  0.38800240123E+02 -0.21707984479E+02  0.10161664382E+03  0.88828725612E+02 0.  0.
         23    2    1    2    0    0  0.60700313813E+02 -0.97452085756E+02 -0.20643894556E+03  0.25350535854E+03  0.92013539500E+02 0.  0.
        -11    1    4    4    0    0  0.49853265016E+02 -0.77219403995E+02 -0.21095443074E+03  0.23010857489E+03  0.00000000000E+00 0. -1.
         11    1    4    4    0    0  0.10847048798E+02 -0.20232681761E+02  0.45154851878E+01  0.23396783654E+02  0.00000000000E+00 0.  1.
        -11    1    3    3    0    0  0.17377793416E+02  0.53764124035E+02 -0.20210584620E+02  0.60008636611E+02  0.00000000000E+00 0.  1.
         11    1    3    3    0    0 -0.38795183149E+02 -0.14963883912E+02 -0.14973998590E+01  0.41608007206E+02  0.00000000000E+00 0. -1.
         21    1    1    2  502  501 -0.39282924080E+02  0.58651845633E+02 -0.38924044051E+03  0.39558982248E+03  0.00000000000E+00 0.  1.
<scales pt_clust_5="13000.00000" pt_clust_6="13000.00000" pt_clust_7="13000.00000" pt_clust_8="13000.00000" pt_clust_9="70.59169"></scales>
<clustering>
<clus scale="   70.592">  2  9  1 -1</clus>
<clus scale="   88.829">  7  8 -1 -1</clus>
<clus scale="   92.014">  5  6 -1 -1</clus>
<clus scale="  106.750">  1  7  2 -1</clus>
<clus scale="   70.592">  2  5  1 -1</clus>
</clustering>
</event>
<event>
 9    1  0.1435532E-005  0.1111426E+03  0.7546771E-02  0.1266481E+00
         -1   -1    0    0    0  501 -0.00000000000E+00  0.00000000000E+00  0.65112050749E+03  0.65112050749E+03  0.00000000000E+00 0.  1.
          1   -1    0    0  502    0  0.00000000000E+00 -0.00000000000E+00 -0.21771651221E+02  0.21771651221E+02  0.00000000000E+00 0. -1.
         23    2    1    2    0    0  0.19596504365E+02 -0.87138109477E+01  0.32351411983E+03  0.34134544224E+03  0.10674910643E+03 0.  0.
         23    2    1    2    0    0 -0.42888444488E+02 -0.59866492982E+01  0.25345286510E+03  0.27236497561E+03  0.89827982675E+02 0.  0.
        -13    1    4    4    0    0 -0.67058092783E+02  0.13749534903E+02  0.16950488585E+03  0.18280520738E+03  0.00000000000E+00 0. -1.
         13    1    4    4    0    0  0.24169648296E+02 -0.19736184201E+02  0.83947979248E+02  0.89559768230E+02  0.00000000000E+00 0.  1.
        -13    1    3    3    0    0  0.13291397513E+02  0.48378964951E+02  0.12514420481E+03  0.13482676846E+03  0.00000000000E+00 0. -1.
         13    1    3    3    0    0  0.63051068520E+01 -0.57092775899E+02  0.19836991502E+03  0.20651867378E+03  0.00000000000E+00 0.  1.
         21    1    1    2  502  501  0.23291940123E+02  0.14700460246E+02  0.52381871336E+02  0.59181740856E+02  0.00000000000E+00 0. -1.
<scales pt_clust_5="13000.00000" pt_clust_6="13000.00000" pt_clust_7="13000.00000" pt_clust_8="13000.00000" pt_clust_9="27.54302"></scales>
<clustering>
<clus scale="   27.543">  2  9  1 -1</clus>
<clus scale="   89.828">  5  6 -1 -1</clus>
<clus scale="   95.007">  2  5  1 -1</clus>
<clus scale="  106.749">  7  8 -1 -1</clus>
<clus scale="   27.543">  2  5  1 -1</clus>
</clustering>
</event>
<event>
 9    1  0.1435532E-005  0.1184614E+03  0.7546771E-02  0.1245748E+00
          3   -1    0    0  502    0  0.00000000000E+00  0.00000000000E+00  0.41585212553E+02  0.41585212553E+02  0.00000000000E+00 0. -1.
         -3   -1    0    0    0  501 -0.00000000000E+00 -0.00000000000E+00 -0.72512189905E+03  0.72512189905E+03  0.00000000000E+00 0.  1.
         23    2    1    2    0    0 -0.11092622862E+03  0.32855488164E+02 -0.43547219175E+03  0.45955772699E+03  0.90405549320E+02 0.  0.
         23    2    1    2    0    0  0.29262794187E+02 -0.98547644986E+01 -0.14733456858E+03  0.17545098737E+03  0.90122951362E+02 0.  0.
        -11    1    4    4    0    0 -0.50571338931E+01 -0.42073995225E+02 -0.10040069177E+03  0.10897749577E+03  0.00000000000E+00 0.  1.
         11    1    4    4    0    0  0.34319928080E+02  0.32219230726E+02 -0.46933876813E+02  0.66473491594E+02  0.00000000000E+00 0. -1.
        -11    1    3    3    0    0 -0.75784637805E+02  0.26290144896E+02 -0.40413122360E+03  0.41201520474E+03  0.00000000000E+00 0.  1.
         11    1    3    3    0    0 -0.35141590817E+02  0.65653432675E+01 -0.31340968149E+02  0.47542522250E+02  0.00000000000E+00 0. -1.
         21    1    1    2  502  501  0.81663434435E+02 -0.23000723665E+02 -0.10072992617E+03  0.13169839725E+03  0.00000000000E+00 0.  1.
<scales pt_clust_5="13000.00000" pt_clust_6="13000.00000" pt_clust_7="13000.00000" pt_clust_8="13000.00000" pt_clust_9="84.84073"></scales>
<clustering>
<clus scale="   84.841">  1  9  2 -1</clus>
<clus scale="   90.123">  5  6 -1 -1</clus>
<clus scale="   90.406">  7  8 -1 -1</clus>
<clus scale="  118.246">  1  5  2 -1</clus>
<clus scale="   84.841">  1  5  2 -1</clus>
</clustering>
</event>
<event>
 9    1  0.1435532E-005  0.9287771E+02  0.7546771E-02  0.1296115E+00
         -2   -1    0    0    0  501 -0.00000000000E+00  0.00000000000E+00  0.24838168626E+03  0.24838168626E+03  0.00000000000E+00 0.  1.
          2   -1    0    0  502    0  0.00000000000E+00 -0.00000000000E+00 -0.40605839891E+03  0.40605839891E+03  0.00000000000E+00 0. -1.
         23    2    1    2    0    0 -0.11110751209E+01 -0.24101139301E+02  0.19181741955E+03  0.21376849741E+03  0.91219233940E+02 0.  0.
         23    2    1    2    0    0 -0.29425426887E+02 -0.24654141478E+02 -0.13776068741E+02  0.10006011777E+03  0.91370480235E+02 0.  0.
        -13    1    3    3    0    0  0.64042082385E+01  0.33864296302E+02  0.53904036919E+02  0.63980072237E+02  0.00000000000E+00 0. -1.
         13    1    3    3    0    0 -0.75152833594E+01 -0.57965435604E+02  0.13791338263E+03  0.14978842518E+03  0.00000000000E+00 0.  1.
        -13    1    4    4    0    0  0.15187340944E+02 -0.38279716297E+02 -0.29694569482E+02  0.50771640327E+02  0.00000000000E+00 0. -1.
         13    1    4    4    0    0 -0.44612767831E+02  0.13625574819E+02  0.15918500741E+02  0.49288477442E+02  0.00000000000E+00 0.  1.
         21    1    1    2  502  501  0.30536502008E+02  0.48755280780E+02 -0.33571806346E+03  0.34061146999E+03  0.00000000000E+00 0. -1.
<scales pt_clust_5="13000.00000" pt_clust_6="13000.00000" pt_clust_7="13000.00000" pt_clust_8="13000.00000" pt_clust_9="57.52874"></scales>
<clustering>
<clus scale="   57.529">  2  9  1 -1</clus>
<clus scale="   91.219">  5  6 -1 -1</clus>
<clus scale="   91.370">  7  8 -1 -1</clus>
<clus scale="   92.729">  1  5  2 -1</clus>
<clus scale="   57.529">  2  5  1 -1</clus>
</clustering>
</event>
<event>
 9    1  0.1435532E-005  0.1155869E+03  0.7546771E-02  0.1250839E+00
          1   -1    0    0  502    0  0.00000000000E+00  0.00000000000E+00  0.78548270386E+02  0.78548270386E+02  0.00000000000E+00 0. -1.
         -1   -1    0    0    0  501 -0.00000000000E+00 -0.00000000000E+00 -0.48698880525E+03  0.48698880525E+03  0.00000000000E+00 0.  1.
         23    2    1    2    0    0 -0.25513025940E+02  0.41764258804E+02 -0.19222208787E+03  0.21848547135E+03  0.91604597694E+02 0.  0.
         23    2    1    2    0    0 -0.16014101979E+02 -0.11700851681E+03 -0.21371000602E+03  0.26107199628E+03  0.92407662574E+02 0.  0.
        -11    1    3    3    0    0  0.27575310400E+02  0.42194291200E+02 -0.10275107023E+03  0.11444884616E+03  0.00000000000E+00 0.  1.
         11    1    3    3    0    0 -0.53088336340E+02 -0.43003239635E+00 -0.89471017642E+02  0.10403662519E+03  0.00000000000E+00 0. -1.
        -11    1    4    4    0    0  0.26399979130E+02 -0.33762259919E+02 -0.12536429564E+03  0.13248794554E+03  0.00000000000E+00 0.  1.
         11    1    4    4    0    0 -0.42414081109E+02 -0.83246256890E+02 -0.88345710381E+02  0.12858405074E+03  0.00000000000E+00 0. -1.
         21    1    1    2  502  501  0.41527127919E+02  0.75244258005E+02 -0.25084409707E+01  0.85979608001E+02  0.00000000000E+00 0. -1.
<scales pt_clust_5="13000.00000" pt_clust_6="13000.00000" pt_clust_7="13000.00000" pt_clust_8="13000.00000" pt_clust_9="85.94301"></scales>
<clustering>
<clus scale="   85.943">  1  9  2 -1</clus>
<clus scale="   91.605">  5  6 -1 -1</clus>
<clus scale="   92.408">  7  8 -1 -1</clus>
<clus scale="  114.946">  2  5  1 -1</clus>
<clus scale="   85.943">  1  5  2 -1</clus>
</clustering>
</event>
<event>
 9    1  0.1435532E-005  0.2179927E+03  0.7546771E-02  0.1135398E+00
         -2   -1    0    0    0  501 -0.00000000000E+00  0.00000000000E+00  0.56996509074E+02  0.56996509074E+02  0.00000000000E+00 0.  1.
          2   -1    0    0  502    0  0.00000000000E+00 -0.00000000000E+00 -0.10929270036E+04  0.10929270036E+04  0.00000000000E+00 0. -1.
         23    2    1    2    0    0 -0.19570741566E+03  0.30562762083E+02 -0.28611106037E+03  0.35976738291E+03  0.91310218304E+02 0.  0.
         23    2    1    2    0    0  0.18985482832E+03 -0.57965705639E+02 -0.69602531221E+03  0.72950152029E+03  0.91194045925E+02 0.  0.
        -11    1    4    4    0    0  0.16946311432E+03 -0.16460673761E+02 -0.58382583475E+03  0.60814579356E+03  0.00000000000E+00 0.  1.
         11    1    4    4    0    0  0.20391714000E+02 -0.41505031878E+02 -0.11219947745E+03  0.12135572674E+03  0.00000000000E+00 0. -1.
        -11    1    3    3    0    0 -0.12935016017E+03  0.55966496626E+02 -0.14752326415E+03  0.20402653295E+03  0.00000000000E+00 0.  1.
         11    1    3    3    0    0 -0.66357255486E+02 -0.25403734543E+02 -0.13858779622E+03  0.15574084996E+03  0.00000000000E+00 0. -1.
         21    1    1    2  502  501  0.58525873379E+01  0.27402943556E+02 -0.53794121953E+02  0.60654609476E+02  0.00000000000E+00 0.  1.
<scales pt_clust_5="13000.00000" pt_clust_6="13000.00000" pt_clust_7="13000.00000" pt_clust_8="13000.00000" pt_clust_9="28.02096"></scales>
<clustering>
<clus scale="   28.021">  1  9  2 -1</clus>
<clus scale="   91.194">  5  6 -1 -1</clus>
<clus scale="   91.310">  7  8 -1 -1</clus>
<clus scale="  217.944">  2  5  1 -1</clus>
<clus scale="  217.944">  2  5  1 -1</clus>
</clustering>
</event>
<event>
 9    1  0.1435532E-005  0.1170410E+03  0.7546771E-02  0.1248556E+00
         -2   -1    0    0    0  501 -0.00000000000E+00  0.00000000000E+00  0.28517031827E+02  0.28517031827E+02  0.00000000000E+00 0.  1.
          2   -1    0    0  502    0  0.00000000000E+00 -0.00000000000E+00 -0.12144601037E+04  0.12144601037E+04  0.00000000000E+00 0. -1.
         23    2    1    2    0    0 -0.67308439209E+02 -0.11773974565E+03 -0.42954211244E+03  0.45954001850E+03  0.90980924088E+02 0.  0.
         23    2    1    2    0    0  0.18707438882E+02  0.47065070700E+02 -0.54849684654E+03  0.55853472248E+03  0.92450832373E+02 0.  0.
        -13    1    3    3    0    0  0.33857636924E+01 -0.54834585830E+02 -0.25645869006E+03  0.26227724817E+03  0.00000000000E+00 0.  1.
         13    1    3    3    0    0 -0.70694202902E+02 -0.62905159824E+02 -0.17308342238E+03  0.19726277033E+03  0.00000000000E+00 0. -1.
        -13    1    4    4    0    0 -0.27143967247E+02 -0.11308981619E+02 -0.11334567888E+03  0.11709795448E+03  0.00000000000E+00 0. -1.
         13    1    4    4    0    0  0.45851406128E+02  0.58374052319E+02 -0.43515116765E+03  0.44143676800E+03  0.00000000000E+00 0.  1.
         21    1    1    2  502  501  0.48601000328E+02  0.70674674954E+02 -0.20790411288E+03  0.22490239453E+03  0.00000000000E+00 0.  1.
<scales pt_clust_5="13000.00000" pt_clust_6="13000.00000" pt_clust_7="13000.00000" pt_clust_8="13000.00000" pt_clust_9="85.77276"></scales>
<clustering>
<clus scale="   85.773">  1  9  2 -1</clus>
<clus scale="   90.981">  5  6 -1 -1</clus>
<clus scale="   92.451">  7  8 -1 -1</clus>
<clus scale="  115.883">  1  5  2 -1</clus>
<clus scale="  117.041">  2  5  1 -1</clus>
</clustering>
</event>
<event>
 9    1  0.1435532E-005  0.1034746E+03  0.7546771E-02  0.1274052E+00
         -2   -1    0    0    0  501 -0.00000000000E+00  0.00000000000E+00  0.52895375392E+02  0.52895375392E+02  0.00000000000E+00 0.  1.
          2   -1    0    0  502    0  0.00000000000E+00 -0.00000000000E+00 -0.69132989766E+03  0.69132989766E+03  0.00000000000E+00 0. -1.
         23    2    1    2    0    0 -0.14728414663E+01  0.20621262520E+02 -0.74997262945E+02  0.12081172819E+03  0.92430939026E+02 0.  0.
         23    2    1    2    0    0 -0.12129992125E+02 -0.81622606974E+02 -0.10664627951E+03  0.16236669220E+03  0.90444055226E+02 0.  0.
        -11    1    3    3    0    0 -0.45281724754E+02  0.16712025655E+02 -0.25474466088E+02  0.54577237203E+02  0.00000000000E+00 0.  1.
         11    1    3    3    0    0  0.43808883288E+02  0.39092368650E+01 -0.49522796857E+02  0.66234490987E+02  0.00000000000E+00 0. -1.
        -11    1    4    4    0    0  0.11983603549E+02 -0.92173417972E+02 -0.66214308062E+02  0.11412221662E+03  0.00000000000E+00 0. -1.
         11    1    4    4    0    0 -0.24113595674E+02  0.10550810997E+02 -0.40431971447E+02  0.48244475582E+02  0.00000000000E+00 0.  1.
         21    1    1    2  502  501  0.13602833592E+02  0.61001344454E+02 -0.45679097982E+03  0.46104685266E+03  0.00000000000E+00 0. -1.
<scales pt_clust_5="13000.00000" pt_clust_6="13000.00000" pt_clust_7="13000.00000" pt_clust_8="13000.00000" pt_clust_9="62.49961"></scales>
<clustering>
<clus scale="   62.500">  2  9  1 -1</clus>
<clus scale="   90.444">  7  8 -1 -1</clus>
<clus scale="   92.431">  5  6 -1 -1</clus>
<clus scale="  101.704">  2  7  1 -1</clus>
<clus scale="   62.500">  2  5  1 -1</clus>
</clustering>
</event>
<event>
 9    1  0.1435532E-005  0.9731086E+02  0.7546771E-02  0.1287879E+00
          1   -1    0    0  502    0  0.00000000000E+00  0.00000000000E+00  0.51343250393E+03  0.51343250393E+03  0.00000000000E+00 0. -1.
         -1   -1    0    0    0  501 -0.00000000000E+00 -0.00000000000E+00 -0.85053964696E+02  0.85053964696E+02  0.00000000000E+00 0.  1.
         23    2    1    2    0    0 -0.74413393084E+01  0.26773195885E+02 -0.38652469585E+02  0.10206604615E+03  0.90284477195E+02 0.  0.
         23    2    1    2    0    0 -0.39210548706E+02 -0.22517960939E+02  0.20134678816E+03  0.22663789750E+03  0.93699956158E+02 0.  0.
        -11    1    3    3    0    0 -0.37486408041E+02  0.44204077665E+02 -0.14457749333E+02  0.59734895881E+02  0.00000000000E+00 0. -1.
         11    1    3    3    0    0  0.30045068733E+02 -0.17430881780E+02 -0.24194720252E+02  0.42331150266E+02  0.00000000000E+00 0.  1.
        -11    1    4    4    0    0  0.87454251831E+01 -0.28654047910E+02  0.16071759350E+03  0.16348602933E+03  0.00000000000E+00 0. -1.
         11    1    4    4    0    0 -0.47955973889E+02  0.61360869706E+01  0.40629194660E+02  0.63151868172E+02  0.00000000000E+00 0.  1.
         21    1    1    2  502  501  0.46651888014E+02 -0.42552349459E+01  0.26568422066E+03  0.26978252498E+03  0.00000000000E+00 0.  1.
<scales pt_clust_5="13000.00000" pt_clust_6="13000.00000" pt_clust_7="13000.00000" pt_clust_8="13000.00000" pt_clust_9="46.84555"></scales>
<clustering>
<clus scale="   46.846">  1  9  2 -1</clus>
<clus scale="   90.284">  5  6 -1 -1</clus>
<clus scale="   93.700">  7  8 -1 -1</clus>
<clus scale="   94.027">  2  5  1 -1</clus>
<clus scale="   46.846">  1  5  2 -1</clus>
</clustering>
</event>
<event>
 9    1  0.1435532E-005  0.1098932E+03  0.7546771E-02  0.1264086E+00
          2   -1    0    0  502    0  0.00000000000E+00  0.00000000000E+00  0.10346413191E+03  0.10346413191E+03  0.00000000000E+00 0. -1.
         -2   -1    0    0    0  501 -0.00000000000E+00 -0.00000000000E+00 -0.18899203952E+03  0.18899203952E+03  0.00000000000E+00 0.  1.
         23    2    1    2    0    0 -0.11273755640E+02  0.54446875252E+02 -0.10929222979E+03  0.15367542940E+03  0.92627135957E+02 0.  0.
         23    2    1    2    0    0 -0.32670894084E+01 -0.69460661675E+02  0.30142197849E+01  0.10932880309E+03  0.84310404285E+02 0.  0.
        -11    1    4    4    0    0  0.32501199659E+02 -0.77894154980E+01 -0.13670438589E+02  0.36109332094E+02  0.00000000000E+00 0.  1.
         11    1    4    4    0    0 -0.35768289068E+02 -0.61671246177E+02  0.16684658374E+02  0.73219470996E+02  0.00000000000E+00 0. -1.
        -11    1    3    3    0    0 -0.30673835200E+02 -0.12990024638E+02 -0.16043709536E+02  0.36973308233E+02  0.00000000000E+00 0. -1.
         11    1    3    3    0    0  0.19400079560E+02  0.67436899890E+02 -0.93248520258E+02  0.11670212116E+03  0.00000000000E+00 0.  1.
         21    1    1    2  502  501  0.14540845048E+02  0.15013786423E+02  0.20750102400E+02  0.29451938936E+02  0.00000000000E+00 0. -1.
<scales pt_clust_5="13000.00000" pt_clust_6="13000.00000" pt_clust_7="13000.00000" pt_clust_8="13000.00000" pt_clust_9="20.90096"></scales>
<clustering>
<clus scale="   20.901">  1  9  2 -1</clus>
<clus scale="   84.310">  5  6 -1 -1</clus>
<clus scale="   92.627">  7  8 -1 -1</clus>
<clus scale="  102.980">  1  5  2 -1</clus>
<clus scale="   20.901">  1  5  2 -1</clus>
</clustering>
</event>
<event>
 9    1  0.1435532E-005  0.2025069E+03  0.7546771E-02  0.1150639E+00
          3   -1    0    0  502    0  0.00000000000E+00  0.00000000000E+00  0.22684531447E+03  0.22684531447E+03  0.00000000000E+00 0. -1.
         -3   -1    0    0    0  501 -0.00000000000E+00 -0.00000000000E+00 -0.43648102965E+03  0.43648102965E+03  0.00000000000E+00 0.  1.
         23    2    1    2    0    0  0.77296482593E+02  0.77606602299E+02 -0.90417592671E+02  0.18343976176E+03  0.11609166288E+03 0.  0.
         23    2    1    2    0    0 -0.16842856365E+03 -0.19640483475E+03 -0.16938051046E+03  0.32198046659E+03  0.89658370361E+02 0.  0.
        -11    1    4    4    0    0 -0.69334298026E+02 -0.45777589563E+02 -0.14600100017E+02  0.84356360219E+02  0.00000000000E+00 0. -1.
         11    1    4    4    0    0 -0.99094265627E+02 -0.15062724519E+03 -0.15478041044E+03  0.23762410637E+03  0.00000000000E+00 0.  1.
        -13    1    3    3    0    0  0.57511873385E+02 -0.62692973480E+01 -0.76863789137E+02  0.96202711760E+02  0.00000000000E+00 0. -1.
         13    1    3    3    0    0  0.19784609208E+02  0.83875899647E+02 -0.13553803534E+02  0.87237050003E+02  0.00000000000E+00 0.  1.
         21    1    1    2  502  501  0.91132081061E+02  0.11879823245E+03  0.50162387942E+02  0.15790611577E+03  0.00000000000E+00 0. -1.
<scales pt_clust_5="13000.00000" pt_clust_6="13000.00000" pt_clust_7="13000.00000" pt_clust_8="13000.00000" pt_clust_9="149.72667"></scales>
<clustering>
<clus scale="   89.658">  5  6 -1 -1</clus>
<clus scale="  116.092">  7  8 -1 -1</clus>
<clus scale="  149.727">  1  9  2 -1</clus>
<clus scale="  188.601">  1  5  2 -1</clus>
<clus scale="  149.727">  1  5  2 -1</clus>
</clustering>
</event>
<event>
 9    1  0.1435532E-005  0.9136051E+02  0.7546771E-02  0.1300040E+00
          1   -1    0    0  502    0  0.00000000000E+00  0.00000000000E+00  0.50001198010E+03  0.50001198010E+03  0.00000000000E+00 0. -1.
         -1   -1    0    0    0  501 -0.00000000000E+00 -0.00000000000E+00 -0.35450914944E+02  0.35450914944E+02  0.00000000000E+00 0.  1.
         23    2    1    2    0    0 -0.28771211705E+02 -0.11875890423E+02  0.90330557850E+02  0.13148206234E+03  0.90327756755E+02 0.  0.
         23    2    1    2    0    0 -0.87952294395E+01 -0.10503253878E+02  0.14776233091E+03  0.17332980080E+03  0.89564719639E+02 0.  0.
        -11    1    3    3    0    0 -0.24819645752E+02 -0.42321893315E+02  0.87923924271E+02  0.10068651314E+03  0.00000000000E+00 0.  1.
         11    1    3    3    0    0 -0.39515659527E+01  0.30446002892E+02  0.24066335793E+01  0.30795549204E+02  0.00000000000E+00 0. -1.
        -13    1    4    4    0    0 -0.46332090387E+02  0.99142184730E+01  0.68617873261E+02  0.83386850632E+02  0.00000000000E+00 0. -1.
         13    1    4    4    0    0  0.37536860947E+02 -0.20417472351E+02  0.79144457654E+02  0.89942950165E+02  0.00000000000E+00 0.  1.
         21    1    1    2  502  501  0.37566441144E+02  0.22379144302E+02  0.22646817639E+03  0.23065103191E+03  0.00000000000E+00 0. -1.
<scales pt_clust_5="13000.00000" pt_clust_6="13000.00000" pt_clust_7="13000.00000" pt_clust_8="13000.00000" pt_clust_9="43.72715"></scales>
<clustering>
<clus scale="   43.727">  1  9  2 -1</clus>
<clus scale="   89.565">  7  8 -1 -1</clus>
<clus scale="   90.328">  5  6 -1 -1</clus>
<clus scale="   90.606">  1  7  2 -1</clus>
<clus scale="   43.727">  1  5  2 -1</clus>
</clustering>
</event>
<event>
 9    1  0.1435532E-005  0.1123544E+03  0.7546771E-02  0.1256996E+00
         -2   -1    0    0    0  501 -0.00000000000E+00  0.00000000000E+00  0.41689592660E+02  0.41689592660E+02  0.00000000000E+00 0.  1.
          2   -1    0    0  502    0  0.00000000000E+00 -0.00000000000E+00 -0.54817491491E+03  0.54817491491E+03  0.00000000000E+00 0. -1.
         23    2    1    2    0    0 -0.35833410632E+02  0.50265631015E+02 -0.98603137275E+02  0.14776163559E+03  0.91105736875E+02 0.  0.
         23    2    1    2    0    0  0.70157403908E+02 -0.24195580231E+02 -0.22875710811E+03  0.25786504410E+03  0.93043425517E+02 0.  0.
        -13    1    4    4    0    0  0.79495379848E+02  0.62267189223E+01 -0.19865245986E+03  0.21405860705E+03  0.00000000000E+00 0. -1.
         13    1    4    4    0    0 -0.93379759403E+01 -0.30422299153E+02 -0.30104648255E+02  0.43806437049E+02  0.00000000000E+00 0.  1.
        -13    1    3    3    0    0 -0.49455923152E+02  0.70178456865E+02 -0.79104105851E+02  0.11674058294E+03  0.00000000000E+00 0.  1.
         13    1    3    3    0    0  0.13622512520E+02 -0.19912825850E+02 -0.19499031425E+02  0.31021052645E+02  0.00000000000E+00 0. -1.
         21    1    1    2  502  501 -0.34323993276E+02 -0.26070050784E+02 -0.17912507686E+03  0.18423782788E+03  0.00000000000E+00 0. -1.
<scales pt_clust_5="13000.00000" pt_clust_6="13000.00000" pt_clust_7="13000.00000" pt_clust_8="13000.00000" pt_clust_9="43.10202"></scales>
<clustering>
<clus scale="   43.102">  2  9  1 -1</clus>
<clus scale="   91.106">  7  8 -1 -1</clus>
<clus scale="   93.043">  5  6 -1 -1</clus>
<clus scale="  110.755">  1  7  2 -1</clus>
<clus scale="   43.102">  2  5  1 -1</clus>
</clustering>
</event>
<event>
 9    1  0.1435532E-005  0.9036918E+02  0.7546771E-02  0.1302745E+00
          2   -1    0    0  502    0  0.00000000000E+00  0.00000000000E+00  0.50507295321E+03  0.50507295321E+03  0.00000000000E+00 0. -1.
         -2   -1    0    0    0  501 -0.00000000000E+00 -0.00000000000E+00 -0.32105161931E+02  0.32105161931E+02  0.00000000000E+00 0.  1.
         23    2    1    2    0    0 -0.34075500450E+02 -0.13685205569E+02  0.10500142207E+03  0.14193713853E+03  0.88161375199E+02 0.  0.
         23    2    1    2    0    0 -0.20323794060E+02  0.10250910564E+02  0.22801833278E+03  0.24505265973E+03  0.86834947942E+02 0.  0.
        -11    1    3    3    0    0 -0.49329060689E+02 -0.31759510907E+02  0.10256778788E+03  0.11816164298E+03  0.00000000000E+00 0. -1.
         11    1    3    3    0    0  0.15253560239E+02  0.18074305338E+02  0.24336341856E+01  0.23775495552E+02  0.00000000000E+00 0.  1.
        -13    1    4    4    0    0 -0.52311336769E+02  0.70716756443E+01  0.10020067439E+03  0.11325484404E+03  0.00000000000E+00 0. -1.
         13    1    4    4    0    0  0.31987542709E+02  0.31792349193E+01  0.12781765839E+03  0.13179781569E+03  0.00000000000E+00 0.  1.
         21    1    1    2  502  501  0.54399294509E+02  0.34342950053E+01  0.13994803643E+03  0.15018831688E+03  0.00000000000E+00 0.  1.
<scales pt_clust_5="13000.00000" pt_clust_6="13000.00000" pt_clust_7="13000.00000" pt_clust_8="13000.00000" pt_clust_9="54.50759"></scales>
<clustering>
<clus scale="   54.508">  1  9  2 -1</clus>
<clus scale="   86.835">  7  8 -1 -1</clus>
<clus scale="   88.161">  5  6 -1 -1</clus>
<clus scale="   89.076">  1  7  2 -1</clus>
<clus scale="   54.508">  1  5  2 -1</clus>
</clustering>
</event>
<event>
 9    1  0.1435532E-005  0.9467645E+02  0.7546771E-02  0.1291924E+00
          2   -1    0    0  502    0  0.00000000000E+00  0.00000000000E+00  0.64085694207E+03  0.64085694207E+03  0.00000000000E+00 0. -1.
         -2   -1    0    0    0  501 -0.00000000000E+00 -0.00000000000E+00 -0.46498060705E+02  0.46498060705E+02  0.00000000000E+00 0.  1.
         23    2    1    2    0    0 -0.13934764252E+02 -0.72955514142E+01  0.38171567491E+02  0.10016854734E+03  0.91264815712E+02 0.  0.
         23    2    1    2    0    0  0.66307827457E+02 -0.19709072280E+02  0.24479485049E+03  0.27026776917E+03  0.91296071729E+02 0.  0.
        -13    1    4    4    0    0  0.25195479868E+02 -0.49968592536E+02  0.79146529334E+02  0.96932169848E+02  0.00000000000E+00 0.  1.
         13    1    4    4    0    0  0.41112347588E+02  0.30259520256E+02  0.16564832116E+03  0.17333559932E+03  0.00000000000E+00 0. -1.
        -13    1    3    3    0    0 -0.43806240073E+02 -0.15983821306E+02 -0.50625826803E+01  0.46905212464E+02  0.00000000000E+00 0.  1.
         13    1    3    3    0    0  0.29871475822E+02  0.86882698916E+01  0.43234150171E+02  0.53263334879E+02  0.00000000000E+00 0. -1.
         21    1    1    2  502  501 -0.52373063205E+02  0.27004623694E+02  0.31139246339E+03  0.31691868626E+03  0.00000000000E+00 0. -1.
<scales pt_clust_5="13000.00000" pt_clust_6="13000.00000" pt_clust_7="13000.00000" pt_clust_8="13000.00000" pt_clust_9="58.92527"></scales>
<clustering>
<clus scale="   58.925">  1  9  2 -1</clus>
<clus scale="   91.265">  7  8 -1 -1</clus>
<clus scale="   91.296">  5  6 -1 -1</clus>
<clus scale="   94.646">  2  7  1 -1</clus>
<clus scale="   58.925">  1  5  2 -1</clus>
</clustering>
</event>
<event>
 9    1  0.1435532E-005  0.1549633E+03  0.7546771E-02  0.1194916E+00
         -1   -1    0    0    0  501 -0.00000000000E+00  0.00000000000E+00  0.37527493058E+02  0.37527493058E+02  0.00000000000E+00 0.  1.
          1   -1    0    0  502    0  0.00000000000E+00 -0.00000000000E+00 -0.74927825625E+03  0.74927825625E+03  0.00000000000E+00 0. -1.
         23    2    1    2    0    0  0.51162793609E+02  0.12814358773E+03 -0.36360993709E+03  0.39921380146E+03  0.90116937348E+02 0.  0.
         23    2    1    2    0    0 -0.45887253279E+02 -0.10612051889E+03 -0.32077179372E+03  0.35206856371E+03  0.87695640512E+02 0.  0.
        -13    1    3    3    0    0  0.70679496701E+02  0.11152804445E+03 -0.24975717938E+03  0.28251149465E+03  0.00000000000E+00 0. -1.
         13    1    3    3    0    0 -0.19516703092E+02  0.16615543282E+02 -0.11385275770E+03  0.11670230681E+03  0.00000000000E+00 0.  1.
        -13    1    4    4    0    0 -0.20501142461E+02 -0.59161818397E+02 -0.62981186852E+02  0.88809050752E+02  0.00000000000E+00 0.  1.
         13    1    4    4    0    0 -0.25386110818E+02 -0.46958700495E+02 -0.25779060687E+03  0.26325951296E+03  0.00000000000E+00 0. -1.
         21    1    1    2  502  501 -0.52755403301E+01 -0.22023068841E+02 -0.27369032382E+02  0.35523384136E+02  0.00000000000E+00 0.  1.
<scales pt_clust_5="13000.00000" pt_clust_6="13000.00000" pt_clust_7="13000.00000" pt_clust_8="13000.00000" pt_clust_9="22.64612"></scales>
<clustering>
<clus scale="   22.646">  1  9  2 -1</clus>
<clus scale="   87.696">  7  8 -1 -1</clus>
<clus scale="   90.117">  5  6 -1 -1</clus>
<clus scale="  153.568">  2  7  1 -1</clus>
<clus scale="  153.568">  2  5  1 -1</clus>
</clustering>
</event>
<event>
 9    1  0.1435532E-005  0.1026870E+03  0.7546771E-02  0.1276129E+00
          2   -1    0    0  502    0  0.00000000000E+00  0.00000000000E+00  0.32471183930E+03  0.32471183930E+03  0.00000000000E+00 0. -1.
         -2   -1    0    0    0  501 -0.00000000000E+00 -0.00000000000E+00 -0.11905253350E+03  0.11905253350E+03  0.00000000000E+00 0.  1.
         23    2    1    2    0    0 -0.88602963816E+01  0.16318103013E+02 -0.67852312704E+02  0.11291790493E+03  0.88327411246E+02 0.  0.
         23    2    1    2    0    0  0.46725591596E+02  0.23459498937E+02  0.24971416997E+03  0.27099367549E+03  0.91360694370E+02 0.  0.
        -13    1    4    4    0    0 -0.23390664467E+02  0.11164123637E+02  0.12254626003E+03  0.12525712231E+03  0.00000000000E+00 0.  1.
         13    1    4    4    0    0  0.70116256063E+02  0.12295375300E+02  0.12716790994E+03  0.14573655319E+03  0.00000000000E+00 0. -1.
        -13    1    3    3    0    0 -0.34274954565E+02 -0.13186998893E+02 -0.63997556871E+02  0.73785884393E+02  0.00000000000E+00 0.  1.
         13    1    3    3    0    0  0.25414658184E+02  0.29505101906E+02 -0.38547558331E+01  0.39132020541E+02  0.00000000000E+00 0. -1.
         21    1    1    2  502  501 -0.37865295214E+02 -0.39777601950E+02  0.23797448533E+02  0.59852792376E+02  0.00000000000E+00 0.  1.
<scales pt_clust_5="13000.00000" pt_clust_6="13000.00000" pt_clust_7="13000.00000" pt_clust_8="13000.00000" pt_clust_9="54.91847"></scales>
<clustering>
<clus scale="   54.918">  2  9  1 -1</clus>
<clus scale="   88.327">  7  8 -1 -1</clus>
<clus scale="   91.361">  5  6 -1 -1</clus>
<clus scale="   99.998">  2  7  1 -1</clus>
<clus scale="  102.687">  1  5  2 -1</clus>
</clustering>
</event>
<event>
 9    1  0.1435532E-005  0.9540801E+02  0.7546771E-02  0.1290271E+00
         -2   -1    0    0    0  501 -0.00000000000E+00  0.00000000000E+00  0.76956662474E+02  0.76956662474E+02  0.00000000000E+00 0.  1.
          2   -1    0    0  502    0  0.00000000000E+00 -0.00000000000E+00 -0.19505041386E+03  0.19505041386E+03  0.00000000000E+00 0. -1.
         23    2    1    2    0    0  0.16351031506E+02 -0.92496846417E+01  0.74850964662E+01  0.94453073811E+02  0.92262904713E+02 0.  0.
         23    2    1    2    0    0 -0.37792900091E+02  0.16459813723E+02 -0.11333530392E+03  0.15183155984E+03  0.92242629422E+02 0.  0.
        -13    1    4    4    0    0  0.13777396591E+02  0.41241509666E+02 -0.42854917327E+02  0.61050984558E+02  0.00000000000E+00 0.  1.
         13    1    4    4    0    0 -0.51570296682E+02 -0.24781695943E+02 -0.70480386594E+02  0.90780575279E+02  0.00000000000E+00 0. -1.
        -13    1    3    3    0    0  0.46230858735E+02 -0.31745615508E+02  0.10006431566E+02  0.56966701467E+02  0.00000000000E+00 0. -1.
         13    1    3    3    0    0 -0.29879827230E+02  0.22495930866E+02 -0.25213351002E+01  0.37486372344E+02  0.00000000000E+00 0.  1.
         21    1    1    2  502  501  0.21441868585E+02 -0.72101290816E+01 -0.12243543933E+02  0.25722442688E+02  0.00000000000E+00 0. -1.
<scales pt_clust_5="13000.00000" pt_clust_6="13000.00000" pt_clust_7="13000.00000" pt_clust_8="13000.00000" pt_clust_9="22.62166"></scales>
<clustering>
<clus scale="   22.622">  2  9  1 -1</clus>
<clus scale="   92.243">  5  6 -1 -1</clus>
<clus scale="   92.263">  7  8 -1 -1</clus>
<clus scale="   95.388">  2  5  1 -1</clus>
<clus scale="   22.622">  2  5  1 -1</clus>
</clustering>
</event>
<event>
 9    1  0.1435532E-005  0.9117197E+02  0.7546771E-02  0.1311498E+00
          2   -1    0    0  502    0  0.00000000000E+00  0.00000000000E+00  0.36401483122E+02  0.36401483122E+02  0.00000000000E+00 0. -1.
         -2   -1    0    0    0  501 -0.00000000000E+00 -0.00000000000E+00 -0.30935132871E+03  0.30935132871E+03  0.00000000000E+00 0.  1.
         23    2    1    2    0    0 -0.17321802966E+01 -0.26331820093E+02 -0.20632798494E+03  0.22643494999E+03  0.89471693899E+02 0.  0.
         23    2    1    2    0    0 -0.26531912154E+01  0.31783216529E+01 -0.62665379595E+02  0.95422889241E+02  0.71843140515E+02 0.  0.
        -11    1    4    4    0    0 -0.32979959358E+01 -0.34173585990E+02 -0.34165088885E+02  0.48435153093E+02  0.00000000000E+00 0.  1.
         11    1    4    4    0    0  0.64480472036E+00  0.37351907643E+02 -0.28500290710E+02  0.46987736148E+02  0.00000000000E+00 0. -1.
        -13    1    3    3    0    0 -0.43843541387E+02 -0.26337941241E+02 -0.11573276641E+03  0.12653069387E+03  0.00000000000E+00 0. -1.
         13    1    3    3    0    0  0.42111361090E+02  0.61211482108E-02 -0.90595218522E+02  0.99904256113E+02  0.00000000000E+00 0.  1.
         21    1    1    2  502  501  0.43853715121E+01  0.23153498440E+02 -0.39564810519E+01  0.23894972601E+02  0.00000000000E+00 0. -1.
<scales pt_clust_5="13000.00000" pt_clust_6="13000.00000" pt_clust_7="13000.00000" pt_clust_8="13000.00000" pt_clust_9="23.56514"></scales>
<clustering>
<clus scale="   23.565">  1  9  2 -1</clus>
<clus scale="   71.843">  5  6 -1 -1</clus>
<clus scale="   73.950">  1  5  2 -1</clus>
<clus scale="   89.472">  7  8 -1 -1</clus>
<clus scale="   23.565">  1  5  2 -1</clus>
</clustering>
</event>
<event>
 9    1  0.1435532E-005  0.1209918E+03  0.7546771E-02  0.1242771E+00
         -1   -1    0    0    0  501 -0.00000000000E+00  0.00000000000E+00  0.61385437190E+02  0.61385437190E+02  0.00000000000E+00 0.  1.
          1   -1    0    0  502    0  0.00000000000E+00 -0.00000000000E+00 -0.36715565138E+03  0.36715565138E+03  0.00000000000E+00 0. -1.
         23    2    1    2    0    0 -0.36423843499E+02  0.58677268583E+02 -0.38429828818E+02  0.12102444638E+03  0.91653405039E+02 0.  0.
         23    2    1    2    0    0  0.43850941821E+02 -0.78169389705E+02 -0.22879694227E+03  0.26369083266E+03  0.95663241885E+02 0.  0.
        -13    1    3    3    0    0 -0.38683289909E+02  0.79147872882E+02 -0.14213090026E+02  0.89234492367E+02  0.00000000000E+00 0.  1.
         13    1    3    3    0    0  0.22594464098E+01 -0.20470604299E+02 -0.24216738792E+02  0.31789954013E+02  0.00000000000E+00 0. -1.
        -13    1    4    4    0    0  0.59023378657E+02 -0.20758693255E+02 -0.68626184014E+02  0.92866763194E+02  0.00000000000E+00 0. -1.
         13    1    4    4    0    0 -0.15172436837E+02 -0.57410696449E+02 -0.16017075826E+03  0.17082406946E+03  0.00000000000E+00 0.  1.
         21    1    1    2  502  501 -0.74270983218E+01  0.19492121122E+02 -0.38543443099E+02  0.43825809533E+02  0.00000000000E+00 0. -1.
<scales pt_clust_5="13000.00000" pt_clust_6="13000.00000" pt_clust_7="13000.00000" pt_clust_8="13000.00000" pt_clust_9="20.85916"></scales>
<clustering>
<clus scale="   20.859">  2  9  1 -1</clus>
<clus scale="   91.653">  5  6 -1 -1</clus>
<clus scale="   95.663">  7  8 -1 -1</clus>
<clus scale="  117.847">  1  5  2 -1</clus>
<clus scale="   20.859">  2  5  1 -1</clus>
</clustering>
</event>
<event>
 9    1  0.1435532E-005  0.1496642E+03  0.7546771E-02  0.1200962E+00
         -1   -1    0    0    0  501 -0.00000000000E+00  0.00000000000E+00  0.17855139664E+03  0.17855139664E+03  0.00000000000E+00 0.  1.
          1   -1    0    0  502    0  0.00000000000E+00 -0.00000000000E+00 -0.41332889451E+03  0.41332889451E+03  0.00000000000E+00 0. -1.
         23    2    1    2    0    0  0.81538970738E+01 -0.12590210371E+03  0.10950075726E+03  0.19034532599E+03  0.91231033806E+02 0.  0.
         23    2    1    2    0    0 -0.88890590602E+00  0.90568872729E+02 -0.12429223530E+03  0.17861106283E+03  0.90828636174E+02 0.  0.
        -11    1    3    3    0    0 -0.21257064801E+00 -0.74043114287E+02  0.11579065837E+03  0.13744054906E+03  0.00000000000E+00 0.  1.
         11    1    3    3    0    0  0.83664677218E+01 -0.51858989420E+02 -0.62899011109E+01  0.52904776927E+02  0.00000000000E+00 0. -1.
        -11    1    4    4    0    0 -0.19946403600E+02 -0.42675315133E+01  0.88078881485E+00  0.20416822248E+02  0.00000000000E+00 0.  1.
         11    1    4    4    0    0  0.19057497694E+02  0.94836404242E+02 -0.12517302411E+03  0.15819424058E+03  0.00000000000E+00 0. -1.
         21    1    1    2  502  501 -0.72649911678E+01  0.35333230977E+02 -0.21998601984E+03  0.22292390233E+03  0.00000000000E+00 0. -1.
<scales pt_clust_5="13000.00000" pt_clust_6="13000.00000" pt_clust_7="13000.00000" pt_clust_8="13000.00000" pt_clust_9="36.07239"></scales>
<clustering>
<clus scale="   36.072">  2  9  1 -1</clus>
<clus scale="   90.829">  7  8 -1 -1</clus>
<clus scale="   91.231">  5  6 -1 -1</clus>
<clus scale="  149.419">  2  7  1 -1</clus>
<clus scale="   36.072">  2  5  1 -1</clus>
</clustering>
</event>
<event>
 9    1  0.1435532E-005  0.1134876E+03  0.7546771E-02  0.1254528E+00
          1   -1    0    0  502    0  0.00000000000E+00  0.00000000000E+00  0.20354193581E+03  0.20354193581E+03  0.00000000000E+00 0. -1.
         -1   -1    0    0    0  501 -0.00000000000E+00 -0.00000000000E+00 -0.33424554650E+03  0.33424554650E+03  0.00000000000E+00 0.  1.
         23    2    1    2    0    0  0.92837467212E+01  0.65812666197E+02 -0.28173167321E+03  0.30369765934E+03  0.91880561666E+02 0.  0.
         23    2    1    2    0    0  0.25880608926E+02 -0.72798784422E+02  0.15748711221E+03  0.19766102833E+03  0.91094580944E+02 0.  0.
        -11    1    3    3    0    0 -0.23713683137E+02  0.37743135796E+02 -0.23801148040E+03  0.24214943294E+03  0.00000000000E+00 0.  1.
         11    1    3    3    0    0  0.32997429859E+02  0.28069530401E+02 -0.43720192812E+02  0.61548226406E+02  0.00000000000E+00 0. -1.
        -13    1    4    4    0    0  0.27299921796E+02 -0.45061001628E+02  0.16124479704E+03  0.16963391220E+03  0.00000000000E+00 0. -1.
         13    1    4    4    0    0 -0.14193128706E+01 -0.27737782794E+02 -0.37576848250E+01  0.28027116130E+02  0.00000000000E+00 0.  1.
         21    1    1    2  502  501 -0.35164355647E+02  0.69861182250E+01 -0.64590496831E+01  0.36428794637E+02  0.00000000000E+00 0.  1.
<scales pt_clust_5="13000.00000" pt_clust_6="13000.00000" pt_clust_7="13000.00000" pt_clust_8="13000.00000" pt_clust_9="35.85161"></scales>
<clustering>
<clus scale="   35.852">  1  9  2 -1</clus>
<clus scale="   91.095">  7  8 -1 -1</clus>
<clus scale="   91.881">  5  6 -1 -1</clus>
<clus scale="  112.852">  1  7  2 -1</clus>
<clus scale="   35.852">  1  5  2 -1</clus>
</clustering>
</event>
<event>
 9    1  0.1435532E-005  0.9908040E+02  0.7546771E-02  0.1282993E+00
         -2   -1    0    0    0  501 -0.00000000000E+00  0.00000000000E+00  0.21351355963E+03  0.21351355963E+03  0.00000000000E+00 0.  1.
          2   -1    0    0  502    0  0.00000000000E+00 -0.00000000000E+00 -0.10198844779E+03  0.10198844779E+03  0.00000000000E+00 0. -1.
         23    2    1    2    0    0 -0.68650185796E+01  0.32693581061E+02  0.11880971184E+03  0.15318958940E+03  0.90748575465E+02 0.  0.
         23    2    1    2    0    0 -0.99543709577E+01 -0.55269306676E+02  0.35378202046E+02  0.11119813499E+03  0.89216715271E+02 0.  0.
        -11    1    3    3    0    0 -0.12932060006E+02  0.60884896830E+02  0.10288525009E+03  0.12024800840E+03  0.00000000000E+00 0.  1.
         11    1    3    3    0    0  0.60670414266E+01 -0.28191315769E+02  0.15924461751E+02  0.32941580996E+02  0.00000000000E+00 0. -1.
        -13    1    4    4    0    0 -0.22573951294E+02 -0.42272876243E+01  0.51345836917E+02  0.56248095136E+02  0.00000000000E+00 0.  1.
         13    1    4    4    0    0  0.12619580336E+02 -0.51042019052E+02 -0.15967634871E+02  0.54950039855E+02  0.00000000000E+00 0. -1.
         21    1    1    2  502  501  0.16819389537E+02  0.22575725615E+02 -0.42662802049E+02  0.51114283034E+02  0.00000000000E+00 0. -1.
<scales pt_clust_5="13000.00000" pt_clust_6="13000.00000" pt_clust_7="13000.00000" pt_clust_8="13000.00000" pt_clust_9="28.15236"></scales>
<clustering>
<clus scale="   28.152">  2  9  1 -1</clus>
<clus scale="   89.217">  7  8 -1 -1</clus>
<clus scale="   90.749">  5  6 -1 -1</clus>
<clus scale="   97.679">  2  7  1 -1</clus>
<clus scale="   28.152">  2  5  1 -1</clus>
</clustering>
</event>
<event>
 9    1  0.1435532E-005  0.2125157E+03  0.7546771E-02  0.1139594E+00
         -1   -1    0    0    0  501 -0.00000000000E+00  0.00000000000E+00  0.45560896046E+02  0.45560896046E+02  0.00000000000E+00 0.  1.
          1   -1    0    0  502    0  0.00000000000E+00 -0.00000000000E+00 -0.11086598692E+04  0.11086598692E+04  0.00000000000E+00 0. -1.
         23    2    1    2    0    0  0.32797579741E+01 -0.20118056803E+03 -0.46674546057E+03  0.51644676275E+03  0.91550838469E+02 0.  0.
         23    2    1    2    0    0 -0.13320143167E+02  0.18100844730E+03 -0.52627104287E+03  0.56415826811E+03  0.91497850799E+02 0.  0.
        -13    1    4    4    0    0 -0.45852392375E+02  0.66782534707E+02 -0.16401776626E+03  0.18293216360E+03  0.00000000000E+00 0. -1.
         13    1    4    4    0    0  0.32532249208E+02  0.11422591259E+03 -0.36225327661E+03  0.38122610451E+03  0.00000000000E+00 0.  1.
        -13    1    3    3    0    0 -0.27732135129E+02 -0.11008932136E+03 -0.16944427571E+03  0.20396100747E+03  0.00000000000E+00 0. -1.
         13    1    3    3    0    0  0.31011893103E+02 -0.91091246669E+02 -0.29730118486E+03  0.31248575528E+03  0.00000000000E+00 0.  1.
         21    1    1    2  502  501  0.10040385193E+02  0.20172120726E+02 -0.70082469731E+02  0.73615734412E+02  0.00000000000E+00 0.  1.
<scales pt_clust_5="13000.00000" pt_clust_6="13000.00000" pt_clust_7="13000.00000" pt_clust_8="13000.00000" pt_clust_9="22.53273"></scales>
<clustering>
<clus scale="   22.533">  2  9  1 -1</clus>
<clus scale="   91.498">  5  6 -1 -1</clus>
<clus scale="   91.551">  7  8 -1 -1</clus>
<clus scale="  212.493">  2  5  1 -1</clus>
<clus scale="   22.533">  2  5  1 -1</clus>
</clustering>
</event>
<event>
 9    1  0.1435532E-005  0.9716803E+02  0.7546771E-02  0.1287054E+00
         -2   -1    0    0    0  501 -0.00000000000E+00  0.00000000000E+00  0.10708881942E+03  0.10708881942E+03  0.00000000000E+00 0.  1.
          2   -1    0    0  502    0  0.00000000000E+00 -0.00000000000E+00 -0.23383366104E+03  0.23383366104E+03  0.00000000000E+00 0. -1.
         23    2    1    2    0    0 -0.34760877020E+02 -0.11530115982E+02  0.48105135619E+02  0.10900164899E+03  0.90697261618E+02 0.  0.
         23    2    1    2    0    0  0.10338087212E+02  0.44555094392E+02 -0.79334149422E+02  0.12794778100E+03  0.89357120108E+02 0.  0.
        -11    1    3    3    0    0 -0.48161007669E+02  0.28223315939E+02  0.25924739924E+02  0.61547789257E+02  0.00000000000E+00 0. -1.
         11    1    3    3    0    0  0.13400130648E+02 -0.39753431921E+02  0.22180395695E+02  0.47453859738E+02  0.00000000000E+00 0.  1.
        -11    1    4    4    0    0  0.86040269316E+01  0.70609728593E+02 -0.42714336234E+02  0.82971546757E+02  0.00000000000E+00 0. -1.
         11    1    4    4    0    0  0.17340602801E+01 -0.26054634201E+02 -0.36619813188E+02  0.44976234239E+02  0.00000000000E+00 0.  1.
         21    1    1    2  502  501  0.24422789808E+02 -0.33024978409E+02 -0.95515827818E+02  0.10397305047E+03  0.00000000000E+00 0.  1.
<scales pt_clust_5="13000.00000" pt_clust_6="13000.00000" pt_clust_7="13000.00000" pt_clust_8="13000.00000" pt_clust_9="41.07459"></scales>
<clustering>
<clus scale="   41.075">  2  9  1 -1</clus>
<clus scale="   89.357">  7  8 -1 -1</clus>
<clus scale="   90.697">  5  6 -1 -1</clus>
<clus scale="   95.918">  2  7  1 -1</clus>
<clus scale="   41.075">  2  5  1 -1</clus>
</clustering>
</event>
<event>
 9    1  0.1435532E-005  0.1618155E+03  0.7546771E-02  0.1187610E+00
         -2   -1    0    0    0  501 -0.00000000000E+00  0.00000000000E+00  0.29026601684E+03  0.29026601684E+03  0.00000000000E+00 0.  1.
          2   -1    0    0  502    0  0.00000000000E+00 -0.00000000000E+00 -0.23899272733E+03  0.23899272733E+03  0.00000000000E+00 0. -1.
         23    2    1    2    0    0 -0.95218933607E+02 -0.94065894294E+02  0.22756296243E+03  0.27811851088E+03  0.87464086561E+02 0.  0.
         23    2    1    2    0    0  0.72499761728E+02  0.95102578683E+02 -0.16927061238E+03  0.22733891618E+03  0.93433006340E+02 0.  0.
        -11    1    4    4    0    0 -0.18093280721E+00  0.26192388353E+02 -0.10527326749E+03  0.10848287787E+03  0.00000000000E+00 0. -1.
         11    1    4    4    0    0  0.72680694536E+02  0.68910190329E+02 -0.63997344889E+02  0.11885603831E+03  0.00000000000E+00 0.  1.
        -13    1    3    3    0    0 -0.10684812838E+03 -0.72737158829E+02  0.15626420267E+03  0.20279476780E+03  0.00000000000E+00 0.  1.
         13    1    3    3    0    0  0.11629194773E+02 -0.21328735466E+02  0.71298759764E+02  0.75323743080E+02  0.00000000000E+00 0. -1.
         21    1    1    2  502  501  0.22719171879E+02 -0.10366843886E+01 -0.70190605406E+01  0.23801317112E+02  0.00000000000E+00 0.  1.
<scales pt_clust_5="13000.00000" pt_clust_6="13000.00000" pt_clust_7="13000.00000" pt_clust_8="13000.00000" pt_clust_9="22.74281"></scales>
<clustering>
<clus scale="   22.743">  2  9  1 -1</clus>
<clus scale="   87.464">  7  8 -1 -1</clus>
<clus scale="   93.433">  5  6 -1 -1</clus>
<clus scale="  158.444">  1  7  2 -1</clus>
<clus scale="   22.743">  2  5  1 -1</clus>
</clustering>
</event>
<event>
 9    1  0.1435532E-005  0.9993181E+02  0.7546771E-02  0.1280811E+00
          1   -1    0    0  502    0  0.00000000000E+00  0.00000000000E+00  0.11133298375E+04  0.11133298375E+04  0.00000000000E+00 0. -1.
         -1   -1    0    0    0  501 -0.00000000000E+00 -0.00000000000E+00 -0.13815160913E+02  0.13815160913E+02  0.00000000000E+00 0.  1.
         23    2    1    2    0    0  0.15975850139E+01  0.20895857234E+02  0.37457937611E+03  0.38626507046E+03  0.91933707207E+02 0.  0.
         23    2    1    2    0    0 -0.26830237748E+02 -0.54034081806E+02  0.49524759943E+03  0.50744627849E+03  0.92693026472E+02 0.  0.
        -13    1    4    4    0    0  0.34248086649E+02 -0.17815362000E+02  0.14345687946E+03  0.14856040800E+03  0.00000000000E+00 0.  1.
         13    1    4    4    0    0 -0.61078324397E+02 -0.36218719806E+02  0.35179071998E+03  0.35888587049E+03  0.00000000000E+00 0. -1.
        -13    1    3    3    0    0  0.40038152321E+02 -0.78422538069E+01  0.10903546129E+03  0.11641858273E+03  0.00000000000E+00 0.  1.
         13    1    3    3    0    0 -0.38440567307E+02  0.28738111041E+02  0.26554391482E+03  0.26984648772E+03  0.00000000000E+00 0. -1.
         21    1    1    2  502  501  0.25232652734E+02  0.33138224572E+02  0.22968770105E+03  0.23343364947E+03  0.00000000000E+00 0.  1.
<scales pt_clust_5="13000.00000" pt_clust_6="13000.00000" pt_clust_7="13000.00000" pt_clust_8="13000.00000" pt_clust_9="41.65127"></scales>
<clustering>
<clus scale="   41.651">  1  9  2 -1</clus>
<clus scale="   91.934">  7  8 -1 -1</clus>
<clus scale="   92.693">  5  6 -1 -1</clus>
<clus scale="   99.228">  2  7  1 -1</clus>
<clus scale="   41.651">  1  5  2 -1</clus>
</clustering>
</event>
<event>
 9    1  0.1435532E-005  0.1009087E+03  0.7546771E-02  0.1278783E+00
          1   -1    0    0  502    0  0.00000000000E+00  0.00000000000E+00  0.51892604804E+03  0.51892604804E+03  0.00000000000E+00 0. -1.
         -1   -1    0    0    0  501 -0.00000000000E+00 -0.00000000000E+00 -0.31954206663E+02  0.31954206663E+02  0.00000000000E+00 0.  1.
         23    2    1    2    0    0 -0.35767296858E+01  0.35845885887E+02  0.11944545547E+03  0.15415919787E+03  0.90554519072E+02 0.  0.
         23    2    1    2    0    0  0.29142808627E+02 -0.48139761929E+02  0.20155438805E+03  0.22834211560E+03  0.91374014026E+02 0.  0.
        -11    1    4    4    0    0  0.55269955830E+02 -0.54619573163E+02  0.12490293651E+03  0.14710135737E+03  0.00000000000E+00 0. -1.
         11    1    4    4    0    0 -0.26127147203E+02  0.64798112338E+01  0.76651451542E+02  0.81240758232E+02  0.00000000000E+00 0.  1.
        -13    1    3    3    0    0 -0.27486748024E+02  0.32067793722E+02  0.11839138355E+02  0.43863765321E+02  0.00000000000E+00 0.  1.
         13    1    3    3    0    0  0.23910018339E+02  0.37780921647E+01  0.10760631712E+03  0.11029543255E+03  0.00000000000E+00 0. -1.
         21    1    1    2  502  501 -0.25566078941E+02  0.12293876043E+02  0.16597199785E+03  0.16837894124E+03  0.00000000000E+00 0.  1.
<scales pt_clust_5="13000.00000" pt_clust_6="13000.00000" pt_clust_7="13000.00000" pt_clust_8="13000.00000" pt_clust_9="28.36836"></scales>
<clustering>
<clus scale="   28.368">  1  9  2 -1</clus>
<clus scale="   90.555">  7  8 -1 -1</clus>
<clus scale="   91.374">  5  6 -1 -1</clus>
<clus scale="  100.167">  2  7  1 -1</clus>
<clus scale="   28.368">  1  5  2 -1</clus>
</clustering>
</event>
<event>
 9    1  0.1435532E-005  0.1148628E+03  0.7546771E-02  0.1253800E+00
          2   -1    0    0  502    0  0.00000000000E+00  0.00000000000E+00  0.49614860185E+03  0.49614860185E+03  0.00000000000E+00 0. -1.
         -2   -1    0    0    0  501 -0.00000000000E+00 -0.00000000000E+00 -0.38679681744E+02  0.38679681744E+02  0.00000000000E+00 0.  1.
         23    2    1    2    0    0  0.32759186590E+02  0.53282223266E+02  0.15519817105E+03  0.19251348917E+03  0.95198800388E+02 0.  0.
         23    2    1    2    0    0 -0.66917972088E+02 -0.29262367777E+02  0.18944045477E+03  0.22200498022E+03  0.89801025502E+02 0.  0.
        -11    1    4    4    0    0 -0.39732959309E+02  0.18769620026E+02  0.14387054580E+03  0.15043184716E+03  0.00000000000E+00 0. -1.
         11    1    4    4    0    0 -0.27185012779E+02 -0.48031987803E+02  0.45569908975E+02  0.71573133060E+02  0.00000000000E+00 0.  1.
        -13    1    3    3    0    0 -0.20376410853E+02  0.51970159305E+02  0.10735447614E+03  0.12100032696E+03  0.00000000000E+00 0. -1.
         13    1    3    3    0    0  0.53135597443E+02  0.13120639609E+01  0.47843694912E+02  0.71513162217E+02  0.00000000000E+00 0.  1.
         21    1    1    2  502  501  0.34158785498E+02 -0.24019855489E+02  0.11283029429E+03  0.12030981420E+03  0.00000000000E+00 0.  1.
<scales pt_clust_5="13000.00000" pt_clust_6="13000.00000" pt_clust_7="13000.00000" pt_clust_8="13000.00000" pt_clust_9="41.75855"></scales>
<clustering>
<clus scale="   41.759">  1  9  2 -1</clus>
<clus scale="   89.801">  5  6 -1 -1</clus>
<clus scale="   95.199">  7  8 -1 -1</clus>
<clus scale="  110.430">  1  5  2 -1</clus>
<clus scale="   41.759">  1  5  2 -1</clus>
</clustering>
</event>
<event>
 9    1  0.1435532E-005  0.1300012E+03  0.7546771E-02  0.1227885E+00
          2   -1    0    0  502    0  0.00000000000E+00  0.00000000000E+00  0.44609867125E+03  0.44609867125E+03  0.00000000000E+00 0. -1.
         -2   -1    0    0    0  501 -0.00000000000E+00 -0.00000000000E+00 -0.50391859196E+02  0.50391859196E+02  0.00000000000E+00 0.  1.
         23    2    1    2    0    0 -0.26461021152E+02 -0.83987182193E+02  0.14746406868E+03  0.19460336187E+03  0.91491991390E+02 0.  0.
         23    2    1    2    0    0  0.56761173701E+02  0.81392634492E+02  0.16033382295E+03  0.20886669119E+03  0.89843019299E+02 0.  0.
        -11    1    4    4    0    0  0.36353200042E+02  0.27968491494E+02  0.85378520174E+01  0.46654973870E+02  0.00000000000E+00 0.  1.
         11    1    4    4    0    0  0.20407973659E+02  0.53424142999E+02  0.15179597093E+03  0.16221171732E+03  0.00000000000E+00 0. -1.
        -11    1    3    3    0    0 -0.54541574324E+02 -0.30076192071E+02  0.98543169602E+02  0.11657665690E+03  0.00000000000E+00 0. -1.
         11    1    3    3    0    0  0.28080553172E+02 -0.53910990122E+02  0.48920899075E+02  0.78026704971E+02  0.00000000000E+00 0.  1.
         21    1    1    2  502  501 -0.30300152549E+02  0.25945477008E+01  0.87908920425E+02  0.93020477383E+02  0.00000000000E+00 0.  1.
<scales pt_clust_5="13000.00000" pt_clust_6="13000.00000" pt_clust_7="13000.00000" pt_clust_8="13000.00000" pt_clust_9="30.41103"></scales>
<clustering>
<clus scale="   30.411">  1  9  2 -1</clus>
<clus scale="   89.843">  5  6 -1 -1</clus>
<clus scale="   91.492">  7  8 -1 -1</clus>
<clus scale="  128.846">  1  5  2 -1</clus>
<clus scale="   30.411">  1  5  2 -1</clus>
</clustering>
</event>
<event>
 9    1  0.1435532E-005  0.1069443E+03  0.7546771E-02  0.1275617E+00
         -1   -1    0    0    0  501 -0.00000000000E+00  0.00000000000E+00  0.11344078228E+03  0.11344078228E+03  0.00000000000E+00 0.  1.
          1   -1    0    0  502    0  0.00000000000E+00 -0.00000000000E+00 -0.17914092485E+03  0.17914092485E+03  0.00000000000E+00 0. -1.
         23    2    1    2    0    0 -0.10122906791E+02  0.17629807900E+02  0.48724322919E+02  0.10260419139E+03  0.87978844495E+02 0.  0.
         23    2    1    2    0    0 -0.68009484772E+01 -0.65966367581E+01 -0.41001860322E+02  0.11382617502E+03  0.10576141571E+03 0.  0.
        -11    1    3    3    0    0 -0.21471410072E+02 -0.22858152986E+02  0.51681040331E+02  0.60452018479E+02  0.00000000000E+00 0.  1.
         11    1    3    3    0    0  0.11348503281E+02  0.40487960885E+02 -0.29567174128E+01  0.42152172912E+02  0.00000000000E+00 0. -1.
        -13    1    4    4    0    0 -0.12231674127E+02  0.35160661383E+02 -0.57584155119E+02  0.68569824862E+02  0.00000000000E+00 0. -1.
         13    1    4    4    0    0  0.54307256501E+01 -0.41757298142E+02  0.16582294797E+02  0.45256350161E+02  0.00000000000E+00 0.  1.
         21    1    1    2  502  501  0.16923855268E+02 -0.11033171142E+02 -0.73422605173E+02  0.76151340717E+02  0.00000000000E+00 0. -1.
<scales pt_clust_5="13000.00000" pt_clust_6="13000.00000" pt_clust_7="13000.00000" pt_clust_8="13000.00000" pt_clust_9="20.20267"></scales>
<clustering>
<clus scale="   20.203">  2  9  1 -1</clus>
<clus scale="   87.979">  5  6 -1 -1</clus>
<clus scale="   89.397">  1  5  2 -1</clus>
<clus scale="  105.761">  7  8 -1 -1</clus>
<clus scale="   20.203">  2  5  1 -1</clus>
</clustering>
</event>
<event>
 9    1  0.1435532E-005  0.9672941E+02  0.7546771E-02  0.1289700E+00
          1   -1    0    0  502    0  0.00000000000E+00  0.00000000000E+00  0.13604229909E+03  0.13604229909E+03  0.00000000000E+00 0. -1.
         -1   -1    0    0    0  501 -0.00000000000E+00 -0.00000000000E+00 -0.22779007390E+03  0.22779007390E+03  0.00000000000E+00 0.  1.
         23    2    1    2    0    0  0.14747174307E+02  0.16059838157E+00 -0.13662100898E+03  0.16784364685E+03  0.96377822928E+02 0.  0.
         23    2    1    2    0    0  0.46286982300E+01 -0.61263642357E+01 -0.45721438474E+02  0.10315333683E+03  0.92147728005E+02 0.  0.
        -11    1    4    4    0    0  0.41213938058E+02 -0.22008304764E+02 -0.64229948903E+01  0.47161520673E+02  0.00000000000E+00 0. -1.
         11    1    4    4    0    0 -0.36585239828E+02  0.15881940528E+02 -0.39298443584E+02  0.55991816155E+02  0.00000000000E+00 0.  1.
        -11    1    3    3    0    0  0.51563048240E+02  0.19899046655E+02 -0.69685947560E+02  0.88942966495E+02  0.00000000000E+00 0. -1.
         11    1    3    3    0    0 -0.36815873932E+02 -0.19738448274E+02 -0.66935061417E+02  0.78900680356E+02  0.00000000000E+00 0.  1.
         21    1    1    2  502  501 -0.19375872537E+02  0.59657658541E+01  0.90594672641E+02  0.92835389318E+02  0.00000000000E+00 0.  1.
<scales pt_clust_5="13000.00000" pt_clust_6="13000.00000" pt_clust_7="13000.00000" pt_clust_8="13000.00000" pt_clust_9="20.27350"></scales>
<clustering>
<clus scale="   20.273">  1  9  2 -1</clus>
<clus scale="   92.148">  5  6 -1 -1</clus>
<clus scale="   92.515">  1  5  2 -1</clus>
<clus scale="   96.378">  7  8 -1 -1</clus>
<clus scale="   20.273">  1  5  2 -1</clus>
</clustering>
</event>
<event>
 9    1  0.1435532E-005  0.1496258E+03  0.7546771E-02  0.1201176E+00
         -1   -1    0    0    0  501 -0.00000000000E+00  0.00000000000E+00  0.27945703314E+03  0.27945703314E+03  0.00000000000E+00 0.  1.
          1   -1    0    0  502    0  0.00000000000E+00 -0.00000000000E+00 -0.44408718852E+03  0.44408718852E+03  0.00000000000E+00 0. -1.
         23    2    1    2    0    0 -0.37051201812E+02  0.64522940973E+02  0.36663749843E+02  0.12417625586E+03  0.92409471908E+02 0.  0.
         23    2    1    2    0    0  0.11159107168E+03 -0.12050584503E+03  0.14719056279E+03  0.23863024641E+03  0.91132358499E+02 0.  0.
        -11    1    4    4    0    0  0.86477917980E+02 -0.10527957032E+03  0.15680704528E+03  0.20772738788E+03  0.00000000000E+00 0.  1.
         11    1    4    4    0    0  0.25113153703E+02 -0.15226274705E+02 -0.96164824919E+01  0.30902858538E+02  0.00000000000E+00 0. -1.
        -13    1    3    3    0    0 -0.31864646111E+02  0.11635731709E+02  0.57773161374E+02  0.66996149884E+02  0.00000000000E+00 0. -1.
         13    1    3    3    0    0 -0.51865557015E+01  0.52887209263E+02 -0.21109411531E+02  0.57180105971E+02  0.00000000000E+00 0.  1.
         21    1    1    2  502  501 -0.74539869870E+02  0.55982904053E+02 -0.34848446801E+03  0.36073771939E+03  0.00000000000E+00 0. -1.
<scales pt_clust_5="13000.00000" pt_clust_6="13000.00000" pt_clust_7="13000.00000" pt_clust_8="13000.00000" pt_clust_9="93.22166"></scales>
<clustering>
<clus scale="   91.132">  5  6 -1 -1</clus>
<clus scale="   92.409">  7  8 -1 -1</clus>
<clus scale="   93.222">  2  9  1 -1</clus>
<clus scale="  148.840">  2  5  1 -1</clus>
<clus scale="   93.222">  2  5  1 -1</clus>
</clustering>
</event>
<event>
 9    1  0.1435532E-005  0.1404448E+03  0.7546771E-02  0.1213558E+00
         -1   -1    0    0    0  501 -0.00000000000E+00  0.00000000000E+00  0.57768510875E+03  0.57768510875E+03  0.00000000000E+00 0.  1.
          1   -1    0    0  502    0  0.00000000000E+00 -0.00000000000E+00 -0.22585716310E+03  0.22585716310E+03  0.00000000000E+00 0. -1.
         23    2    1    2    0    0 -0.22533062043E+02 -0.10113731720E+03  0.50840040470E+03  0.52688498637E+03  0.91653268112E+02 0.  0.
         23    2    1    2    0    0  0.29375377828E+02  0.14867858292E+03 -0.97374729915E+02  0.20042500644E+03  0.87864164141E+02 0.  0.
        -11    1    3    3    0    0  0.31799908701E+02 -0.12135976535E+02  0.12935995338E+03  0.13376290090E+03  0.00000000000E+00 0. -1.
         11    1    3    3    0    0 -0.54332970744E+02 -0.89001340666E+02  0.37904045132E+03  0.39312208547E+03  0.00000000000E+00 0.  1.
        -13    1    4    4    0    0  0.38116230730E+02  0.90301386711E+02 -0.10169250062E+03  0.14123934356E+03  0.00000000000E+00 0. -1.
         13    1    4    4    0    0 -0.87408529022E+01  0.58377196207E+02  0.43177707094E+01  0.59185662879E+02  0.00000000000E+00 0.  1.
         21    1    1    2  502  501 -0.68423157842E+01 -0.47541265718E+02 -0.59197729131E+02  0.76232279027E+02  0.00000000000E+00 0. -1.
<scales pt_clust_5="13000.00000" pt_clust_6="13000.00000" pt_clust_7="13000.00000" pt_clust_8="13000.00000" pt_clust_9="48.03113"></scales>
<clustering>
<clus scale="   48.031">  2  9  1 -1</clus>
<clus scale="   87.864">  7  8 -1 -1</clus>
<clus scale="   91.653">  5  6 -1 -1</clus>
<clus scale="  138.002">  2  7  1 -1</clus>
<clus scale="   48.031">  2  5  1 -1</clus>
</clustering>
</event>
<event>
 9    1  0.1925842E-005  0.1008620E+03  0.7546771E-02  0.1282441E+00
          2   -1    0    0  502    0  0.00000000000E+00  0.00000000000E+00  0.91673079266E+02  0.91673079266E+02  0.00000000000E+00 0. -1.
         -2   -1    0    0    0  501 -0.00000000000E+00 -0.00000000000E+00 -0.38267913990E+03  0.38267913990E+03  0.00000000000E+00 0.  1.
         23    2    1    2    0    0 -0.95670909112E+01 -0.32101040649E+02 -0.32277145261E+03  0.33805707354E+03  0.94758473555E+02 0.  0.
         23    2    1    2    0    0  0.37274702052E+02  0.34529519913E+02  0.38258500906E+02  0.10773346343E+03  0.86954557625E+02 0.  0.
        -11    1    3    3    0    0  0.11058931030E+02 -0.61409488486E+02 -0.23751008793E+03  0.24556967871E+03  0.00000000000E+00 0.  1.
         11    1    3    3    0    0 -0.20626021941E+02  0.29308447837E+02 -0.85261364679E+02  0.92487394831E+02  0.00000000000E+00 0. -1.
        -11    1    4    4    0    0 -0.26094130210E+02 -0.30481465912E+01  0.16048767731E+02  0.30785674830E+02  0.00000000000E+00 0.  1.
         11    1    4    4    0    0  0.63368832262E+02  0.37577666504E+02  0.22209733175E+02  0.76947788596E+02  0.00000000000E+00 0. -1.
         21    1    1    2  502  501 -0.27707611141E+02 -0.24284792633E+01 -0.64931089318E+01  0.28561682203E+02  0.00000000000E+00 0. -1.
<scales pt_clust_5="13000.00000" pt_clust_6="13000.00000" pt_clust_7="13000.00000" pt_clust_8="13000.00000" pt_clust_9="27.81383"></scales>
<clustering>
<clus scale="   27.814">  1  9  2 -1</clus>
<clus scale="   86.955">  7  8 -1 -1</clus>
<clus scale="   93.569">  1  7  2 -1</clus>
<clus scale="   94.758">  5  6 -1 -1</clus>
<clus scale="   27.814">  1  5  2 -1</clus>
</clustering>
</event>
<event>
 9    1  0.1435532E-005  0.9135886E+02  0.7546771E-02  0.1299989E+00
         -1   -1    0    0    0  501 -0.00000000000E+00  0.00000000000E+00  0.46674024294E+02  0.46674024294E+02  0.00000000000E+00 0.  1.
          1   -1    0    0  502    0  0.00000000000E+00 -0.00000000000E+00 -0.38042193658E+03  0.38042193658E+03  0.00000000000E+00 0. -1.
         23    2    1    2    0    0 -0.16857709869E+02  0.92210696616E+01 -0.35340728830E+02  0.99365036539E+02  0.90858312028E+02 0.  0.
         23    2    1    2    0    0 -0.22468924041E+02  0.61188828282E+01 -0.21212255611E+03  0.23167398709E+03  0.90191818960E+02 0.  0.
        -11    1    4    4    0    0 -0.25426348221E+01 -0.41112941445E+02 -0.10872117994E+03  0.11626277957E+03  0.00000000000E+00 0. -1.
         11    1    4    4    0    0 -0.19926289219E+02  0.47231824273E+02 -0.10340137617E+03  0.11541120752E+03  0.00000000000E+00 0.  1.
        -11    1    3    3    0    0  0.37112951408E+02 -0.20602714648E+01 -0.89242150386E+01  0.38226397879E+02  0.00000000000E+00 0. -1.
         11    1    3    3    0    0 -0.53970661278E+02  0.11281341126E+02 -0.26416513791E+02  0.61138638660E+02  0.00000000000E+00 0.  1.
         21    1    1    2  502  501  0.39326633911E+02 -0.15339952490E+02 -0.86284627344E+02  0.96056937246E+02  0.00000000000E+00 0. -1.
<scales pt_clust_5="13000.00000" pt_clust_6="13000.00000" pt_clust_7="13000.00000" pt_clust_8="13000.00000" pt_clust_9="42.21254"></scales>
<clustering>
<clus scale="   42.213">  2  9  1 -1</clus>
<clus scale="   90.192">  5  6 -1 -1</clus>
<clus scale="   90.696">  2  5  1 -1</clus>
<clus scale="   90.858">  7  8 -1 -1</clus>
<clus scale="   42.213">  2  5  1 -1</clus>
</clustering>
</event>
<event>
 9    1  0.1435532E-005  0.1289266E+03  0.7546771E-02  0.1229195E+00
         -2   -1    0    0    0  501 -0.00000000000E+00  0.00000000000E+00  0.24142571933E+03  0.24142571933E+03  0.00000000000E+00 0.  1.
          2   -1    0    0  502    0  0.00000000000E+00 -0.00000000000E+00 -0.10382072535E+03  0.10382072535E+03  0.00000000000E+00 0. -1.
         23    2    1    2    0    0  0.74497832169E+02  0.29944086991E+02  0.10794122483E+03  0.16275382897E+03  0.91601994973E+02 0.  0.
         23    2    1    2    0    0 -0.10611305109E+03 -0.42320517969E+02  0.24655039888E+02  0.14817373636E+03  0.91085560346E+02 0.  0.
        -11    1    4    4    0    0 -0.82396286715E+02  0.15123070892E+02  0.10429295240E+02  0.84419343381E+02  0.00000000000E+00 0. -1.
         11    1    4    4    0    0 -0.23716764371E+02 -0.57443588862E+02  0.14225744649E+02  0.63754392981E+02  0.00000000000E+00 0.  1.
        -11    1    3    3    0    0  0.52897991054E+01  0.20276243487E+02  0.87458384633E+02  0.89933737091E+02  0.00000000000E+00 0.  1.
         11    1    3    3    0    0  0.69208033063E+02  0.96678435038E+01  0.20482840193E+02  0.72820091877E+02  0.00000000000E+00 0. -1.
         21    1    1    2  502  501  0.31615218917E+02  0.12376430978E+02  0.50087292706E+01  0.34318879350E+02  0.00000000000E+00 0.  1.
<scales pt_clust_5="13000.00000" pt_clust_6="13000.00000" pt_clust_7="13000.00000" pt_clust_8="13000.00000" pt_clust_9="33.95141"></scales>
<clustering>
<clus scale="   33.951">  2  9  1 -1</clus>
<clus scale="   91.086">  5  6 -1 -1</clus>
<clus scale="   91.602">  7  8 -1 -1</clus>
<clus scale="  128.560">  2  5  1 -1</clus>
<clus scale="   33.951">  2  5  1 -1</clus>
</clustering>
</event>
<event>
 9    1  0.1435532E-005  0.2294887E+03  0.7546771E-02  0.1127612E+00
         -1   -1    0    0    0  501 -0.00000000000E+00  0.00000000000E+00  0.21952582282E+03  0.21952582282E+03  0.00000000000E+00 0.  1.
          1   -1    0    0  502    0  0.00000000000E+00 -0.00000000000E+00 -0.93288062033E+03  0.93288062033E+03  0.00000000000E+00 0. -1.
         23    2    1    2    0    0 -0.10889840651E+03 -0.16764596209E+03  0.96339664443E+02  0.23968767088E+03  0.90580445349E+02 0.  0.
         23    2    1    2    0    0  0.84775774440E+02  0.23434668351E+03 -0.31799119546E+03  0.41592606913E+03  0.98847329704E+02 0.  0.
        -13    1    4    4    0    0  0.11834721613E+02  0.60289233200E+02 -0.22741089952E+02  0.65513429521E+02  0.00000000000E+00 0.  1.
         13    1    4    4    0    0  0.72941052827E+02  0.17405745031E+03 -0.29525010551E+03  0.35041263961E+03  0.00000000000E+00 0. -1.
        -13    1    3    3    0    0 -0.30162866623E+02 -0.72534976107E+01  0.43374488836E+02  0.53326897831E+02  0.00000000000E+00 0. -1.
         13    1    3    3    0    0 -0.78735539888E+02 -0.16039246448E+03  0.52965175608E+02  0.18636077304E+03  0.00000000000E+00 0.  1.
         21    1    1    2  502  501  0.24122632070E+02 -0.66700721417E+02 -0.49170326650E+03  0.49679270315E+03  0.00000000000E+00 0. -1.
<scales pt_clust_5="13000.00000" pt_clust_6="13000.00000" pt_clust_7="13000.00000" pt_clust_8="13000.00000" pt_clust_9="70.92875"></scales>
<clustering>
<clus scale="   70.929">  2  9  1 -1</clus>
<clus scale="   90.580">  7  8 -1 -1</clus>
<clus scale="   98.847">  5  6 -1 -1</clus>
<clus scale="  226.051">  1  7  2 -1</clus>
<clus scale="   70.929">  2  5  1 -1</clus>
</clustering>
</event>
<event>
 9    1  0.1435532E-005  0.1351614E+03  0.7546771E-02  0.1220130E+00
         -2   -1    0    0    0  501 -0.00000000000E+00  0.00000000000E+00  0.22224926031E+03  0.22224926031E+03  0.00000000000E+00 0.  1.
          2   -1    0    0  502    0  0.00000000000E+00 -0.00000000000E+00 -0.13568730860E+03  0.13568730860E+03  0.00000000000E+00 0. -1.
         23    2    1    2    0    0 -0.53702997482E+02  0.93621725263E+02  0.12118445569E+03  0.18614912798E+03  0.91196415329E+02 0.  0.
         23    2    1    2    0    0  0.10869443179E+02 -0.82790952247E+02 -0.26164766490E+02  0.12680352890E+03  0.91771746017E+02 0.  0.
        -11    1    4    4    0    0  0.14489688147E+02  0.14370795223E+02  0.10426540085E+02  0.22916883647E+02  0.00000000000E+00 0.  1.
         11    1    4    4    0    0 -0.36202449680E+01 -0.97161747470E+02 -0.36591306575E+02  0.10388664525E+03  0.00000000000E+00 0. -1.
        -13    1    3    3    0    0 -0.33287672229E+02 -0.21620372942E+00  0.69571059981E+02  0.77124887380E+02  0.00000000000E+00 0.  1.
         13    1    3    3    0    0 -0.20415325253E+02  0.93837928992E+02  0.51613395706E+02  0.10902424060E+03  0.00000000000E+00 0. -1.
         21    1    1    2  502  501  0.42833554304E+02 -0.10830773016E+02 -0.84577374833E+01  0.44983912032E+02  0.00000000000E+00 0.  1.
<scales pt_clust_5="13000.00000" pt_clust_6="13000.00000" pt_clust_7="13000.00000" pt_clust_8="13000.00000" pt_clust_9="44.18166"></scales>
<clustering>
<clus scale="   44.182">  2  9  1 -1</clus>
<clus scale="   91.196">  7  8 -1 -1</clus>
<clus scale="   91.772">  5  6 -1 -1</clus>
<clus scale="  134.771">  1  7  2 -1</clus>
<clus scale="   44.182">  2  5  1 -1</clus>
</clustering>
</event>
<event>
 9    1  0.1435532E-005  0.1047730E+03  0.7546771E-02  0.1273548E+00
         -2   -1    0    0    0  501 -0.00000000000E+00  0.00000000000E+00  0.15090694286E+03  0.15090694286E+03  0.00000000000E+00 0.  1.
          2   -1    0    0  502    0  0.00000000000E+00 -0.00000000000E+00 -0.18650603610E+03  0.18650603610E+03  0.00000000000E+00 0. -1.
         23    2    1    2    0    0  0.18540436401E+02  0.59341201839E+02  0.41560521624E+02  0.11487662110E+03  0.87202265452E+02 0.  0.
         23    2    1    2    0    0  0.64007479736E+02 -0.15206947296E+02 -0.50593553661E+02  0.12523401211E+03  0.93785080947E+02 0.  0.
        -13    1    3    3    0    0 -0.25173568608E+02  0.36645550163E+02 -0.78081265096E+01  0.45139469900E+02  0.00000000000E+00 0. -1.
         13    1    3    3    0    0  0.43714005010E+02  0.22695651676E+02  0.49368648133E+02  0.69737151200E+02  0.00000000000E+00 0.  1.
        -13    1    4    4    0    0  0.51658359882E+02 -0.38925160017E+02  0.36212240244E+01  0.64783234648E+02  0.00000000000E+00 0.  1.
         13    1    4    4    0    0  0.12349119854E+02  0.23718212721E+02 -0.54214777686E+02  0.60450777459E+02  0.00000000000E+00 0. -1.
         21    1    1    2  502  501 -0.82547916137E+02 -0.44134254543E+02 -0.26566061199E+02  0.97302345759E+02  0.00000000000E+00 0. -1.
<scales pt_clust_5="13000.00000" pt_clust_6="13000.00000" pt_clust_7="13000.00000" pt_clust_8="13000.00000" pt_clust_9="93.60551"></scales>
<clustering>
<clus scale="   87.202">  5  6 -1 -1</clus>
<clus scale="   93.606">  2  9  1 -1</clus>
<clus scale="   93.785">  7  8 -1 -1</clus>
<clus scale="   98.924">  1  5  2 -1</clus>
<clus scale="   93.606">  2  5  1 -1</clus>
</clustering>
</event>
<event>
 9    1  0.1435532E-005  0.1504759E+03  0.7546771E-02  0.1200149E+00
          2   -1    0    0  502    0  0.00000000000E+00  0.00000000000E+00  0.10355115805E+04  0.10355115805E+04  0.00000000000E+00 0. -1.
         -2   -1    0    0    0  501 -0.00000000000E+00 -0.00000000000E+00 -0.46317244014E+02  0.46317244014E+02  0.00000000000E+00 0.  1.
         23    2    1    2    0    0  0.74861049096E+02 -0.12739232625E+03  0.36563139129E+03  0.40471985247E+03  0.90988258764E+02 0.  0.
         23    2    1    2    0    0 -0.11345674689E+03  0.28064135102E+02  0.44378644658E+03  0.46812259234E+03  0.92370569943E+02 0.  0.
        -11    1    4    4    0    0 -0.37882438453E+02 -0.33766248952E+02  0.17188755459E+03  0.17922212513E+03  0.00000000000E+00 0.  1.
         11    1    4    4    0    0 -0.75574308440E+02  0.61830384055E+02  0.27189889199E+03  0.28890046721E+03  0.00000000000E+00 0. -1.
        -11    1    3    3    0    0  0.13066023073E+02 -0.99408167889E+02  0.16657557214E+03  0.19442254508E+03  0.00000000000E+00 0.  1.
         11    1    3    3    0    0  0.61795026023E+02 -0.27984158359E+02  0.19905581915E+03  0.21029730739E+03  0.00000000000E+00 0. -1.
         21    1    1    2  502  501  0.38595697797E+02  0.99328191145E+02  0.17977649858E+03  0.20898637967E+03  0.00000000000E+00 0. -1.
<scales pt_clust_5="13000.00000" pt_clust_6="13000.00000" pt_clust_7="13000.00000" pt_clust_8="13000.00000" pt_clust_9="106.56321"></scales>
<clustering>
<clus scale="   90.988">  7  8 -1 -1</clus>
<clus scale="   92.371">  5  6 -1 -1</clus>
<clus scale="  106.563">  2  9  1 -1</clus>
<clus scale="  149.631">  2  7  1 -1</clus>
<clus scale="  150.476">  1  5  2 -1</clus>
</clustering>
</event>
<event>
 9    1  0.1435532E-005  0.9997464E+02  0.7546771E-02  0.1281100E+00
          1   -1    0    0  502    0  0.00000000000E+00  0.00000000000E+00  0.70184142915E+02  0.70184142915E+02  0.00000000000E+00 0. -1.
         -1   -1    0    0    0  501 -0.00000000000E+00 -0.00000000000E+00 -0.44473608027E+03  0.44473608027E+03  0.00000000000E+00 0.  1.
         23    2    1    2    0    0  0.26093683363E+02 -0.24293261687E+02 -0.36365507030E+03  0.37650045652E+03  0.90755389523E+02 0.  0.
         23    2    1    2    0    0 -0.52001927242E+02  0.30652169078E+02 -0.15451802438E+02  0.11135650299E+03  0.92291693313E+02 0.  0.
        -11    1    3    3    0    0 -0.11716632728E+02 -0.44558442578E+02 -0.26421055119E+03  0.26819759441E+03  0.00000000000E+00 0.  1.
         11    1    3    3    0    0  0.37810316091E+02  0.20265180891E+02 -0.99444519118E+02  0.10830286211E+03  0.00000000000E+00 0. -1.
        -13    1    4    4    0    0  0.18808169807E+02  0.29185641505E+02  0.99421263174E+01  0.36116406206E+02  0.00000000000E+00 0.  1.
         13    1    4    4    0    0 -0.70810097049E+02  0.14665275738E+01 -0.25393928755E+02  0.75240096789E+02  0.00000000000E+00 0. -1.
         21    1    1    2  502  501  0.25908243880E+02 -0.63589073915E+01  0.45549353860E+01  0.27063263671E+02  0.00000000000E+00 0. -1.
<scales pt_clust_5="13000.00000" pt_clust_6="13000.00000" pt_clust_7="13000.00000" pt_clust_8="13000.00000" pt_clust_9="26.67720"></scales>
<clustering>
<clus scale="   26.677">  1  9  2 -1</clus>
<clus scale="   90.755">  5  6 -1 -1</clus>
<clus scale="   92.292">  7  8 -1 -1</clus>
<clus scale="   98.558">  2  5  1 -1</clus>
<clus scale="   26.677">  1  5  2 -1</clus>
</clustering>
</event>
<event>
 9    1  0.1435532E-005  0.9220515E+02  0.7546771E-02  0.1297713E+00
          1   -1    0    0  502    0  0.00000000000E+00  0.00000000000E+00  0.24008005208E+03  0.24008005208E+03  0.00000000000E+00 0. -1.
         -1   -1    0    0    0  501 -0.00000000000E+00 -0.00000000000E+00 -0.14891369629E+03  0.14891369629E+03  0.00000000000E+00 0.  1.
         23    2    1    2    0    0 -0.20257628489E+02 -0.24722246888E+01 -0.11693196757E+03  0.14881238158E+03  0.89752751855E+02 0.  0.
         23    2    1    2    0    0  0.14644939837E+02  0.24438761350E+02  0.14372000760E+03  0.17192743982E+03  0.89954859008E+02 0.  0.
        -11    1    4    4    0    0 -0.23819148131E+02  0.33303129739E+02  0.27849476588E+02  0.49518114002E+02  0.00000000000E+00 0.  1.
         11    1    4    4    0    0  0.38464087967E+02 -0.88643683890E+01  0.11587053101E+03  0.12240932582E+03  0.00000000000E+00 0. -1.
        -13    1    3    3    0    0  0.24545395069E+02 -0.47414215132E+00 -0.10697493177E+01  0.24573269898E+02  0.00000000000E+00 0. -1.
         13    1    3    3    0    0 -0.44803023558E+02 -0.19980825375E+01 -0.11586221825E+03  0.12423911169E+03  0.00000000000E+00 0.  1.
         21    1    1    2  502  501  0.56126886523E+01 -0.21966536662E+02  0.64378315756E+02  0.68253926967E+02  0.00000000000E+00 0. -1.
<scales pt_clust_5="13000.00000" pt_clust_6="13000.00000" pt_clust_7="13000.00000" pt_clust_8="13000.00000" pt_clust_9="22.67225"></scales>
<clustering>
<clus scale="   22.672">  1  9  2 -1</clus>
<clus scale="   89.753">  7  8 -1 -1</clus>
<clus scale="   89.955">  5  6 -1 -1</clus>
<clus scale="   92.008">  2  7  1 -1</clus>
<clus scale="   22.672">  1  5  2 -1</clus>
</clustering>
</event>
<event>
 9    1  0.1435532E-005  0.1185884E+03  0.7546771E-02  0.1245731E+00
          1   -1    0    0  502    0  0.00000000000E+00  0.00000000000E+00  0.38038114874E+03  0.38038114874E+03  0.00000000000E+00 0. -1.
         -1   -1    0    0    0  501 -0.00000000000E+00 -0.00000000000E+00 -0.16225174794E+03  0.16225174794E+03  0.00000000000E+00 0.  1.
         23    2    1    2    0    0 -0.32674160507E+02 -0.55307597295E+02 -0.70698438154E+02  0.13261342065E+03  0.91986515831E+02 0.  0.
         23    2    1    2    0    0  0.13538151760E+03  0.83212426685E+02  0.19488253688E+03  0.26805750758E+03  0.92860976346E+02 0.  0.
        -11    1    3    3    0    0  0.29620790033E+02 -0.28649900060E+01 -0.27084164322E+02  0.40238679489E+02  0.00000000000E+00 0.  1.
         11    1    3    3    0    0 -0.62294950541E+02 -0.52442607289E+02 -0.43614273831E+02  0.92374741158E+02  0.00000000000E+00 0. -1.
        -13    1    4    4    0    0  0.81948549727E+02  0.98821628889E+02  0.13705826322E+03  0.18779309534E+03  0.00000000000E+00 0.  1.
         13    1    4    4    0    0  0.53432967869E+02 -0.15609202204E+02  0.57824273656E+02  0.80264412243E+02  0.00000000000E+00 0. -1.
         21    1    1    2  502  501 -0.10270735709E+03 -0.27904829390E+02  0.93945302085E+02  0.14196196845E+03  0.00000000000E+00 0. -1.
<scales pt_clust_5="13000.00000" pt_clust_6="13000.00000" pt_clust_7="13000.00000" pt_clust_8="13000.00000" pt_clust_9="106.43064"></scales>
<clustering>
<clus scale="   91.987">  5  6 -1 -1</clus>
<clus scale="   92.861">  7  8 -1 -1</clus>
<clus scale="  106.431">  1  9  2 -1</clus>
<clus scale="  117.905">  2  5  1 -1</clus>
<clus scale="  106.431">  1  5  2 -1</clus>
</clustering>
</event>
<event>
 9    1  0.1435532E-005  0.2561244E+03  0.7546771E-02  0.1109501E+00
          2   -1    0    0  502    0  0.00000000000E+00  0.00000000000E+00  0.54699051850E+03  0.54699051850E+03  0.00000000000E+00 0. -1.
         -2   -1    0    0    0  501 -0.00000000000E+00 -0.00000000000E+00 -0.40742998394E+03  0.40742998394E+03  0.00000000000E+00 0.  1.
         23    2    1    2    0    0 -0.18834865005E+03 -0.96788770187E+02 -0.18062697422E+03  0.29272524665E+03  0.90656969922E+02 0.  0.
         23    2    1    2    0    0  0.28043298997E+03  0.19093386305E+03  0.41650032211E+02  0.35359470398E+03  0.90532246060E+02 0.  0.
        -11    1    4    4    0    0  0.64920191626E+02  0.19870678232E+02  0.39271353391E+02  0.78432865122E+02  0.00000000000E+00 0. -1.
         11    1    4    4    0    0  0.21551279834E+03  0.17106318482E+03  0.23786788200E+01  0.27516183886E+03  0.00000000000E+00 0.  1.
        -13    1    3    3    0    0 -0.21357843858E+02  0.66503684176E+01  0.44845773543E+01  0.22814388627E+02  0.00000000000E+00 0.  1.
         13    1    3    3    0    0 -0.16699080619E+03 -0.10343913860E+03 -0.18511155158E+03  0.26991085802E+03  0.00000000000E+00 0. -1.
         21    1    1    2  502  501 -0.92084339914E+02 -0.94145092867E+02  0.27853747658E+03  0.30810055181E+03  0.00000000000E+00 0. -1.
<scales pt_clust_5="13000.00000" pt_clust_6="13000.00000" pt_clust_7="13000.00000" pt_clust_8="13000.00000" pt_clust_9="131.69216"></scales>
<clustering>
<clus scale="   90.532">  5  6 -1 -1</clus>
<clus scale="   90.657">  7  8 -1 -1</clus>
<clus scale="  131.692">  1  9  2 -1</clus>
<clus scale="  256.080">  1  5  2 -1</clus>
<clus scale="  131.692">  1  5  2 -1</clus>
</clustering>
</event>
<event>
 9    1  0.1435532E-005  0.1125674E+03  0.7546771E-02  0.1264216E+00
          1   -1    0    0  502    0  0.00000000000E+00  0.00000000000E+00  0.17715841231E+03  0.17715841231E+03  0.00000000000E+00 0. -1.
         -1   -1    0    0    0  501 -0.00000000000E+00 -0.00000000000E+00 -0.25652164263E+03  0.25652164263E+03  0.00000000000E+00 0.  1.
         23    2    1    2    0    0  0.14574726047E+02 -0.15355296953E+02 -0.11458403134E+03  0.14726556481E+03  0.90052421153E+02 0.  0.
         23    2    1    2    0    0 -0.61014446446E+01  0.56864852301E+02 -0.91622256284E+02  0.15268341345E+03  0.10792009934E+03 0.  0.
        -13    1    4    4    0    0 -0.33991427395E+02  0.74844844652E+02 -0.86107794587E+02  0.11904503432E+03  0.00000000000E+00 0.  1.
         13    1    4    4    0    0  0.27889982750E+02 -0.17979992351E+02 -0.55144616967E+01  0.33638379131E+02  0.00000000000E+00 0. -1.
        -13    1    3    3    0    0 -0.15553485562E+02 -0.46549675130E+02 -0.58179848046E+02  0.76116213033E+02  0.00000000000E+00 0. -1.
         13    1    3    3    0    0  0.30128211609E+02  0.31194378177E+02 -0.56404183294E+02  0.71149351772E+02  0.00000000000E+00 0.  1.
         21    1    1    2  502  501 -0.84732814028E+01 -0.41509555348E+02  0.12684305731E+03  0.13373107668E+03  0.00000000000E+00 0. -1.
<scales pt_clust_5="13000.00000" pt_clust_6="13000.00000" pt_clust_7="13000.00000" pt_clust_8="13000.00000" pt_clust_9="42.36555"></scales>
<clustering>
<clus scale="   42.366">  1  9  2 -1</clus>
<clus scale="   90.052">  7  8 -1 -1</clus>
<clus scale="   95.573">  2  7  1 -1</clus>
<clus scale="  107.920">  5  6 -1 -1</clus>
<clus scale="   42.366">  1  5  2 -1</clus>
</clustering>
</event>
<event>
 9    1  0.1435532E-005  0.9062330E+02  0.7546771E-02  0.1314328E+00
          3   -1    0    0  502    0  0.00000000000E+00  0.00000000000E+00  0.75315616632E+02  0.75315616632E+02  0.00000000000E+00 0. -1.
         -3   -1    0    0    0  501 -0.00000000000E+00 -0.00000000000E+00 -0.15972785498E+03  0.15972785498E+03  0.00000000000E+00 0.  1.
         23    2    1    2    0    0 -0.23721498070E+02 -0.25859066885E+02 -0.57289415443E+02  0.97435248931E+02  0.70570176432E+02 0.  0.
         23    2    1    2    0    0  0.34798205952E+01 -0.11524555740E+02 -0.80474697951E+01  0.91012838318E+02  0.89853494269E+02 0.  0.
        -11    1    3    3    0    0  0.32986581522E+01  0.22600874879E+02 -0.11921005062E+02  0.25764142769E+02  0.00000000000E+00 0. -1.
         11    1    3    3    0    0 -0.27020156223E+02 -0.48459941764E+02 -0.45368410380E+02  0.71671106162E+02  0.00000000000E+00 0.  1.
        -11    1    4    4    0    0  0.39351705108E+02  0.18147465117E+02 -0.97904729130E+01  0.44426799850E+02  0.00000000000E+00 0. -1.
         11    1    4    4    0    0 -0.35871884513E+02 -0.29672020857E+02  0.17430031179E+01  0.46586038468E+02  0.00000000000E+00 0.  1.
         21    1    1    2  502  501  0.20241677475E+02  0.37383622625E+02 -0.19075353108E+02  0.46595384362E+02  0.00000000000E+00 0. -1.
<scales pt_clust_5="13000.00000" pt_clust_6="13000.00000" pt_clust_7="13000.00000" pt_clust_8="13000.00000" pt_clust_9="42.51189"></scales>
<clustering>
<clus scale="   42.512">  2  9  1 -1</clus>
<clus scale="   70.570">  5  6 -1 -1</clus>
<clus scale="   71.548">  2  5  1 -1</clus>
<clus scale="   89.853">  7  8 -1 -1</clus>
<clus scale="   90.623">  1  5  2 -1</clus>
</clustering>
</event>
<event>
 9    1  0.1435532E-005  0.1255974E+03  0.7546771E-02  0.1234951E+00
          1   -1    0    0  502    0  0.00000000000E+00  0.00000000000E+00  0.44380701571E+03  0.44380701571E+03  0.00000000000E+00 0. -1.
         -1   -1    0    0    0  501 -0.00000000000E+00 -0.00000000000E+00 -0.11679118801E+03  0.11679118801E+03  0.00000000000E+00 0.  1.
         23    2    1    2    0    0 -0.76998231008E+02 -0.67849085527E+01 -0.37973058079E+02  0.12657480643E+03  0.92760260454E+02 0.  0.
         23    2    1    2    0    0  0.13210751485E+03 -0.37385679006E+02  0.24912490530E+03  0.29833059741E+03  0.89932432600E+02 0.  0.
        -13    1    3    3    0    0 -0.89449464616E+02 -0.26295537297E+02 -0.43340159434E+02  0.10281552131E+03  0.00000000000E+00 0.  1.
         13    1    3    3    0    0  0.12451233609E+02  0.19510628744E+02  0.53671013553E+01  0.23759285118E+02  0.00000000000E+00 0. -1.
        -13    1    4    4    0    0  0.48259907153E+02 -0.34160955512E+02  0.35858297768E+02  0.69150611268E+02  0.00000000000E+00 0.  1.
         13    1    4    4    0    0  0.83847607698E+02 -0.32247234940E+01  0.21326660753E+03  0.22917998614E+03  0.00000000000E+00 0. -1.
         21    1    1    2  502  501 -0.55109283842E+02  0.44170587559E+02  0.11586398047E+03  0.13569279989E+03  0.00000000000E+00 0.  1.
<scales pt_clust_5="13000.00000" pt_clust_6="13000.00000" pt_clust_7="13000.00000" pt_clust_8="13000.00000" pt_clust_9="70.62630"></scales>
<clustering>
<clus scale="   70.626">  1  9  2 -1</clus>
<clus scale="   89.932">  7  8 -1 -1</clus>
<clus scale="   92.760">  5  6 -1 -1</clus>
<clus scale="  123.524">  1  7  2 -1</clus>
<clus scale="   70.626">  1  5  2 -1</clus>
</clustering>
</event>
<event>
 9    1  0.1435532E-005  0.1354407E+03  0.7546771E-02  0.1230090E+00
         -2   -1    0    0    0  501 -0.00000000000E+00  0.00000000000E+00  0.10965280327E+03  0.10965280327E+03  0.00000000000E+00 0.  1.
          2   -1    0    0  502    0  0.00000000000E+00 -0.00000000000E+00 -0.19096500538E+03  0.19096500538E+03  0.00000000000E+00 0. -1.
         23    2    1    2    0    0  0.77468017755E+01  0.49114557701E+02 -0.50175473019E+01  0.13398588179E+03  0.12431728770E+03 0.  0.
         23    2    1    2    0    0 -0.41246781136E+02 -0.49217530940E+02 -0.63019755003E+02  0.13059746855E+03  0.94660165672E+02 0.  0.
        -11    1    3    3    0    0  0.62809327510E+02  0.46968870716E+02  0.18810774232E+01  0.78451417392E+02  0.00000000000E+00 0.  1.
         11    1    3    3    0    0 -0.55062525734E+02  0.21456869851E+01 -0.68986247251E+01  0.55534464398E+02  0.00000000000E+00 0. -1.
        -11    1    4    4    0    0 -0.24114184493E+02  0.19179104076E+02 -0.50245117582E+02  0.58939831759E+02  0.00000000000E+00 0.  1.
         11    1    4    4    0    0 -0.17132596642E+02 -0.68396635015E+02 -0.12774637421E+02  0.71657636790E+02  0.00000000000E+00 0. -1.
         21    1    1    2  502  501  0.33499979360E+02  0.10297323805E+00 -0.13274899811E+02  0.36034458309E+02  0.00000000000E+00 0. -1.
<scales pt_clust_5="13000.00000" pt_clust_6="13000.00000" pt_clust_7="13000.00000" pt_clust_8="13000.00000" pt_clust_9="33.50014"></scales>
<clustering>
<clus scale="   33.500">  2  9  1 -1</clus>
<clus scale="   94.660">  7  8 -1 -1</clus>
<clus scale="  108.857">  2  7  1 -1</clus>
<clus scale="  124.317">  5  6 -1 -1</clus>
<clus scale="   33.500">  2  5  1 -1</clus>
</clustering>
</event>
<event>
 9    1  0.1435532E-005  0.1578610E+03  0.7546771E-02  0.1214909E+00
          1   -1    0    0  502    0  0.00000000000E+00  0.00000000000E+00  0.35065865512E+03  0.35065865512E+03  0.00000000000E+00 0. -1.
         -1   -1    0    0    0  501 -0.00000000000E+00 -0.00000000000E+00 -0.39735475658E+03  0.39735475658E+03  0.00000000000E+00 0.  1.
         23    2    1    2    0    0 -0.17278281898E+02  0.11063591006E+03 -0.31385757491E+03  0.35072363056E+03  0.10936930139E+03 0.  0.
         23    2    1    2    0    0 -0.21138131698E+02  0.27561793965E+02  0.43059841894E+00  0.94437034851E+02  0.87816257254E+02 0.  0.
        -13    1    3    3    0    0  0.34223186623E+02  0.19853214034E+02 -0.15989467721E+03  0.16471698276E+03  0.00000000000E+00 0.  1.
         13    1    3    3    0    0 -0.51501468522E+02  0.90782696026E+02 -0.15396289770E+03  0.18600664780E+03  0.00000000000E+00 0. -1.
        -13    1    4    4    0    0  0.25385371365E+02 -0.94716695858E+01  0.17884151299E+02  0.32464942196E+02  0.00000000000E+00 0.  1.
         13    1    4    4    0    0 -0.46523503064E+02  0.37033463551E+02 -0.17453552880E+02  0.61972092655E+02  0.00000000000E+00 0. -1.
         21    1    1    2  502  501  0.38416413597E+02 -0.13819770403E+03  0.26673087503E+03  0.30285274628E+03  0.00000000000E+00 0. -1.
<scales pt_clust_5="13000.00000" pt_clust_6="13000.00000" pt_clust_7="13000.00000" pt_clust_8="13000.00000" pt_clust_9="113.83516"></scales>
<clustering>
<clus scale="   87.816">  7  8 -1 -1</clus>
<clus scale="   94.436">  1  7  2 -1</clus>
<clus scale="  109.369">  5  6 -1 -1</clus>
<clus scale="  113.835">  1  9  2 -1</clus>
<clus scale="   94.436">  1  5  2 -1</clus>
</clustering>
</event>
<event>
 9    1  0.1435532E-005  0.9802761E+02  0.7546771E-02  0.1284694E+00
          1   -1    0    0  502    0  0.00000000000E+00  0.00000000000E+00  0.28000010695E+03  0.28000010695E+03  0.00000000000E+00 0. -1.
         -1   -1    0    0    0  501 -0.00000000000E+00 -0.00000000000E+00 -0.10611622824E+03  0.10611622824E+03  0.00000000000E+00 0.  1.
         23    2    1    2    0    0  0.18427005780E+01 -0.58627350409E+02 -0.30240478204E+02  0.11268329890E+03  0.91337164213E+02 0.  0.
         23    2    1    2    0    0  0.18647704471E+01 -0.12054342469E+02  0.53192959610E+02  0.10672990573E+03  0.91722392487E+02 0.  0.
        -11    1    4    4    0    0  0.30068182385E+02  0.21093149084E+02  0.51395515287E+02  0.63170527320E+02  0.00000000000E+00 0. -1.
         11    1    4    4    0    0 -0.28203411938E+02 -0.33147491554E+02  0.17974443233E+01  0.43559378409E+02  0.00000000000E+00 0.  1.
        -13    1    3    3    0    0  0.15034175512E+02 -0.30716318869E+02  0.29677540374E+02  0.45279963348E+02  0.00000000000E+00 0. -1.
         13    1    3    3    0    0 -0.13191474934E+02 -0.27911031540E+02 -0.59918018578E+02  0.67403335547E+02  0.00000000000E+00 0.  1.
         21    1    1    2  502  501 -0.37074710251E+01  0.70681692878E+02  0.15093139730E+03  0.16670313057E+03  0.00000000000E+00 0. -1.
<scales pt_clust_5="13000.00000" pt_clust_6="13000.00000" pt_clust_7="13000.00000" pt_clust_8="13000.00000" pt_clust_9="70.77886"></scales>
<clustering>
<clus scale="   70.779">  1  9  2 -1</clus>
<clus scale="   91.337">  7  8 -1 -1</clus>
<clus scale="   91.722">  5  6 -1 -1</clus>
<clus scale="   97.667">  2  7  1 -1</clus>
<clus scale="   70.779">  1  5  2 -1</clus>
</clustering>
</event>
<event>
 9    1  0.1435532E-005  0.9400555E+02  0.7546771E-02  0.1293458E+00
         -1   -1    0    0    0  501 -0.00000000000E+00  0.00000000000E+00  0.18073119295E+03  0.18073119295E+03  0.00000000000E+00 0.  1.
          1   -1    0    0  502    0  0.00000000000E+00 -0.00000000000E+00 -0.29106873564E+03  0.29106873564E+03  0.00000000000E+00 0. -1.
         23    2    1    2    0    0 -0.22597250845E+02  0.15773204192E+02  0.14356314722E+03  0.17161603641E+03  0.89901373724E+02 0.  0.
         23    2    1    2    0    0  0.70928915675E+01 -0.32509714574E+02 -0.80282876029E+02  0.12507352346E+03  0.89949182515E+02 0.  0.
        -11    1    3    3    0    0  0.31064245874E+02  0.20096536587E+02  0.37539555143E+02  0.52707460144E+02  0.00000000000E+00 0. -1.
         11    1    3    3    0    0 -0.53661496718E+02 -0.43233323944E+01  0.10602359207E+03  0.11890857626E+03  0.00000000000E+00 0.  1.
        -13    1    4    4    0    0 -0.12043989935E+02  0.16362967225E+02  0.84301171983E+01  0.21997074031E+02  0.00000000000E+00 0.  1.
         13    1    4    4    0    0  0.19136881503E+02 -0.48872681798E+02 -0.88712993228E+02  0.10307644943E+03  0.00000000000E+00 0. -1.
         21    1    1    2  502  501  0.15504359277E+02  0.16736510381E+02 -0.17361781388E+03  0.17511036872E+03  0.00000000000E+00 0. -1.
<scales pt_clust_5="13000.00000" pt_clust_6="13000.00000" pt_clust_7="13000.00000" pt_clust_8="13000.00000" pt_clust_9="22.81438"></scales>
<clustering>
<clus scale="   22.814">  2  9  1 -1</clus>
<clus scale="   89.901">  5  6 -1 -1</clus>
<clus scale="   89.949">  7  8 -1 -1</clus>
<clus scale="   93.960">  1  5  2 -1</clus>
<clus scale="   22.814">  2  5  1 -1</clus>
</clustering>
</event>
<event>
 9    1  0.1435532E-005  0.1663551E+03  0.7546771E-02  0.1182548E+00
         -1   -1    0    0    0  501 -0.00000000000E+00  0.00000000000E+00  0.57275974235E+02  0.57275974235E+02  0.00000000000E+00 0.  1.
          1   -1    0    0  502    0  0.00000000000E+00 -0.00000000000E+00 -0.56266105597E+03  0.56266105597E+03  0.00000000000E+00 0. -1.
         23    2    1    2    0    0  0.12123661778E+03 -0.51894522542E+02 -0.20987312951E+03  0.26430327945E+03  0.91750390068E+02 0.  0.
         23    2    1    2    0    0 -0.11876634533E+03  0.72297429144E+02 -0.22255345968E+03  0.27983584526E+03  0.97188964552E+02 0.  0.
        -11    1    4    4    0    0 -0.30642384455E+02  0.17920116943E+02 -0.14810690070E+03  0.15230147849E+03  0.00000000000E+00 0. -1.
         11    1    4    4    0    0 -0.88123960871E+02  0.54377312201E+02 -0.74446558989E+02  0.12753436677E+03  0.00000000000E+00 0.  1.
        -13    1    3    3    0    0  0.13321758870E+03 -0.32377651814E+02 -0.17082624500E+03  0.21903617112E+03  0.00000000000E+00 0. -1.
         13    1    3    3    0    0 -0.11980970920E+02 -0.19516870728E+02 -0.39046884507E+02  0.45267108334E+02  0.00000000000E+00 0.  1.
         21    1    1    2  502  501 -0.24702724544E+01 -0.20402906602E+02 -0.72958492547E+02  0.75797905502E+02  0.00000000000E+00 0. -1.
<scales pt_clust_5="13000.00000" pt_clust_6="13000.00000" pt_clust_7="13000.00000" pt_clust_8="13000.00000" pt_clust_9="20.55191"></scales>
<clustering>
<clus scale="   20.552">  2  9  1 -1</clus>
<clus scale="   91.750">  7  8 -1 -1</clus>
<clus scale="   97.189">  5  6 -1 -1</clus>
<clus scale="  163.237">  1  7  2 -1</clus>
<clus scale="   20.552">  2  5  1 -1</clus>
</clustering>
</event>
<event>
 9    1  0.1435532E-005  0.1922012E+03  0.7546771E-02  0.1156686E+00
         -1   -1    0    0    0  501 -0.00000000000E+00  0.00000000000E+00  0.11564620855E+03  0.11564620855E+03  0.00000000000E+00 0.  1.
          1   -1    0    0  502    0  0.00000000000E+00 -0.00000000000E+00 -0.40811673448E+03  0.40811673448E+03  0.00000000000E+00 0. -1.
         23    2    1    2    0    0 -0.15372066330E+03 -0.11092797424E+03 -0.99598663214E+02  0.23233497381E+03  0.90136499529E+02 0.  0.
         23    2    1    2    0    0  0.11613323102E+03  0.93351198763E+02 -0.13194906960E+03  0.21771674333E+03  0.88253326861E+02 0.  0.
        -13    1    3    3    0    0 -0.28175864813E+02 -0.71769596362E+01  0.15455179933E+02  0.32927962196E+02  0.00000000000E+00 0.  1.
         13    1    3    3    0    0 -0.12554479848E+03 -0.10375101460E+03 -0.11505384315E+03  0.19940701161E+03  0.00000000000E+00 0. -1.
        -13    1    4    4    0    0  0.19966093411E+02  0.54048215160E+02 -0.87390706401E+02  0.10467564193E+03  0.00000000000E+00 0. -1.
         13    1    4    4    0    0  0.96167137607E+02  0.39302983603E+02 -0.44558363201E+02  0.11304110140E+03  0.00000000000E+00 0.  1.
         21    1    1    2  502  501  0.37587432278E+02  0.17576775477E+02 -0.60922793108E+02  0.73711225886E+02  0.00000000000E+00 0. -1.
<scales pt_clust_5="13000.00000" pt_clust_6="13000.00000" pt_clust_7="13000.00000" pt_clust_8="13000.00000" pt_clust_9="41.49407"></scales>
<clustering>
<clus scale="   41.494">  2  9  1 -1</clus>
<clus scale="   88.253">  7  8 -1 -1</clus>
<clus scale="   90.136">  5  6 -1 -1</clus>
<clus scale="  191.325">  2  7  1 -1</clus>
<clus scale="   41.494">  2  5  1 -1</clus>
</clustering>
</event>
<event>
 9    1  0.1435532E-005  0.1348729E+03  0.7546771E-02  0.1221267E+00
         -1   -1    0    0    0  501 -0.00000000000E+00  0.00000000000E+00  0.57728677828E+02  0.57728677828E+02  0.00000000000E+00 0.  1.
          1   -1    0    0  502    0  0.00000000000E+00 -0.00000000000E+00 -0.46349381185E+03  0.46349381185E+03  0.00000000000E+00 0. -1.
         23    2    1    2    0    0  0.89429038796E+02  0.12519894495E+00 -0.85489141381E+02  0.15339817660E+03  0.90691998740E+02 0.  0.
         23    2    1    2    0    0 -0.11113708526E+03 -0.22610722546E+02 -0.23988653841E+03  0.28157292234E+03  0.94207551663E+02 0.  0.
        -11    1    3    3    0    0  0.75882687355E+02  0.37068459321E+02 -0.40601545858E+02  0.93705594511E+02  0.00000000000E+00 0.  1.
         11    1    3    3    0    0  0.13546351441E+02 -0.36943260376E+02 -0.44887595523E+02  0.59692582089E+02  0.00000000000E+00 0. -1.
        -11    1    4    4    0    0  0.39303995581E+01  0.23221190373E+02 -0.36392771982E+02  0.43348651370E+02  0.00000000000E+00 0.  1.
         11    1    4    4    0    0 -0.11506748482E+03 -0.45831912919E+02 -0.20349376643E+03  0.23822427097E+03  0.00000000000E+00 0. -1.
         21    1    1    2  502  501  0.21708046462E+02  0.22485523601E+02 -0.80389454233E+02  0.86251390741E+02  0.00000000000E+00 0. -1.
<scales pt_clust_5="13000.00000" pt_clust_6="13000.00000" pt_clust_7="13000.00000" pt_clust_8="13000.00000" pt_clust_9="31.25441"></scales>
<clustering>
<clus scale="   31.254">  2  9  1 -1</clus>
<clus scale="   90.692">  5  6 -1 -1</clus>
<clus scale="   94.208">  7  8 -1 -1</clus>
<clus scale="  132.441">  1  5  2 -1</clus>
<clus scale="   31.254">  2  5  1 -1</clus>
</clustering>
</event>
<event>
 9    1  0.1435532E-005  0.1095033E+03  0.7546771E-02  0.1262827E+00
         -1   -1    0    0    0  501 -0.00000000000E+00  0.00000000000E+00  0.48336132006E+02  0.48336132006E+02  0.00000000000E+00 0.  1.
          1   -1    0    0  502    0  0.00000000000E+00 -0.00000000000E+00 -0.39497578720E+03  0.39497578720E+03  0.00000000000E+00 0. -1.
         23    2    1    2    0    0 -0.18701969163E+02  0.24598038951E+02 -0.12635991016E+03  0.15913514034E+03  0.91664272343E+02 0.  0.
         23    2    1    2    0    0  0.33591130375E+02 -0.71933294377E+02 -0.12045932330E+03  0.17270288002E+03  0.94937207242E+02 0.  0.
        -11    1    3    3    0    0 -0.29989569601E+02 -0.26365067625E+02 -0.31491869879E+02  0.50854979542E+02  0.00000000000E+00 0.  1.
         11    1    3    3    0    0  0.11287600437E+02  0.50963106576E+02 -0.94868040281E+02  0.10828016080E+03  0.00000000000E+00 0. -1.
        -13    1    4    4    0    0  0.61354666038E+02 -0.22891603222E+02 -0.49509968776E+02  0.82095417357E+02  0.00000000000E+00 0.  1.
         13    1    4    4    0    0 -0.27763535663E+02 -0.49041691155E+02 -0.70949354519E+02  0.90607462664E+02  0.00000000000E+00 0. -1.
         21    1    1    2  502  501 -0.14889161212E+02  0.47335255425E+02 -0.99820421734E+02  0.11147389884E+03  0.00000000000E+00 0. -1.
<scales pt_clust_5="13000.00000" pt_clust_6="13000.00000" pt_clust_7="13000.00000" pt_clust_8="13000.00000" pt_clust_9="49.62170"></scales>
<clustering>
<clus scale="   49.622">  2  9  1 -1</clus>
<clus scale="   91.664">  5  6 -1 -1</clus>
<clus scale="   94.937">  7  8 -1 -1</clus>
<clus scale="  106.678">  1  5  2 -1</clus>
<clus scale="   49.622">  2  5  1 -1</clus>
</clustering>
</event>
<event>
 9    1  0.1435532E-005  0.1366146E+03  0.7546771E-02  0.1219068E+00
         -2   -1    0    0    0  501 -0.00000000000E+00  0.00000000000E+00  0.44809420297E+02  0.44809420297E+02  0.00000000000E+00 0.  1.
          2   -1    0    0  502    0  0.00000000000E+00 -0.00000000000E+00 -0.62317306989E+03  0.62317306989E+03  0.00000000000E+00 0. -1.
         23    2    1    2    0    0 -0.73740220326E+02  0.85540212359E+00 -0.12436749838E+03  0.17010663116E+03  0.89613835447E+02 0.  0.
         23    2    1    2    0    0  0.11963275799E+03 -0.27576284283E+02 -0.36400524673E+03  0.39338426393E+03  0.84728455803E+02 0.  0.
        -11    1    4    4    0    0  0.71878693974E+01  0.22846601462E+02 -0.38608187747E+02  0.45433741052E+02  0.00000000000E+00 0. -1.
         11    1    4    4    0    0  0.11244488859E+03 -0.50422885746E+02 -0.32539705898E+03  0.34795052288E+03  0.00000000000E+00 0.  1.
        -13    1    3    3    0    0 -0.46292300189E+02 -0.24509595114E+02 -0.14934522021E+02  0.54467763470E+02  0.00000000000E+00 0.  1.
         13    1    3    3    0    0 -0.27447920137E+02  0.25364997238E+02 -0.10943297636E+03  0.11563886769E+03  0.00000000000E+00 0. -1.
         21    1    1    2  502  501 -0.45892537666E+02  0.26720882160E+02 -0.89990904490E+02  0.10449159511E+03  0.00000000000E+00 0.  1.
<scales pt_clust_5="13000.00000" pt_clust_6="13000.00000" pt_clust_7="13000.00000" pt_clust_8="13000.00000" pt_clust_9="53.10490"></scales>
<clustering>
<clus scale="   53.105">  1  9  2 -1</clus>
<clus scale="   84.728">  5  6 -1 -1</clus>
<clus scale="   89.614">  7  8 -1 -1</clus>
<clus scale="  133.461">  2  5  1 -1</clus>
<clus scale="  133.461">  2  5  1 -1</clus>
</clustering>
</event>
<event>
 9    1  0.1435532E-005  0.9650158E+02  0.7546771E-02  0.1287933E+00
         -2   -1    0    0    0  501 -0.00000000000E+00  0.00000000000E+00  0.19747799789E+03  0.19747799789E+03  0.00000000000E+00 0.  1.
          2   -1    0    0  502    0  0.00000000000E+00 -0.00000000000E+00 -0.25006422929E+03  0.25006422929E+03  0.00000000000E+00 0. -1.
         23    2    1    2    0    0 -0.14486737473E+01  0.31430207168E+02  0.12109081180E+03  0.15511297587E+03  0.91690206694E+02 0.  0.
         23    2    1    2    0    0 -0.25935461406E+02 -0.22254889933E+02  0.17067811504E+02  0.99510416306E+02  0.91886258383E+02 0.  0.
        -13    1    4    4    0    0  0.69989634627E+01  0.31509095670E+02 -0.50997726504E+01  0.32677458294E+02  0.00000000000E+00 0. -1.
         13    1    4    4    0    0 -0.32934424868E+02 -0.53763985603E+02  0.22167584155E+02  0.66832958011E+02  0.00000000000E+00 0.  1.
        -13    1    3    3    0    0  0.35629660476E+02  0.33166421791E+02  0.10277792412E+03  0.11372240732E+03  0.00000000000E+00 0. -1.
         13    1    3    3    0    0 -0.37078334223E+02 -0.17362146230E+01  0.18312887679E+02  0.41390568553E+02  0.00000000000E+00 0.  1.
         21    1    1    2  502  501  0.27384135153E+02 -0.91753172356E+01 -0.19074485470E+03  0.19291883500E+03  0.00000000000E+00 0. -1.
<scales pt_clust_5="13000.00000" pt_clust_6="13000.00000" pt_clust_7="13000.00000" pt_clust_8="13000.00000" pt_clust_9="28.88040"></scales>
<clustering>
<clus scale="   28.880">  2  9  1 -1</clus>
<clus scale="   91.690">  7  8 -1 -1</clus>
<clus scale="   91.886">  5  6 -1 -1</clus>
<clus scale="   96.315">  1  7  2 -1</clus>
<clus scale="   28.880">  2  5  1 -1</clus>
</clustering>
</event>
<event>
 9    1  0.1435532E-005  0.1093808E+03  0.7546771E-02  0.1263587E+00
          1   -1    0    0  502    0  0.00000000000E+00  0.00000000000E+00  0.40377729243E+03  0.40377729243E+03  0.00000000000E+00 0. -1.
         -1   -1    0    0    0  501 -0.00000000000E+00 -0.00000000000E+00 -0.81515089909E+02  0.81515089909E+02  0.00000000000E+00 0.  1.
         23    2    1    2    0    0 -0.54350840857E+02 -0.37896246722E+01 -0.12555845808E+02  0.10409851450E+03  0.87809317841E+02 0.  0.
         23    2    1    2    0    0  0.69413321938E+02  0.25733268172E+02  0.13498300670E+03  0.17959415135E+03  0.92483710717E+02 0.  0.
        -11    1    4    4    0    0  0.68758048108E+02 -0.14985639999E+02  0.53151018327E+02  0.88188827722E+02  0.00000000000E+00 0.  1.
         11    1    4    4    0    0  0.65527383008E+00  0.40718908171E+02  0.81831988370E+02  0.91405323626E+02  0.00000000000E+00 0. -1.
        -13    1    3    3    0    0 -0.12473214926E+02  0.34519540789E+02  0.16608993708E+02  0.40286951471E+02  0.00000000000E+00 0. -1.
         13    1    3    3    0    0 -0.41877625932E+02 -0.38309165461E+02 -0.29164839516E+02  0.63811563027E+02  0.00000000000E+00 0.  1.
         21    1    1    2  502  501 -0.15062481081E+02 -0.21943643500E+02  0.19983504163E+03  0.20159971649E+03  0.00000000000E+00 0. -1.
<scales pt_clust_5="13000.00000" pt_clust_6="13000.00000" pt_clust_7="13000.00000" pt_clust_8="13000.00000" pt_clust_9="26.61582"></scales>
<clustering>
<clus scale="   26.616">  1  9  2 -1</clus>
<clus scale="   87.809">  7  8 -1 -1</clus>
<clus scale="   92.484">  5  6 -1 -1</clus>
<clus scale="  105.458">  2  7  1 -1</clus>
<clus scale="   26.616">  1  5  2 -1</clus>
</clustering>
</event>
<event>
 9    1  0.1435532E-005  0.9172534E+02  0.7546771E-02  0.1298965E+00
         -2   -1    0    0    0  501 -0.00000000000E+00  0.00000000000E+00  0.92654187803E+02  0.92654187803E+02  0.00000000000E+00 0.  1.
          2   -1    0    0  502    0  0.00000000000E+00 -0.00000000000E+00 -0.21632706270E+03  0.21632706270E+03  0.00000000000E+00 0. -1.
         23    2    1    2    0    0 -0.76017001431E+01 -0.37537547979E+01  0.40266181936E+02  0.10032366721E+03  0.91496427660E+02 0.  0.
         23    2    1    2    0    0 -0.22421444694E+02  0.16824255083E+02 -0.13287884274E+03  0.16352484459E+03  0.91092322445E+02 0.  0.
        -11    1    4    4    0    0 -0.49196533818E+02  0.29595782139E+02 -0.52314595660E+02  0.77672557440E+02  0.00000000000E+00 0.  1.
         11    1    4    4    0    0  0.26775089124E+02 -0.12771527057E+02 -0.80564247084E+02  0.85852287151E+02  0.00000000000E+00 0. -1.
        -13    1    3    3    0    0 -0.44093625920E+02 -0.22514851758E+02  0.30483997192E+02  0.58141555546E+02  0.00000000000E+00 0.  1.
         13    1    3    3    0    0  0.36491925777E+02  0.18761096960E+02  0.97821847443E+01  0.42182111664E+02  0.00000000000E+00 0. -1.
         21    1    1    2  502  501  0.30023144837E+02 -0.13070500285E+02 -0.31060214093E+02  0.45132738706E+02  0.00000000000E+00 0. -1.
<scales pt_clust_5="13000.00000" pt_clust_6="13000.00000" pt_clust_7="13000.00000" pt_clust_8="13000.00000" pt_clust_9="32.74488"></scales>
<clustering>
<clus scale="   32.745">  2  9  1 -1</clus>
<clus scale="   91.092">  5  6 -1 -1</clus>
<clus scale="   91.322">  2  5  1 -1</clus>
<clus scale="   91.496">  7  8 -1 -1</clus>
<clus scale="   32.745">  2  5  1 -1</clus>
</clustering>
</event>
<event>
 9    1  0.1435532E-005  0.1344943E+03  0.7546771E-02  0.1221961E+00
         -1   -1    0    0    0  501 -0.00000000000E+00  0.00000000000E+00  0.71803509749E+02  0.71803509749E+02  0.00000000000E+00 0.  1.
          1   -1    0    0  502    0  0.00000000000E+00 -0.00000000000E+00 -0.80393311912E+03  0.80393311912E+03  0.00000000000E+00 0. -1.
         23    2    1    2    0    0 -0.68434391332E+02 -0.46314221065E+02 -0.55308309536E+02  0.13763685670E+03  0.95166287242E+02 0.  0.
         23    2    1    2    0    0  0.13335925759E+03  0.16304604741E+02 -0.20792191811E+03  0.26377662756E+03  0.91082673975E+02 0.  0.
        -11    1    3    3    0    0 -0.64606574166E+02  0.63185472253E+01 -0.54657731571E+02  0.84861069313E+02  0.00000000000E+00 0. -1.
         11    1    3    3    0    0 -0.38278171661E+01 -0.52632768290E+02 -0.65057796522E+00  0.52775787383E+02  0.00000000000E+00 0.  1.
        -13    1    4    4    0    0  0.11198553319E+03  0.35611163089E+02 -0.20299672036E+03  0.23455614052E+03  0.00000000000E+00 0.  1.
         13    1    4    4    0    0  0.21373724399E+02 -0.19306558348E+02 -0.49251977475E+01  0.29220487039E+02  0.00000000000E+00 0. -1.
         21    1    1    2  502  501 -0.64924866254E+02  0.30009616324E+02 -0.46889938173E+03  0.47432314462E+03  0.00000000000E+00 0. -1.
<scales pt_clust_5="13000.00000" pt_clust_6="13000.00000" pt_clust_7="13000.00000" pt_clust_8="13000.00000" pt_clust_9="71.52493"></scales>
<clustering>
<clus scale="   71.525">  2  9  1 -1</clus>
<clus scale="   91.083">  7  8 -1 -1</clus>
<clus scale="   95.166">  5  6 -1 -1</clus>
<clus scale="  131.636">  2  7  1 -1</clus>
<clus scale="   71.525">  2  5  1 -1</clus>
</clustering>
</event>
<event>
 9    1  0.1435532E-005  0.1158943E+03  0.7546771E-02  0.1251748E+00
         -3   -1    0    0    0  501 -0.00000000000E+00  0.00000000000E+00  0.30617149396E+03  0.30617149396E+03  0.00000000000E+00 0.  1.
          3   -1    0    0  502    0  0.00000000000E+00 -0.00000000000E+00 -0.81941878612E+02  0.81941878612E+02  0.00000000000E+00 0. -1.
         23    2    1    2    0    0  0.35186600927E+02  0.14516732201E+02  0.97741978530E+02  0.13458454214E+03  0.84324801910E+02 0.  0.
         23    2    1    2    0    0 -0.10833740389E+03  0.31509957746E+01  0.58879664365E+02  0.15236546491E+03  0.89451093707E+02 0.  0.
        -11    1    3    3    0    0  0.12674730928E+02 -0.24501457916E+02  0.82562554209E+02  0.87049098799E+02  0.00000000000E+00 0.  1.
         11    1    3    3    0    0  0.22511869999E+02  0.39018190117E+02  0.15179424320E+02  0.47535443340E+02  0.00000000000E+00 0. -1.
        -13    1    4    4    0    0 -0.46900708439E+02 -0.35312495218E+02 -0.42875549835E+00  0.58709731748E+02  0.00000000000E+00 0.  1.
         13    1    4    4    0    0 -0.61436695449E+02  0.38463490993E+02  0.59308419864E+02  0.93655733160E+02  0.00000000000E+00 0. -1.
         21    1    1    2  502  501  0.73150802961E+02 -0.17667727975E+02  0.67607972458E+02  0.10116336553E+03  0.00000000000E+00 0.  1.
<scales pt_clust_5="13000.00000" pt_clust_6="13000.00000" pt_clust_7="13000.00000" pt_clust_8="13000.00000" pt_clust_9="75.25416"></scales>
<clustering>
<clus scale="   75.254">  1  9  2 -1</clus>
<clus scale="   84.325">  5  6 -1 -1</clus>
<clus scale="   89.451">  7  8 -1 -1</clus>
<clus scale="  111.985">  1  5  2 -1</clus>
<clus scale="  115.894">  2  5  1 -1</clus>
</clustering>
</event>
<event>
 9    1  0.1435532E-005  0.1116520E+03  0.7546771E-02  0.1258374E+00
         -1   -1    0    0    0  501 -0.00000000000E+00  0.00000000000E+00  0.30277673199E+03  0.30277673199E+03  0.00000000000E+00 0.  1.
          1   -1    0    0  502    0  0.00000000000E+00 -0.00000000000E+00 -0.83661360015E+02  0.83661360015E+02  0.00000000000E+00 0. -1.
         23    2    1    2    0    0 -0.54818644795E+02 -0.22828901062E+02  0.21643936584E+03  0.24263152813E+03  0.92183603837E+02 0.  0.
         23    2    1    2    0    0  0.73522889198E+02  0.32825244948E+02 -0.60082788940E+01  0.12088948605E+03  0.89972531806E+02 0.  0.
        -11    1    4    4    0    0  0.51592190872E+02 -0.57229485569E+01 -0.39570880986E+02  0.65271440318E+02  0.00000000000E+00 0. -1.
         11    1    4    4    0    0  0.21930698326E+02  0.38548193505E+02  0.33562602092E+02  0.55618045730E+02  0.00000000000E+00 0.  1.
        -13    1    3    3    0    0 -0.47855690060E+02  0.17510562007E+02  0.18242308662E+03  0.18940688843E+03  0.00000000000E+00 0.  1.
         13    1    3    3    0    0 -0.69629547348E+01 -0.40339463068E+02  0.34016279224E+02  0.53224639703E+02  0.00000000000E+00 0. -1.
         21    1    1    2  502  501 -0.18704244403E+02 -0.99963438868E+01  0.86842850339E+01  0.22917077832E+02  0.00000000000E+00 0.  1.
<scales pt_clust_5="13000.00000" pt_clust_6="13000.00000" pt_clust_7="13000.00000" pt_clust_8="13000.00000" pt_clust_9="21.20791"></scales>
<clustering>
<clus scale="   21.208">  2  9  1 -1</clus>
<clus scale="   89.973">  5  6 -1 -1</clus>
<clus scale="   92.184">  7  8 -1 -1</clus>
<clus scale="  109.834">  2  5  1 -1</clus>
<clus scale="   21.208">  2  5  1 -1</clus>
</clustering>
</event>
<event>
 9    1  0.1435532E-005  0.1455309E+03  0.7546771E-02  0.1224980E+00
         -1   -1    0    0    0  501 -0.00000000000E+00  0.00000000000E+00  0.18935672202E+03  0.18935672202E+03  0.00000000000E+00 0.  1.
          1   -1    0    0  502    0  0.00000000000E+00 -0.00000000000E+00 -0.19311663816E+03  0.19311663816E+03  0.00000000000E+00 0. -1.
         23    2    1    2    0    0 -0.24002601510E+02  0.10617853339E+03  0.28829645300E+02  0.14429877251E+03  0.90227387574E+02 0.  0.
         23    2    1    2    0    0  0.28809347996E+02  0.14106037798E+02 -0.60245885320E+02  0.11465796884E+03  0.92129931546E+02 0.  0.
        -13    1    3    3    0    0 -0.20326089032E+02  0.64955706215E+02 -0.28335756412E+02  0.73724546500E+02  0.00000000000E+00 0. -1.
         13    1    3    3    0    0 -0.36765124779E+01  0.41222827172E+02  0.57165401712E+02  0.70574226010E+02  0.00000000000E+00 0.  1.
        -13    1    4    4    0    0  0.54654997351E+02  0.33123779192E+02 -0.49435532840E+02  0.80797434307E+02  0.00000000000E+00 0. -1.
         13    1    4    4    0    0 -0.25845649355E+02 -0.19017741394E+02 -0.10810352480E+02  0.33860534536E+02  0.00000000000E+00 0.  1.
         21    1    1    2  502  501 -0.48067464865E+01 -0.12028457119E+03  0.27656323881E+02  0.12351661883E+03  0.00000000000E+00 0.  1.
<scales pt_clust_5="13000.00000" pt_clust_6="13000.00000" pt_clust_7="13000.00000" pt_clust_8="13000.00000" pt_clust_9="114.18524"></scales>
<clustering>
<clus scale="   90.227">  5  6 -1 -1</clus>
<clus scale="   92.130">  7  8 -1 -1</clus>
<clus scale="   97.555">  2  7  1 -1</clus>
<clus scale="  114.185">  2  9  1 -1</clus>
<clus scale="   97.555">  2  5  1 -1</clus>
</clustering>
</event>
<event>
 9    1  0.1435532E-005  0.9882876E+02  0.7546771E-02  0.1284829E+00
          1   -1    0    0  502    0  0.00000000000E+00  0.00000000000E+00  0.13110602725E+03  0.13110602725E+03  0.00000000000E+00 0. -1.
         -1   -1    0    0    0  501 -0.00000000000E+00 -0.00000000000E+00 -0.20633977358E+03  0.20633977358E+03  0.00000000000E+00 0.  1.
         23    2    1    2    0    0  0.10425205760E+02  0.33356295651E+02 -0.15545151064E+03  0.18513315598E+03  0.94275054552E+02 0.  0.
         23    2    1    2    0    0 -0.17695973896E+01  0.31079204532E+01  0.67203495115E+02  0.11263986053E+03  0.90325178001E+02 0.  0.
        -11    1    4    4    0    0 -0.22631748511E+02  0.14574154463E+02 -0.12338836093E+02  0.29611634455E+02  0.00000000000E+00 0.  1.
         11    1    4    4    0    0  0.20862151121E+02 -0.11466234010E+02  0.79542331207E+02  0.83028226078E+02  0.00000000000E+00 0. -1.
        -13    1    3    3    0    0 -0.23786126240E+02 -0.15480872215E+02 -0.14037784549E+02  0.31662226723E+02  0.00000000000E+00 0. -1.
         13    1    3    3    0    0  0.34211332000E+02  0.48837167866E+02 -0.14141372609E+03  0.15347092926E+03  0.00000000000E+00 0.  1.
         21    1    1    2  502  501 -0.86556083707E+01 -0.36464216105E+02  0.13014269199E+02  0.39672784313E+02  0.00000000000E+00 0. -1.
<scales pt_clust_5="13000.00000" pt_clust_6="13000.00000" pt_clust_7="13000.00000" pt_clust_8="13000.00000" pt_clust_9="37.47744"></scales>
<clustering>
<clus scale="   37.477">  1  9  2 -1</clus>
<clus scale="   90.325">  5  6 -1 -1</clus>
<clus scale="   94.275">  7  8 -1 -1</clus>
<clus scale="   95.068">  1  5  2 -1</clus>
<clus scale="   37.477">  1  5  2 -1</clus>
</clustering>
</event>
<event>
 9    1  0.1435532E-005  0.1829733E+03  0.7546771E-02  0.1166834E+00
          1   -1    0    0  502    0  0.00000000000E+00  0.00000000000E+00  0.11892022490E+04  0.11892022490E+04  0.00000000000E+00 0. -1.
         -1   -1    0    0    0  501 -0.00000000000E+00 -0.00000000000E+00 -0.85555848822E+02  0.85555848822E+02  0.00000000000E+00 0.  1.
         23    2    1    2    0    0  0.10113410325E+03 -0.11133848000E+03  0.38866292303E+02  0.18718564307E+03  0.10441988473E+03 0.  0.
         23    2    1    2    0    0 -0.12759121074E+03  0.84791265430E+02  0.76079174959E+03  0.78128230618E+03  0.90160301436E+02 0.  0.
        -11    1    4    4    0    0 -0.10921569021E+03  0.36990507244E+02  0.63638640763E+03  0.64674881093E+03  0.00000000000E+00 0. -1.
         11    1    4    4    0    0 -0.18375520527E+02  0.47800758186E+02  0.12440534196E+03  0.13453349526E+03  0.00000000000E+00 0.  1.
        -13    1    3    3    0    0  0.33990630574E+02 -0.80566161469E+01 -0.30007234667E+02  0.46051125533E+02  0.00000000000E+00 0. -1.
         13    1    3    3    0    0  0.67143472672E+02 -0.10328186385E+03  0.68873526969E+02  0.14113451754E+03  0.00000000000E+00 0.  1.
         21    1    1    2  502  501  0.26457107494E+02  0.26547214570E+02  0.30398835832E+03  0.30629014860E+03  0.00000000000E+00 0.  1.
<scales pt_clust_5="13000.00000" pt_clust_6="13000.00000" pt_clust_7="13000.00000" pt_clust_8="13000.00000" pt_clust_9="37.47977"></scales>
<clustering>
<clus scale="   37.480">  1  9  2 -1</clus>
<clus scale="   90.160">  5  6 -1 -1</clus>
<clus scale="  104.420">  7  8 -1 -1</clus>
<clus scale="  175.227">  1  5  2 -1</clus>
<clus scale="   37.480">  1  5  2 -1</clus>
</clustering>
</event>
<event>
 9    1  0.1435532E-005  0.1296002E+03  0.7546771E-02  0.1229641E+00
          2   -1    0    0  502    0  0.00000000000E+00  0.00000000000E+00  0.45051582905E+02  0.45051582905E+02  0.00000000000E+00 0. -1.
         -2   -1    0    0    0  501 -0.00000000000E+00 -0.00000000000E+00 -0.55870611632E+03  0.55870611632E+03  0.00000000000E+00 0.  1.
         23    2    1    2    0    0 -0.93615207619E+02  0.38590533100E+02 -0.36586032384E+03  0.39171841858E+03  0.96625599898E+02 0.  0.
         23    2    1    2    0    0  0.59925955164E+02 -0.13676028521E+02 -0.11362552570E+03  0.15797268072E+03  0.90920041270E+02 0.  0.
        -11    1    3    3    0    0 -0.92961890329E+02  0.29703157777E+01 -0.32226115775E+03  0.33541465327E+03  0.00000000000E+00 0.  1.
         11    1    3    3    0    0 -0.65331729038E+00  0.35620217322E+02 -0.43599166086E+02  0.56303765318E+02  0.00000000000E+00 0. -1.
        -13    1    4    4    0    0  0.84195428046E+02 -0.13186942238E+02 -0.83844939398E+02  0.11955224553E+03  0.00000000000E+00 0. -1.
         13    1    4    4    0    0 -0.24269472882E+02 -0.48908628301E+00 -0.29780586299E+02  0.38420435183E+02  0.00000000000E+00 0.  1.
         21    1    1    2  502  501  0.33689252455E+02 -0.24914504579E+02 -0.34168683878E+02  0.54066599924E+02  0.00000000000E+00 0.  1.
<scales pt_clust_5="13000.00000" pt_clust_6="13000.00000" pt_clust_7="13000.00000" pt_clust_8="13000.00000" pt_clust_9="41.90105"></scales>
<clustering>
<clus scale="   41.901">  1  9  2 -1</clus>
<clus scale="   90.920">  7  8 -1 -1</clus>
<clus scale="   96.626">  5  6 -1 -1</clus>
<clus scale="  125.404">  1  7  2 -1</clus>
<clus scale="   41.901">  1  5  2 -1</clus>
</clustering>
</event>
<event>
 9    1  0.1435532E-005  0.1268023E+03  0.7546771E-02  0.1233842E+00
          1   -1    0    0  502    0  0.00000000000E+00  0.00000000000E+00  0.61410692642E+03  0.61410692642E+03  0.00000000000E+00 0. -1.
         -1   -1    0    0    0  501 -0.00000000000E+00 -0.00000000000E+00 -0.81031729389E+02  0.81031729389E+02  0.00000000000E+00 0.  1.
         23    2    1    2    0    0 -0.67013159530E+02  0.45213614628E+02 -0.39798458602E+00  0.12601222051E+03  0.96663782404E+02 0.  0.
         23    2    1    2    0    0  0.93164192106E+02 -0.14416696705E+02  0.24603518257E+03  0.27886288272E+03  0.91344340068E+02 0.  0.
        -13    1    4    4    0    0  0.68806473464E+02 -0.49634713874E+02  0.19206532582E+03  0.20996910485E+03  0.00000000000E+00 0. -1.
         13    1    4    4    0    0  0.24357718642E+02  0.35218017169E+02  0.53969856750E+02  0.68893777864E+02  0.00000000000E+00 0.  1.
        -13    1    3    3    0    0  0.51328665952E+01  0.39955571286E+02 -0.27487996630E+02  0.48768678012E+02  0.00000000000E+00 0.  1.
         13    1    3    3    0    0 -0.72146026125E+02  0.52580433417E+01  0.27090012044E+02  0.77243542500E+02  0.00000000000E+00 0. -1.
         21    1    1    2  502  501 -0.26151032577E+02 -0.30796917923E+02  0.28743799905E+03  0.29026355258E+03  0.00000000000E+00 0. -1.
<scales pt_clust_5="13000.00000" pt_clust_6="13000.00000" pt_clust_7="13000.00000" pt_clust_8="13000.00000" pt_clust_9="40.40206"></scales>
<clustering>
<clus scale="   40.402">  1  9  2 -1</clus>
<clus scale="   91.344">  5  6 -1 -1</clus>
<clus scale="   96.664">  7  8 -1 -1</clus>
<clus scale="  122.795">  1  5  2 -1</clus>
<clus scale="   40.402">  1  5  2 -1</clus>
</clustering>
</event>
<event>
 9    1  0.1435532E-005  0.1008560E+03  0.7546771E-02  0.1278850E+00
          2   -1    0    0  502    0  0.00000000000E+00  0.00000000000E+00  0.66414948289E+02  0.66414948289E+02  0.00000000000E+00 0. -1.
         -2   -1    0    0    0  501 -0.00000000000E+00 -0.00000000000E+00 -0.22974860445E+03  0.22974860445E+03  0.00000000000E+00 0.  1.
         23    2    1    2    0    0  0.26655562563E+02 -0.47352593091E+02 -0.11827170970E+03  0.15876214344E+03  0.90908931287E+02 0.  0.
         23    2    1    2    0    0 -0.41139662895E+00  0.24988871564E+02 -0.37399163939E+02  0.10207987872E+03  0.91635098229E+02 0.  0.
        -13    1    3    3    0    0 -0.15185739500E+02  0.20852303624E+02 -0.25938290237E+02  0.36581691473E+02  0.00000000000E+00 0. -1.
         13    1    3    3    0    0  0.41841302062E+02 -0.68204896716E+02 -0.92333419459E+02  0.12218045197E+03  0.00000000000E+00 0.  1.
        -13    1    4    4    0    0  0.24388982434E+01  0.51105468193E+02  0.58289485135E+01  0.51494599179E+02  0.00000000000E+00 0. -1.
         13    1    4    4    0    0 -0.28502948724E+01 -0.26116596629E+02 -0.43228112452E+02  0.50585279544E+02  0.00000000000E+00 0.  1.
         21    1    1    2  502  501 -0.26244165934E+02  0.22363721527E+02 -0.76627825272E+01  0.35321530575E+02  0.00000000000E+00 0. -1.
<scales pt_clust_5="13000.00000" pt_clust_6="13000.00000" pt_clust_7="13000.00000" pt_clust_8="13000.00000" pt_clust_9="34.48032"></scales>
<clustering>
<clus scale="   34.480">  1  9  2 -1</clus>
<clus scale="   90.909">  5  6 -1 -1</clus>
<clus scale="   91.635">  7  8 -1 -1</clus>
<clus scale="  100.197">  2  5  1 -1</clus>
<clus scale="   34.480">  1  5  2 -1</clus>
</clustering>
</event>
<event>
 9    1  0.1435532E-005  0.3198324E+03  0.7546771E-02  0.1075739E+00
         -1   -1    0    0    0  501 -0.00000000000E+00  0.00000000000E+00  0.10917415435E+04  0.10917415435E+04  0.00000000000E+00 0.  1.
          1   -1    0    0  502    0  0.00000000000E+00 -0.00000000000E+00 -0.13953001248E+03  0.13953001248E+03  0.00000000000E+00 0. -1.
         23    2    1    2    0    0  0.24426762158E+03  0.16895658361E+03  0.57575791924E+03  0.65422534408E+03  0.91107744861E+02 0.  0.
         23    2    1    2    0    0 -0.25389427635E+03 -0.19687394676E+03  0.41235852738E+03  0.53055734644E+03  0.90718731694E+02 0.  0.
        -11    1    3    3    0    0  0.94677111792E+02  0.89741650093E+02  0.16778256276E+03  0.21252836899E+03  0.00000000000E+00 0. -1.
         11    1    3    3    0    0  0.14959050979E+03  0.79214933517E+02  0.40797535649E+03  0.44169697510E+03  0.00000000000E+00 0.  1.
        -13    1    4    4    0    0 -0.26801032398E+02  0.61321137096E+01  0.20818272726E+02  0.34486209352E+02  0.00000000000E+00 0.  1.
         13    1    4    4    0    0 -0.22709324395E+03 -0.20300606047E+03  0.39154025465E+03  0.49607113708E+03  0.00000000000E+00 0. -1.
         21    1    1    2  502  501  0.96266547723E+01  0.27917363148E+02 -0.35904915599E+02  0.46488865457E+02  0.00000000000E+00 0.  1.
<scales pt_clust_5="13000.00000" pt_clust_6="13000.00000" pt_clust_7="13000.00000" pt_clust_8="13000.00000" pt_clust_9="29.53052"></scales>
<clustering>
<clus scale="   29.531">  2  9  1 -1</clus>
<clus scale="   90.719">  7  8 -1 -1</clus>
<clus scale="   91.108">  5  6 -1 -1</clus>
<clus scale="  319.722">  2  7  1 -1</clus>
<clus scale="   29.531">  2  5  1 -1</clus>
</clustering>
</event>
<event>
 9    1  0.1435532E-005  0.1501304E+03  0.7546771E-02  0.1219283E+00
          1   -1    0    0  502    0  0.00000000000E+00  0.00000000000E+00  0.12544521074E+04  0.12544521074E+04  0.00000000000E+00 0. -1.
         -1   -1    0    0    0  501 -0.00000000000E+00 -0.00000000000E+00 -0.33063751648E+02  0.33063751648E+02  0.00000000000E+00 0.  1.
         23    2    1    2    0    0  0.30520346797E+02 -0.28589674775E+02  0.17215773970E+03  0.19914876342E+03  0.90956481693E+02 0.  0.
         23    2    1    2    0    0 -0.67766967914E+02 -0.90654598478E+02  0.36076546658E+03  0.38865946416E+03  0.89965765939E+02 0.  0.
        -11    1    3    3    0    0  0.40820500079E+02  0.22998408119E+02  0.92473854960E+02  0.10366606896E+03  0.00000000000E+00 0.  1.
         11    1    3    3    0    0 -0.10300153282E+02 -0.51588082894E+02  0.79683884736E+02  0.95482694458E+02  0.00000000000E+00 0. -1.
        -11    1    4    4    0    0 -0.22327585382E+02 -0.47169639942E+02  0.52433245217E+02  0.73977977840E+02  0.00000000000E+00 0.  1.
         11    1    4    4    0    0 -0.45439382532E+02 -0.43484958536E+02  0.30833222136E+03  0.31468148632E+03  0.00000000000E+00 0. -1.
         21    1    1    2  502  501  0.37246621117E+02  0.11924427325E+03  0.68846514950E+03  0.69970763149E+03  0.00000000000E+00 0.  1.
<scales pt_clust_5="13000.00000" pt_clust_6="13000.00000" pt_clust_7="13000.00000" pt_clust_8="13000.00000" pt_clust_9="120.18853"></scales>
<clustering>
<clus scale="   89.966">  7  8 -1 -1</clus>
<clus scale="   90.956">  5  6 -1 -1</clus>
<clus scale="  100.110">  2  5  1 -1</clus>
<clus scale="  120.189">  1  9  2 -1</clus>
<clus scale="  120.189">  1  5  2 -1</clus>
</clustering>
</event>
<event>
 9    1  0.1435532E-005  0.1123736E+03  0.7546771E-02  0.1256314E+00
          1   -1    0    0  502    0  0.00000000000E+00  0.00000000000E+00  0.61591900249E+03  0.61591900249E+03  0.00000000000E+00 0. -1.
         -1   -1    0    0    0  501 -0.00000000000E+00 -0.00000000000E+00 -0.24960033538E+02  0.24960033538E+02  0.00000000000E+00 0.  1.
         23    2    1    2    0    0 -0.51924203423E+02 -0.20141308704E+02  0.25589832239E+03  0.27732083620E+03  0.91220061233E+02 0.  0.
         23    2    1    2    0    0  0.73766671183E+02  0.18090178479E+02  0.27381102892E+03  0.29849810303E+03  0.91432278892E+02 0.  0.
        -11    1    3    3    0    0 -0.61589280417E+01 -0.25568251654E+02  0.11652961635E+02  0.28765594069E+02  0.00000000000E+00 0.  1.
         11    1    3    3    0    0 -0.45765275381E+02  0.54269429499E+01  0.24424536076E+03  0.24855524213E+03  0.00000000000E+00 0. -1.
        -13    1    4    4    0    0 -0.15169146567E+02  0.22571857561E+02  0.40623236935E+02  0.48885981021E+02  0.00000000000E+00 0. -1.
         13    1    4    4    0    0  0.88935817750E+02 -0.44816790821E+01  0.23318779198E+03  0.24961212201E+03  0.00000000000E+00 0.  1.
         21    1    1    2  502  501 -0.21842467761E+02  0.20511302252E+01  0.61249617650E+02  0.65060096798E+02  0.00000000000E+00 0. -1.
<scales pt_clust_5="13000.00000" pt_clust_6="13000.00000" pt_clust_7="13000.00000" pt_clust_8="13000.00000" pt_clust_9="21.93856"></scales>
<clustering>
<clus scale="   21.939">  1  9  2 -1</clus>
<clus scale="   91.220">  5  6 -1 -1</clus>
<clus scale="   91.432">  7  8 -1 -1</clus>
<clus scale="  112.201">  2  5  1 -1</clus>
<clus scale="   21.939">  1  5  2 -1</clus>
</clustering>
</event>
<event>
 9    1  0.1435532E-005  0.2002946E+03  0.7546771E-02  0.1150045E+00
         -3   -1    0    0    0  501 -0.00000000000E+00  0.00000000000E+00  0.17799508313E+03  0.17799508313E+03  0.00000000000E+00 0.  1.
          3   -1    0    0  502    0  0.00000000000E+00 -0.00000000000E+00 -0.37946432015E+03  0.37946432015E+03  0.00000000000E+00 0. -1.
         23    2    1    2    0    0  0.15703857316E+03 -0.93668072198E+02  0.61025781401E+02  0.21265683525E+03  0.89799567790E+02 0.  0.
         23    2    1    2    0    0 -0.16216316464E+03  0.74160545102E+02 -0.25711796623E+03  0.32392871497E+03  0.83806237288E+02 0.  0.
        -11    1    3    3    0    0  0.58014903695E+01 -0.41873253663E+02  0.23825746688E+02  0.48525177672E+02  0.00000000000E+00 0.  1.
         11    1    3    3    0    0  0.15123708279E+03 -0.51794818535E+02  0.37200034713E+02  0.16413165758E+03  0.00000000000E+00 0. -1.
        -11    1    4    4    0    0 -0.21886321369E+02  0.27941585491E+02 -0.10950965322E+03  0.11511779798E+03  0.00000000000E+00 0. -1.
         11    1    4    4    0    0 -0.14027684327E+03  0.46218959611E+02 -0.14760831301E+03  0.20881091699E+03  0.00000000000E+00 0.  1.
         21    1    1    2  502  501  0.51245914797E+01  0.19507527095E+02 -0.53770521885E+01  0.20873853057E+02  0.00000000000E+00 0. -1.
<scales pt_clust_5="13000.00000" pt_clust_6="13000.00000" pt_clust_7="13000.00000" pt_clust_8="13000.00000" pt_clust_9="20.16941"></scales>
<clustering>
<clus scale="   20.169">  1  9  2 -1</clus>
<clus scale="   83.806">  7  8 -1 -1</clus>
<clus scale="   89.800">  5  6 -1 -1</clus>
<clus scale="  197.680">  2  7  1 -1</clus>
<clus scale="  197.680">  2  5  1 -1</clus>
</clustering>
</event>
<event>
 9    1  0.1435532E-005  0.1942252E+03  0.7546771E-02  0.1176430E+00
         -1   -1    0    0    0  501 -0.00000000000E+00  0.00000000000E+00  0.91434009498E+03  0.91434009498E+03  0.00000000000E+00 0.  1.
          1   -1    0    0  502    0  0.00000000000E+00 -0.00000000000E+00 -0.10000796518E+03  0.10000796518E+03  0.00000000000E+00 0. -1.
         23    2    1    2    0    0  0.45678686267E+02 -0.58702731386E+02  0.24738136337E+03  0.27395563720E+03  0.91222799554E+02 0.  0.
         23    2    1    2    0    0  0.75215116406E+02  0.17843291717E+03  0.52261470827E+03  0.56456206447E+03  0.90047607835E+02 0.  0.
        -11    1    4    4    0    0  0.70855624187E+02  0.54120352575E+02  0.21947837221E+03  0.23689720959E+03  0.00000000000E+00 0.  1.
         11    1    4    4    0    0  0.43594922194E+01  0.12431256459E+03  0.30313633606E+03  0.32766485489E+03  0.00000000000E+00 0. -1.
        -11    1    3    3    0    0  0.29331163858E+02 -0.35402322410E+02  0.24025463950E+03  0.24461384549E+03  0.00000000000E+00 0.  1.
         11    1    3    3    0    0  0.16347522409E+02 -0.23300408976E+02  0.71267238693E+01  0.29341791705E+02  0.00000000000E+00 0. -1.
         21    1    1    2  502  501 -0.12089380267E+03 -0.11973018578E+03  0.44336058167E+02  0.17583035849E+03  0.00000000000E+00 0. -1.
<scales pt_clust_5="13000.00000" pt_clust_6="13000.00000" pt_clust_7="13000.00000" pt_clust_8="13000.00000" pt_clust_9="172.08967"></scales>
<clustering>
<clus scale="   90.048">  5  6 -1 -1</clus>
<clus scale="   91.223">  7  8 -1 -1</clus>
<clus scale="  117.704">  1  7  2 -1</clus>
<clus scale="  172.090">  2  9  1 -1</clus>
<clus scale="  172.090">  2  5  1 -1</clus>
</clustering>
</event>
<event>
 9    1  0.3715304E-005  0.2772416E+03  0.7546771E-02  0.1098093E+00
         -2   -1    0    0    0  501 -0.00000000000E+00  0.00000000000E+00  0.72250773991E+03  0.72250773991E+03  0.00000000000E+00 0.  1.
          2   -1    0    0  502    0  0.00000000000E+00 -0.00000000000E+00 -0.31304997294E+03  0.31304997294E+03  0.00000000000E+00 0. -1.
         23    2    1    2    0    0 -0.21720469685E+03 -0.13774093164E+03  0.59279617719E+03  0.65316971550E+03  0.95251902710E+02 0.  0.
         23    2    1    2    0    0  0.23626007722E+03  0.16544852320E+03 -0.18109026240E+03  0.34868529243E+03  0.74804492556E+02 0.  0.
        -11    1    4    4    0    0  0.20768834413E+03  0.13560736855E+03 -0.12156540565E+03  0.27622808428E+03  0.00000000000E+00 0. -1.
         11    1    4    4    0    0  0.28571733089E+02  0.29841154644E+02 -0.59524856752E+02  0.72457208154E+02  0.00000000000E+00 0.  1.
        -13    1    3    3    0    0 -0.48585722594E+02 -0.50296925579E+02  0.79626691275E+02  0.10597529489E+03  0.00000000000E+00 0. -1.
         13    1    3    3    0    0 -0.16861897426E+03 -0.87444006060E+02  0.51316948591E+03  0.54719442061E+03  0.00000000000E+00 0.  1.
         21    1    1    2  502  501 -0.19055380364E+02 -0.27707591557E+02 -0.22481478177E+01  0.33702704925E+02  0.00000000000E+00 0.  1.
<scales pt_clust_5="13000.00000" pt_clust_6="13000.00000" pt_clust_7="13000.00000" pt_clust_8="13000.00000" pt_clust_9="33.62764"></scales>
<clustering>
<clus scale="   33.628">  2  9  1 -1</clus>
<clus scale="   74.804">  5  6 -1 -1</clus>
<clus scale="   95.252">  7  8 -1 -1</clus>
<clus scale="  270.898">  2  5  1 -1</clus>
<clus scale="   33.628">  2  5  1 -1</clus>
</clustering>
</event>
<event>
 9    1  0.1435532E-005  0.3557793E+03  0.7546771E-02  0.1060290E+00
         -2   -1    0    0    0  501 -0.00000000000E+00  0.00000000000E+00  0.13975210344E+04  0.13975210344E+04  0.00000000000E+00 0.  1.
          2   -1    0    0  502    0  0.00000000000E+00 -0.00000000000E+00 -0.27964769484E+03  0.27964769484E+03  0.00000000000E+00 0. -1.
         23    2    1    2    0    0  0.20111527463E+03 -0.27980567818E+03  0.12114925420E+04  0.12627846382E+04  0.90400729830E+02 0.  0.
         23    2    1    2    0    0 -0.23662750711E+03  0.24518161611E+03 -0.92898323988E+02  0.36478102664E+03  0.91260598273E+02 0.  0.
        -11    1    3    3    0    0  0.17052306002E+03 -0.17682905620E+03  0.91610112772E+03  0.94846608022E+03  0.00000000000E+00 0.  1.
         11    1    3    3    0    0  0.30592214606E+02 -0.10297662198E+03  0.29539141429E+03  0.31431855801E+03  0.00000000000E+00 0. -1.
        -11    1    4    4    0    0 -0.20363760316E+03  0.16682736586E+03 -0.44588259197E+02  0.26699767092E+03  0.00000000000E+00 0. -1.
         11    1    4    4    0    0 -0.32989903951E+02  0.78354250257E+02 -0.48310064791E+02  0.97783355722E+02  0.00000000000E+00 0.  1.
         21    1    1    2  502  501  0.35512232483E+02  0.34624062068E+02 -0.72087845102E+00  0.49603064379E+02  0.00000000000E+00 0.  1.
<scales pt_clust_5="13000.00000" pt_clust_6="13000.00000" pt_clust_7="13000.00000" pt_clust_8="13000.00000" pt_clust_9="49.59783"></scales>
<clustering>
<clus scale="   49.598">  2  9  1 -1</clus>
<clus scale="   90.401">  5  6 -1 -1</clus>
<clus scale="   91.261">  7  8 -1 -1</clus>
<clus scale="  355.560">  1  5  2 -1</clus>
<clus scale="   49.598">  2  5  1 -1</clus>
</clustering>
</event>
<event>
 9    1  0.1435532E-005  0.9499762E+02  0.7546771E-02  0.1299003E+00
          3   -1    0    0  502    0  0.00000000000E+00  0.00000000000E+00  0.10748678066E+03  0.10748678066E+03  0.00000000000E+00 0. -1.
         -3   -1    0    0    0  501 -0.00000000000E+00 -0.00000000000E+00 -0.20905128305E+03  0.20905128305E+03  0.00000000000E+00 0.  1.
         23    2    1    2    0    0 -0.38308369380E+02  0.12342339667E+02 -0.13358442495E+03  0.16676195713E+03  0.91350354378E+02 0.  0.
         23    2    1    2    0    0  0.17044859047E+01  0.34760402569E+00 -0.24117723619E+02  0.81568231108E+02  0.77901769125E+02 0.  0.
        -11    1    4    4    0    0  0.35817693178E+02  0.44600120761E+01  0.51154893158E+01  0.36455000799E+02  0.00000000000E+00 0. -1.
         11    1    4    4    0    0 -0.34113207273E+02 -0.41124080504E+01 -0.29233212935E+02  0.45113230309E+02  0.00000000000E+00 0.  1.
        -13    1    3    3    0    0 -0.51171562834E+02 -0.27372863480E+02 -0.75229513696E+02  0.95012010972E+02  0.00000000000E+00 0.  1.
         13    1    3    3    0    0  0.12863193454E+02  0.39715203147E+02 -0.58354911253E+02  0.71749946162E+02  0.00000000000E+00 0. -1.
         21    1    1    2  502  501  0.36603883476E+02 -0.12689943693E+02  0.56137646181E+02  0.68207875463E+02  0.00000000000E+00 0. -1.
<scales pt_clust_5="13000.00000" pt_clust_6="13000.00000" pt_clust_7="13000.00000" pt_clust_8="13000.00000" pt_clust_9="38.74118"></scales>
<clustering>
<clus scale="   38.741">  1  9  2 -1</clus>
<clus scale="   77.902">  5  6 -1 -1</clus>
<clus scale="   82.148">  1  5  2 -1</clus>
<clus scale="   91.350">  7  8 -1 -1</clus>
<clus scale="   38.741">  1  5  2 -1</clus>
</clustering>
</event>
<event>
 9    1  0.1435532E-005  0.1015469E+03  0.7546771E-02  0.1277528E+00
          2   -1    0    0  502    0  0.00000000000E+00  0.00000000000E+00  0.41090297396E+03  0.41090297396E+03  0.00000000000E+00 0. -1.
         -2   -1    0    0    0  501 -0.00000000000E+00 -0.00000000000E+00 -0.99443015372E+02  0.99443015372E+02  0.00000000000E+00 0.  1.
         23    2    1    2    0    0  0.17104343524E+02  0.25176200169E+02 -0.22267229372E+02  0.99742363227E+02  0.92338019774E+02 0.  0.
         23    2    1    2    0    0  0.51891357730E+01 -0.11027786892E+03  0.15319550519E+03  0.20977787644E+03  0.91377016421E+02 0.  0.
        -11    1    3    3    0    0  0.41531044683E+02  0.42098677096E+02 -0.33509824614E+02  0.67970836624E+02  0.00000000000E+00 0.  1.
         11    1    3    3    0    0 -0.24426701159E+02 -0.16922476927E+02  0.11242595242E+02  0.31771526602E+02  0.00000000000E+00 0. -1.
        -11    1    4    4    0    0 -0.25268064261E+02  0.18981622961E+01  0.16025533358E+02  0.29981591202E+02  0.00000000000E+00 0. -1.
         11    1    4    4    0    0  0.30457200034E+02 -0.11217603122E+03  0.13716997183E+03  0.17979628524E+03  0.00000000000E+00 0.  1.
         21    1    1    2  502  501 -0.22293479297E+02  0.85101668753E+02  0.18053168277E+03  0.20082574966E+03  0.00000000000E+00 0. -1.
<scales pt_clust_5="13000.00000" pt_clust_6="13000.00000" pt_clust_7="13000.00000" pt_clust_8="13000.00000" pt_clust_9="87.97325"></scales>
<clustering>
<clus scale="   87.973">  1  9  2 -1</clus>
<clus scale="   91.377">  7  8 -1 -1</clus>
<clus scale="   92.338">  5  6 -1 -1</clus>
<clus scale="  100.674">  1  7  2 -1</clus>
<clus scale="   87.973">  1  5  2 -1</clus>
</clustering>
</event>
<event>
 9    1  0.1435532E-005  0.1659998E+03  0.7546771E-02  0.1182637E+00
         -1   -1    0    0    0  501 -0.00000000000E+00  0.00000000000E+00  0.58160707735E+03  0.58160707735E+03  0.00000000000E+00 0.  1.
          1   -1    0    0  502    0  0.00000000000E+00 -0.00000000000E+00 -0.11560243796E+03  0.11560243796E+03  0.00000000000E+00 0. -1.
         23    2    1    2    0    0  0.10315675894E+03 -0.11301407101E+03  0.46479568604E+03  0.49782452788E+03  0.91546346966E+02 0.  0.
         23    2    1    2    0    0 -0.39301617984E+02  0.69513015112E+02 -0.17301432730E+02  0.11993402592E+03  0.87796096462E+02 0.  0.
        -11    1    4    4    0    0  0.26309022386E+02  0.18415860066E+02  0.78381110403E+01  0.33056686851E+02  0.00000000000E+00 0.  1.
         11    1    4    4    0    0 -0.65610640370E+02  0.51097155046E+02 -0.25139543770E+02  0.86877339074E+02  0.00000000000E+00 0. -1.
        -13    1    3    3    0    0  0.79391595446E+02 -0.30197665114E+02  0.30093798307E+03  0.31269568923E+03  0.00000000000E+00 0.  1.
         13    1    3    3    0    0  0.23765163493E+02 -0.82816405895E+02  0.16385770297E+03  0.18512883866E+03  0.00000000000E+00 0. -1.
         21    1    1    2  502  501 -0.63855140955E+02  0.43501055897E+02  0.18510386077E+02  0.79450961500E+02  0.00000000000E+00 0. -1.
<scales pt_clust_5="13000.00000" pt_clust_6="13000.00000" pt_clust_7="13000.00000" pt_clust_8="13000.00000" pt_clust_9="77.26462"></scales>
<clustering>
<clus scale="   77.265">  2  9  1 -1</clus>
<clus scale="   87.796">  5  6 -1 -1</clus>
<clus scale="   91.546">  7  8 -1 -1</clus>
<clus scale="  163.961">  2  5  1 -1</clus>
<clus scale="   77.265">  2  5  1 -1</clus>
</clustering>
</event>
<event>
 9    1  0.1435532E-005  0.1126964E+03  0.7546771E-02  0.1256774E+00
          2   -1    0    0  502    0  0.00000000000E+00  0.00000000000E+00  0.27076155209E+03  0.27076155209E+03  0.00000000000E+00 0. -1.
         -2   -1    0    0    0  501 -0.00000000000E+00 -0.00000000000E+00 -0.11751317604E+03  0.11751317604E+03  0.00000000000E+00 0.  1.
         23    2    1    2    0    0 -0.66799002762E+02 -0.60647163929E+01 -0.59751269682E+02  0.12769195085E+03  0.90753140604E+02 0.  0.
         23    2    1    2    0    0  0.33314221679E+02  0.28889899456E+02  0.18256055957E+03  0.20989986584E+03  0.93729035576E+02 0.  0.
        -13    1    4    4    0    0  0.13473669976E+02 -0.26234189183E+02  0.16469330175E+02  0.33778858790E+02  0.00000000000E+00 0.  1.
         13    1    4    4    0    0  0.19840551703E+02  0.55124088639E+02  0.16609122940E+03  0.17612100705E+03  0.00000000000E+00 0. -1.
        -13    1    3    3    0    0  0.86159672147E+01 -0.31849019328E+02 -0.20569571063E+02  0.38880614410E+02  0.00000000000E+00 0. -1.
         13    1    3    3    0    0 -0.75414969976E+02  0.25784302935E+02 -0.39181698619E+02  0.88811336444E+02  0.00000000000E+00 0.  1.
         21    1    1    2  502  501  0.33484781082E+02 -0.22825183063E+02  0.30439086163E+02  0.50682911444E+02  0.00000000000E+00 0. -1.
<scales pt_clust_5="13000.00000" pt_clust_6="13000.00000" pt_clust_7="13000.00000" pt_clust_8="13000.00000" pt_clust_9="40.52431"></scales>
<clustering>
<clus scale="   40.524">  1  9  2 -1</clus>
<clus scale="   90.753">  7  8 -1 -1</clus>
<clus scale="   93.729">  5  6 -1 -1</clus>
<clus scale="  110.234">  2  7  1 -1</clus>
<clus scale="   40.524">  1  5  2 -1</clus>
</clustering>
</event>
<event>
 9    1  0.1435532E-005  0.1037103E+03  0.7546771E-02  0.1279543E+00
          2   -1    0    0  502    0  0.00000000000E+00  0.00000000000E+00  0.52089220581E+02  0.52089220581E+02  0.00000000000E+00 0. -1.
         -2   -1    0    0    0  501 -0.00000000000E+00 -0.00000000000E+00 -0.60830391550E+03  0.60830391550E+03  0.00000000000E+00 0.  1.
         23    2    1    2    0    0 -0.17450009064E+02 -0.33854748146E+01 -0.26580827206E+03  0.28128793189E+03  0.90293404386E+02 0.  0.
         23    2    1    2    0    0 -0.22684206024E+02 -0.28130209773E+02 -0.30665735408E+03  0.32555068653E+03  0.10314375783E+03 0.  0.
        -11    1    3    3    0    0  0.24372657219E+02  0.48741750577E+01 -0.20259548637E+02  0.32066077299E+02  0.00000000000E+00 0. -1.
         11    1    3    3    0    0 -0.41822666283E+02 -0.82596498722E+01 -0.24554872343E+03  0.24922185459E+03  0.00000000000E+00 0.  1.
        -11    1    4    4    0    0 -0.23973998796E+02 -0.51343743839E+02 -0.29332845724E+03  0.29875159661E+03  0.00000000000E+00 0.  1.
         11    1    4    4    0    0  0.12897927725E+01  0.23213534066E+02 -0.13328896843E+02  0.26799089916E+02  0.00000000000E+00 0. -1.
         21    1    1    2  502  501  0.40134215088E+02  0.31515684587E+02  0.16250931232E+02  0.53554517658E+02  0.00000000000E+00 0. -1.
<scales pt_clust_5="13000.00000" pt_clust_6="13000.00000" pt_clust_7="13000.00000" pt_clust_8="13000.00000" pt_clust_9="51.02934"></scales>
<clustering>
<clus scale="   51.029">  1  9  2 -1</clus>
<clus scale="   90.293">  5  6 -1 -1</clus>
<clus scale="   90.940">  2  5  1 -1</clus>
<clus scale="  103.144">  7  8 -1 -1</clus>
<clus scale="   51.029">  1  5  2 -1</clus>
</clustering>
</event>
<event>
 9    1  0.1435532E-005  0.9721987E+02  0.7546771E-02  0.1291187E+00
          2   -1    0    0  502    0  0.00000000000E+00  0.00000000000E+00  0.55402240934E+03  0.55402240934E+03  0.00000000000E+00 0. -1.
         -2   -1    0    0    0  501 -0.00000000000E+00 -0.00000000000E+00 -0.56080215364E+02  0.56080215364E+02  0.00000000000E+00 0.  1.
         23    2    1    2    0    0 -0.33076294009E+01  0.65681321157E+01 -0.49655679202E+00  0.88776952262E+02  0.88470446549E+02 0.  0.
         23    2    1    2    0    0  0.14429091160E+02  0.33595831158E+02  0.41861462139E+03  0.43127722721E+03  0.97082268854E+02 0.  0.
        -11    1    4    4    0    0  0.34315870653E+01 -0.34410109791E+02  0.15491308719E+03  0.15872585180E+03  0.00000000000E+00 0.  1.
         11    1    4    4    0    0  0.10997504095E+02  0.68005940950E+02  0.26370153420E+03  0.27255137541E+03  0.00000000000E+00 0. -1.
        -13    1    3    3    0    0  0.21899016277E+02 -0.29560913019E+02 -0.18510290899E+02  0.41183071299E+02  0.00000000000E+00 0.  1.
         13    1    3    3    0    0 -0.25206645678E+02  0.36129045135E+02  0.18013734107E+02  0.47593880964E+02  0.00000000000E+00 0. -1.
         21    1    1    2  502  501 -0.11121461759E+02 -0.40163963274E+02  0.79824129377E+02  0.90048445230E+02  0.00000000000E+00 0. -1.
<scales pt_clust_5="13000.00000" pt_clust_6="13000.00000" pt_clust_7="13000.00000" pt_clust_8="13000.00000" pt_clust_9="41.67530"></scales>
<clustering>
<clus scale="   41.675">  1  9  2 -1</clus>
<clus scale="   88.470">  7  8 -1 -1</clus>
<clus scale="   88.621">  2  7  1 -1</clus>
<clus scale="   97.082">  5  6 -1 -1</clus>
<clus scale="   41.675">  1  5  2 -1</clus>
</clustering>
</event>
<event>
 9    1  0.1435532E-005  0.1597884E+03  0.7546771E-02  0.1189533E+00
          2   -1    0    0  502    0  0.00000000000E+00  0.00000000000E+00  0.14810416944E+03  0.14810416944E+03  0.00000000000E+00 0. -1.
         -2   -1    0    0    0  501 -0.00000000000E+00 -0.00000000000E+00 -0.22480283637E+03  0.22480283637E+03  0.00000000000E+00 0.  1.
         23    2    1    2    0    0  0.73066376281E+02 -0.10408003350E+03 -0.10105211039E+03  0.18769256064E+03  0.94051154117E+02 0.  0.
         23    2    1    2    0    0 -0.60573240745E+02  0.12020178719E+03  0.27801283691E+02  0.16452925771E+03  0.90439914474E+02 0.  0.
        -13    1    4    4    0    0 -0.48486940411E+02  0.78996466516E+01  0.10902244100E+02  0.50321434142E+02  0.00000000000E+00 0. -1.
         13    1    4    4    0    0 -0.12086300333E+02  0.11230214054E+03  0.16899039591E+02  0.11420782357E+03  0.00000000000E+00 0.  1.
        -13    1    3    3    0    0  0.47786116696E+02 -0.38568085414E+02 -0.10013636577E+03  0.11746617348E+03  0.00000000000E+00 0.  1.
         13    1    3    3    0    0  0.25280259585E+02 -0.65511948082E+02 -0.91574461846E+00  0.70226387166E+02  0.00000000000E+00 0. -1.
         21    1    1    2  502  501 -0.12493135536E+02 -0.16121753695E+02 -0.34478402376E+01  0.20685187454E+02  0.00000000000E+00 0.  1.
<scales pt_clust_5="13000.00000" pt_clust_6="13000.00000" pt_clust_7="13000.00000" pt_clust_8="13000.00000" pt_clust_9="20.39582"></scales>
<clustering>
<clus scale="   20.396">  1  9  2 -1</clus>
<clus scale="   90.440">  5  6 -1 -1</clus>
<clus scale="   94.051">  7  8 -1 -1</clus>
<clus scale="  157.690">  1  5  2 -1</clus>
<clus scale="   20.396">  1  5  2 -1</clus>
</clustering>
</event>
<event>
 9    1  0.1435532E-005  0.1010955E+03  0.7546771E-02  0.1281207E+00
         -3   -1    0    0    0  501 -0.00000000000E+00  0.00000000000E+00  0.13244762727E+03  0.13244762727E+03  0.00000000000E+00 0.  1.
          3   -1    0    0  502    0  0.00000000000E+00 -0.00000000000E+00 -0.11931810486E+03  0.11931810486E+03  0.00000000000E+00 0. -1.
         23    2    1    2    0    0  0.91256586368E+01  0.22277511907E+02  0.64658613188E+02  0.11880084110E+03  0.96712658960E+02 0.  0.
         23    2    1    2    0    0 -0.10037987779E+02 -0.42340942043E+02 -0.33056604591E+02  0.10567741554E+03  0.90451426055E+02 0.  0.
        -11    1    3    3    0    0  0.42907543825E+01 -0.19599828271E+02 -0.17393157341E+02  0.26553451070E+02  0.00000000000E+00 0. -1.
         11    1    3    3    0    0  0.48349042543E+01  0.41877340178E+02  0.82051770529E+02  0.92247390025E+02  0.00000000000E+00 0.  1.
        -13    1    4    4    0    0  0.32454977724E+02 -0.10841033078E+02 -0.39649421944E+02  0.52372991491E+02  0.00000000000E+00 0. -1.
         13    1    4    4    0    0 -0.42492965503E+02 -0.31499908965E+02  0.65928173528E+01  0.53304424044E+02  0.00000000000E+00 0.  1.
         21    1    1    2  502  501  0.91232914230E+00  0.20063430136E+02 -0.18472486191E+02  0.27287475503E+02  0.00000000000E+00 0. -1.
<scales pt_clust_5="13000.00000" pt_clust_6="13000.00000" pt_clust_7="13000.00000" pt_clust_8="13000.00000" pt_clust_9="20.08416"></scales>
<clustering>
<clus scale="   20.084">  2  9  1 -1</clus>
<clus scale="   90.451">  7  8 -1 -1</clus>
<clus scale="   95.123">  2  7  1 -1</clus>
<clus scale="   96.713">  5  6 -1 -1</clus>
<clus scale="   20.084">  2  5  1 -1</clus>
</clustering>
</event>
<event>
 9    1  0.1435532E-005  0.1134345E+03  0.7546771E-02  0.1256002E+00
          1   -1    0    0  502    0  0.00000000000E+00  0.00000000000E+00  0.14705676510E+03  0.14705676510E+03  0.00000000000E+00 0. -1.
         -1   -1    0    0    0  501 -0.00000000000E+00 -0.00000000000E+00 -0.11597338894E+03  0.11597338894E+03  0.00000000000E+00 0.  1.
         23    2    1    2    0    0 -0.40914030380E+02 -0.58440425116E+02 -0.19435044546E+02  0.11744700536E+03  0.91251503774E+02 0.  0.
         23    2    1    2    0    0  0.17939696915E+02  0.61456935648E+02  0.23999596969E+02  0.11036713888E+03  0.86637965265E+02 0.  0.
        -11    1    4    4    0    0  0.83145986871E+01 -0.21630063011E+02  0.11245849259E+02  0.25757742578E+02  0.00000000000E+00 0.  1.
         11    1    4    4    0    0  0.96250982283E+01  0.83086998659E+02  0.12753747711E+02  0.84609396303E+02  0.00000000000E+00 0. -1.
        -11    1    3    3    0    0  0.54297279965E+00 -0.69536110484E+02  0.18065605501E+01  0.69561693063E+02  0.00000000000E+00 0. -1.
         11    1    3    3    0    0 -0.41457003180E+02  0.11095685368E+02 -0.21241605096E+02  0.47885312294E+02  0.00000000000E+00 0.  1.
         21    1    1    2  502  501  0.22974333465E+02 -0.30165105319E+01  0.26518823743E+02  0.35216009806E+02  0.00000000000E+00 0.  1.
<scales pt_clust_5="13000.00000" pt_clust_6="13000.00000" pt_clust_7="13000.00000" pt_clust_8="13000.00000" pt_clust_9="23.17152"></scales>
<clustering>
<clus scale="   23.172">  1  9  2 -1</clus>
<clus scale="   86.638">  5  6 -1 -1</clus>
<clus scale="   91.252">  7  8 -1 -1</clus>
<clus scale="  109.757">  1  5  2 -1</clus>
<clus scale="   23.172">  1  5  2 -1</clus>
</clustering>
</event>
<event>
 9    1  0.2511594E-005  0.9239878E+02  0.7546771E-02  0.1297160E+00
         -1   -1    0    0    0  501 -0.00000000000E+00  0.00000000000E+00  0.12667782068E+03  0.12667782068E+03  0.00000000000E+00 0.  1.
          1   -1    0    0  502    0  0.00000000000E+00 -0.00000000000E+00 -0.44911858219E+03  0.44911858219E+03  0.00000000000E+00 0. -1.
         23    2    1    2    0    0 -0.52373376556E+01  0.62951434044E+01  0.92604610260E+02  0.13091501245E+03  0.92174118419E+02 0.  0.
         23    2    1    2    0    0 -0.49898863612E+02 -0.43964079644E+01 -0.28025682397E+03  0.29923950598E+03  0.92147542357E+02 0.  0.
        -11    1    3    3    0    0  0.25236993139E+02  0.18786369839E+02  0.92790851491E+02  0.97979465373E+02  0.00000000000E+00 0.  1.
         11    1    3    3    0    0 -0.30474330795E+02 -0.12491226435E+02 -0.18624123053E+00  0.32935547074E+02  0.00000000000E+00 0. -1.
        -13    1    4    4    0    0 -0.64135086471E+02 -0.29615356346E+02 -0.23603002516E+03  0.24637481897E+03  0.00000000000E+00 0. -1.
         13    1    4    4    0    0  0.14236222859E+02  0.25218948382E+02 -0.44226798811E+02  0.52864687002E+02  0.00000000000E+00 0.  1.
         21    1    1    2  502  501  0.55136201268E+02 -0.18987354400E+01 -0.13478854781E+03  0.14564188445E+03  0.00000000000E+00 0. -1.
<scales pt_clust_5="13000.00000" pt_clust_6="13000.00000" pt_clust_7="13000.00000" pt_clust_8="13000.00000" pt_clust_9="55.16889"></scales>
<clustering>
<clus scale="   55.169">  2  9  1 -1</clus>
<clus scale="   92.148">  7  8 -1 -1</clus>
<clus scale="   92.174">  5  6 -1 -1</clus>
<clus scale="   92.372">  2  7  1 -1</clus>
<clus scale="   55.169">  2  5  1 -1</clus>
</clustering>
</event>
<event>
 9    1  0.1435532E-005  0.2835461E+03  0.7546771E-02  0.1093913E+00
         -2   -1    0    0    0  501 -0.00000000000E+00  0.00000000000E+00  0.35209595597E+03  0.35209595597E+03  0.00000000000E+00 0.  1.
          2   -1    0    0  502    0  0.00000000000E+00 -0.00000000000E+00 -0.51062125843E+03  0.51062125843E+03  0.00000000000E+00 0. -1.
         23    2    1    2    0    0  0.87593602023E+01  0.29797058484E+03  0.15430418112E+03  0.34892694604E+03  0.95273488142E+02 0.  0.
         23    2    1    2    0    0 -0.12479454139E+03 -0.17103120074E+03 -0.21741945779E+03  0.31711580757E+03  0.92010138549E+02 0.  0.
        -11    1    3    3    0    0  0.27507672179E+02  0.26634862455E+03  0.15969712258E+03  0.31177144319E+03  0.00000000000E+00 0.  1.
         11    1    3    3    0    0 -0.18748311977E+02  0.31621960295E+02 -0.53929414625E+01  0.37155502857E+02  0.00000000000E+00 0. -1.
        -13    1    4    4    0    0 -0.20941820097E+02 -0.10080967633E+03 -0.12153684342E+03  0.15928702075E+03  0.00000000000E+00 0. -1.
         13    1    4    4    0    0 -0.10385272129E+03 -0.70221524417E+02 -0.95882614374E+02  0.15782878682E+03  0.00000000000E+00 0.  1.
         21    1    1    2  502  501  0.11603518119E+03 -0.12693938410E+03 -0.95410025784E+02  0.19667446079E+03  0.00000000000E+00 0. -1.
<scales pt_clust_5="13000.00000" pt_clust_6="13000.00000" pt_clust_7="13000.00000" pt_clust_8="13000.00000" pt_clust_9="171.98189"></scales>
<clustering>
<clus scale="   92.010">  7  8 -1 -1</clus>
<clus scale="   95.273">  5  6 -1 -1</clus>
<clus scale="  171.982">  2  9  1 -1</clus>
<clus scale="  282.466">  2  7  1 -1</clus>
<clus scale="  171.982">  2  5  1 -1</clus>
</clustering>
</event>
<event>
 9    1  0.1435532E-005  0.9516778E+02  0.7546771E-02  0.1290979E+00
         -1   -1    0    0    0  501 -0.00000000000E+00  0.00000000000E+00  0.20814209743E+03  0.20814209743E+03  0.00000000000E+00 0.  1.
          1   -1    0    0  502    0  0.00000000000E+00 -0.00000000000E+00 -0.23094069057E+03  0.23094069057E+03  0.00000000000E+00 0. -1.
         23    2    1    2    0    0  0.41987829340E+02  0.17575350236E+02  0.90148879059E+02  0.13532248509E+03  0.90074879001E+02 0.  0.
         23    2    1    2    0    0 -0.65636252189E+01  0.53086730522E+02  0.54681502019E+02  0.11842957990E+03  0.90411374275E+02 0.  0.
        -11    1    3    3    0    0  0.21795653442E+02 -0.12917092366E+01 -0.15073508555E+02  0.26531673182E+02  0.00000000000E+00 0. -1.
         11    1    3    3    0    0  0.20192175899E+02  0.18867059472E+02  0.10522238761E+03  0.10879081191E+03  0.00000000000E+00 0.  1.
        -13    1    4    4    0    0  0.28144588494E+02  0.61118636897E+02  0.24082945079E+02  0.71467432312E+02  0.00000000000E+00 0.  1.
         13    1    4    4    0    0 -0.34708213713E+02 -0.80319063747E+01  0.30598556939E+02  0.46962147586E+02  0.00000000000E+00 0. -1.
         21    1    1    2  502  501 -0.35424204122E+02 -0.70662080758E+02 -0.16762897421E+03  0.18533072301E+03  0.00000000000E+00 0. -1.
<scales pt_clust_5="13000.00000" pt_clust_6="13000.00000" pt_clust_7="13000.00000" pt_clust_8="13000.00000" pt_clust_9="79.04432"></scales>
<clustering>
<clus scale="   79.044">  2  9  1 -1</clus>
<clus scale="   90.075">  5  6 -1 -1</clus>
<clus scale="   90.411">  7  8 -1 -1</clus>
<clus scale="   94.848">  1  5  2 -1</clus>
<clus scale="   79.044">  2  5  1 -1</clus>
</clustering>
</event>
<event>
 9    1  0.1435532E-005  0.2841303E+03  0.7546771E-02  0.1093498E+00
         -1   -1    0    0    0  501 -0.00000000000E+00  0.00000000000E+00  0.71465041910E+02  0.71465041910E+02  0.00000000000E+00 0.  1.
          1   -1    0    0  502    0  0.00000000000E+00 -0.00000000000E+00 -0.17781371463E+04  0.17781371463E+04  0.00000000000E+00 0. -1.
         23    2    1    2    0    0 -0.19410594281E+03  0.14281637763E+03 -0.54935833065E+03  0.60661290064E+03  0.90061095985E+02 0.  0.
         23    2    1    2    0    0  0.23456344439E+03 -0.16753758788E+03 -0.11567244903E+04  0.11955730991E+04  0.91074892563E+02 0.  0.
        -13    1    4    4    0    0  0.36892638099E+02  0.82026034287E+01 -0.14734478813E+03  0.15211454907E+03  0.00000000000E+00 0.  1.
         13    1    4    4    0    0  0.19767080629E+03 -0.17574019131E+03 -0.10093797022E+04  0.10434585500E+04  0.00000000000E+00 0. -1.
        -13    1    3    3    0    0 -0.66328225707E+02  0.10000419921E+03 -0.30121626723E+03  0.32423990043E+03  0.00000000000E+00 0.  1.
         13    1    3    3    0    0 -0.12777771710E+03  0.42812178427E+02 -0.24814206342E+03  0.28237300021E+03  0.00000000000E+00 0. -1.
         21    1    1    2  502  501 -0.40457501580E+02  0.24721210249E+02 -0.58928340610E+00  0.47416188430E+02  0.00000000000E+00 0.  1.
<scales pt_clust_5="13000.00000" pt_clust_6="13000.00000" pt_clust_7="13000.00000" pt_clust_8="13000.00000" pt_clust_9="47.41253"></scales>
<clustering>
<clus scale="   47.413">  1  9  2 -1</clus>
<clus scale="   90.061">  7  8 -1 -1</clus>
<clus scale="   91.075">  5  6 -1 -1</clus>
<clus scale="  283.807">  1  7  2 -1</clus>
<clus scale="  284.130">  2  5  1 -1</clus>
</clustering>
</event>
<event>
 9    1  0.1435532E-005  0.1019564E+03  0.7546771E-02  0.1276711E+00
         -1   -1    0    0    0  501 -0.00000000000E+00  0.00000000000E+00  0.83121257283E+02  0.83121257283E+02  0.00000000000E+00 0.  1.
          1   -1    0    0  502    0  0.00000000000E+00 -0.00000000000E+00 -0.25094494662E+03  0.25094494662E+03  0.00000000000E+00 0. -1.
         23    2    1    2    0    0 -0.41754722107E+02  0.88650137641E+01  0.13726703583E+02  0.10173008181E+03  0.91315616770E+02 0.  0.
         23    2    1    2    0    0  0.36679040396E+02 -0.32914752345E+02 -0.91601489289E+02  0.13908936486E+03  0.92337888489E+02 0.  0.
        -11    1    4    4    0    0  0.31018731443E+02  0.18857119413E+02 -0.76799207630E+02  0.84946282705E+02  0.00000000000E+00 0. -1.
         11    1    4    4    0    0  0.56603089535E+01 -0.51771871758E+02 -0.14802281660E+02  0.54143082154E+02  0.00000000000E+00 0.  1.
        -11    1    3    3    0    0  0.10571502231E+02 -0.30799280330E+02  0.15460226371E+02  0.36046788036E+02  0.00000000000E+00 0. -1.
         11    1    3    3    0    0 -0.52326224338E+02  0.39664294094E+02 -0.17335227886E+01  0.65683293772E+02  0.00000000000E+00 0.  1.
         21    1    1    2  502  501  0.50756817103E+01  0.24049738581E+02 -0.89948903633E+02  0.93246757238E+02  0.00000000000E+00 0. -1.
<scales pt_clust_5="13000.00000" pt_clust_6="13000.00000" pt_clust_7="13000.00000" pt_clust_8="13000.00000" pt_clust_9="24.57951"></scales>
<clustering>
<clus scale="   24.580">  2  9  1 -1</clus>
<clus scale="   91.316">  7  8 -1 -1</clus>
<clus scale="   92.338">  5  6 -1 -1</clus>
<clus scale="  101.031">  1  7  2 -1</clus>
<clus scale="   24.580">  2  5  1 -1</clus>
</clustering>
</event>
<event>
 9    1  0.1435532E-005  0.1455867E+03  0.7546771E-02  0.1206129E+00
         -2   -1    0    0    0  501 -0.00000000000E+00  0.00000000000E+00  0.28885194415E+03  0.28885194415E+03  0.00000000000E+00 0.  1.
          2   -1    0    0  502    0  0.00000000000E+00 -0.00000000000E+00 -0.89553388358E+02  0.89553388358E+02  0.00000000000E+00 0. -1.
         23    2    1    2    0    0  0.17056430815E+02  0.10211402351E+03  0.92801692112E+02  0.16605476009E+03  0.90795559694E+02 0.  0.
         23    2    1    2    0    0 -0.20864554758E+01 -0.12589745513E+03  0.90887827043E+02  0.18020412929E+03  0.91424332664E+02 0.  0.
        -11    1    3    3    0    0 -0.17203091519E+01  0.11359924116E+03  0.66067899211E+02  0.13142569901E+03  0.00000000000E+00 0.  1.
         11    1    3    3    0    0  0.18776739967E+02 -0.11485217646E+02  0.26733792902E+02  0.34629061077E+02  0.00000000000E+00 0. -1.
        -13    1    4    4    0    0 -0.30176937907E+02 -0.51576097961E+02  0.80232660045E+02  0.10004009796E+03  0.00000000000E+00 0.  1.
         13    1    4    4    0    0  0.28090482432E+02 -0.74321357167E+02  0.10655166997E+02  0.80164031324E+02  0.00000000000E+00 0. -1.
         21    1    1    2  502  501 -0.14969975339E+02  0.23783431616E+02  0.15609036632E+02  0.32146443126E+02  0.00000000000E+00 0.  1.
<scales pt_clust_5="13000.00000" pt_clust_6="13000.00000" pt_clust_7="13000.00000" pt_clust_8="13000.00000" pt_clust_9="28.10252"></scales>
<clustering>
<clus scale="   28.103">  2  9  1 -1</clus>
<clus scale="   90.796">  5  6 -1 -1</clus>
<clus scale="   91.424">  7  8 -1 -1</clus>
<clus scale="  145.193">  1  5  2 -1</clus>
<clus scale="   28.103">  2  5  1 -1</clus>
</clustering>
</event>
<event>
 9    1  0.1435532E-005  0.1384405E+03  0.7546771E-02  0.1215671E+00
          1   -1    0    0  502    0  0.00000000000E+00  0.00000000000E+00  0.12903783721E+03  0.12903783721E+03  0.00000000000E+00 0. -1.
         -1   -1    0    0    0  501 -0.00000000000E+00 -0.00000000000E+00 -0.28714552632E+03  0.28714552632E+03  0.00000000000E+00 0.  1.
         23    2    1    2    0    0  0.11625863341E+03 -0.29497847215E+02 -0.18460412973E+03  0.23860204571E+03  0.92011187752E+02 0.  0.
         23    2    1    2    0    0 -0.53224523251E+02  0.25432128109E+02  0.34742225520E+02  0.11388028105E+03  0.91005786427E+02 0.  0.
        -13    1    3    3    0    0  0.74570356274E+02 -0.62386925645E+02 -0.13113377370E+03  0.16324500951E+03  0.00000000000E+00 0. -1.
         13    1    3    3    0    0  0.41688277139E+02  0.32889078430E+02 -0.53470356033E+02  0.75357036201E+02  0.00000000000E+00 0.  1.
        -13    1    4    4    0    0 -0.11778297948E+02 -0.20430044697E+02  0.45393994935E+02  0.51153981322E+02  0.00000000000E+00 0.  1.
         13    1    4    4    0    0 -0.41446225303E+02  0.45862172806E+02 -0.10651769415E+02  0.62726299732E+02  0.00000000000E+00 0. -1.
         21    1    1    2  502  501 -0.63034110162E+02  0.40657191066E+01 -0.82457849033E+01  0.63701036761E+02  0.00000000000E+00 0. -1.
<scales pt_clust_5="13000.00000" pt_clust_6="13000.00000" pt_clust_7="13000.00000" pt_clust_8="13000.00000" pt_clust_9="63.16509"></scales>
<clustering>
<clus scale="   63.165">  1  9  2 -1</clus>
<clus scale="   91.006">  7  8 -1 -1</clus>
<clus scale="   92.011">  5  6 -1 -1</clus>
<clus scale="  137.774">  1  7  2 -1</clus>
<clus scale="   63.165">  1  5  2 -1</clus>
</clustering>
</event>
<event>
 9    1  0.1435532E-005  0.9328328E+02  0.7546771E-02  0.1296777E+00
          1   -1    0    0  502    0  0.00000000000E+00  0.00000000000E+00  0.16569914619E+03  0.16569914619E+03  0.00000000000E+00 0. -1.
         -1   -1    0    0    0  501 -0.00000000000E+00 -0.00000000000E+00 -0.11621907446E+03  0.11621907446E+03  0.00000000000E+00 0.  1.
         23    2    1    2    0    0 -0.13507636244E+02 -0.38305280815E+02 -0.37130687913E+02  0.10510499825E+03  0.89546758161E+02 0.  0.
         23    2    1    2    0    0  0.23412538488E+02 -0.22524840846E+02  0.54600210625E+02  0.10736478081E+03  0.86547661692E+02 0.  0.
        -11    1    4    4    0    0  0.32800798438E+02 -0.42696613772E+02  0.63630069417E+02  0.83352738046E+02  0.00000000000E+00 0. -1.
         11    1    4    4    0    0 -0.93882599495E+01  0.20171772926E+02 -0.90298587924E+01  0.24012042763E+02  0.00000000000E+00 0.  1.
        -13    1    3    3    0    0 -0.34017368625E+02  0.10528621523E+02 -0.38073162430E+02  0.52130595016E+02  0.00000000000E+00 0.  1.
         13    1    3    3    0    0  0.20509732381E+02 -0.48833902338E+02  0.94247451710E+00  0.52974403235E+02  0.00000000000E+00 0. -1.
         21    1    1    2  502  501 -0.99049022443E+01  0.60830121661E+02  0.32010549018E+02  0.69448441582E+02  0.00000000000E+00 0. -1.
<scales pt_clust_5="13000.00000" pt_clust_6="13000.00000" pt_clust_7="13000.00000" pt_clust_8="13000.00000" pt_clust_9="61.63125"></scales>
<clustering>
<clus scale="   61.631">  1  9  2 -1</clus>
<clus scale="   86.548">  5  6 -1 -1</clus>
<clus scale="   89.547">  7  8 -1 -1</clus>
<clus scale="   90.408">  1  5  2 -1</clus>
<clus scale="   61.631">  1  5  2 -1</clus>
</clustering>
</event>
<event>
 9    1  0.1435532E-005  0.9719890E+02  0.7546771E-02  0.1286399E+00
          2   -1    0    0  502    0  0.00000000000E+00  0.00000000000E+00  0.14895946325E+03  0.14895946325E+03  0.00000000000E+00 0. -1.
         -2   -1    0    0    0  501 -0.00000000000E+00 -0.00000000000E+00 -0.10251170599E+03  0.10251170599E+03  0.00000000000E+00 0.  1.
         23    2    1    2    0    0  0.16801118063E+01  0.14002224071E+02  0.28092470293E+00  0.92043907935E+02  0.90956676581E+02 0.  0.
         23    2    1    2    0    0 -0.46120198654E+02 -0.26506641646E+02  0.39945683349E+02  0.11284416914E+03  0.91150831672E+02 0.  0.
        -11    1    4    4    0    0 -0.33550043207E+02 -0.48179962520E+02  0.57558162950E+02  0.82218345336E+02  0.00000000000E+00 0. -1.
         11    1    4    4    0    0 -0.12570155447E+02  0.21673320874E+02 -0.17612479601E+02  0.30625823799E+02  0.00000000000E+00 0.  1.
        -13    1    3    3    0    0  0.30016483011E+02 -0.27563927266E+02 -0.65527221549E+01  0.41275870752E+02  0.00000000000E+00 0. -1.
         13    1    3    3    0    0 -0.28336371205E+02  0.41566151337E+02  0.68336468579E+01  0.50768037183E+02  0.00000000000E+00 0.  1.
         21    1    1    2  502  501  0.44440086847E+02  0.12504417575E+02  0.62211492060E+01  0.46583092162E+02  0.00000000000E+00 0.  1.
<scales pt_clust_5="13000.00000" pt_clust_6="13000.00000" pt_clust_7="13000.00000" pt_clust_8="13000.00000" pt_clust_9="46.16581"></scales>
<clustering>
<clus scale="   46.166">  2  9  1 -1</clus>
<clus scale="   90.957">  7  8 -1 -1</clus>
<clus scale="   91.151">  5  6 -1 -1</clus>
<clus scale="   97.017">  2  7  1 -1</clus>
<clus scale="   97.199">  1  5  2 -1</clus>
</clustering>
</event>
<event>
 9    1  0.1435532E-005  0.2118515E+03  0.7546771E-02  0.1140767E+00
         -2   -1    0    0    0  501 -0.00000000000E+00  0.00000000000E+00  0.40601088938E+03  0.40601088938E+03  0.00000000000E+00 0.  1.
          2   -1    0    0  502    0  0.00000000000E+00 -0.00000000000E+00 -0.29910905458E+03  0.29910905458E+03  0.00000000000E+00 0. -1.
         23    2    1    2    0    0 -0.16176160376E+03 -0.13006012268E+03  0.27011097798E+03  0.35055698255E+03  0.82751469022E+02 0.  0.
         23    2    1    2    0    0  0.73211900005E+02  0.14322837098E+03 -0.20179268546E+02  0.18582648688E+03  0.90829135145E+02 0.  0.
        -11    1    3    3    0    0 -0.34134201998E+02 -0.17858424400E+02  0.99068199326E+01  0.39777030423E+02  0.00000000000E+00 0. -1.
         11    1    3    3    0    0 -0.12762740176E+03 -0.11220169828E+03  0.26020415805E+03  0.31077995212E+03  0.00000000000E+00 0.  1.
        -11    1    4    4    0    0  0.42328726548E+02  0.13900509307E+02 -0.28019900883E+02  0.52631360382E+02  0.00000000000E+00 0. -1.
         11    1    4    4    0    0  0.30883173457E+02  0.12932786167E+03  0.78406323371E+01  0.13319512649E+03  0.00000000000E+00 0.  1.
         21    1    1    2  502  501  0.88549703753E+02 -0.13168248300E+02 -0.14302987464E+03  0.16873647453E+03  0.00000000000E+00 0. -1.
<scales pt_clust_5="13000.00000" pt_clust_6="13000.00000" pt_clust_7="13000.00000" pt_clust_8="13000.00000" pt_clust_9="89.52348"></scales>
<clustering>
<clus scale="   82.751">  5  6 -1 -1</clus>
<clus scale="   89.523">  2  9  1 -1</clus>
<clus scale="   90.829">  7  8 -1 -1</clus>
<clus scale="  208.516">  1  5  2 -1</clus>
<clus scale="   89.523">  2  5  1 -1</clus>
</clustering>
</event>
<event>
 9    1  0.1435532E-005  0.1080235E+03  0.7546771E-02  0.1270305E+00
         -3   -1    0    0    0  501 -0.00000000000E+00  0.00000000000E+00  0.19007099995E+03  0.19007099995E+03  0.00000000000E+00 0.  1.
          3   -1    0    0  502    0  0.00000000000E+00 -0.00000000000E+00 -0.95433291107E+02  0.95433291107E+02  0.00000000000E+00 0. -1.
         23    2    1    2    0    0  0.37309789614E+02  0.17044074677E+01  0.70089828061E+02  0.12970942257E+03  0.10255254701E+03 0.  0.
         23    2    1    2    0    0 -0.20550832402E+02 -0.33792453832E+02  0.51286894930E+02  0.11078953276E+03  0.89887197801E+02 0.  0.
        -11    1    4    4    0    0 -0.42620710678E+02 -0.38911534988E+02  0.62871984199E+02  0.85343534793E+02  0.00000000000E+00 0.  1.
         11    1    4    4    0    0  0.22069878277E+02  0.51190811559E+01 -0.11585089269E+02  0.25445997964E+02  0.00000000000E+00 0. -1.
        -11    1    3    3    0    0  0.51965296358E+02  0.33375532750E+02  0.13490552357E+02  0.63216399888E+02  0.00000000000E+00 0.  1.
         11    1    3    3    0    0 -0.14655506744E+02 -0.31671125282E+02  0.56599275704E+02  0.66493022677E+02  0.00000000000E+00 0. -1.
         21    1    1    2  502  501 -0.16758957212E+02  0.32088046364E+02 -0.26739014154E+02  0.45005335730E+02  0.00000000000E+00 0. -1.
<scales pt_clust_5="13000.00000" pt_clust_6="13000.00000" pt_clust_7="13000.00000" pt_clust_8="13000.00000" pt_clust_9="36.20090"></scales>
<clustering>
<clus scale="   36.201">  2  9  1 -1</clus>
<clus scale="   89.887">  5  6 -1 -1</clus>
<clus scale="   96.082">  2  5  1 -1</clus>
<clus scale="  102.553">  7  8 -1 -1</clus>
<clus scale="   36.201">  2  5  1 -1</clus>
</clustering>
</event>
<event>
 9    1  0.1435532E-005  0.9861342E+02  0.7546771E-02  0.1284372E+00
          2   -1    0    0  502    0  0.00000000000E+00  0.00000000000E+00  0.21945719203E+03  0.21945719203E+03  0.00000000000E+00 0. -1.
         -2   -1    0    0    0  501 -0.00000000000E+00 -0.00000000000E+00 -0.16602477192E+03  0.16602477192E+03  0.00000000000E+00 0.  1.
         23    2    1    2    0    0 -0.24777073493E+02 -0.32860994881E+02 -0.87896894400E+02  0.13225381407E+03  0.89841298607E+02 0.  0.
         23    2    1    2    0    0 -0.63137616569E+02  0.34400755716E+02  0.10828601432E+03  0.15929613575E+03  0.92084892072E+02 0.  0.
        -11    1    3    3    0    0  0.31924023868E+02 -0.22097813274E+02 -0.21881338703E+02  0.44567360645E+02  0.00000000000E+00 0.  1.
         11    1    3    3    0    0 -0.56701097361E+02 -0.10763181606E+02 -0.66015555696E+02  0.87686453424E+02  0.00000000000E+00 0. -1.
        -13    1    4    4    0    0  0.19878727526E+02  0.15045499337E+02  0.50482880419E+02  0.56303215483E+02  0.00000000000E+00 0.  1.
         13    1    4    4    0    0 -0.83016344095E+02  0.19355256380E+02  0.57803133898E+02  0.10299292027E+03  0.00000000000E+00 0. -1.
         21    1    1    2  502  501  0.87914690061E+02 -0.15397608359E+01  0.33043300195E+02  0.93932014137E+02  0.00000000000E+00 0.  1.
<scales pt_clust_5="13000.00000" pt_clust_6="13000.00000" pt_clust_7="13000.00000" pt_clust_8="13000.00000" pt_clust_9="87.92817"></scales>
<clustering>
<clus scale="   87.928">  1  9  2 -1</clus>
<clus scale="   89.841">  5  6 -1 -1</clus>
<clus scale="   92.085">  7  8 -1 -1</clus>
<clus scale="   96.522">  2  5  1 -1</clus>
<clus scale="   87.928">  1  5  2 -1</clus>
</clustering>
</event>
<event>
 9    1  0.1435532E-005  0.1219850E+03  0.7546771E-02  0.1241203E+00
         -3   -1    0    0    0  501 -0.00000000000E+00  0.00000000000E+00  0.26618084188E+03  0.26618084188E+03  0.00000000000E+00 0.  1.
          3   -1    0    0  502    0  0.00000000000E+00 -0.00000000000E+00 -0.97145696055E+02  0.97145696055E+02  0.00000000000E+00 0. -1.
         23    2    1    2    0    0 -0.47973533038E+02 -0.77863620813E+02  0.15670675749E+03  0.20190130887E+03  0.88560303532E+02 0.  0.
         23    2    1    2    0    0  0.46592026418E+01  0.51683266442E+02 -0.83469480233E+01  0.10675337428E+03  0.92917937875E+02 0.  0.
        -11    1    4    4    0    0  0.41159355499E+02  0.15746139010E+01 -0.16208497159E+02  0.44263837770E+02  0.00000000000E+00 0.  1.
         11    1    4    4    0    0 -0.36500152857E+02  0.50108652541E+02  0.78615491361E+01  0.62489536507E+02  0.00000000000E+00 0. -1.
        -11    1    3    3    0    0 -0.51607877269E+02 -0.92239737896E+01  0.38068081520E+02  0.64789146617E+02  0.00000000000E+00 0. -1.
         11    1    3    3    0    0  0.36343442315E+01 -0.68639647024E+02  0.11863867597E+03  0.13711216225E+03  0.00000000000E+00 0.  1.
         21    1    1    2  502  501  0.43314330396E+02  0.26180354372E+02  0.20675336358E+02  0.54671854790E+02  0.00000000000E+00 0. -1.
<scales pt_clust_5="13000.00000" pt_clust_6="13000.00000" pt_clust_7="13000.00000" pt_clust_8="13000.00000" pt_clust_9="50.61168"></scales>
<clustering>
<clus scale="   50.612">  2  9  1 -1</clus>
<clus scale="   88.560">  7  8 -1 -1</clus>
<clus scale="   92.918">  5  6 -1 -1</clus>
<clus scale="  118.699">  1  7  2 -1</clus>
<clus scale="   50.612">  2  5  1 -1</clus>
</clustering>
</event>
<event>
 9    1  0.1435532E-005  0.1089596E+03  0.7546771E-02  0.1263293E+00
         -1   -1    0    0    0  501 -0.00000000000E+00  0.00000000000E+00  0.51206526463E+02  0.51206526463E+02  0.00000000000E+00 0.  1.
          1   -1    0    0  502    0  0.00000000000E+00 -0.00000000000E+00 -0.32015665360E+03  0.32015665360E+03  0.00000000000E+00 0. -1.
         23    2    1    2    0    0 -0.47772306333E+02  0.11683664862E+02 -0.52992606418E+02  0.11430841355E+03  0.88540927241E+02 0.  0.
         23    2    1    2    0    0  0.66748759029E+02  0.16613012974E+01 -0.19795500956E+03  0.22769008898E+03  0.90545204482E+02 0.  0.
        -11    1    4    4    0    0 -0.21590344230E+02  0.44519978410E+01 -0.59262191528E+02  0.63229507300E+02  0.00000000000E+00 0.  1.
         11    1    4    4    0    0  0.88339103259E+02 -0.27906965435E+01 -0.13869281803E+03  0.16446058168E+03  0.00000000000E+00 0. -1.
        -13    1    3    3    0    0 -0.31216845023E+02  0.31410672737E+02  0.10740755873E+02  0.45568471685E+02  0.00000000000E+00 0.  1.
         13    1    3    3    0    0 -0.16555461310E+02 -0.19727007876E+02 -0.63733362291E+02  0.68739941866E+02  0.00000000000E+00 0. -1.
         21    1    1    2  502  501 -0.18976452696E+02 -0.13344966159E+02 -0.18002511161E+02  0.29364677537E+02  0.00000000000E+00 0. -1.
<scales pt_clust_5="13000.00000" pt_clust_6="13000.00000" pt_clust_7="13000.00000" pt_clust_8="13000.00000" pt_clust_9="23.19901"></scales>
<clustering>
<clus scale="   23.199">  1  9  2 -1</clus>
<clus scale="   88.541">  7  8 -1 -1</clus>
<clus scale="   90.545">  5  6 -1 -1</clus>
<clus scale="  107.300">  1  7  2 -1</clus>
<clus scale="  108.960">  2  5  1 -1</clus>
</clustering>
</event>
<event>
 9    1  0.1435532E-005  0.1057478E+03  0.7546771E-02  0.1274100E+00
          2   -1    0    0  502    0  0.00000000000E+00  0.00000000000E+00  0.65865992747E+03  0.65865992747E+03  0.00000000000E+00 0. -1.
         -2   -1    0    0    0  501 -0.00000000000E+00 -0.00000000000E+00 -0.11517700945E+03  0.11517700945E+03  0.00000000000E+00 0.  1.
         23    2    1    2    0    0 -0.10920563987E+02  0.28747377897E+02 -0.26611050493E+02  0.10997251704E+03  0.10217698391E+03 0.  0.
         23    2    1    2    0    0  0.51487652399E+02  0.29910778958E+02  0.21975289425E+02  0.11112528213E+03  0.91215579462E+02 0.  0.
        -11    1    3    3    0    0  0.16903856189E+02  0.18618188757E+02  0.34132644708E+02  0.42395928359E+02  0.00000000000E+00 0. -1.
         11    1    3    3    0    0 -0.27824420176E+02  0.10129189140E+02 -0.60743695200E+02  0.67576588678E+02  0.00000000000E+00 0.  1.
        -13    1    4    4    0    0  0.77035502183E+02  0.31604462478E+02  0.18369638371E+02  0.85268717939E+02  0.00000000000E+00 0.  1.
         13    1    4    4    0    0 -0.25547849784E+02 -0.16936835193E+01  0.36056510542E+01  0.25856564195E+02  0.00000000000E+00 0. -1.
         21    1    1    2  502  501 -0.40567088412E+02 -0.58658156856E+02  0.54811867909E+03  0.55273913775E+03  0.00000000000E+00 0. -1.
<scales pt_clust_5="13000.00000" pt_clust_6="13000.00000" pt_clust_7="13000.00000" pt_clust_8="13000.00000" pt_clust_9="71.31948"></scales>
<clustering>
<clus scale="   71.319">  1  9  2 -1</clus>
<clus scale="   91.216">  7  8 -1 -1</clus>
<clus scale="   95.198">  1  7  2 -1</clus>
<clus scale="  102.177">  5  6 -1 -1</clus>
<clus scale="   71.319">  1  5  2 -1</clus>
</clustering>
</event>
<event>
 9    1  0.1435532E-005  0.1568984E+03  0.7546771E-02  0.1192807E+00
          2   -1    0    0  502    0  0.00000000000E+00  0.00000000000E+00  0.25658569169E+03  0.25658569169E+03  0.00000000000E+00 0. -1.
         -2   -1    0    0    0  501 -0.00000000000E+00 -0.00000000000E+00 -0.13890362915E+03  0.13890362915E+03  0.00000000000E+00 0.  1.
         23    2    1    2    0    0 -0.77853466653E+02  0.91235689191E+02 -0.26771524335E+02  0.15395077693E+03  0.92730868374E+02 0.  0.
         23    2    1    2    0    0  0.94518428580E+02 -0.10802313519E+03  0.11896001218E+03  0.20676122875E+03  0.89420300481E+02 0.  0.
        -11    1    4    4    0    0  0.11013501098E+02 -0.79889315145E+02  0.63496627183E+02  0.10264220158E+03  0.00000000000E+00 0.  1.
         11    1    4    4    0    0  0.83504927482E+02 -0.28133820047E+02  0.55463385001E+02  0.10411902718E+03  0.00000000000E+00 0. -1.
        -13    1    3    3    0    0 -0.54796013075E+01  0.66173859668E+02  0.12983014903E+02  0.67657700299E+02  0.00000000000E+00 0. -1.
         13    1    3    3    0    0 -0.72373865345E+02  0.25061829524E+02 -0.39754539238E+02  0.86293076629E+02  0.00000000000E+00 0.  1.
         21    1    1    2  502  501 -0.16664961927E+02  0.16787446001E+02  0.25493574697E+02  0.34777315165E+02  0.00000000000E+00 0.  1.
<scales pt_clust_5="13000.00000" pt_clust_6="13000.00000" pt_clust_7="13000.00000" pt_clust_8="13000.00000" pt_clust_9="23.65458"></scales>
<clustering>
<clus scale="   23.655">  1  9  2 -1</clus>
<clus scale="   89.420">  5  6 -1 -1</clus>
<clus scale="   92.731">  7  8 -1 -1</clus>
<clus scale="  154.965">  1  5  2 -1</clus>
<clus scale="   23.655">  1  5  2 -1</clus>
</clustering>
</event>
<event>
 9    1  0.1435532E-005  0.9978259E+02  0.7546771E-02  0.1281133E+00
         -1   -1    0    0    0  501 -0.00000000000E+00  0.00000000000E+00  0.90561946498E+02  0.90561946498E+02  0.00000000000E+00 0.  1.
          1   -1    0    0  502    0  0.00000000000E+00 -0.00000000000E+00 -0.18381856228E+03  0.18381856228E+03  0.00000000000E+00 0. -1.
         23    2    1    2    0    0  0.43765931647E+02 -0.39879391767E+01  0.27126164704E+02  0.10404210557E+03  0.90319269748E+02 0.  0.
         23    2    1    2    0    0 -0.30834178331E+02 -0.14449720788E+02 -0.10464531661E+03  0.14286395475E+03  0.91103931281E+02 0.  0.
        -11    1    3    3    0    0  0.29172287907E+02 -0.46811461894E+02  0.16440647477E+02  0.57555453572E+02  0.00000000000E+00 0.  1.
         11    1    3    3    0    0  0.14593643740E+02  0.42823522717E+02  0.10685517227E+02  0.46486651997E+02  0.00000000000E+00 0. -1.
        -13    1    4    4    0    0 -0.47490267803E+02 -0.42744399620E+02 -0.76017273722E+02  0.99302744872E+02  0.00000000000E+00 0.  1.
         13    1    4    4    0    0  0.16656089472E+02  0.28294678832E+02 -0.28628042889E+02  0.43561209882E+02  0.00000000000E+00 0. -1.
         21    1    1    2  502  501 -0.12931753316E+02  0.18437659965E+02 -0.15737463875E+02  0.27474448457E+02  0.00000000000E+00 0. -1.
<scales pt_clust_5="13000.00000" pt_clust_6="13000.00000" pt_clust_7="13000.00000" pt_clust_8="13000.00000" pt_clust_9="22.52060"></scales>
<clustering>
<clus scale="   22.521">  2  9  1 -1</clus>
<clus scale="   90.319">  5  6 -1 -1</clus>
<clus scale="   91.104">  7  8 -1 -1</clus>
<clus scale="   99.067">  1  5  2 -1</clus>
<clus scale="   22.521">  2  5  1 -1</clus>
</clustering>
</event>
<event>
 9    1  0.1435532E-005  0.1963639E+03  0.7546771E-02  0.1153193E+00
         -2   -1    0    0    0  501 -0.00000000000E+00  0.00000000000E+00  0.16991578133E+03  0.16991578133E+03  0.00000000000E+00 0.  1.
          2   -1    0    0  502    0  0.00000000000E+00 -0.00000000000E+00 -0.60837313200E+03  0.60837313200E+03  0.00000000000E+00 0. -1.
         23    2    1    2    0    0  0.14474641422E+03 -0.98726022991E+02  0.81201277626E+02  0.21330991727E+03  0.90604201182E+02 0.  0.
         23    2    1    2    0    0 -0.12214807071E+03  0.11631279972E+03 -0.47911262496E+03  0.51534072221E+03  0.87053627241E+02 0.  0.
        -11    1    4    4    0    0 -0.48664784341E+02  0.10463059521E+03 -0.29358006550E+03  0.31544425427E+03  0.00000000000E+00 0.  1.
         11    1    4    4    0    0 -0.73483286371E+02  0.11682204508E+02 -0.18553255946E+03  0.19989646795E+03  0.00000000000E+00 0. -1.
        -11    1    3    3    0    0  0.11733835185E+03 -0.52994435588E+02  0.17017192303E+02  0.12987025776E+03  0.00000000000E+00 0.  1.
         11    1    3    3    0    0  0.27408062368E+02 -0.45731587403E+02  0.64184085322E+02  0.83439659502E+02  0.00000000000E+00 0. -1.
         21    1    1    2  502  501 -0.22598343504E+02 -0.17586776726E+02 -0.40546003335E+02  0.49638273854E+02  0.00000000000E+00 0. -1.
<scales pt_clust_5="13000.00000" pt_clust_6="13000.00000" pt_clust_7="13000.00000" pt_clust_8="13000.00000" pt_clust_9="28.63529"></scales>
<clustering>
<clus scale="   28.635">  2  9  1 -1</clus>
<clus scale="   87.054">  5  6 -1 -1</clus>
<clus scale="   90.604">  7  8 -1 -1</clus>
<clus scale="  194.751">  2  5  1 -1</clus>
<clus scale="   28.635">  2  5  1 -1</clus>
</clustering>
</event>
<event>
 9    1  0.1435532E-005  0.1811701E+03  0.7546771E-02  0.1166976E+00
         -2   -1    0    0    0  501 -0.00000000000E+00  0.00000000000E+00  0.18343401630E+03  0.18343401630E+03  0.00000000000E+00 0.  1.
          2   -1    0    0  502    0  0.00000000000E+00 -0.00000000000E+00 -0.29981658974E+03  0.29981658974E+03  0.00000000000E+00 0. -1.
         23    2    1    2    0    0  0.75171382606E+02  0.13683245076E+03  0.10019467430E+02  0.18143792087E+03  0.91899254940E+02 0.  0.
         23    2    1    2    0    0 -0.93152771631E+02 -0.12621896062E+03 -0.71072753243E+01  0.18070439639E+03  0.89414208206E+02 0.  0.
        -11    1    4    4    0    0 -0.72115001996E+02 -0.13853917958E+03 -0.61527938954E+01  0.15630590092E+03  0.00000000000E+00 0.  1.
         11    1    4    4    0    0 -0.21037769635E+02  0.12320218954E+02 -0.95448142887E+00  0.24398495467E+02  0.00000000000E+00 0. -1.
        -13    1    3    3    0    0  0.21156686129E+01  0.54109006855E+02  0.39709268570E+02  0.67149733334E+02  0.00000000000E+00 0.  1.
         13    1    3    3    0    0  0.73055713993E+02  0.82723443903E+02 -0.29689801141E+02  0.11428818754E+03  0.00000000000E+00 0. -1.
         21    1    1    2  502  501  0.17981389025E+02 -0.10613490135E+02 -0.11929476555E+03  0.12110828878E+03  0.00000000000E+00 0.  1.
<scales pt_clust_5="13000.00000" pt_clust_6="13000.00000" pt_clust_7="13000.00000" pt_clust_8="13000.00000" pt_clust_9="20.88005"></scales>
<clustering>
<clus scale="   20.880">  2  9  1 -1</clus>
<clus scale="   89.414">  5  6 -1 -1</clus>
<clus scale="   91.899">  7  8 -1 -1</clus>
<clus scale="  179.922">  2  5  1 -1</clus>
<clus scale="   20.880">  2  5  1 -1</clus>
</clustering>
</event>
<event>
 9    1  0.1435532E-005  0.1061503E+03  0.7546771E-02  0.1269079E+00
         -2   -1    0    0    0  501 -0.00000000000E+00  0.00000000000E+00  0.10682251204E+03  0.10682251204E+03  0.00000000000E+00 0. -1.
          2   -1    0    0  502    0  0.00000000000E+00 -0.00000000000E+00 -0.32205939978E+03  0.32205939978E+03  0.00000000000E+00 0.  1.
         23    2    1    2    0    0  0.29000591833E+02 -0.34157271653E+02  0.43086705170E+02  0.11001364244E+03  0.90767746625E+02 0.  0.
         23    2    1    2    0    0 -0.27607822277E+02  0.66192922968E+02 -0.92162311299E+02  0.14964121992E+03  0.93567666273E+02 0.  0.
        -11    1    3    3    0    0  0.60893567787E+02 -0.32865074429E+02  0.27088561216E+02  0.74309688896E+02  0.00000000000E+00 0.  1.
         11    1    3    3    0    0 -0.31892975954E+02 -0.12921972240E+01  0.15998143953E+02  0.35703953546E+02  0.00000000000E+00 0. -1.
        -13    1    4    4    0    0 -0.44813577232E+02  0.78587698097E+02 -0.91132079962E+02  0.12841082117E+03  0.00000000000E+00 0. -1.
         13    1    4    4    0    0  0.17205754955E+02 -0.12394775129E+02 -0.10302313367E+01  0.21230398740E+02  0.00000000000E+00 0.  1.
         21    1    1    2  502  501 -0.13927695559E+01 -0.32035651315E+02 -0.16616128161E+03  0.16922704946E+03  0.00000000000E+00 0.  1.
<scales pt_clust_5="13000.00000" pt_clust_6="13000.00000" pt_clust_7="13000.00000" pt_clust_8="13000.00000" pt_clust_9="32.06591"></scales>
<clustering>
<clus scale="   32.066">  2  9  1 -1</clus>
<clus scale="   90.768">  5  6 -1 -1</clus>
<clus scale="   93.568">  7  8 -1 -1</clus>
<clus scale="  103.691">  1  5  2 -1</clus>
<clus scale="   32.066">  2  5  1 -1</clus>
</clustering>
</event>
<event>
 9    1  0.1729503E-005  0.1031546E+03  0.7546771E-02  0.1275571E+00
         -2   -1    0    0    0  501 -0.00000000000E+00  0.00000000000E+00  0.34772303111E+03  0.34772303111E+03  0.00000000000E+00 0.  1.
          2   -1    0    0  502    0  0.00000000000E+00 -0.00000000000E+00 -0.37961759151E+03  0.37961759151E+03  0.00000000000E+00 0. -1.
         23    2    1    2    0    0  0.21067371393E+02  0.44790907031E+02  0.32471675492E+03  0.34103053341E+03  0.91710382726E+02 0.  0.
         23    2    1    2    0    0 -0.81857062914E+01  0.79595952159E+00 -0.14713642223E+03  0.17154549593E+03  0.87812818468E+02 0.  0.
        -11    1    3    3    0    0  0.34430581391E+02  0.66902894203E+02  0.20045678325E+03  0.21411301721E+03  0.00000000000E+00 0.  1.
         11    1    3    3    0    0 -0.13363209997E+02 -0.22111987172E+02  0.12425997168E+03  0.12691751620E+03  0.00000000000E+00 0. -1.
        -13    1    4    4    0    0  0.20753745587E+01  0.41017877558E+02 -0.10334384399E+03  0.11120577120E+03  0.00000000000E+00 0.  1.
         13    1    4    4    0    0 -0.10261080850E+02 -0.40221918036E+02 -0.43792578247E+02  0.60339724728E+02  0.00000000000E+00 0. -1.
         21    1    1    2  502  501 -0.12881665102E+02 -0.45586866552E+02 -0.20947489308E+03  0.21476459329E+03  0.00000000000E+00 0. -1.
<scales pt_clust_5="13000.00000" pt_clust_6="13000.00000" pt_clust_7="13000.00000" pt_clust_8="13000.00000" pt_clust_9="47.37193"></scales>
<clustering>
<clus scale="   47.372">  2  9  1 -1</clus>
<clus scale="   87.813">  7  8 -1 -1</clus>
<clus scale="   91.710">  5  6 -1 -1</clus>
<clus scale="   99.705">  2  7  1 -1</clus>
<clus scale="   47.372">  2  5  1 -1</clus>
</clustering>
</event>
<event>
 9    1  0.1435532E-005  0.1122870E+03  0.7546771E-02  0.1256468E+00
          1   -1    0    0  502    0  0.00000000000E+00  0.00000000000E+00  0.10552086829E+03  0.10552086829E+03  0.00000000000E+00 0. -1.
         -1   -1    0    0    0  501 -0.00000000000E+00 -0.00000000000E+00 -0.63536814814E+03  0.63536814814E+03  0.00000000000E+00 0.  1.
         23    2    1    2    0    0 -0.64542782452E+02  0.92101746814E+01 -0.53450812995E+03  0.54615512716E+03  0.91301061645E+02 0.  0.
         23    2    1    2    0    0  0.57805305950E+02 -0.41969741888E+02 -0.53360147220E+02  0.12776360510E+03  0.91505851428E+02 0.  0.
        -11    1    4    4    0    0 -0.21868135906E+02 -0.19469655126E+02 -0.21349799689E-01  0.29279400516E+02  0.00000000000E+00 0.  1.
         11    1    4    4    0    0  0.79673441856E+02 -0.22500086762E+02 -0.53338797420E+02  0.98484204580E+02  0.00000000000E+00 0. -1.
        -13    1    3    3    0    0 -0.74839051772E+02  0.36187997966E+02 -0.38258045507E+03  0.39150767485E+03  0.00000000000E+00 0.  1.
         13    1    3    3    0    0  0.10296269320E+02 -0.26977823285E+02 -0.15192767488E+03  0.15464745231E+03  0.00000000000E+00 0. -1.
         21    1    1    2  502  501  0.67374765024E+01  0.32759567207E+02  0.58020997320E+02  0.66970284180E+02  0.00000000000E+00 0. -1.
<scales pt_clust_5="13000.00000" pt_clust_6="13000.00000" pt_clust_7="13000.00000" pt_clust_8="13000.00000" pt_clust_9="33.44522"></scales>
<clustering>
<clus scale="   33.445">  1  9  2 -1</clus>
<clus scale="   91.301">  7  8 -1 -1</clus>
<clus scale="   91.506">  5  6 -1 -1</clus>
<clus scale="  112.120">  2  7  1 -1</clus>
<clus scale="   33.445">  1  5  2 -1</clus>
</clustering>
</event>
<event>
 9    1  0.1435532E-005  0.4399916E+03  0.7546771E-02  0.1030760E+00
          1   -1    0    0  502    0  0.00000000000E+00  0.00000000000E+00  0.34881045336E+03  0.34881045336E+03  0.00000000000E+00 0. -1.
         -1   -1    0    0    0  501 -0.00000000000E+00 -0.00000000000E+00 -0.68220727079E+03  0.68220727079E+03  0.00000000000E+00 0.  1.
         23    2    1    2    0    0  0.21438231649E+03 -0.39459178970E+03 -0.27009265032E+03  0.53190279165E+03  0.91148680134E+02 0.  0.
         23    2    1    2    0    0 -0.21096660382E+03  0.34871688175E+03 -0.11158849817E+03  0.43242497150E+03  0.91809539302E+02 0.  0.
        -13    1    4    4    0    0 -0.72655365956E+02  0.69871082982E+02  0.27157303358E+01  0.10083722344E+03  0.00000000000E+00 0. -1.
         13    1    4    4    0    0 -0.13831123786E+03  0.27884579877E+03 -0.11430422850E+03  0.33158774806E+03  0.00000000000E+00 0.  1.
        -13    1    3    3    0    0  0.44971733310E+01 -0.35733215151E+02 -0.49668970355E+02  0.61352211444E+02  0.00000000000E+00 0.  1.
         13    1    3    3    0    0  0.20988514316E+03 -0.35885857455E+03 -0.22042367996E+03  0.47055058021E+03  0.00000000000E+00 0. -1.
         21    1    1    2  502  501 -0.34157126705E+01  0.45874907951E+02  0.48284331059E+02  0.66689961002E+02  0.00000000000E+00 0. -1.
<scales pt_clust_5="13000.00000" pt_clust_6="13000.00000" pt_clust_7="13000.00000" pt_clust_8="13000.00000" pt_clust_9="46.00189"></scales>
<clustering>
<clus scale="   46.002">  1  9  2 -1</clus>
<clus scale="   91.149">  7  8 -1 -1</clus>
<clus scale="   91.810">  5  6 -1 -1</clus>
<clus scale="  439.854">  2  7  1 -1</clus>
<clus scale="   46.002">  1  5  2 -1</clus>
</clustering>
</event>
<event>
 9    1  0.1435532E-005  0.1264713E+03  0.7546771E-02  0.1238636E+00
         -1   -1    0    0    0  501 -0.00000000000E+00  0.00000000000E+00  0.93802250676E+02  0.93802250676E+02  0.00000000000E+00 0.  1.
          1   -1    0    0  502    0  0.00000000000E+00 -0.00000000000E+00 -0.68012117405E+03  0.68012117405E+03  0.00000000000E+00 0. -1.
         23    2    1    2    0    0 -0.17668167050E+02  0.68305307324E+02  0.34410197317E+02  0.13397811539E+03  0.10857391302E+03 0.  0.
         23    2    1    2    0    0 -0.13825350916E+02 -0.18507195320E+02 -0.43334462468E+03  0.44351556877E+03  0.91568768678E+02 0.  0.
        -11    1    3    3    0    0  0.42961024342E+02  0.38089337016E+02  0.32998496371E+02  0.66221959874E+02  0.00000000000E+00 0.  1.
         11    1    3    3    0    0 -0.60629191392E+02  0.30215970309E+02  0.14117009466E+01  0.67756155515E+02  0.00000000000E+00 0. -1.
        -13    1    4    4    0    0  0.15516788545E+02  0.30007371031E+02 -0.10466860237E+03  0.10998513247E+03  0.00000000000E+00 0.  1.
         13    1    4    4    0    0 -0.29342139461E+02 -0.48514566351E+02 -0.32867602231E+03  0.33353043630E+03  0.00000000000E+00 0. -1.
         21    1    1    2  502  501  0.31493517966E+02 -0.49798112004E+02 -0.18738449601E+03  0.19642974056E+03  0.00000000000E+00 0. -1.
<scales pt_clust_5="13000.00000" pt_clust_6="13000.00000" pt_clust_7="13000.00000" pt_clust_8="13000.00000" pt_clust_9="58.92108"></scales>
<clustering>
<clus scale="   58.921">  2  9  1 -1</clus>
<clus scale="   91.569">  7  8 -1 -1</clus>
<clus scale="  108.574">  5  6 -1 -1</clus>
<clus scale="  112.212">  2  7  1 -1</clus>
<clus scale="   58.921">  2  5  1 -1</clus>
</clustering>
</event>
<event>
 9    1  0.1435532E-005  0.1097800E+03  0.7546771E-02  0.1261038E+00
         -1   -1    0    0    0  501 -0.00000000000E+00  0.00000000000E+00  0.15848266210E+03  0.15848266210E+03  0.00000000000E+00 0.  1.
          1   -1    0    0  502    0  0.00000000000E+00 -0.00000000000E+00 -0.16459968307E+03  0.16459968307E+03  0.00000000000E+00 0. -1.
         23    2    1    2    0    0  0.53486490176E+02  0.36335529770E+02  0.96196291763E+02  0.14634059482E+03  0.89335143077E+02 0.  0.
         23    2    1    2    0    0 -0.30042593490E+02 -0.57623558078E+02 -0.90627158664E+02  0.14298730415E+03  0.89493325957E+02 0.  0.
        -11    1    3    3    0    0  0.33920655690E+02  0.27645263029E+02  0.11166167074E+03  0.11992998025E+03  0.00000000000E+00 0.  1.
         11    1    3    3    0    0  0.19565834486E+02  0.86902667411E+01 -0.15465378976E+02  0.26410614571E+02  0.00000000000E+00 0. -1.
        -13    1    4    4    0    0 -0.31303049114E+02 -0.33551155885E+02 -0.10523300213E+03  0.11480220243E+03  0.00000000000E+00 0. -1.
         13    1    4    4    0    0  0.12604556241E+01 -0.24072402193E+02  0.14605843465E+02  0.28185101721E+02  0.00000000000E+00 0.  1.
         21    1    1    2  502  501 -0.23443896686E+02  0.21288028308E+02 -0.11686154067E+02  0.33754446195E+02  0.00000000000E+00 0. -1.
<scales pt_clust_5="13000.00000" pt_clust_6="13000.00000" pt_clust_7="13000.00000" pt_clust_8="13000.00000" pt_clust_9="31.66696"></scales>
<clustering>
<clus scale="   31.667">  2  9  1 -1</clus>
<clus scale="   89.335">  5  6 -1 -1</clus>
<clus scale="   89.493">  7  8 -1 -1</clus>
<clus scale="  109.651">  1  5  2 -1</clus>
<clus scale="   31.667">  2  5  1 -1</clus>
</clustering>
</event>
<event>
 9    1  0.1435532E-005  0.1619201E+03  0.7546771E-02  0.1188444E+00
          1   -1    0    0  502    0  0.00000000000E+00  0.00000000000E+00  0.76383326377E+02  0.76383326377E+02  0.00000000000E+00 0. -1.
         -1   -1    0    0    0  501 -0.00000000000E+00 -0.00000000000E+00 -0.45001251896E+03  0.45001251896E+03  0.00000000000E+00 0.  1.
         23    2    1    2    0    0  0.83550136398E+02  0.11643303414E+03 -0.28848165307E+03  0.33148832855E+03  0.78266027582E+02 0.  0.
         23    2    1    2    0    0 -0.66010800695E+02 -0.94145378341E+02 -0.76371791903E+02  0.16521944437E+03  0.90796674656E+02 0.  0.
        -11    1    4    4    0    0 -0.22422435470E+02  0.16331406464E+02 -0.14968773741E+02  0.31520543092E+02  0.00000000000E+00 0. -1.
         11    1    4    4    0    0 -0.43588365224E+02 -0.11047678481E+03 -0.61403018162E+02  0.13369890128E+03  0.00000000000E+00 0.  1.
        -11    1    3    3    0    0  0.53308703540E+02  0.93218239769E+02 -0.26686906661E+03  0.28766396509E+03  0.00000000000E+00 0.  1.
         11    1    3    3    0    0  0.30241432858E+02  0.23214794370E+02 -0.21612586466E+02  0.43824363461E+02  0.00000000000E+00 0. -1.
         21    1    1    2  502  501 -0.17539335703E+02 -0.22287655798E+02 -0.87757476082E+01  0.29688072419E+02  0.00000000000E+00 0. -1.
<scales pt_clust_5="13000.00000" pt_clust_6="13000.00000" pt_clust_7="13000.00000" pt_clust_8="13000.00000" pt_clust_9="28.36138"></scales>
<clustering>
<clus scale="   28.361">  1  9  2 -1</clus>
<clus scale="   78.266">  7  8 -1 -1</clus>
<clus scale="   90.797">  5  6 -1 -1</clus>
<clus scale="  155.241">  2  7  1 -1</clus>
<clus scale="   28.361">  1  5  2 -1</clus>
</clustering>
</event>
<event>
 9    1  0.1435532E-005  0.1559722E+03  0.7546771E-02  0.1193382E+00
         -2   -1    0    0    0  501 -0.00000000000E+00  0.00000000000E+00  0.58086842898E+02  0.58086842898E+02  0.00000000000E+00 0. -1.
          2   -1    0    0  502    0  0.00000000000E+00 -0.00000000000E+00 -0.90333637219E+03  0.90333637219E+03  0.00000000000E+00 0.  1.
         23    2    1    2    0    0  0.77442594147E+02  0.90221971331E+02 -0.97685208784E+02  0.17895763757E+03  0.91356863623E+02 0.  0.
         23    2    1    2    0    0 -0.89875377342E+02 -0.12429046913E+03 -0.47278934772E+03  0.50530764003E+03  0.90996371281E+02 0.  0.
        -11    1    4    4    0    0 -0.28315900713E+02 -0.34016809589E+02 -0.42497099993E+02  0.61359083073E+02  0.00000000000E+00 0. -1.
         11    1    4    4    0    0 -0.61559476629E+02 -0.90273659544E+02 -0.43029224773E+03  0.44394855696E+03  0.00000000000E+00 0.  1.
        -11    1    3    3    0    0  0.72857456343E+02  0.26107157964E+02 -0.23681543198E+02  0.80935827234E+02  0.00000000000E+00 0. -1.
         11    1    3    3    0    0  0.45851378039E+01  0.64114813367E+02 -0.74003665586E+02  0.98021810338E+02  0.00000000000E+00 0.  1.
         21    1    1    2  502  501  0.12432783195E+02  0.34068497802E+02 -0.27477497279E+03  0.27715793748E+03  0.00000000000E+00 0.  1.
<scales pt_clust_5="13000.00000" pt_clust_6="13000.00000" pt_clust_7="13000.00000" pt_clust_8="13000.00000" pt_clust_9="36.26619"></scales>
<clustering>
<clus scale="   36.266">  2  9  1 -1</clus>
<clus scale="   90.996">  5  6 -1 -1</clus>
<clus scale="   91.357">  7  8 -1 -1</clus>
<clus scale="  155.761">  2  5  1 -1</clus>
<clus scale="   36.266">  2  5  1 -1</clus>
</clustering>
</event>
<event>
 9    1  0.1435532E-005  0.9605155E+02  0.7546771E-02  0.1289860E+00
          2   -1    0    0  502    0  0.00000000000E+00  0.00000000000E+00  0.74138986285E+03  0.74138986285E+03  0.00000000000E+00 0. -1.
         -2   -1    0    0    0  501 -0.00000000000E+00 -0.00000000000E+00 -0.19924239558E+02  0.19924239558E+02  0.00000000000E+00 0.  1.
         23    2    1    2    0    0 -0.99796472195E+00  0.31786175960E+02  0.18345089874E+03  0.20729646583E+03  0.91138551566E+02 0.  0.
         23    2    1    2    0    0  0.20321183755E+02 -0.63359453266E+01  0.32870906982E+03  0.34228677408E+03  0.93045625433E+02 0.  0.
        -11    1    4    4    0    0 -0.90224061883E+01 -0.43275028211E+02  0.11005003741E+03  0.11859655397E+03  0.00000000000E+00 0.  1.
         11    1    4    4    0    0  0.29343589943E+02  0.36939082884E+02  0.21865903242E+03  0.22369022011E+03  0.00000000000E+00 0. -1.
        -13    1    3    3    0    0 -0.45347943592E+02  0.78408757620E+01  0.82727895615E+02  0.94666889849E+02  0.00000000000E+00 0.  1.
         13    1    3    3    0    0  0.44349978870E+02  0.23945300198E+02  0.10072300312E+03  0.11262957598E+03  0.00000000000E+00 0. -1.
         21    1    1    2  502  501 -0.19323219033E+02 -0.25450230633E+02  0.20930565473E+03  0.21173086250E+03  0.00000000000E+00 0.  1.
<scales pt_clust_5="13000.00000" pt_clust_6="13000.00000" pt_clust_7="13000.00000" pt_clust_8="13000.00000" pt_clust_9="31.95467"></scales>
<clustering>
<clus scale="   31.955">  1  9  2 -1</clus>
<clus scale="   91.139">  7  8 -1 -1</clus>
<clus scale="   93.046">  5  6 -1 -1</clus>
<clus scale="   94.205">  2  7  1 -1</clus>
<clus scale="   31.955">  1  5  2 -1</clus>
</clustering>
</event>
<event>
 9    1  0.1435532E-005  0.1019645E+03  0.7546771E-02  0.1276506E+00
          2   -1    0    0  502    0  0.00000000000E+00  0.00000000000E+00  0.26589525123E+03  0.26589525123E+03  0.00000000000E+00 0. -1.
         -2   -1    0    0    0  501 -0.00000000000E+00 -0.00000000000E+00 -0.99720002098E+02  0.99720002098E+02  0.00000000000E+00 0.  1.
         23    2    1    2    0    0  0.50181539064E+02 -0.23918547810E+01 -0.41119422594E+02  0.11171578744E+03  0.90915908488E+02 0.  0.
         23    2    1    2    0    0 -0.31973185926E+02  0.19147275030E+02  0.86107956249E+02  0.13021232735E+03  0.90287138095E+02 0.  0.
        -11    1    4    4    0    0  0.38528047678E+01  0.33097966499E+02 -0.27088641967E+01  0.33431384001E+02  0.00000000000E+00 0.  1.
         11    1    4    4    0    0 -0.35825990694E+02 -0.13950691469E+02  0.88816820446E+02  0.96780943350E+02  0.00000000000E+00 0. -1.
        -13    1    3    3    0    0  0.74485563395E+02  0.92875816576E+01 -0.39202845709E+02  0.84683064653E+02  0.00000000000E+00 0.  1.
         13    1    3    3    0    0 -0.24304024331E+02 -0.11679436439E+02 -0.19165768853E+01  0.27032722785E+02  0.00000000000E+00 0. -1.
         21    1    1    2  502  501 -0.18208353138E+02 -0.16755420249E+02  0.12118671548E+03  0.12368713854E+03  0.00000000000E+00 0. -1.
<scales pt_clust_5="13000.00000" pt_clust_6="13000.00000" pt_clust_7="13000.00000" pt_clust_8="13000.00000" pt_clust_9="24.74446"></scales>
<clustering>
<clus scale="   24.744">  1  9  2 -1</clus>
<clus scale="   90.287">  5  6 -1 -1</clus>
<clus scale="   90.916">  7  8 -1 -1</clus>
<clus scale="  101.404">  1  5  2 -1</clus>
<clus scale="   24.744">  1  5  2 -1</clus>
</clustering>
</event>
<event>
 9    1  0.1435532E-005  0.1110462E+03  0.7546771E-02  0.1261727E+00
          1   -1    0    0  502    0  0.00000000000E+00  0.00000000000E+00  0.84893446572E+02  0.84893446572E+02  0.00000000000E+00 0. -1.
         -1   -1    0    0    0  501 -0.00000000000E+00 -0.00000000000E+00 -0.30237673059E+03  0.30237673059E+03  0.00000000000E+00 0.  1.
         23    2    1    2    0    0 -0.43488614112E+01 -0.59184236025E+02 -0.19985457727E+03  0.22729941981E+03  0.90562066003E+02 0.  0.
         23    2    1    2    0    0  0.30141747233E+02  0.83039500059E+02 -0.36585017355E+00  0.12082547925E+03  0.82429236882E+02 0.  0.
        -13    1    4    4    0    0 -0.22270286177E+02  0.50510784409E+01 -0.12578888114E+02  0.26071199934E+02  0.00000000000E+00 0.  1.
         13    1    4    4    0    0  0.52412033410E+02  0.77988421618E+02  0.12213037941E+02  0.94754279314E+02  0.00000000000E+00 0. -1.
        -13    1    3    3    0    0  0.19601365928E+02 -0.45632202281E+02 -0.19251647076E+03  0.19881927207E+03  0.00000000000E+00 0.  1.
         13    1    3    3    0    0 -0.23950227339E+02 -0.13552033744E+02 -0.73381065137E+01  0.28480147742E+02  0.00000000000E+00 0. -1.
         21    1    1    2  502  501 -0.25792885822E+02 -0.23855264033E+02 -0.17262856578E+02  0.39145278111E+02  0.00000000000E+00 0.  1.
<scales pt_clust_5="13000.00000" pt_clust_6="13000.00000" pt_clust_7="13000.00000" pt_clust_8="13000.00000" pt_clust_9="35.13327"></scales>
<clustering>
<clus scale="   35.133">  1  9  2 -1</clus>
<clus scale="   82.429">  5  6 -1 -1</clus>
<clus scale="   90.562">  7  8 -1 -1</clus>
<clus scale="  104.520">  1  5  2 -1</clus>
<clus scale="   35.133">  1  5  2 -1</clus>
</clustering>
</event>
<event>
 9    1  0.1435532E-005  0.1160898E+03  0.7546771E-02  0.1249765E+00
         -1   -1    0    0    0  501 -0.00000000000E+00  0.00000000000E+00  0.81951274867E+02  0.81951274867E+02  0.00000000000E+00 0.  1.
          1   -1    0    0  502    0  0.00000000000E+00 -0.00000000000E+00 -0.32800432079E+03  0.32800432079E+03  0.00000000000E+00 0. -1.
         23    2    1    2    0    0  0.48086319332E+02 -0.28927797487E+02 -0.51781077661E+02  0.11852051723E+03  0.90646132997E+02 0.  0.
         23    2    1    2    0    0 -0.84053554814E+02  0.30625067925E+02 -0.40929400879E+02  0.13392169573E+03  0.90867540240E+02 0.  0.
        -11    1    3    3    0    0  0.41032592950E+01 -0.38368489467E+02  0.12054981149E+02  0.40426480076E+02  0.00000000000E+00 0. -1.
         11    1    3    3    0    0  0.43983060037E+02  0.94406919800E+01 -0.63836058809E+02  0.78094037158E+02  0.00000000000E+00 0.  1.
        -13    1    4    4    0    0 -0.39056455081E+02  0.17800420503E+02  0.27536487557E+02  0.50995291945E+02  0.00000000000E+00 0.  1.
         13    1    4    4    0    0 -0.44997099734E+02  0.12824647423E+02 -0.68465888436E+02  0.82926403788E+02  0.00000000000E+00 0. -1.
         21    1    1    2  502  501  0.35967235482E+02 -0.16972704387E+01 -0.15334256738E+03  0.15751338269E+03  0.00000000000E+00 0. -1.
<scales pt_clust_5="13000.00000" pt_clust_6="13000.00000" pt_clust_7="13000.00000" pt_clust_8="13000.00000" pt_clust_9="36.00726"></scales>
<clustering>
<clus scale="   36.007">  2  9  1 -1</clus>
<clus scale="   90.646">  5  6 -1 -1</clus>
<clus scale="   90.868">  7  8 -1 -1</clus>
<clus scale="  115.917">  1  5  2 -1</clus>
<clus scale="   36.007">  2  5  1 -1</clus>
</clustering>
</event>
<event>
 9    1  0.1435532E-005  0.1215536E+03  0.7546771E-02  0.1240703E+00
          1   -1    0    0  502    0  0.00000000000E+00  0.00000000000E+00  0.91301745618E+03  0.91301745618E+03  0.00000000000E+00 0. -1.
         -1   -1    0    0    0  501 -0.00000000000E+00 -0.00000000000E+00 -0.53779072533E+02  0.53779072533E+02  0.00000000000E+00 0.  1.
         23    2    1    2    0    0  0.21968458092E+01 -0.76138318867E+02  0.44545600246E+02  0.12690149844E+03  0.91202028891E+02 0.  0.
         23    2    1    2    0    0  0.40663493115E+02  0.97873246790E+02  0.43113629191E+03  0.45333973292E+03  0.91682709027E+02 0.  0.
        -13    1    4    4    0    0 -0.47238502776E+00  0.69617959215E+02  0.35859070314E+03  0.36528642977E+03  0.00000000000E+00 0. -1.
         13    1    4    4    0    0  0.41135878143E+02  0.28255287576E+02  0.72545588764E+02  0.88053303150E+02  0.00000000000E+00 0.  1.
        -13    1    3    3    0    0 -0.10580455203E+02 -0.95104965770E+02  0.39242134669E+02  0.10342555622E+03  0.00000000000E+00 0.  1.
         13    1    3    3    0    0  0.12777301012E+02  0.18966646903E+02  0.53034655766E+01  0.23475942218E+02  0.00000000000E+00 0. -1.
         21    1    1    2  502  501 -0.42860338924E+02 -0.21734927923E+02  0.38355649149E+03  0.38655529735E+03  0.00000000000E+00 0. -1.
<scales pt_clust_5="13000.00000" pt_clust_6="13000.00000" pt_clust_7="13000.00000" pt_clust_8="13000.00000" pt_clust_9="48.05638"></scales>
<clustering>
<clus scale="   48.056">  1  9  2 -1</clus>
<clus scale="   91.202">  7  8 -1 -1</clus>
<clus scale="   91.683">  5  6 -1 -1</clus>
<clus scale="  121.191">  2  7  1 -1</clus>
<clus scale="   48.056">  1  5  2 -1</clus>
</clustering>
</event>
<event>
 9    1  0.1435532E-005  0.1040129E+03  0.7546771E-02  0.1273292E+00
         -1   -1    0    0    0  501 -0.00000000000E+00  0.00000000000E+00  0.24625793461E+03  0.24625793461E+03  0.00000000000E+00 0.  1.
          1   -1    0    0  502    0  0.00000000000E+00 -0.00000000000E+00 -0.26891531275E+03  0.26891531275E+03  0.00000000000E+00 0. -1.
         23    2    1    2    0    0  0.16461069221E+02  0.78358319923E+02  0.17053170264E+03  0.20984551996E+03  0.92428824190E+02 0.  0.
         23    2    1    2    0    0  0.45857931463E+02 -0.18988181766E+02 -0.19380445041E+03  0.21925305150E+03  0.89711953877E+02 0.  0.
        -13    1    4    4    0    0  0.59159373851E+01  0.25890403831E+02 -0.12553110166E+03  0.12830965985E+03  0.00000000000E+00 0. -1.
         13    1    4    4    0    0  0.39941994078E+02 -0.44878585598E+02 -0.68273348754E+02  0.90943391658E+02  0.00000000000E+00 0.  1.
        -13    1    3    3    0    0  0.49663239211E+02  0.24100554261E+02  0.54795792193E+02  0.77780800244E+02  0.00000000000E+00 0.  1.
         13    1    3    3    0    0 -0.33202169990E+02  0.54257765662E+02  0.11573591044E+03  0.13206471971E+03  0.00000000000E+00 0. -1.
         21    1    1    2  502  501 -0.62319000684E+02 -0.59370138156E+02  0.61536964160E+00  0.86074675897E+02  0.00000000000E+00 0.  1.
<scales pt_clust_5="13000.00000" pt_clust_6="13000.00000" pt_clust_7="13000.00000" pt_clust_8="13000.00000" pt_clust_9="86.07248"></scales>
<clustering>
<clus scale="   86.072">  1  9  2 -1</clus>
<clus scale="   89.712">  5  6 -1 -1</clus>
<clus scale="   92.429">  7  8 -1 -1</clus>
<clus scale="  101.606">  2  5  1 -1</clus>
<clus scale="  101.606">  2  5  1 -1</clus>
</clustering>
</event>
<event>
 9    1  0.1435532E-005  0.1021890E+03  0.7546771E-02  0.1276742E+00
          2   -1    0    0  502    0  0.00000000000E+00  0.00000000000E+00  0.15012702437E+03  0.15012702437E+03  0.00000000000E+00 0. -1.
         -2   -1    0    0    0  501 -0.00000000000E+00 -0.00000000000E+00 -0.19225893786E+03  0.19225893786E+03  0.00000000000E+00 0.  1.
         23    2    1    2    0    0  0.36488087903E+02  0.37670675763E+02 -0.14969064296E+03  0.18206951219E+03  0.89395516155E+02 0.  0.
         23    2    1    2    0    0 -0.11773258257E+02 -0.30631482805E+02  0.84620511067E+02  0.12587033407E+03  0.87211310939E+02 0.  0.
        -11    1    3    3    0    0  0.27371450628E+02  0.95830282429E+01 -0.14975716092E+03  0.15253929981E+03  0.00000000000E+00 0.  1.
         11    1    3    3    0    0  0.91166372753E+01  0.28087647520E+02  0.66517964142E-01  0.29530212377E+02  0.00000000000E+00 0. -1.
        -13    1    4    4    0    0  0.17954588873E+02  0.12463907193E+02 -0.46821420957E+01  0.22352599373E+02  0.00000000000E+00 0.  1.
         13    1    4    4    0    0 -0.29727847130E+02 -0.43095389998E+02  0.89302653163E+02  0.10351773469E+03  0.00000000000E+00 0. -1.
         21    1    1    2  502  501 -0.24714829646E+02 -0.70391929575E+01  0.22938218406E+02  0.34446115972E+02  0.00000000000E+00 0. -1.
<scales pt_clust_5="13000.00000" pt_clust_6="13000.00000" pt_clust_7="13000.00000" pt_clust_8="13000.00000" pt_clust_9="25.69772"></scales>
<clustering>
<clus scale="   25.698">  1  9  2 -1</clus>
<clus scale="   87.211">  7  8 -1 -1</clus>
<clus scale="   89.396">  5  6 -1 -1</clus>
<clus scale="  100.284">  1  7  2 -1</clus>
<clus scale="   25.698">  1  5  2 -1</clus>
</clustering>
</event>
<event>
 9    1  0.1435532E-005  0.1470270E+03  0.7546771E-02  0.1204256E+00
         -2   -1    0    0    0  501 -0.00000000000E+00  0.00000000000E+00  0.11791762826E+03  0.11791762826E+03  0.00000000000E+00 0.  1.
          2   -1    0    0  502    0  0.00000000000E+00 -0.00000000000E+00 -0.23412724168E+03  0.23412724168E+03  0.00000000000E+00 0. -1.
         23    2    1    2    0    0 -0.48431083579E+02  0.12056749053E+03 -0.23561568253E+02  0.16064708984E+03  0.91489072270E+02 0.  0.
         23    2    1    2    0    0  0.29716395477E+02 -0.91723450735E+02 -0.79193929843E+02  0.15447581642E+03  0.91076032854E+02 0.  0.
        -11    1    3    3    0    0 -0.56016518841E+02  0.63675574845E+02  0.21713815307E+02  0.87543811832E+02  0.00000000000E+00 0.  1.
         11    1    3    3    0    0  0.75854352622E+01  0.56891915684E+02 -0.45275383560E+02  0.73103278003E+02  0.00000000000E+00 0. -1.
        -13    1    4    4    0    0  0.39376460693E+02 -0.38316627491E+02 -0.83584381719E+02  0.10002508918E+03  0.00000000000E+00 0. -1.
         13    1    4    4    0    0 -0.96600652162E+01 -0.53406823245E+02  0.43904518756E+01  0.54450727238E+02  0.00000000000E+00 0.  1.
         21    1    1    2  502  501  0.18714688102E+02 -0.28844039793E+02 -0.13454115324E+02  0.36921963674E+02  0.00000000000E+00 0. -1.
<scales pt_clust_5="13000.00000" pt_clust_6="13000.00000" pt_clust_7="13000.00000" pt_clust_8="13000.00000" pt_clust_9="34.38340"></scales>
<clustering>
<clus scale="   34.383">  2  9  1 -1</clus>
<clus scale="   91.076">  7  8 -1 -1</clus>
<clus scale="   91.489">  5  6 -1 -1</clus>
<clus scale="  146.770">  2  7  1 -1</clus>
<clus scale="   34.383">  2  5  1 -1</clus>
</clustering>
</event>
<event>
 9    1  0.1435532E-005  0.9447173E+02  0.7546771E-02  0.1293878E+00
         -3   -1    0    0    0  501 -0.00000000000E+00  0.00000000000E+00  0.31935569888E+03  0.31935569888E+03  0.00000000000E+00 0.  1.
          3   -1    0    0  502    0  0.00000000000E+00 -0.00000000000E+00 -0.49497195345E+02  0.49497195345E+02  0.00000000000E+00 0. -1.
         23    2    1    2    0    0  0.12725084651E+02  0.18127275728E+01  0.21156472785E+03  0.23198175049E+03  0.94290427570E+02 0.  0.
         23    2    1    2    0    0  0.16793921970E+02 -0.17161997566E+01  0.36169207258E+02  0.99981069217E+02  0.91667996003E+02 0.  0.
        -11    1    3    3    0    0 -0.19288043316E+02 -0.32066010882E+02  0.42578430339E+02  0.56684922148E+02  0.00000000000E+00 0.  1.
         11    1    3    3    0    0  0.32013127967E+02  0.33878738455E+02  0.16898629751E+03  0.17529682835E+03  0.00000000000E+00 0. -1.
        -13    1    4    4    0    0  0.30356108479E+02  0.16671103079E+02  0.58532036190E+02  0.68010427586E+02  0.00000000000E+00 0.  1.
         13    1    4    4    0    0 -0.13562186508E+02 -0.18387302835E+02 -0.22362828932E+02  0.31970641631E+02  0.00000000000E+00 0. -1.
         21    1    1    2  502  501 -0.29519006622E+02 -0.96527816186E-01  0.22124568425E+02  0.36890074512E+02  0.00000000000E+00 0.  1.
<scales pt_clust_5="13000.00000" pt_clust_6="13000.00000" pt_clust_7="13000.00000" pt_clust_8="13000.00000" pt_clust_9="29.51916"></scales>
<clustering>
<clus scale="   29.519">  2  9  1 -1</clus>
<clus scale="   91.668">  7  8 -1 -1</clus>
<clus scale="   91.854">  2  7  1 -1</clus>
<clus scale="   94.290">  5  6 -1 -1</clus>
<clus scale="   29.519">  2  5  1 -1</clus>
</clustering>
</event>
<event>
 9    1  0.1435532E-005  0.1336931E+03  0.7546771E-02  0.1223691E+00
         -3   -1    0    0    0  501 -0.00000000000E+00  0.00000000000E+00  0.19183828242E+03  0.19183828242E+03  0.00000000000E+00 0.  1.
          3   -1    0    0  502    0  0.00000000000E+00 -0.00000000000E+00 -0.16860435950E+03  0.16860435950E+03  0.00000000000E+00 0. -1.
         23    2    1    2    0    0 -0.41070265457E+02  0.87003954537E+02  0.10360363769E+03  0.17061889026E+03  0.95502027002E+02 0.  0.
         23    2    1    2    0    0  0.58675371160E+02 -0.67963405814E+02 -0.25447789305E+02  0.12908743518E+03  0.89186054016E+02 0.  0.
        -11    1    4    4    0    0  0.26508372449E+02  0.19258922998E+02 -0.13177522999E+02  0.35316384828E+02  0.00000000000E+00 0.  1.
         11    1    4    4    0    0  0.32166998711E+02 -0.87222328812E+02 -0.12270266306E+02  0.93771050355E+02  0.00000000000E+00 0. -1.
        -11    1    3    3    0    0 -0.22690143525E+02  0.16232557746E+02  0.92556615470E+02  0.96669879546E+02  0.00000000000E+00 0.  1.
         11    1    3    3    0    0 -0.18380121933E+02  0.70771396791E+02  0.11047022223E+02  0.73949010717E+02  0.00000000000E+00 0. -1.
         21    1    1    2  502  501 -0.17605105703E+02 -0.19040548723E+02 -0.54921925466E+02  0.60736316479E+02  0.00000000000E+00 0. -1.
<scales pt_clust_5="13000.00000" pt_clust_6="13000.00000" pt_clust_7="13000.00000" pt_clust_8="13000.00000" pt_clust_9="25.93226"></scales>
<clustering>
<clus scale="   25.932">  2  9  1 -1</clus>
<clus scale="   89.186">  5  6 -1 -1</clus>
<clus scale="   95.502">  7  8 -1 -1</clus>
<clus scale="  129.257">  2  5  1 -1</clus>
<clus scale="   25.932">  2  5  1 -1</clus>
</clustering>
</event>
<event>
 9    1  0.1435532E-005  0.1629432E+03  0.7546771E-02  0.1189801E+00
          1   -1    0    0  502    0  0.00000000000E+00  0.00000000000E+00  0.22292957654E+03  0.22292957654E+03  0.00000000000E+00 0. -1.
         -1   -1    0    0    0  501 -0.00000000000E+00 -0.00000000000E+00 -0.68914145799E+03  0.68914145799E+03  0.00000000000E+00 0.  1.
         23    2    1    2    0    0  0.13062316625E+03  0.52084147689E+02 -0.56111703478E+03  0.58222273058E+03  0.65998570248E+02 0.  0.
         23    2    1    2    0    0 -0.64946565467E+01 -0.13166861903E+03  0.18064756209E+02  0.16357737555E+03  0.95144188338E+02 0.  0.
        -13    1    4    4    0    0 -0.50143871803E+02 -0.55893516275E+02  0.10134581688E+02  0.75770725132E+02  0.00000000000E+00 0. -1.
         13    1    4    4    0    0  0.43649215256E+02 -0.75775102758E+02  0.79301745206E+01  0.87806650423E+02  0.00000000000E+00 0.  1.
        -13    1    3    3    0    0  0.95678185729E+02  0.67026848272E+01 -0.30259969905E+03  0.31743632287E+03  0.00000000000E+00 0. -1.
         13    1    3    3    0    0  0.34944980525E+02  0.45381462862E+02 -0.25851733573E+03  0.26478640771E+03  0.00000000000E+00 0.  1.
         21    1    1    2  502  501 -0.12412850971E+03  0.79584471344E+02  0.76840397121E+02  0.16627092840E+03  0.00000000000E+00 0. -1.
<scales pt_clust_5="13000.00000" pt_clust_6="13000.00000" pt_clust_7="13000.00000" pt_clust_8="13000.00000" pt_clust_9="147.45025"></scales>
<clustering>
<clus scale="   65.999">  7  8 -1 -1</clus>
<clus scale="   95.144">  5  6 -1 -1</clus>
<clus scale="  147.450">  1  9  2 -1</clus>
<clus scale="  147.831">  2  7  1 -1</clus>
<clus scale="  147.450">  1  5  2 -1</clus>
</clustering>
</event>
<event>
 9    1  0.1435532E-005  0.1157881E+03  0.7546771E-02  0.1251456E+00
         -1   -1    0    0    0  501 -0.00000000000E+00  0.00000000000E+00  0.56075056152E+03  0.56075056152E+03  0.00000000000E+00 0.  1.
          1   -1    0    0  502    0  0.00000000000E+00 -0.00000000000E+00 -0.58910226755E+02  0.58910226755E+02  0.00000000000E+00 0. -1.
         23    2    1    2    0    0 -0.16622026741E+01 -0.10341188257E+03  0.24683652213E+03  0.28205388838E+03  0.89046880464E+02 0.  0.
         23    2    1    2    0    0 -0.63019744333E+02  0.32582517161E+02  0.92432656901E+02  0.14884796911E+03  0.92621883195E+02 0.  0.
        -13    1    3    3    0    0  0.41133828611E+02 -0.57268488002E+02  0.15963902600E+03  0.17451730629E+03  0.00000000000E+00 0.  1.
         13    1    3    3    0    0 -0.42796031285E+02 -0.46143394567E+02  0.87197496134E+02  0.10753658209E+03  0.00000000000E+00 0. -1.
        -13    1    4    4    0    0 -0.26799598683E+02  0.46326196328E+02  0.96034682471E+02  0.10994087135E+03  0.00000000000E+00 0.  1.
         13    1    4    4    0    0 -0.36220145651E+02 -0.13743679167E+02 -0.36020255709E+01  0.38907097762E+02  0.00000000000E+00 0. -1.
         21    1    1    2  502  501  0.64681947008E+02  0.70829365408E+02  0.16257115573E+03  0.18875893078E+03  0.00000000000E+00 0.  1.
<scales pt_clust_5="13000.00000" pt_clust_6="13000.00000" pt_clust_7="13000.00000" pt_clust_8="13000.00000" pt_clust_9="95.91951"></scales>
<clustering>
<clus scale="   89.047">  5  6 -1 -1</clus>
<clus scale="   92.622">  7  8 -1 -1</clus>
<clus scale="   95.920">  1  9  2 -1</clus>
<clus scale="  112.949">  1  5  2 -1</clus>
<clus scale="  115.788">  2  5  1 -1</clus>
</clustering>
</event>
<event>
 9    1  0.1435532E-005  0.9515747E+02  0.7546771E-02  0.1292334E+00
         -2   -1    0    0    0  501 -0.00000000000E+00  0.00000000000E+00  0.51510313606E+03  0.51510313606E+03  0.00000000000E+00 0.  1.
          2   -1    0    0  502    0  0.00000000000E+00 -0.00000000000E+00 -0.29775709111E+02  0.29775709111E+02  0.00000000000E+00 0. -1.
         23    2    1    2    0    0  0.13732525944E+02 -0.15943893117E+02  0.35527502340E+03  0.36713869563E+03  0.90153699788E+02 0.  0.
         23    2    1    2    0    0  0.68309102874E+01  0.27694344074E+02  0.10944900247E+03  0.14634861973E+03  0.92871935086E+02 0.  0.
        -13    1    3    3    0    0 -0.23467767582E+01 -0.51890103214E+02  0.23126632712E+03  0.23702785540E+03  0.00000000000E+00 0.  1.
         13    1    3    3    0    0  0.16079302702E+02  0.35946210098E+02  0.12400869627E+03  0.13011084024E+03  0.00000000000E+00 0. -1.
        -13    1    4    4    0    0 -0.23104569287E+02  0.12896965680E+02  0.10981059661E+03  0.11295361868E+03  0.00000000000E+00 0.  1.
         13    1    4    4    0    0  0.29935479575E+02  0.14797378394E+02 -0.36159414167E+00  0.33395001048E+02  0.00000000000E+00 0. -1.
         21    1    1    2  502  501 -0.20563436231E+02 -0.11750450958E+02  0.20603401085E+02  0.31391529807E+02  0.00000000000E+00 0.  1.
<scales pt_clust_5="13000.00000" pt_clust_6="13000.00000" pt_clust_7="13000.00000" pt_clust_8="13000.00000" pt_clust_9="23.68392"></scales>
<clustering>
<clus scale="   23.684">  2  9  1 -1</clus>
<clus scale="   90.154">  5  6 -1 -1</clus>
<clus scale="   92.506">  1  5  2 -1</clus>
<clus scale="   92.872">  7  8 -1 -1</clus>
<clus scale="   23.684">  2  5  1 -1</clus>
</clustering>
</event>
<event>
 9    1  0.1435532E-005  0.1028367E+03  0.7546771E-02  0.1282506E+00
          3   -1    0    0  502    0  0.00000000000E+00  0.00000000000E+00  0.20924394138E+02  0.20924394138E+02  0.00000000000E+00 0. -1.
         -3   -1    0    0    0  501 -0.00000000000E+00 -0.00000000000E+00 -0.65062713241E+03  0.65062713241E+03  0.00000000000E+00 0.  1.
         23    2    1    2    0    0 -0.10322887258E+02  0.33135211880E+01 -0.25348539095E+03  0.26758575954E+03  0.85027959269E+02 0.  0.
         23    2    1    2    0    0  0.26694298710E+02 -0.28832197709E+02 -0.34062081526E+03  0.35720746231E+03  0.10015363262E+03 0.  0.
        -11    1    3    3    0    0  0.11643538816E+02 -0.37547299161E+02 -0.11869337247E+03  0.12503394874E+03  0.00000000000E+00 0. -1.
         11    1    3    3    0    0 -0.21966426074E+02  0.40860820349E+02 -0.13479201849E+03  0.14255181080E+03  0.00000000000E+00 0.  1.
        -11    1    4    4    0    0  0.64166005469E+02 -0.18907023660E+02 -0.24653253350E+03  0.25544674959E+03  0.00000000000E+00 0.  1.
         11    1    4    4    0    0 -0.37471706759E+02 -0.99251740486E+01 -0.94088281763E+02  0.10176071272E+03  0.00000000000E+00 0. -1.
         21    1    1    2  502  501 -0.16371411452E+02  0.25518676521E+02 -0.35596532052E+02  0.46758304700E+02  0.00000000000E+00 0.  1.
<scales pt_clust_5="13000.00000" pt_clust_6="13000.00000" pt_clust_7="13000.00000" pt_clust_8="13000.00000" pt_clust_9="30.31874"></scales>
<clustering>
<clus scale="   30.319">  1  9  2 -1</clus>
<clus scale="   85.028">  5  6 -1 -1</clus>
<clus scale="   88.172">  2  5  1 -1</clus>
<clus scale="  100.154">  7  8 -1 -1</clus>
<clus scale="   30.319">  1  5  2 -1</clus>
</clustering>
</event>
<event>
 9    1  0.1435532E-005  0.1140359E+03  0.7546771E-02  0.1257155E+00
         -1   -1    0    0    0  501 -0.00000000000E+00  0.00000000000E+00  0.89015564760E+02  0.89015564760E+02  0.00000000000E+00 0.  1.
          1   -1    0    0  502    0  0.00000000000E+00 -0.00000000000E+00 -0.40577745230E+03  0.40577745230E+03  0.00000000000E+00 0. -1.
         23    2    1    2    0    0 -0.33710355962E+02 -0.40419310285E+02  0.28533982481E+02  0.11701270602E+03  0.10053694082E+03 0.  0.
         23    2    1    2    0    0  0.52921643458E+02  0.31780818152E+02 -0.17799040358E+03  0.20915404910E+03  0.90852142199E+02 0.  0.
        -11    1    3    3    0    0 -0.68660827076E+02 -0.37158560846E+02  0.15672991641E+02  0.79628578324E+02  0.00000000000E+00 0. -1.
         11    1    3    3    0    0  0.34950471114E+02 -0.32607494391E+01  0.12860990840E+02  0.37384127693E+02  0.00000000000E+00 0.  1.
        -13    1    4    4    0    0  0.59642229760E+02  0.57746980858E+02 -0.13485300994E+03  0.15835796052E+03  0.00000000000E+00 0. -1.
         13    1    4    4    0    0 -0.67205863023E+01 -0.25966162706E+02 -0.43137393633E+02  0.50796088584E+02  0.00000000000E+00 0.  1.
         21    1    1    2  502  501 -0.19211287495E+02  0.86384921334E+01 -0.16730546645E+03  0.16862626194E+03  0.00000000000E+00 0. -1.
<scales pt_clust_5="13000.00000" pt_clust_6="13000.00000" pt_clust_7="13000.00000" pt_clust_8="13000.00000" pt_clust_9="21.06412"></scales>
<clustering>
<clus scale="   21.064">  2  9  1 -1</clus>
<clus scale="   90.852">  7  8 -1 -1</clus>
<clus scale="  100.537">  5  6 -1 -1</clus>
<clus scale="  105.596">  2  7  1 -1</clus>
<clus scale="   21.064">  2  5  1 -1</clus>
</clustering>
</event>
<event>
 9    1  0.1435532E-005  0.1236468E+03  0.7546771E-02  0.1239037E+00
         -3   -1    0    0    0  501 -0.00000000000E+00  0.00000000000E+00  0.23217652522E+03  0.23217652522E+03  0.00000000000E+00 0.  1.
          3   -1    0    0  502    0  0.00000000000E+00 -0.00000000000E+00 -0.21104252420E+03  0.21104252420E+03  0.00000000000E+00 0. -1.
         23    2    1    2    0    0 -0.99950855013E+01  0.75263257243E+02  0.18736232880E+03  0.22242682381E+03  0.92760929656E+02 0.  0.
         23    2    1    2    0    0 -0.11588616202E+02 -0.64559541017E+02 -0.15256738712E+03  0.19309661188E+03  0.98525446169E+02 0.  0.
        -13    1    4    4    0    0  0.37497954113E+02 -0.30318794163E+02 -0.30255951185E+02  0.56927571740E+02  0.00000000000E+00 0.  1.
         13    1    4    4    0    0 -0.49086570315E+02 -0.34240746854E+02 -0.12231143594E+03  0.13616904014E+03  0.00000000000E+00 0. -1.
        -13    1    3    3    0    0 -0.30856515257E+02  0.88958497235E+02  0.13722793542E+03  0.16642489304E+03  0.00000000000E+00 0.  1.
         13    1    3    3    0    0  0.20861429755E+02 -0.13695239992E+02  0.50134393386E+02  0.56001930771E+02  0.00000000000E+00 0. -1.
         21    1    1    2  502  501  0.21583701703E+02 -0.10703716226E+02 -0.13660940664E+02  0.27695613734E+02  0.00000000000E+00 0.  1.
<scales pt_clust_5="13000.00000" pt_clust_6="13000.00000" pt_clust_7="13000.00000" pt_clust_8="13000.00000" pt_clust_9="24.09203"></scales>
<clustering>
<clus scale="   24.092">  2  9  1 -1</clus>
<clus scale="   92.761">  7  8 -1 -1</clus>
<clus scale="   98.525">  5  6 -1 -1</clus>
<clus scale="  119.104">  1  7  2 -1</clus>
<clus scale="   24.092">  2  5  1 -1</clus>
</clustering>
</event>
<event>
 9    1  0.1435532E-005  0.1224776E+03  0.7546771E-02  0.1239459E+00
         -2   -1    0    0    0  501 -0.00000000000E+00  0.00000000000E+00  0.33815271667E+03  0.33815271667E+03  0.00000000000E+00 0.  1.
          2   -1    0    0  502    0  0.00000000000E+00 -0.00000000000E+00 -0.84095748313E+02  0.84095748313E+02  0.00000000000E+00 0. -1.
         23    2    1    2    0    0  0.47207587580E+02  0.61433207232E+02  0.15925514038E+03  0.20033341290E+03  0.93641237218E+02 0.  0.
         23    2    1    2    0    0 -0.27972041983E+01 -0.86692895294E+02  0.10935860782E+03  0.16879035132E+03  0.94907297650E+02 0.  0.
        -11    1    4    4    0    0  0.36399520465E+02 -0.78235591725E+02  0.88447859744E+02  0.12356681106E+03  0.00000000000E+00 0.  1.
         11    1    4    4    0    0 -0.39196724664E+02 -0.84573035688E+01  0.20910748077E+02  0.45223540255E+02  0.00000000000E+00 0. -1.
        -13    1    3    3    0    0  0.14269355291E+02  0.69416065177E+02  0.52132661765E+02  0.87977377932E+02  0.00000000000E+00 0. -1.
         13    1    3    3    0    0  0.32938232290E+02 -0.79828579444E+01  0.10712247862E+03  0.11235603496E+03  0.00000000000E+00 0.  1.
         21    1    1    2  502  501 -0.44410383382E+02  0.25259688061E+02 -0.14556779843E+02  0.53124700776E+02  0.00000000000E+00 0. -1.
<scales pt_clust_5="13000.00000" pt_clust_6="13000.00000" pt_clust_7="13000.00000" pt_clust_8="13000.00000" pt_clust_9="51.09143"></scales>
<clustering>
<clus scale="   51.091">  2  9  1 -1</clus>
<clus scale="   93.641">  7  8 -1 -1</clus>
<clus scale="   94.907">  5  6 -1 -1</clus>
<clus scale="  121.499">  1  7  2 -1</clus>
<clus scale="   51.091">  2  5  1 -1</clus>
</clustering>
</event>
<event>
 9    1  0.1435532E-005  0.1367370E+03  0.7546771E-02  0.1220801E+00
         -1   -1    0    0    0  501 -0.00000000000E+00  0.00000000000E+00  0.25937461220E+03  0.25937461220E+03  0.00000000000E+00 0.  1.
          1   -1    0    0  502    0  0.00000000000E+00 -0.00000000000E+00 -0.92395395592E+02  0.92395395592E+02  0.00000000000E+00 0. -1.
         23    2    1    2    0    0  0.43407440196E+02  0.67619000714E+02  0.10047847808E+03  0.16346964086E+03  0.10084574262E+03 0.  0.
         23    2    1    2    0    0 -0.66478274008E+02 -0.86290771300E+02  0.72028029611E+02  0.15811014771E+03  0.89136544881E+02 0.  0.
        -13    1    4    4    0    0 -0.55972680989E+02 -0.40869159131E+02  0.85043221011E+02  0.10970678477E+03  0.00000000000E+00 0.  1.
         13    1    4    4    0    0 -0.10505593019E+02 -0.45421612169E+02 -0.13015191400E+02  0.48403362940E+02  0.00000000000E+00 0. -1.
        -13    1    3    3    0    0  0.74820238958E+02  0.53456092390E+02  0.86625453275E+02  0.12633127533E+03  0.00000000000E+00 0.  1.
         13    1    3    3    0    0 -0.31412798763E+02  0.14162908324E+02  0.13853024805E+02  0.37138365534E+02  0.00000000000E+00 0. -1.
         21    1    1    2  502  501  0.23070833813E+02  0.18671770585E+02 -0.55272910825E+01  0.30190219216E+02  0.00000000000E+00 0.  1.
<scales pt_clust_5="13000.00000" pt_clust_6="13000.00000" pt_clust_7="13000.00000" pt_clust_8="13000.00000" pt_clust_9="29.67993"></scales>
<clustering>
<clus scale="   29.680">  2  9  1 -1</clus>
<clus scale="   89.137">  5  6 -1 -1</clus>
<clus scale="  100.846">  7  8 -1 -1</clus>
<clus scale="  128.345">  2  5  1 -1</clus>
<clus scale="   29.680">  2  5  1 -1</clus>
</clustering>
</event>
<event>
 9    1  0.1435532E-005  0.9555596E+02  0.7546771E-02  0.1290557E+00
         -1   -1    0    0    0  501 -0.00000000000E+00  0.00000000000E+00  0.26069872634E+03  0.26069872634E+03  0.00000000000E+00 0.  1.
          1   -1    0    0  502    0  0.00000000000E+00 -0.00000000000E+00 -0.48167581228E+02  0.48167581228E+02  0.00000000000E+00 0. -1.
         23    2    1    2    0    0 -0.11032955326E+02  0.31595337231E+02  0.14360335140E+03  0.17274366160E+03  0.89991436557E+02 0.  0.
         23    2    1    2    0    0  0.21812039595E+02 -0.11661744723E+02  0.59085589247E+02  0.11141625495E+03  0.91163115622E+02 0.  0.
        -11    1    3    3    0    0  0.16149592768E+02  0.36447826475E+02  0.17300201259E+02  0.43457454653E+02  0.00000000000E+00 0. -1.
         11    1    3    3    0    0 -0.27182548094E+02 -0.48524892439E+01  0.12630315014E+03  0.12928620695E+03  0.00000000000E+00 0.  1.
        -11    1    4    4    0    0 -0.32833900611E+02 -0.20441126283E+02  0.19095425397E+02  0.43133976679E+02  0.00000000000E+00 0.  1.
         11    1    4    4    0    0  0.54645940206E+02  0.87793815592E+01  0.39990163850E+02  0.68282278275E+02  0.00000000000E+00 0. -1.
         21    1    1    2  502  501 -0.10779084269E+02 -0.19933592508E+02  0.98422044639E+01  0.24706391008E+02  0.00000000000E+00 0. -1.
<scales pt_clust_5="13000.00000" pt_clust_6="13000.00000" pt_clust_7="13000.00000" pt_clust_8="13000.00000" pt_clust_9="22.66135"></scales>
<clustering>
<clus scale="   22.661">  2  9  1 -1</clus>
<clus scale="   89.991">  5  6 -1 -1</clus>
<clus scale="   91.163">  7  8 -1 -1</clus>
<clus scale="   94.439">  1  5  2 -1</clus>
<clus scale="   22.661">  2  5  1 -1</clus>
</clustering>
</event>
<event>
 9    1  0.1435532E-005  0.9721939E+02  0.7546771E-02  0.1286420E+00
         -1   -1    0    0    0  501 -0.00000000000E+00  0.00000000000E+00  0.10942947313E+03  0.10942947313E+03  0.00000000000E+00 0.  1.
          1   -1    0    0  502    0  0.00000000000E+00 -0.00000000000E+00 -0.15590085222E+03  0.15590085222E+03  0.00000000000E+00 0. -1.
         23    2    1    2    0    0  0.30103260491E+02 -0.28103216932E+02  0.28229838426E+02  0.10463870761E+03  0.91958350671E+02 0.  0.
         23    2    1    2    0    0 -0.23239622964E+02 -0.15597219920E+02 -0.39694876148E+02  0.10427990233E+03  0.92278174517E+02 0.  0.
        -13    1    3    3    0    0  0.61870278901E+02 -0.10434959076E+02  0.86103948969E+01  0.63332129938E+02  0.00000000000E+00 0. -1.
         13    1    3    3    0    0 -0.31767018410E+02 -0.17668257856E+02  0.19619443529E+02  0.41306577669E+02  0.00000000000E+00 0.  1.
        -13    1    4    4    0    0  0.55918935148E+01 -0.43580012035E+02  0.49529518364E+01  0.44215590621E+02  0.00000000000E+00 0.  1.
         13    1    4    4    0    0 -0.28831516479E+02  0.27982792115E+02 -0.44647827985E+02  0.60064311707E+02  0.00000000000E+00 0. -1.
         21    1    1    2  502  501 -0.68636375266E+01  0.43700436852E+02 -0.35006341367E+02  0.56411715424E+02  0.00000000000E+00 0.  1.
<scales pt_clust_5="13000.00000" pt_clust_6="13000.00000" pt_clust_7="13000.00000" pt_clust_8="13000.00000" pt_clust_9="44.23616"></scales>
<clustering>
<clus scale="   44.236">  2  9  1 -1</clus>
<clus scale="   91.958">  5  6 -1 -1</clus>
<clus scale="   92.278">  7  8 -1 -1</clus>
<clus scale="   96.916">  1  5  2 -1</clus>
<clus scale="   44.236">  2  5  1 -1</clus>
</clustering>
</event>
<event>
 9    1  0.1435532E-005  0.1117637E+03  0.7546771E-02  0.1259386E+00
          2   -1    0    0  502    0  0.00000000000E+00  0.00000000000E+00  0.10615813289E+03  0.10615813289E+03  0.00000000000E+00 0. -1.
         -2   -1    0    0    0  501 -0.00000000000E+00 -0.00000000000E+00 -0.23173172917E+03  0.23173172917E+03  0.00000000000E+00 0.  1.
         23    2    1    2    0    0 -0.54487391114E+02  0.21620873589E+02 -0.14076821272E+03  0.17606698088E+03  0.88020191322E+02 0.  0.
         23    2    1    2    0    0  0.50780499298E+02 -0.60137859613E+02  0.72961341133E+01  0.12233003016E+03  0.93360491843E+02 0.  0.
        -11    1    3    3    0    0 -0.31486993312E+02  0.52116915792E+02 -0.54489866989E+02  0.81711377812E+02  0.00000000000E+00 0.  1.
         11    1    3    3    0    0 -0.23000397802E+02 -0.30496042203E+02 -0.86278345729E+02  0.94355603071E+02  0.00000000000E+00 0. -1.
        -11    1    4    4    0    0  0.16142461031E+02  0.23444494138E+02  0.13776100494E+02  0.31622844565E+02  0.00000000000E+00 0.  1.
         11    1    4    4    0    0  0.34638038266E+02 -0.83582353751E+02 -0.64799663807E+01  0.90707185591E+02  0.00000000000E+00 0. -1.
         21    1    1    2  502  501  0.37068918163E+01  0.38516986024E+02  0.78984823242E+01  0.39492851028E+02  0.00000000000E+00 0. -1.
<scales pt_clust_5="13000.00000" pt_clust_6="13000.00000" pt_clust_7="13000.00000" pt_clust_8="13000.00000" pt_clust_9="38.69495"></scales>
<clustering>
<clus scale="   38.695">  1  9  2 -1</clus>
<clus scale="   88.020">  5  6 -1 -1</clus>
<clus scale="   93.360">  7  8 -1 -1</clus>
<clus scale="  107.343">  2  5  1 -1</clus>
<clus scale="   38.695">  1  5  2 -1</clus>
</clustering>
</event>
<event>
 9    1  0.1435532E-005  0.1035127E+03  0.7546771E-02  0.1273320E+00
          2   -1    0    0  502    0  0.00000000000E+00  0.00000000000E+00  0.41856575682E+03  0.41856575682E+03  0.00000000000E+00 0.  1.
         -2   -1    0    0    0  501 -0.00000000000E+00 -0.00000000000E+00 -0.39506486625E+02  0.39506486625E+02  0.00000000000E+00 0. -1.
         23    2    1    2    0    0  0.37231718561E+02 -0.45689359476E+02  0.12040171057E+03  0.16379991473E+03  0.94128219576E+02 0.  0.
         23    2    1    2    0    0 -0.73985512986E+01  0.22428088945E+02  0.14740745247E+03  0.17676619731E+03  0.94655024873E+02 0.  0.
        -11    1    4    4    0    0 -0.21934715799E+02  0.55780216798E+02  0.77661676221E+02  0.98101479584E+02  0.00000000000E+00 0.  1.
         11    1    4    4    0    0  0.14536164501E+02 -0.33352127853E+02  0.69745776250E+02  0.78664717729E+02  0.00000000000E+00 0. -1.
        -13    1    3    3    0    0  0.28392653297E+02  0.11109935287E+02  0.97099069981E+02  0.10177329126E+03  0.00000000000E+00 0.  1.
         13    1    3    3    0    0  0.88390652641E+01 -0.56799294763E+02  0.23302640593E+02  0.62026623469E+02  0.00000000000E+00 0. -1.
         21    1    1    2  502  501 -0.29833167263E+02  0.23261270531E+02  0.11125010715E+03  0.11750613140E+03  0.00000000000E+00 0.  1.
<scales pt_clust_5="13000.00000" pt_clust_6="13000.00000" pt_clust_7="13000.00000" pt_clust_8="13000.00000" pt_clust_9="37.82994"></scales>
<clustering>
<clus scale="   37.830">  1  9  2 -1</clus>
<clus scale="   94.128">  7  8 -1 -1</clus>
<clus scale="   94.655">  5  6 -1 -1</clus>
<clus scale="  103.031">  2  7  1 -1</clus>
<clus scale="   37.830">  1  5  2 -1</clus>
</clustering>
</event>
<event>
 9    1  0.1435532E-005  0.1136281E+03  0.7546771E-02  0.1255407E+00
          1   -1    0    0  502    0  0.00000000000E+00  0.00000000000E+00  0.17991228009E+03  0.17991228009E+03  0.00000000000E+00 0. -1.
         -1   -1    0    0    0  501 -0.00000000000E+00 -0.00000000000E+00 -0.10980401123E+03  0.10980401123E+03  0.00000000000E+00 0.  1.
         23    2    1    2    0    0  0.57988927504E+02 -0.18422537166E+02 -0.51316369392E-01  0.10686136081E+03  0.87847835563E+02 0.  0.
         23    2    1    2    0    0 -0.75928053652E+02  0.28422787009E+01  0.11648386841E+02  0.11970339024E+03  0.91760933080E+02 0.  0.
        -11    1    4    4    0    0  0.72904569555E+01 -0.23181377788E+02 -0.14965742616E+02  0.28539454985E+02  0.00000000000E+00 0.  1.
         11    1    4    4    0    0 -0.83218510608E+02  0.26023656489E+02  0.26614129456E+02  0.91163935257E+02  0.00000000000E+00 0. -1.
        -13    1    3    3    0    0 -0.55473221526E+01 -0.37830140808E+02  0.10366816413E+02  0.39615189248E+02  0.00000000000E+00 0. -1.
         13    1    3    3    0    0  0.63536249657E+02  0.19407603643E+02 -0.10418132782E+02  0.67246171566E+02  0.00000000000E+00 0.  1.
         21    1    1    2  502  501  0.17939126148E+02  0.15580258465E+02  0.58511198392E+02  0.63151540267E+02  0.00000000000E+00 0.  1.
<scales pt_clust_5="13000.00000" pt_clust_6="13000.00000" pt_clust_7="13000.00000" pt_clust_8="13000.00000" pt_clust_9="23.76040"></scales>
<clustering>
<clus scale="   23.760">  1  9  2 -1</clus>
<clus scale="   87.848">  7  8 -1 -1</clus>
<clus scale="   91.761">  5  6 -1 -1</clus>
<clus scale="  110.492">  2  7  1 -1</clus>
<clus scale="   23.760">  1  5  2 -1</clus>
</clustering>
</event>
<event>
 9    1  0.1435532E-005  0.9744435E+02  0.7546771E-02  0.1286774E+00
         -1   -1    0    0    0  501 -0.00000000000E+00  0.00000000000E+00  0.22801428152E+03  0.22801428152E+03  0.00000000000E+00 0.  1.
          1   -1    0    0  502    0  0.00000000000E+00 -0.00000000000E+00 -0.85057256807E+02  0.85057256807E+02  0.00000000000E+00 0. -1.
         23    2    1    2    0    0 -0.74336368782E+01  0.25471866480E+02  0.11333836240E+03  0.14777979610E+03  0.91045092143E+02 0.  0.
         23    2    1    2    0    0 -0.24212888509E+02 -0.34478084815E+02  0.61753503608E+02  0.11929975855E+03  0.92972764177E+02 0.  0.
        -13    1    4    4    0    0 -0.41376290022E+02 -0.53184075933E+02  0.19746427640E+02  0.70217267914E+02  0.00000000000E+00 0.  1.
         13    1    4    4    0    0  0.17163401513E+02  0.18705991118E+02  0.42007075968E+02  0.49082490632E+02  0.00000000000E+00 0. -1.
        -13    1    3    3    0    0  0.39533469933E+02  0.19125037115E+02  0.34730593207E+02  0.55989966905E+02  0.00000000000E+00 0. -1.
         13    1    3    3    0    0 -0.46967106811E+02  0.63468293651E+01  0.78607769198E+02  0.91789829194E+02  0.00000000000E+00 0.  1.
         21    1    1    2  502  501  0.31646525387E+02  0.90062183349E+01 -0.32134841299E+02  0.45991983683E+02  0.00000000000E+00 0. -1.
<scales pt_clust_5="13000.00000" pt_clust_6="13000.00000" pt_clust_7="13000.00000" pt_clust_8="13000.00000" pt_clust_9="32.90311"></scales>
<clustering>
<clus scale="   32.903">  2  9  1 -1</clus>
<clus scale="   91.045">  7  8 -1 -1</clus>
<clus scale="   92.973">  5  6 -1 -1</clus>
<clus scale="   95.607">  1  7  2 -1</clus>
<clus scale="   32.903">  2  5  1 -1</clus>
</clustering>
</event>
<event>
 9    1  0.1435532E-005  0.1205185E+03  0.7546771E-02  0.1243721E+00
          1   -1    0    0  502    0  0.00000000000E+00  0.00000000000E+00  0.79791914704E+03  0.79791914704E+03  0.00000000000E+00 0. -1.
         -1   -1    0    0    0  501 -0.00000000000E+00 -0.00000000000E+00 -0.42761150213E+02  0.42761150213E+02  0.00000000000E+00 0.  1.
         23    2    1    2    0    0 -0.11693348399E+02  0.52765521988E+02  0.12298242690E+03  0.16264806470E+03  0.91699405219E+02 0.  0.
         23    2    1    2    0    0 -0.14562893252E+02 -0.10842228887E+03  0.23767297324E+03  0.27875868632E+03  0.96179480175E+02 0.  0.
        -11    1    4    4    0    0 -0.42382909196E+02 -0.10359506112E+02  0.76051683107E+02  0.87678326069E+02  0.00000000000E+00 0. -1.
         11    1    4    4    0    0  0.27820015944E+02 -0.98062782762E+02  0.16162129013E+03  0.19108036025E+03  0.00000000000E+00 0.  1.
        -13    1    3    3    0    0 -0.46172558829E+02  0.10062564524E+02  0.34440009168E+02  0.58474563915E+02  0.00000000000E+00 0.  1.
         13    1    3    3    0    0  0.34479210430E+02  0.42702957464E+02  0.88542417736E+02  0.10417350079E+03  0.00000000000E+00 0. -1.
         21    1    1    2  502  501  0.26256241651E+02  0.55656766886E+02  0.39450259669E+03  0.39927354623E+03  0.00000000000E+00 0. -1.
<scales pt_clust_5="13000.00000" pt_clust_6="13000.00000" pt_clust_7="13000.00000" pt_clust_8="13000.00000" pt_clust_9="61.53914"></scales>
<clustering>
<clus scale="   61.539">  1  9  2 -1</clus>
<clus scale="   91.699">  7  8 -1 -1</clus>
<clus scale="   96.179">  5  6 -1 -1</clus>
<clus scale="  116.974">  2  7  1 -1</clus>
<clus scale="   61.539">  1  5  2 -1</clus>
</clustering>
</event>
<event>
 9    1  0.1435532E-005  0.1018645E+03  0.7546771E-02  0.1277640E+00
          2   -1    0    0  502    0  0.00000000000E+00  0.00000000000E+00  0.52132824777E+03  0.52132824777E+03  0.00000000000E+00 0. -1.
         -2   -1    0    0    0  501 -0.00000000000E+00 -0.00000000000E+00 -0.43316773137E+02  0.43316773137E+02  0.00000000000E+00 0.  1.
         23    2    1    2    0    0  0.33792044433E+02  0.30740869681E+02  0.43632123089E+02  0.10869242324E+03  0.88449857940E+02 0.  0.
         23    2    1    2    0    0 -0.10556628297E+02 -0.52829556511E+02  0.35173522833E+03  0.36730810685E+03  0.91077824257E+02 0.  0.
        -11    1    4    4    0    0  0.22289382812E+02  0.73475842828E+01  0.28681091381E+02  0.37059527571E+02  0.00000000000E+00 0.  1.
         11    1    4    4    0    0 -0.32846011109E+02 -0.60177140794E+02  0.32305413695E+03  0.33024857928E+03  0.00000000000E+00 0. -1.
        -13    1    3    3    0    0  0.27128386164E+02 -0.18810366971E+01  0.64085537287E+02  0.69616404132E+02  0.00000000000E+00 0. -1.
         13    1    3    3    0    0  0.66636582691E+01  0.32621906378E+02 -0.20453414198E+02  0.39076019111E+02  0.00000000000E+00 0.  1.
         21    1    1    2  502  501 -0.23235416136E+02  0.22088686830E+02  0.82644123219E+02  0.88644490814E+02  0.00000000000E+00 0. -1.
<scales pt_clust_5="13000.00000" pt_clust_6="13000.00000" pt_clust_7="13000.00000" pt_clust_8="13000.00000" pt_clust_9="32.05924"></scales>
<clustering>
<clus scale="   32.059">  1  9  2 -1</clus>
<clus scale="   88.450">  7  8 -1 -1</clus>
<clus scale="   91.078">  5  6 -1 -1</clus>
<clus scale="   99.522">  2  7  1 -1</clus>
<clus scale="   32.059">  1  5  2 -1</clus>
</clustering>
</event>
<event>
 9    1  0.1435532E-005  0.9917600E+02  0.7546771E-02  0.1283528E+00
         -1   -1    0    0    0  501 -0.00000000000E+00  0.00000000000E+00  0.36433968298E+02  0.36433968298E+02  0.00000000000E+00 0.  1.
          1   -1    0    0  502    0  0.00000000000E+00 -0.00000000000E+00 -0.35601416207E+03  0.35601416207E+03  0.00000000000E+00 0. -1.
         23    2    1    2    0    0  0.78356935184E+01  0.44282755118E+02 -0.95165774309E+02  0.13937507974E+03  0.91359333179E+02 0.  0.
         23    2    1    2    0    0  0.90423450482E+01 -0.29869110458E+02 -0.16659239433E+03  0.19113753635E+03  0.88354989618E+02 0.  0.
        -11    1    3    3    0    0 -0.37305437621E+02  0.21868311656E+01 -0.20931628721E+02  0.42832359117E+02  0.00000000000E+00 0. -1.
         11    1    3    3    0    0  0.45141131139E+02  0.42095923952E+02 -0.74234145589E+02  0.96542720623E+02  0.00000000000E+00 0.  1.
        -11    1    4    4    0    0 -0.38232033579E+02 -0.24679828098E+02 -0.70333589370E+02  0.83771093464E+02  0.00000000000E+00 0. -1.
         11    1    4    4    0    0  0.47274378627E+02 -0.51892823602E+01 -0.96258804955E+02  0.10736644288E+03  0.00000000000E+00 0.  1.
         21    1    1    2  502  501 -0.16878038567E+02 -0.14413644660E+02 -0.57822025133E+02  0.61935514277E+02  0.00000000000E+00 0. -1.
<scales pt_clust_5="13000.00000" pt_clust_6="13000.00000" pt_clust_7="13000.00000" pt_clust_8="13000.00000" pt_clust_9="22.19507"></scales>
<clustering>
<clus scale="   22.195">  2  9  1 -1</clus>
<clus scale="   88.355">  7  8 -1 -1</clus>
<clus scale="   91.359">  5  6 -1 -1</clus>
<clus scale="   96.416">  2  7  1 -1</clus>
<clus scale="   22.195">  2  5  1 -1</clus>
</clustering>
</event>
<event>
 9    1  0.1435532E-005  0.1433843E+03  0.7546771E-02  0.1211451E+00
          2   -1    0    0  502    0  0.00000000000E+00  0.00000000000E+00  0.73912033578E+03  0.73912033578E+03  0.00000000000E+00 0. -1.
         -2   -1    0    0    0  501 -0.00000000000E+00 -0.00000000000E+00 -0.10851237580E+03  0.10851237580E+03  0.00000000000E+00 0.  1.
         23    2    1    2    0    0  0.29531466665E+02 -0.10670399490E+03 -0.47156556536E+02  0.15254387711E+03  0.93744565537E+02 0.  0.
         23    2    1    2    0    0 -0.76236315274E+01  0.89586525620E+02  0.46664498393E+03  0.48214654642E+03  0.81387258670E+02 0.  0.
        -11    1    4    4    0    0  0.32266496719E+02  0.28064041032E+02  0.10953219745E+03  0.11758409539E+03  0.00000000000E+00 0.  1.
         11    1    4    4    0    0 -0.39890128246E+02  0.61522484588E+02  0.35711278647E+03  0.36456245103E+03  0.00000000000E+00 0. -1.
        -13    1    3    3    0    0  0.50002417070E+02 -0.10479874526E+03 -0.18969813005E+02  0.11765573733E+03  0.00000000000E+00 0.  1.
         13    1    3    3    0    0 -0.20470950405E+02 -0.19052496455E+01 -0.28186743530E+02  0.34888139783E+02  0.00000000000E+00 0. -1.
         21    1    1    2  502  501 -0.21907835138E+02  0.17117469282E+02  0.21111953260E+03  0.21294228805E+03  0.00000000000E+00 0.  1.
<scales pt_clust_5="13000.00000" pt_clust_6="13000.00000" pt_clust_7="13000.00000" pt_clust_8="13000.00000" pt_clust_9="27.80218"></scales>
<clustering>
<clus scale="   27.802">  1  9  2 -1</clus>
<clus scale="   81.387">  5  6 -1 -1</clus>
<clus scale="   93.745">  7  8 -1 -1</clus>
<clus scale="  135.628">  1  5  2 -1</clus>
<clus scale="   27.802">  1  5  2 -1</clus>
</clustering>
</event>
<event>
 9    1  0.1435532E-005  0.9928090E+02  0.7546771E-02  0.1282804E+00
         -1   -1    0    0    0  501 -0.00000000000E+00  0.00000000000E+00  0.63985702874E+02  0.63985702874E+02  0.00000000000E+00 0.  1.
          1   -1    0    0  502    0  0.00000000000E+00 -0.00000000000E+00 -0.77823204035E+03  0.77823204035E+03  0.00000000000E+00 0. -1.
         23    2    1    2    0    0 -0.25470700816E+02 -0.15273063899E+02  0.75209476558E+01  0.98897402134E+02  0.94032485952E+02 0.  0.
         23    2    1    2    0    0  0.24972256985E+02  0.68991594360E+02 -0.57739030086E+03  0.58927280769E+03  0.92083813114E+02 0.  0.
        -11    1    3    3    0    0 -0.50885074919E+02 -0.38695703418E+02  0.72303739845E+01  0.64334490131E+02  0.00000000000E+00 0.  1.
         11    1    3    3    0    0  0.25414374103E+02  0.23422639519E+02  0.29057367136E+00  0.34562912003E+02  0.00000000000E+00 0. -1.
        -13    1    4    4    0    0  0.37640526805E+02 -0.87719145390E+01 -0.17067023341E+03  0.17499166927E+03  0.00000000000E+00 0.  1.
         13    1    4    4    0    0 -0.12668269820E+02  0.77763508899E+02 -0.40672006746E+03  0.41428113842E+03  0.00000000000E+00 0. -1.
         21    1    1    2  502  501  0.49844383080E+00 -0.53718530462E+02 -0.14437698427E+03  0.15404753341E+03  0.00000000000E+00 0.  1.
<scales pt_clust_5="13000.00000" pt_clust_6="13000.00000" pt_clust_7="13000.00000" pt_clust_8="13000.00000" pt_clust_9="53.72084"></scales>
<clustering>
<clus scale="   53.721">  2  9  1 -1</clus>
<clus scale="   92.084">  7  8 -1 -1</clus>
<clus scale="   94.032">  5  6 -1 -1</clus>
<clus scale="   97.437">  2  7  1 -1</clus>
<clus scale="   53.721">  2  5  1 -1</clus>
</clustering>
</event>
<event>
 9    1  0.1435532E-005  0.9641649E+02  0.7546771E-02  0.1289824E+00
         -1   -1    0    0    0  501 -0.00000000000E+00  0.00000000000E+00  0.11578337409E+03  0.11578337409E+03  0.00000000000E+00 0.  1.
          1   -1    0    0  502    0  0.00000000000E+00 -0.00000000000E+00 -0.15057905223E+03  0.15057905223E+03  0.00000000000E+00 0. -1.
         23    2    1    2    0    0  0.21306897609E+02 -0.24874675960E+01  0.60916797227E+02  0.11490313075E+03  0.95035266563E+02 0.  0.
         23    2    1    2    0    0  0.18469629039E+00  0.14750748988E+01 -0.59646346809E+02  0.10946311507E+03  0.91772963958E+02 0.  0.
        -11    1    4    4    0    0  0.44025874160E+02 -0.27270538364E+01 -0.45089822846E+02  0.63077781686E+02  0.00000000000E+00 0.  1.
         11    1    4    4    0    0 -0.43841177870E+02  0.42021287351E+01 -0.14556523964E+02  0.46385333380E+02  0.00000000000E+00 0. -1.
        -11    1    3    3    0    0  0.48684951674E+02 -0.27450843324E+02  0.19171520460E+02  0.59087397264E+02  0.00000000000E+00 0.  1.
         11    1    3    3    0    0 -0.27378054065E+02  0.24963375728E+02  0.41745276767E+02  0.55815733485E+02  0.00000000000E+00 0. -1.
         21    1    1    2  502  501 -0.21491593899E+02  0.10123926973E+01 -0.36066128565E+02  0.41996180504E+02  0.00000000000E+00 0. -1.
<scales pt_clust_5="13000.00000" pt_clust_6="13000.00000" pt_clust_7="13000.00000" pt_clust_8="13000.00000" pt_clust_9="21.51543"></scales>
<clustering>
<clus scale="   21.515">  2  9  1 -1</clus>
<clus scale="   91.773">  5  6 -1 -1</clus>
<clus scale="   93.203">  2  5  1 -1</clus>
<clus scale="   95.035">  7  8 -1 -1</clus>
<clus scale="   21.515">  2  5  1 -1</clus>
</clustering>
</event>
<event>
 9    1  0.1435532E-005  0.1867600E+03  0.7546771E-02  0.1161586E+00
         -1   -1    0    0    0  501 -0.00000000000E+00  0.00000000000E+00  0.41371784976E+03  0.41371784976E+03  0.00000000000E+00 0.  1.
          1   -1    0    0  502    0  0.00000000000E+00 -0.00000000000E+00 -0.14254001241E+03  0.14254001241E+03  0.00000000000E+00 0. -1.
         23    2    1    2    0    0  0.16025719578E+03  0.65861290203E+01  0.22961650694E+03  0.29369884728E+03  0.88371526754E+02 0.  0.
         23    2    1    2    0    0 -0.16649110088E+03 -0.62604906546E+02  0.50218835009E+02  0.20553342945E+03  0.89907720661E+02 0.  0.
        -11    1    4    4    0    0  0.49426669113E+01 -0.22750566077E+02  0.67384838783E+01  0.24236859904E+02  0.00000000000E+00 0.  1.
         11    1    4    4    0    0 -0.17143376779E+03 -0.39854340469E+02  0.43480351131E+02  0.18129656955E+03  0.00000000000E+00 0. -1.
        -13    1    3    3    0    0  0.70404104551E+02  0.29510900818E+02  0.16151506574E+03  0.17864699176E+03  0.00000000000E+00 0.  1.
         13    1    3    3    0    0  0.89853091230E+02 -0.22924771798E+02  0.68101441206E+02  0.11505185553E+03  0.00000000000E+00 0. -1.
         21    1    1    2  502  501  0.62339051014E+01  0.56018777526E+02 -0.86575046000E+01  0.57025585435E+02  0.00000000000E+00 0. -1.
<scales pt_clust_5="13000.00000" pt_clust_6="13000.00000" pt_clust_7="13000.00000" pt_clust_8="13000.00000" pt_clust_9="56.36457"></scales>
<clustering>
<clus scale="   56.365">  2  9  1 -1</clus>
<clus scale="   88.372">  7  8 -1 -1</clus>
<clus scale="   89.908">  5  6 -1 -1</clus>
<clus scale="  186.025">  1  7  2 -1</clus>
<clus scale="   56.365">  2  5  1 -1</clus>
</clustering>
</event>
<event>
 9    1  0.1435532E-005  0.9432361E+02  0.7546771E-02  0.1293927E+00
          2   -1    0    0  502    0  0.00000000000E+00  0.00000000000E+00  0.33457934500E+03  0.33457934500E+03  0.00000000000E+00 0. -1.
         -2   -1    0    0    0  501 -0.00000000000E+00 -0.00000000000E+00 -0.50010668313E+02  0.50010668313E+02  0.00000000000E+00 0.  1.
         23    2    1    2    0    0 -0.16283357895E+01 -0.16709537989E+02  0.46855148678E+02  0.10297057929E+03  0.90142526618E+02 0.  0.
         23    2    1    2    0    0  0.34253986508E+02  0.80317133197E+01  0.10290357443E+03  0.14264655426E+03  0.92309532554E+02 0.  0.
        -11    1    3    3    0    0  0.18520317826E+02 -0.48659799860E+02  0.16828587781E+02  0.54717270231E+02  0.00000000000E+00 0. -1.
         11    1    3    3    0    0 -0.20148653616E+02  0.31950261871E+02  0.30026560897E+02  0.48253309062E+02  0.00000000000E+00 0.  1.
        -11    1    4    4    0    0  0.56940415778E+02  0.30849312851E+02  0.81076160383E+02  0.10376528723E+03  0.00000000000E+00 0. -1.
         11    1    4    4    0    0 -0.22686429269E+02 -0.22817599531E+02  0.21827414047E+02  0.38881267023E+02  0.00000000000E+00 0.  1.
         21    1    1    2  502  501 -0.32625650719E+02  0.86778246693E+01  0.13480995358E+03  0.13897287976E+03  0.00000000000E+00 0. -1.
<scales pt_clust_5="13000.00000" pt_clust_6="13000.00000" pt_clust_7="13000.00000" pt_clust_8="13000.00000" pt_clust_9="33.76000"></scales>
<clustering>
<clus scale="   33.760">  1  9  2 -1</clus>
<clus scale="   90.143">  5  6 -1 -1</clus>
<clus scale="   92.204">  2  5  1 -1</clus>
<clus scale="   92.310">  7  8 -1 -1</clus>
<clus scale="   33.760">  1  5  2 -1</clus>
</clustering>
</event>
<event>
 9    1  0.1435532E-005  0.9474418E+02  0.7546771E-02  0.1292067E+00
         -2   -1    0    0    0  501 -0.00000000000E+00  0.00000000000E+00  0.28240557494E+03  0.28240557494E+03  0.00000000000E+00 0.  1.
          2   -1    0    0  502    0  0.00000000000E+00 -0.00000000000E+00 -0.43860203756E+02  0.43860203756E+02  0.00000000000E+00 0. -1.
         23    2    1    2    0    0 -0.12984818001E+02 -0.10663673269E+02  0.13051934349E+03  0.15985108508E+03  0.90745528539E+02 0.  0.
         23    2    1    2    0    0  0.14827551069E+02  0.36464897121E+02  0.94686705979E+02  0.13731080519E+03  0.91318891480E+02 0.  0.
        -11    1    4    4    0    0  0.86161102752E+01  0.65510932090E+02  0.81207187034E+02  0.10469253462E+03  0.00000000000E+00 0.  1.
         11    1    4    4    0    0  0.62114407935E+01 -0.29046034969E+02  0.13479518944E+02  0.32618270572E+02  0.00000000000E+00 0. -1.
        -11    1    3    3    0    0 -0.66431930541E+01  0.30321430431E+02  0.10340804142E+02  0.32717783966E+02  0.00000000000E+00 0.  1.
         11    1    3    3    0    0 -0.63416249467E+01 -0.40985103699E+02  0.12017853935E+03  0.12713330111E+03  0.00000000000E+00 0. -1.
         21    1    1    2  502  501 -0.18427330679E+01 -0.25801223852E+02  0.13339321711E+02  0.29103888420E+02  0.00000000000E+00 0. -1.
<scales pt_clust_5="13000.00000" pt_clust_6="13000.00000" pt_clust_7="13000.00000" pt_clust_8="13000.00000" pt_clust_9="25.86694"></scales>
<clustering>
<clus scale="   25.867">  2  9  1 -1</clus>
<clus scale="   90.746">  7  8 -1 -1</clus>
<clus scale="   91.319">  5  6 -1 -1</clus>
<clus scale="   94.192">  1  7  2 -1</clus>
<clus scale="   25.867">  2  5  1 -1</clus>
</clustering>
</event>
<event>
 9    1  0.1435532E-005  0.9897621E+02  0.7546771E-02  0.1282548E+00
          4   -1    0    0  502    0  0.00000000000E+00  0.00000000000E+00  0.24382123263E+03  0.24382123263E+03  0.00000000000E+00 0.  1.
         -4   -1    0    0    0  501 -0.00000000000E+00 -0.00000000000E+00 -0.14185981129E+03  0.14185981129E+03  0.00000000000E+00 0. -1.
         23    2    1    2    0    0 -0.13576610065E+02  0.22967746219E+02 -0.96514022586E+02  0.13603589378E+03  0.92081301765E+02 0.  0.
         23    2    1    2    0    0  0.38113504953E+02 -0.34727491264E+00  0.19090470148E+03  0.21542438052E+03  0.92251280823E+02 0.  0.
        -11    1    4    4    0    0 -0.16545308841E+01  0.25776931445E+02  0.15138126994E+03  0.15356912631E+03  0.00000000000E+00 0.  1.
         11    1    4    4    0    0  0.39768035837E+02 -0.26124206358E+02  0.39523431544E+02  0.61855254208E+02  0.00000000000E+00 0. -1.
        -13    1    3    3    0    0  0.23055128368E+02 -0.43608891941E+01  0.56331431875E+01  0.24130656866E+02  0.00000000000E+00 0.  1.
         13    1    3    3    0    0 -0.36631738433E+02  0.27328635413E+02 -0.10214716577E+03  0.11190523692E+03  0.00000000000E+00 0. -1.
         21    1    1    2  502  501 -0.24536894888E+02 -0.22620471307E+02  0.75707424437E+01  0.34220769629E+02  0.00000000000E+00 0. -1.
<scales pt_clust_5="13000.00000" pt_clust_6="13000.00000" pt_clust_7="13000.00000" pt_clust_8="13000.00000" pt_clust_9="33.37282"></scales>
<clustering>
<clus scale="   33.373">  2  9  1 -1</clus>
<clus scale="   92.081">  7  8 -1 -1</clus>
<clus scale="   92.251">  5  6 -1 -1</clus>
<clus scale="   98.818">  2  7  1 -1</clus>
<clus scale="   98.976">  1  5  2 -1</clus>
</clustering>
</event>
<event>
 9    1  0.1435532E-005  0.9711433E+02  0.7546771E-02  0.1287384E+00
          1   -1    0    0  502    0  0.00000000000E+00  0.00000000000E+00  0.23774417377E+03  0.23774417377E+03  0.00000000000E+00 0. -1.
         -1   -1    0    0    0  501 -0.00000000000E+00 -0.00000000000E+00 -0.20615026263E+03  0.20615026263E+03  0.00000000000E+00 0.  1.
         23    2    1    2    0    0  0.86934966017E+01 -0.29183661790E+02 -0.15621083665E+03  0.18270173100E+03  0.89726439952E+02 0.  0.
         23    2    1    2    0    0 -0.52359660436E+02  0.30716592901E+02  0.57839095854E+02  0.12407905027E+03  0.91461503297E+02 0.  0.
        -13    1    3    3    0    0  0.49367216973E+02 -0.14192350978E+02 -0.82149347398E+02  0.96886842326E+02  0.00000000000E+00 0. -1.
         13    1    3    3    0    0 -0.40673720371E+02 -0.14991310812E+02 -0.74061489251E+02  0.85814888678E+02  0.00000000000E+00 0.  1.
        -13    1    4    4    0    0 -0.92160335818E+01 -0.27391311298E+02 -0.36265581736E+01  0.29126811253E+02  0.00000000000E+00 0.  1.
         13    1    4    4    0    0 -0.43143626855E+02  0.58107904199E+02  0.61465654028E+02  0.94952239013E+02  0.00000000000E+00 0. -1.
         21    1    1    2  502  501  0.43666163835E+02 -0.15329311107E+01  0.12996565193E+03  0.13711365513E+03  0.00000000000E+00 0. -1.
<scales pt_clust_5="13000.00000" pt_clust_6="13000.00000" pt_clust_7="13000.00000" pt_clust_8="13000.00000" pt_clust_9="43.69306"></scales>
<clustering>
<clus scale="   43.693">  1  9  2 -1</clus>
<clus scale="   89.726">  5  6 -1 -1</clus>
<clus scale="   91.462">  7  8 -1 -1</clus>
<clus scale="   95.482">  2  5  1 -1</clus>
<clus scale="   43.693">  1  5  2 -1</clus>
</clustering>
</event>
<event>
 9    1  0.1435532E-005  0.1918048E+03  0.7546771E-02  0.1157603E+00
         -1   -1    0    0    0  501 -0.00000000000E+00  0.00000000000E+00  0.12428727759E+03  0.12428727759E+03  0.00000000000E+00 0.  1.
          1   -1    0    0  502    0  0.00000000000E+00 -0.00000000000E+00 -0.16095182389E+04  0.16095182389E+04  0.00000000000E+00 0. -1.
         23    2    1    2    0    0  0.15100651527E+03  0.57579473022E+02  0.20145931812E+02  0.19009969342E+03  0.98049331991E+02 0.  0.
         23    2    1    2    0    0 -0.22458804396E+03  0.49959979218E+01 -0.11603331236E+04  0.11853971100E+04  0.91261170886E+02 0.  0.
        -13    1    3    3    0    0  0.19589545580E+02  0.87497646850E+01 -0.33674513795E+02  0.39928455485E+02  0.00000000000E+00 0. -1.
         13    1    3    3    0    0  0.13141696969E+03  0.48829708338E+02  0.53820445607E+02  0.15017123794E+03  0.00000000000E+00 0.  1.
        -13    1    4    4    0    0 -0.91623867548E+01  0.23254341198E+02 -0.87671736932E+02  0.91164944865E+02  0.00000000000E+00 0.  1.
         13    1    4    4    0    0 -0.21542565721E+03 -0.18258343276E+02 -0.10726613866E+04  0.10942321652E+04  0.00000000000E+00 0. -1.
         21    1    1    2  502  501  0.73581528693E+02 -0.62575470944E+02 -0.34504376956E+03  0.35830871304E+03  0.00000000000E+00 0. -1.
<scales pt_clust_5="13000.00000" pt_clust_6="13000.00000" pt_clust_7="13000.00000" pt_clust_8="13000.00000" pt_clust_9="96.59157"></scales>
<clustering>
<clus scale="   91.261">  7  8 -1 -1</clus>
<clus scale="   96.592">  2  9  1 -1</clus>
<clus scale="   98.049">  5  6 -1 -1</clus>
<clus scale="  188.425">  2  7  1 -1</clus>
<clus scale="   96.592">  2  5  1 -1</clus>
</clustering>
</event>
<event>
 9    1  0.1435532E-005  0.1050438E+03  0.7546771E-02  0.1270866E+00
         -1   -1    0    0    0  501 -0.00000000000E+00  0.00000000000E+00  0.60089428001E+02  0.60089428001E+02  0.00000000000E+00 0.  1.
          1   -1    0    0  502    0  0.00000000000E+00 -0.00000000000E+00 -0.28194855866E+03  0.28194855866E+03  0.00000000000E+00 0. -1.
         23    2    1    2    0    0 -0.48144335805E+02  0.10346673640E+02 -0.45263227777E+02  0.11735402602E+03  0.96427573384E+02 0.  0.
         23    2    1    2    0    0  0.29563162575E+02  0.21892278364E+02 -0.13448199638E+03  0.16848617469E+03  0.94598791103E+02 0.  0.
        -11    1    3    3    0    0 -0.33014977430E+01  0.29290018512E+02 -0.59698765078E+02  0.66578882715E+02  0.00000000000E+00 0. -1.
         11    1    3    3    0    0 -0.44842838062E+02 -0.18943344872E+02  0.14435537301E+02  0.50775143305E+02  0.00000000000E+00 0.  1.
        -13    1    4    4    0    0  0.55224383697E+02  0.12641392274E+01 -0.12080277331E+03  0.13283313082E+03  0.00000000000E+00 0.  1.
         13    1    4    4    0    0 -0.25661221121E+02  0.20628139137E+02 -0.13679223066E+02  0.35653043873E+02  0.00000000000E+00 0. -1.
         21    1    1    2  502  501  0.18581173230E+02 -0.32238952004E+02 -0.42113906506E+02  0.56197785954E+02  0.00000000000E+00 0.  1.
<scales pt_clust_5="13000.00000" pt_clust_6="13000.00000" pt_clust_7="13000.00000" pt_clust_8="13000.00000" pt_clust_9="37.21035"></scales>
<clustering>
<clus scale="   37.210">  2  9  1 -1</clus>
<clus scale="   94.599">  7  8 -1 -1</clus>
<clus scale="   96.428">  5  6 -1 -1</clus>
<clus scale="  103.368">  2  7  1 -1</clus>
<clus scale="   37.210">  2  5  1 -1</clus>
</clustering>
</event>
<event>
 9    1  0.1435532E-005  0.1148644E+03  0.7546771E-02  0.1252084E+00
          2   -1    0    0  502    0  0.00000000000E+00  0.00000000000E+00  0.72701440532E+02  0.72701440532E+02  0.00000000000E+00 0. -1.
         -2   -1    0    0    0  501 -0.00000000000E+00 -0.00000000000E+00 -0.24635405306E+03  0.24635405306E+03  0.00000000000E+00 0.  1.
         23    2    1    2    0    0  0.61060812152E+02  0.50220950231E+01 -0.96218913276E+02  0.14596746240E+03  0.91075664083E+02 0.  0.
         23    2    1    2    0    0 -0.79577788191E+02 -0.16246026546E+02 -0.87012555895E+02  0.14941083678E+03  0.90309775290E+02 0.  0.
        -13    1    4    4    0    0 -0.67450436122E+02 -0.39359303419E+02 -0.24788624071E+02  0.81934070948E+02  0.00000000000E+00 0. -1.
         13    1    4    4    0    0 -0.12127352068E+02  0.23113276873E+02 -0.62223931824E+02  0.67476765835E+02  0.00000000000E+00 0.  1.
        -13    1    3    3    0    0  0.80235811443E+02 -0.13391330178E+02 -0.83227591516E+02  0.11637845656E+03  0.00000000000E+00 0.  1.
         13    1    3    3    0    0 -0.19174999291E+02  0.18413425202E+02 -0.12991321760E+02  0.29589005839E+02  0.00000000000E+00 0. -1.
         21    1    1    2  502  501  0.18516976039E+02  0.11223931523E+02  0.95788566442E+01  0.23677194409E+02  0.00000000000E+00 0. -1.
<scales pt_clust_5="13000.00000" pt_clust_6="13000.00000" pt_clust_7="13000.00000" pt_clust_8="13000.00000" pt_clust_9="21.65306"></scales>
<clustering>
<clus scale="   21.653">  1  9  2 -1</clus>
<clus scale="   90.310">  5  6 -1 -1</clus>
<clus scale="   91.076">  7  8 -1 -1</clus>
<clus scale="  114.258">  1  5  2 -1</clus>
<clus scale="   21.653">  1  5  2 -1</clus>
</clustering>
</event>
<event>
 9    1  0.1435532E-005  0.9580742E+02  0.7546771E-02  0.1290009E+00
          1   -1    0    0  502    0  0.00000000000E+00  0.00000000000E+00  0.92348335355E+02  0.92348335355E+02  0.00000000000E+00 0. -1.
         -1   -1    0    0    0  501 -0.00000000000E+00 -0.00000000000E+00 -0.25527952681E+03  0.25527952681E+03  0.00000000000E+00 0.  1.
         23    2    1    2    0    0 -0.80909086704E+01  0.52473580768E+02 -0.13812023490E+03  0.17392713075E+03  0.91402997983E+02 0.  0.
         23    2    1    2    0    0  0.15485221955E+02  0.18188750084E+02 -0.39197872011E+02  0.10121056514E+03  0.90202453383E+02 0.  0.
        -11    1    3    3    0    0 -0.23293210715E+02  0.95902010469E+01 -0.12364024733E+03  0.12618025353E+03  0.00000000000E+00 0.  1.
         11    1    3    3    0    0  0.15202302045E+02  0.42883379721E+02 -0.14479987565E+02  0.47746877214E+02  0.00000000000E+00 0. -1.
        -13    1    4    4    0    0 -0.13647263893E+02  0.38671974134E+02  0.83037723618E+01  0.41841630353E+02  0.00000000000E+00 0. -1.
         13    1    4    4    0    0  0.29132485848E+02 -0.20483224049E+02 -0.47501644372E+02  0.59368934783E+02  0.00000000000E+00 0.  1.
         21    1    1    2  502  501 -0.73943132849E+01 -0.70662330853E+02  0.14386915457E+02  0.72490166277E+02  0.00000000000E+00 0.  1.
<scales pt_clust_5="13000.00000" pt_clust_6="13000.00000" pt_clust_7="13000.00000" pt_clust_8="13000.00000" pt_clust_9="71.04816"></scales>
<clustering>
<clus scale="   71.048">  1  9  2 -1</clus>
<clus scale="   90.202">  7  8 -1 -1</clus>
<clus scale="   91.403">  5  6 -1 -1</clus>
<clus scale="   94.663">  1  7  2 -1</clus>
<clus scale="   71.048">  1  5  2 -1</clus>
</clustering>
</event>
<event>
 9    1  0.1435532E-005  0.1041290E+03  0.7546771E-02  0.1272355E+00
         -2   -1    0    0    0  501 -0.00000000000E+00  0.00000000000E+00  0.32540501694E+03  0.32540501694E+03  0.00000000000E+00 0.  1.
          2   -1    0    0  502    0  0.00000000000E+00 -0.00000000000E+00 -0.70119686646E+02  0.70119686646E+02  0.00000000000E+00 0. -1.
         23    2    1    2    0    0 -0.28895887137E+02  0.67893775601E+02  0.18444696623E+03  0.21815297472E+03  0.90141555169E+02 0.  0.
         23    2    1    2    0    0 -0.11706459540E+02 -0.19927293914E+02  0.64621009287E+02  0.11422119901E+03  0.91304267283E+02 0.  0.
        -13    1    3    3    0    0 -0.58961440828E+02  0.36514509717E+02  0.13859574274E+03  0.15497916256E+03  0.00000000000E+00 0.  1.
         13    1    3    3    0    0  0.30065553692E+02  0.31379265885E+02  0.45851223491E+02  0.63173812152E+02  0.00000000000E+00 0. -1.
        -13    1    4    4    0    0  0.20843310842E+02 -0.46798739975E+02  0.42516349986E+02  0.66574812702E+02  0.00000000000E+00 0. -1.
         13    1    4    4    0    0 -0.32549770382E+02  0.26871446061E+02  0.22104659302E+02  0.47646386308E+02  0.00000000000E+00 0.  1.
         21    1    1    2  502  501  0.40602346677E+02 -0.47966481687E+02  0.62173547798E+01  0.63150529860E+02  0.00000000000E+00 0. -1.
<scales pt_clust_5="13000.00000" pt_clust_6="13000.00000" pt_clust_7="13000.00000" pt_clust_8="13000.00000" pt_clust_9="62.84373"></scales>
<clustering>
<clus scale="   62.844">  2  9  1 -1</clus>
<clus scale="   90.142">  5  6 -1 -1</clus>
<clus scale="   91.304">  7  8 -1 -1</clus>
<clus scale="  103.111">  1  5  2 -1</clus>
<clus scale="   62.844">  2  5  1 -1</clus>
</clustering>
</event>
<event>
 9    1  0.1435532E-005  0.1031166E+03  0.7546771E-02  0.1274919E+00
          1   -1    0    0  502    0  0.00000000000E+00  0.00000000000E+00  0.15677247262E+03  0.15677247262E+03  0.00000000000E+00 0. -1.
         -1   -1    0    0    0  501 -0.00000000000E+00 -0.00000000000E+00 -0.30115763262E+03  0.30115763262E+03  0.00000000000E+00 0.  1.
         23    2    1    2    0    0 -0.15895588973E+02  0.10598754239E+02 -0.24605703577E+03  0.26273976843E+03  0.90128340289E+02 0.  0.
         23    2    1    2    0    0  0.44809167206E+02 -0.16621980021E+02  0.12123877973E+03  0.15976241018E+03  0.92417716441E+02 0.  0.
        -13    1    4    4    0    0  0.67084533836E+02  0.11067072307E+02  0.71885872566E+02  0.98946417035E+02  0.00000000000E+00 0. -1.
         13    1    4    4    0    0 -0.22275366630E+02 -0.27689052328E+02  0.49352907160E+02  0.60815993147E+02  0.00000000000E+00 0.  1.
        -13    1    3    3    0    0 -0.30205685891E+02  0.30974142051E+02 -0.22778197466E+03  0.23185428380E+03  0.00000000000E+00 0.  1.
         13    1    3    3    0    0  0.14310096918E+02 -0.20375387813E+02 -0.18275061105E+02  0.30885484628E+02  0.00000000000E+00 0. -1.
         21    1    1    2  502  501 -0.28913578233E+02  0.60232257824E+01 -0.19566903959E+02  0.35427926634E+02  0.00000000000E+00 0.  1.
<scales pt_clust_5="13000.00000" pt_clust_6="13000.00000" pt_clust_7="13000.00000" pt_clust_8="13000.00000" pt_clust_9="29.53429"></scales>
<clustering>
<clus scale="   29.534">  2  9  1 -1</clus>
<clus scale="   90.128">  7  8 -1 -1</clus>
<clus scale="   92.418">  5  6 -1 -1</clus>
<clus scale="  101.070">  2  7  1 -1</clus>
<clus scale="  103.117">  1  5  2 -1</clus>
</clustering>
</event>
<event>
 9    1  0.1435532E-005  0.1114834E+03  0.7546771E-02  0.1257909E+00
          2   -1    0    0  502    0  0.00000000000E+00  0.00000000000E+00  0.18778363736E+03  0.18778363736E+03  0.00000000000E+00 0. -1.
         -2   -1    0    0    0  501 -0.00000000000E+00 -0.00000000000E+00 -0.14087543767E+03  0.14087543767E+03  0.00000000000E+00 0.  1.
         23    2    1    2    0    0 -0.46523295081E+02 -0.76162684282E+02 -0.40082142752E+02  0.13377111556E+03  0.91230267608E+02 0.  0.
         23    2    1    2    0    0  0.71374638182E+01  0.58085608420E+02  0.10208844835E+03  0.14899703251E+03  0.91395749980E+02 0.  0.
        -13    1    3    3    0    0 -0.55954855262E+02 -0.42947756666E+02 -0.61124603445E+02  0.93336342206E+02  0.00000000000E+00 0.  1.
         13    1    3    3    0    0  0.94315601809E+01 -0.33214927616E+02  0.21042460694E+02  0.40434773352E+02  0.00000000000E+00 0. -1.
        -13    1    4    4    0    0 -0.30566540629E+02  0.25983969150E+02  0.89233235142E+02  0.97836855595E+02  0.00000000000E+00 0. -1.
         13    1    4    4    0    0  0.37704004447E+02  0.32101639270E+02  0.12855213209E+02  0.51160176914E+02  0.00000000000E+00 0.  1.
         21    1    1    2  502  501  0.39385831263E+02  0.18077075861E+02 -0.15098105908E+02  0.45890926968E+02  0.00000000000E+00 0. -1.
<scales pt_clust_5="13000.00000" pt_clust_6="13000.00000" pt_clust_7="13000.00000" pt_clust_8="13000.00000" pt_clust_9="43.33618"></scales>
<clustering>
<clus scale="   43.336">  2  9  1 -1</clus>
<clus scale="   91.230">  5  6 -1 -1</clus>
<clus scale="   91.396">  7  8 -1 -1</clus>
<clus scale="  111.348">  2  5  1 -1</clus>
<clus scale="  111.483">  1  5  2 -1</clus>
</clustering>
</event>
<event>
 9    1  0.1435532E-005  0.1545496E+03  0.7546771E-02  0.1195245E+00
         -2   -1    0    0    0  501 -0.00000000000E+00  0.00000000000E+00  0.27947087068E+03  0.27947087068E+03  0.00000000000E+00 0.  1.
          2   -1    0    0  502    0  0.00000000000E+00 -0.00000000000E+00 -0.22390609210E+03  0.22390609210E+03  0.00000000000E+00 0. -1.
         23    2    1    2    0    0 -0.11538537535E+03 -0.33103976529E+02  0.20562980407E+03  0.25581194450E+03  0.93522598982E+02 0.  0.
         23    2    1    2    0    0  0.13791794185E+03  0.43176749502E+02 -0.13833604762E+03  0.22023836040E+03  0.92100395984E+02 0.  0.
        -13    1    3    3    0    0 -0.22019709410E+02  0.22154890878E+02  0.98525875340E+02  0.10335886466E+03  0.00000000000E+00 0.  1.
         13    1    3    3    0    0 -0.93365665937E+02 -0.55258867407E+02  0.10710392873E+03  0.15245307984E+03  0.00000000000E+00 0. -1.
        -13    1    4    4    0    0  0.12395250337E+03  0.62772806183E+02 -0.13849129240E+03  0.19617463230E+03  0.00000000000E+00 0. -1.
         13    1    4    4    0    0  0.13965438473E+02 -0.19596056681E+02  0.15524477620E+00  0.24063728101E+02  0.00000000000E+00 0.  1.
         21    1    1    2  502  501 -0.22532566501E+02 -0.10072772973E+02 -0.11728977875E+02  0.27326657872E+02  0.00000000000E+00 0. -1.
<scales pt_clust_5="13000.00000" pt_clust_6="13000.00000" pt_clust_7="13000.00000" pt_clust_8="13000.00000" pt_clust_9="24.68152"></scales>
<clustering>
<clus scale="   24.682">  2  9  1 -1</clus>
<clus scale="   92.100">  7  8 -1 -1</clus>
<clus scale="   93.523">  5  6 -1 -1</clus>
<clus scale="  153.693">  2  7  1 -1</clus>
<clus scale="   24.682">  2  5  1 -1</clus>
</clustering>
</event>
<event>
 9    1  0.1435532E-005  0.3436203E+03  0.7546771E-02  0.1065284E+00
         -2   -1    0    0    0  501 -0.00000000000E+00  0.00000000000E+00  0.10193647107E+03  0.10193647107E+03  0.00000000000E+00 0.  1.
          2   -1    0    0  502    0  0.00000000000E+00 -0.00000000000E+00 -0.18827590079E+04  0.18827590079E+04  0.00000000000E+00 0. -1.
         23    2    1    2    0    0 -0.30167659116E+03  0.13975765261E+03 -0.31661098463E+03  0.46824220869E+03  0.92017842266E+02 0.  0.
         23    2    1    2    0    0  0.27429516820E+03 -0.17987913162E+03 -0.13494291220E+04  0.13918158694E+04  0.92726036709E+02 0.  0.
        -11    1    3    3    0    0 -0.12743153126E+02  0.30428194350E+02 -0.51479689415E+02  0.61142631488E+02  0.00000000000E+00 0. -1.
         11    1    3    3    0    0 -0.28893343803E+03  0.10932945827E+03 -0.26513129522E+03  0.40709957720E+03  0.00000000000E+00 0.  1.
        -13    1    4    4    0    0  0.49686010085E+02 -0.10025617800E+02 -0.11501395588E+03  0.12568779837E+03  0.00000000000E+00 0.  1.
         13    1    4    4    0    0  0.22460915811E+03 -0.16985351382E+03 -0.12344151661E+04  0.12661280711E+04  0.00000000000E+00 0. -1.
         21    1    1    2  502  501  0.27381422961E+02  0.40121479008E+02 -0.11478243023E+03  0.12463740085E+03  0.00000000000E+00 0. -1.
<scales pt_clust_5="13000.00000" pt_clust_6="13000.00000" pt_clust_7="13000.00000" pt_clust_8="13000.00000" pt_clust_9="48.57443"></scales>
<clustering>
<clus scale="   48.574">  2  9  1 -1</clus>
<clus scale="   92.018">  5  6 -1 -1</clus>
<clus scale="   92.726">  7  8 -1 -1</clus>
<clus scale="  343.430">  1  5  2 -1</clus>
<clus scale="   48.574">  2  5  1 -1</clus>
</clustering>
</event>
<event>
 9    1  0.1435532E-005  0.1295397E+03  0.7546771E-02  0.1231276E+00
         -1   -1    0    0    0  501 -0.00000000000E+00  0.00000000000E+00  0.74579661402E+03  0.74579661402E+03  0.00000000000E+00 0.  1.
          1   -1    0    0  502    0  0.00000000000E+00 -0.00000000000E+00 -0.27843013697E+02  0.27843013697E+02  0.00000000000E+00 0. -1.
         23    2    1    2    0    0 -0.70342011881E+02 -0.18666074316E+02  0.30009489984E+03  0.32179755414E+03  0.90555485602E+02 0.  0.
         23    2    1    2    0    0  0.77425863892E+02  0.51972721535E+02  0.34448274369E+03  0.37094989384E+03  0.10119058679E+03 0.  0.
        -13    1    4    4    0    0  0.44983343694E+02 -0.26684933422E+02  0.12114042083E+03  0.13194918886E+03  0.00000000000E+00 0.  1.
         13    1    4    4    0    0  0.32442520198E+02  0.78657654957E+02  0.22334232286E+03  0.23900070498E+03  0.00000000000E+00 0. -1.
        -13    1    3    3    0    0  0.10908598480E+01 -0.38487959106E+02  0.67916431775E+02  0.78071471591E+02  0.00000000000E+00 0.  1.
         13    1    3    3    0    0 -0.71432871729E+02  0.19821884790E+02  0.23217846807E+03  0.24372608255E+03  0.00000000000E+00 0. -1.
         21    1    1    2  502  501 -0.70838520110E+01 -0.33306647220E+02  0.73375956798E+02  0.80892179748E+02  0.00000000000E+00 0.  1.
<scales pt_clust_5="13000.00000" pt_clust_6="13000.00000" pt_clust_7="13000.00000" pt_clust_8="13000.00000" pt_clust_9="34.05163"></scales>
<clustering>
<clus scale="   34.052">  2  9  1 -1</clus>
<clus scale="   90.555">  7  8 -1 -1</clus>
<clus scale="  101.191">  5  6 -1 -1</clus>
<clus scale="  121.414">  1  7  2 -1</clus>
<clus scale="   34.052">  2  5  1 -1</clus>
</clustering>
</event>
<event>
 9    1  0.1435532E-005  0.3027768E+03  0.7546771E-02  0.1083896E+00
         -1   -1    0    0    0  501 -0.00000000000E+00  0.00000000000E+00  0.58306264006E+03  0.58306264006E+03  0.00000000000E+00 0.  1.
          1   -1    0    0  502    0  0.00000000000E+00 -0.00000000000E+00 -0.19044536218E+03  0.19044536218E+03  0.00000000000E+00 0. -1.
         23    2    1    2    0    0 -0.73349846084E+01  0.28587529313E+03  0.29947212141E+03  0.42424878179E+03  0.92330883923E+02 0.  0.
         23    2    1    2    0    0 -0.13261937485E+02 -0.29187150165E+03  0.10570242742E+03  0.32440217376E+03  0.93267972618E+02 0.  0.
        -13    1    4    4    0    0  0.55008008519E+01 -0.44793828652E+02 -0.16584109436E+02  0.48080958612E+02  0.00000000000E+00 0.  1.
         13    1    4    4    0    0 -0.18762738336E+02 -0.24707767300E+03  0.12228653686E+03  0.27632121515E+03  0.00000000000E+00 0. -1.
        -13    1    3    3    0    0 -0.24838328661E+02  0.51081259537E+02  0.23450301538E+02  0.61450421389E+02  0.00000000000E+00 0. -1.
         13    1    3    3    0    0  0.17503344053E+02  0.23479403360E+03  0.27602181987E+03  0.36279836040E+03  0.00000000000E+00 0.  1.
         21    1    1    2  502  501  0.20596922093E+02  0.59962085130E+01 -0.12557270952E+02  0.24857046687E+02  0.00000000000E+00 0.  1.
<scales pt_clust_5="13000.00000" pt_clust_6="13000.00000" pt_clust_7="13000.00000" pt_clust_8="13000.00000" pt_clust_9="21.45199"></scales>
<clustering>
<clus scale="   21.452">  2  9  1 -1</clus>
<clus scale="   92.331">  7  8 -1 -1</clus>
<clus scale="   93.268">  5  6 -1 -1</clus>
<clus scale="  302.489">  1  7  2 -1</clus>
<clus scale="   21.452">  2  5  1 -1</clus>
</clustering>
</event>
<event>
 9    1  0.1435532E-005  0.1186362E+03  0.7546771E-02  0.1253224E+00
          1   -1    0    0  502    0  0.00000000000E+00  0.00000000000E+00  0.12343734821E+04  0.12343734821E+04  0.00000000000E+00 0. -1.
         -1   -1    0    0    0  501 -0.00000000000E+00 -0.00000000000E+00 -0.85194000014E+02  0.85194000014E+02  0.00000000000E+00 0.  1.
         23    2    1    2    0    0  0.71091440186E+02 -0.14379787949E+02 -0.30467510184E+02  0.12129867438E+03  0.92327287736E+02 0.  0.
         23    2    1    2    0    0  0.27632780110E+02 -0.25672417449E+02  0.48321227454E+03  0.49373210401E+03  0.94099121742E+02 0.  0.
        -11    1    4    4    0    0 -0.25914513971E+02  0.18585377948E+02  0.14786341225E+03  0.15126323740E+03  0.00000000000E+00 0. -1.
         11    1    4    4    0    0  0.53547294082E+02 -0.44257795397E+02  0.33534886229E+03  0.34246886661E+03  0.00000000000E+00 0.  1.
        -11    1    3    3    0    0  0.34446870557E+02 -0.53565333469E+02 -0.18686814627E+02  0.66370391604E+02  0.00000000000E+00 0.  1.
         11    1    3    3    0    0  0.36644569629E+02  0.39185545520E+02 -0.11780695556E+02  0.54928282777E+02  0.00000000000E+00 0. -1.
         21    1    1    2  502  501 -0.98724220296E+02  0.40052205397E+02  0.69643471776E+03  0.70453670375E+03  0.00000000000E+00 0. -1.
<scales pt_clust_5="13000.00000" pt_clust_6="13000.00000" pt_clust_7="13000.00000" pt_clust_8="13000.00000" pt_clust_9="74.49979"></scales>
<clustering>
<clus scale="   92.327">  7  8 -1 -1</clus>
<clus scale="   94.099">  5  6 -1 -1</clus>
<clus scale="  101.377">  1  5  2 -1</clus>
<clus scale="   74.500">  1  9  2 -1</clus>
<clus scale="  101.377">  1  5  2 -1</clus>
</clustering>
</event>
<event>
 9    1  0.1435532E-005  0.2412298E+03  0.7546771E-02  0.1119245E+00
          1   -1    0    0  502    0  0.00000000000E+00  0.00000000000E+00  0.75760586931E+03  0.75760586931E+03  0.00000000000E+00 0. -1.
         -1   -1    0    0    0  501 -0.00000000000E+00 -0.00000000000E+00 -0.10778087957E+03  0.10778087957E+03  0.00000000000E+00 0.  1.
         23    2    1    2    0    0 -0.63818137980E+02 -0.18360368390E+03  0.10764786469E+03  0.24270960294E+03  0.97656649068E+02 0.  0.
         23    2    1    2    0    0  0.43352261934E+02  0.22895722049E+03  0.48988051690E+03  0.55049175555E+03  0.93581112717E+02 0.  0.
        -11    1    4    4    0    0 -0.24718990523E+02  0.11806068313E+03  0.25063820498E+03  0.27815258975E+03  0.00000000000E+00 0. -1.
         11    1    4    4    0    0  0.68071252458E+02  0.11089653737E+03  0.23924231192E+03  0.27233916579E+03  0.00000000000E+00 0.  1.
        -13    1    3    3    0    0  0.98401646771E+01 -0.69018739458E+02  0.10237757101E+01  0.69724194896E+02  0.00000000000E+00 0.  1.
         13    1    3    3    0    0 -0.73658302657E+02 -0.11458494445E+03  0.10662408898E+03  0.17298540804E+03  0.00000000000E+00 0. -1.
         21    1    1    2  502  501  0.20465876046E+02 -0.45353536588E+02  0.52296608146E+02  0.72185390398E+02  0.00000000000E+00 0. -1.
<scales pt_clust_5="13000.00000" pt_clust_6="13000.00000" pt_clust_7="13000.00000" pt_clust_8="13000.00000" pt_clust_9="49.75736"></scales>
<clustering>
<clus scale="   49.757">  2  9  1 -1</clus>
<clus scale="   93.581">  5  6 -1 -1</clus>
<clus scale="   97.657">  7  8 -1 -1</clus>
<clus scale="  239.609">  1  5  2 -1</clus>
<clus scale="  239.609">  1  5  2 -1</clus>
</clustering>
</event>
<event>
 9    1  0.1435532E-005  0.1390303E+03  0.7546771E-02  0.1215866E+00
          2   -1    0    0  502    0  0.00000000000E+00  0.00000000000E+00  0.64585623359E+03  0.64585623359E+03  0.00000000000E+00 0. -1.
         -2   -1    0    0    0  501 -0.00000000000E+00 -0.00000000000E+00 -0.39913436373E+02  0.39913436373E+02  0.00000000000E+00 0.  1.
         23    2    1    2    0    0 -0.77749880106E+02 -0.73112118408E+02  0.18858642203E+03  0.23762738013E+03  0.97526957792E+02 0.  0.
         23    2    1    2    0    0  0.79045485329E+02  0.43011580409E+02  0.29191763920E+03  0.31913609825E+03  0.92378332601E+02 0.  0.
        -11    1    3    3    0    0 -0.11876545300E+01 -0.24972892173E+02 -0.35675192519E+01  0.25254367155E+02  0.00000000000E+00 0. -1.
         11    1    3    3    0    0 -0.76562225576E+02 -0.48139226235E+02  0.19215394128E+03  0.21237301297E+03  0.00000000000E+00 0.  1.
        -13    1    4    4    0    0  0.36794517426E+02  0.13378262884E+02  0.23202207199E+02  0.45509964286E+02  0.00000000000E+00 0.  1.
         13    1    4    4    0    0  0.42250967903E+02  0.29633317526E+02  0.26871543200E+03  0.27362613397E+03  0.00000000000E+00 0. -1.
         21    1    1    2  502  501 -0.12956052233E+01  0.30100537999E+02  0.12543873599E+03  0.12900619159E+03  0.00000000000E+00 0. -1.
<scales pt_clust_5="13000.00000" pt_clust_6="13000.00000" pt_clust_7="13000.00000" pt_clust_8="13000.00000" pt_clust_9="30.12841"></scales>
<clustering>
<clus scale="   30.128">  1  9  2 -1</clus>
<clus scale="   92.378">  7  8 -1 -1</clus>
<clus scale="   97.527">  5  6 -1 -1</clus>
<clus scale="  135.468">  1  7  2 -1</clus>
<clus scale="   30.128">  1  5  2 -1</clus>
</clustering>
</event>
<event>
 9    1  0.1435532E-005  0.1042813E+03  0.7546771E-02  0.1272525E+00
          1   -1    0    0  502    0  0.00000000000E+00  0.00000000000E+00  0.78647706626E+02  0.78647706626E+02  0.00000000000E+00 0. -1.
         -1   -1    0    0    0  501 -0.00000000000E+00 -0.00000000000E+00 -0.28779211343E+03  0.28779211343E+03  0.00000000000E+00 0.  1.
         23    2    1    2    0    0 -0.23098941568E+02 -0.49080858117E+02 -0.10954775636E+03  0.15255896305E+03  0.91274501084E+02 0.  0.
         23    2    1    2    0    0 -0.11308968076E+02  0.50886544123E+02  0.54642109783E+01  0.10331436411E+03  0.89031831941E+02 0.  0.
        -11    1    3    3    0    0  0.27868213998E+02  0.41374984139E+00 -0.86969243348E+01  0.29196661338E+02  0.00000000000E+00 0.  1.
         11    1    3    3    0    0 -0.50967155566E+02 -0.49494607959E+02 -0.10085083202E+03  0.12336230171E+03  0.00000000000E+00 0. -1.
        -11    1    4    4    0    0  0.13348255481E+02  0.48958796074E+02 -0.30842915557E+02  0.59383710540E+02  0.00000000000E+00 0.  1.
         11    1    4    4    0    0 -0.24657223557E+02  0.19277480489E+01  0.36307126536E+02  0.43930653573E+02  0.00000000000E+00 0. -1.
         21    1    1    2  502  501  0.34407909644E+02 -0.18056860052E+01 -0.10506086142E+03  0.11056649289E+03  0.00000000000E+00 0.  1.
<scales pt_clust_5="13000.00000" pt_clust_6="13000.00000" pt_clust_7="13000.00000" pt_clust_8="13000.00000" pt_clust_9="34.45526"></scales>
<clustering>
<clus scale="   34.455">  2  9  1 -1</clus>
<clus scale="   89.032">  7  8 -1 -1</clus>
<clus scale="   91.275">  5  6 -1 -1</clus>
<clus scale="  102.324">  1  7  2 -1</clus>
<clus scale="  102.324">  1  5  2 -1</clus>
</clustering>
</event>
<event>
 9    1  0.1435532E-005  0.9287318E+02  0.7546771E-02  0.1297496E+00
          2   -1    0    0  502    0  0.00000000000E+00  0.00000000000E+00  0.52013665209E+03  0.52013665209E+03  0.00000000000E+00 0. -1.
         -2   -1    0    0    0  501 -0.00000000000E+00 -0.00000000000E+00 -0.41130428112E+02  0.41130428112E+02  0.00000000000E+00 0.  1.
         23    2    1    2    0    0 -0.10643461349E+02 -0.15202513597E+02  0.38941030306E+02  0.99767646611E+02  0.89959878723E+02 0.  0.
         23    2    1    2    0    0  0.10639022984E+02  0.49245618562E+02  0.37140216293E+03  0.38486037823E+03  0.87404944636E+02 0.  0.
        -11    1    4    4    0    0 -0.31284997229E+02  0.22793703211E+02  0.75599815625E+02  0.84933127107E+02  0.00000000000E+00 0. -1.
         11    1    4    4    0    0  0.41924020213E+02  0.26451915350E+02  0.29580234730E+03  0.29992725112E+03  0.00000000000E+00 0.  1.
        -13    1    3    3    0    0  0.30126654239E+02 -0.77936989763E+01 -0.12653747539E+02  0.33592772528E+02  0.00000000000E+00 0.  1.
         13    1    3    3    0    0 -0.40770115588E+02 -0.74088146204E+01  0.51594777844E+02  0.66174874083E+02  0.00000000000E+00 0. -1.
         21    1    1    2  502  501  0.44383650648E-02 -0.34043104965E+02  0.68663030743E+02  0.76639055358E+02  0.00000000000E+00 0.  1.
<scales pt_clust_5="13000.00000" pt_clust_6="13000.00000" pt_clust_7="13000.00000" pt_clust_8="13000.00000" pt_clust_9="34.04311"></scales>
<clustering>
<clus scale="   34.043">  1  9  2 -1</clus>
<clus scale="   87.405">  5  6 -1 -1</clus>
<clus scale="   89.960">  7  8 -1 -1</clus>
<clus scale="   90.401">  1  5  2 -1</clus>
<clus scale="   34.043">  1  5  2 -1</clus>
</clustering>
</event>
<event>
 9    1  0.1435532E-005  0.9549749E+02  0.7546771E-02  0.1292626E+00
         -2   -1    0    0    0  501 -0.00000000000E+00  0.00000000000E+00  0.14760125749E+02  0.14760125749E+02  0.00000000000E+00 0.  1.
          2   -1    0    0  502    0  0.00000000000E+00 -0.00000000000E+00 -0.90966103089E+03  0.90966103089E+03  0.00000000000E+00 0. -1.
         23    2    1    2    0    0  0.10635512165E+02  0.14735835186E+01 -0.27648063516E+03  0.28993994776E+03  0.86650713356E+02 0.  0.
         23    2    1    2    0    0 -0.21239343098E+02 -0.39659905100E+02 -0.46595378161E+03  0.47694814421E+03  0.91337768200E+02 0.  0.
        -11    1    4    4    0    0 -0.54825232242E+02 -0.75843047750E+01 -0.25884228013E+03  0.26469350908E+03  0.00000000000E+00 0. -1.
         11    1    4    4    0    0  0.33585889145E+02 -0.32075600325E+02 -0.20711150149E+03  0.21225463513E+03  0.00000000000E+00 0.  1.
        -11    1    3    3    0    0  0.57658585022E+01 -0.36344434402E+02 -0.21084694377E+03  0.21403410180E+03  0.00000000000E+00 0. -1.
         11    1    3    3    0    0  0.48696536632E+01  0.37818017921E+02 -0.65633691383E+02  0.75905845959E+02  0.00000000000E+00 0.  1.
         21    1    1    2  502  501  0.10603830932E+02  0.38186321581E+02 -0.15246648837E+03  0.15753306467E+03  0.00000000000E+00 0.  1.
<scales pt_clust_5="13000.00000" pt_clust_6="13000.00000" pt_clust_7="13000.00000" pt_clust_8="13000.00000" pt_clust_9="39.63126"></scales>
<clustering>
<clus scale="   39.631">  1  9  2 -1</clus>
<clus scale="   86.651">  7  8 -1 -1</clus>
<clus scale="   91.025">  1  7  2 -1</clus>
<clus scale="   91.338">  5  6 -1 -1</clus>
<clus scale="   95.497">  2  5  1 -1</clus>
</clustering>
</event>
<event>
 9    1  0.1435532E-005  0.2417405E+03  0.7546771E-02  0.1119219E+00
         -2   -1    0    0    0  501 -0.00000000000E+00  0.00000000000E+00  0.32668882218E+02  0.32668882218E+02  0.00000000000E+00 0.  1.
          2   -1    0    0  502    0  0.00000000000E+00 -0.00000000000E+00 -0.22159542532E+04  0.22159542532E+04  0.00000000000E+00 0. -1.
         23    2    1    2    0    0  0.22150015358E+03 -0.99724685248E+02 -0.84627437534E+03  0.88523561418E+03  0.91948047101E+02 0.  0.
         23    2    1    2    0    0 -0.17290401950E+03  0.10217515176E+03 -0.10390354593E+04  0.10614653304E+04  0.82331041968E+02 0.  0.
        -11    1    4    4    0    0 -0.13433848525E+03  0.33780645057E+02 -0.65642592656E+03  0.67088222339E+03  0.00000000000E+00 0.  1.
         11    1    4    4    0    0 -0.38565534251E+02  0.68394506700E+02 -0.38260953269E+03  0.39058310702E+03  0.00000000000E+00 0. -1.
        -13    1    3    3    0    0  0.14815519991E+03 -0.57194908079E+02 -0.38902658636E+03  0.42019389056E+03  0.00000000000E+00 0.  1.
         13    1    3    3    0    0  0.73344953666E+02 -0.42529777170E+02 -0.45724778898E+03  0.46504172361E+03  0.00000000000E+00 0. -1.
         21    1    1    2  502  501 -0.48596134080E+02 -0.24504665093E+01 -0.29797553640E+03  0.30192219085E+03  0.00000000000E+00 0.  1.
<scales pt_clust_5="13000.00000" pt_clust_6="13000.00000" pt_clust_7="13000.00000" pt_clust_8="13000.00000" pt_clust_9="48.65788"></scales>
<clustering>
<clus scale="   48.658">  2  9  1 -1</clus>
<clus scale="   82.331">  5  6 -1 -1</clus>
<clus scale="   91.948">  7  8 -1 -1</clus>
<clus scale="  238.249">  2  5  1 -1</clus>
<clus scale="   48.658">  2  5  1 -1</clus>
</clustering>
</event>
<event>
 9    1  0.1435532E-005  0.9690909E+02  0.7546771E-02  0.1287583E+00
          2   -1    0    0  502    0  0.00000000000E+00  0.00000000000E+00  0.13007721129E+03  0.13007721129E+03  0.00000000000E+00 0. -1.
         -2   -1    0    0    0  501 -0.00000000000E+00 -0.00000000000E+00 -0.17659301149E+03  0.17659301149E+03  0.00000000000E+00 0.  1.
         23    2    1    2    0    0 -0.20979864503E+02 -0.11062556381E+01 -0.11324793162E+03  0.15001017280E+03  0.96107124669E+02 0.  0.
         23    2    1    2    0    0 -0.15540054993E+02 -0.13722773584E+01  0.21668577209E+02  0.98603426208E+02  0.94919607918E+02 0.  0.
        -13    1    3    3    0    0 -0.44018922757E+02  0.30072244910E+02 -0.90576216376E+02  0.10510022097E+03  0.00000000000E+00 0. -1.
         13    1    3    3    0    0  0.23039058254E+02 -0.31178500548E+02 -0.22671715241E+02  0.44909951833E+02  0.00000000000E+00 0.  1.
        -13    1    4    4    0    0 -0.17306780758E+02 -0.46659802350E+02  0.38855618599E+01  0.49917526045E+02  0.00000000000E+00 0.  1.
         13    1    4    4    0    0  0.17667257656E+01  0.45287524991E+02  0.17783015349E+02  0.48685900163E+02  0.00000000000E+00 0. -1.
         21    1    1    2  502  501  0.36519919496E+02  0.24785329965E+01  0.45063554204E+02  0.58056623768E+02  0.00000000000E+00 0. -1.
<scales pt_clust_5="13000.00000" pt_clust_6="13000.00000" pt_clust_7="13000.00000" pt_clust_8="13000.00000" pt_clust_9="36.60393"></scales>
<clustering>
<clus scale="   36.604">  1  9  2 -1</clus>
<clus scale="   94.920">  7  8 -1 -1</clus>
<clus scale="   95.732">  1  7  2 -1</clus>
<clus scale="   96.107">  5  6 -1 -1</clus>
<clus scale="   36.604">  1  5  2 -1</clus>
</clustering>
</event>
<event>
 9    1  0.1435532E-005  0.9731213E+02  0.7546771E-02  0.1287251E+00
          4   -1    0    0  502    0  0.00000000000E+00  0.00000000000E+00  0.51821034294E+02  0.51821034294E+02  0.00000000000E+00 0. -1.
         -4   -1    0    0    0  501 -0.00000000000E+00 -0.00000000000E+00 -0.47607738606E+03  0.47607738606E+03  0.00000000000E+00 0.  1.
         23    2    1    2    0    0 -0.74601459120E+01  0.41625984250E+02 -0.36508265536E+03  0.37800006257E+03  0.88376047201E+02 0.  0.
         23    2    1    2    0    0 -0.16813937005E+02 -0.94102399938E+01 -0.58327576676E+02  0.10955233941E+03  0.90710240741E+02 0.  0.
        -11    1    3    3    0    0  0.12812444571E+02  0.65447341534E+02 -0.24705830595E+03  0.25590099606E+03  0.00000000000E+00 0.  1.
         11    1    3    3    0    0 -0.20272590483E+02 -0.23821357284E+02 -0.11802434942E+03  0.12209906651E+03  0.00000000000E+00 0. -1.
        -11    1    4    4    0    0 -0.52474099837E+02 -0.93065034716E+01 -0.19284184235E+02  0.56674702666E+02  0.00000000000E+00 0.  1.
         11    1    4    4    0    0  0.35660162833E+02 -0.10373652226E+00 -0.39043392441E+02  0.52877636746E+02  0.00000000000E+00 0. -1.
         21    1    1    2  502  501  0.24274082917E+02 -0.32215744256E+02 -0.84611972717E+00  0.40346018367E+02  0.00000000000E+00 0. -1.
<scales pt_clust_5="13000.00000" pt_clust_6="13000.00000" pt_clust_7="13000.00000" pt_clust_8="13000.00000" pt_clust_9="40.33715"></scales>
<clustering>
<clus scale="   40.337">  1  9  2 -1</clus>
<clus scale="   88.376">  5  6 -1 -1</clus>
<clus scale="   90.710">  7  8 -1 -1</clus>
<clus scale="   95.140">  2  5  1 -1</clus>
<clus scale="   40.337">  1  5  2 -1</clus>
</clustering>
</event>
<event>
 9    1  0.1435532E-005  0.9360685E+02  0.7546771E-02  0.1295502E+00
          1   -1    0    0  502    0  0.00000000000E+00  0.00000000000E+00  0.27474313647E+03  0.27474313647E+03  0.00000000000E+00 0. -1.
         -1   -1    0    0    0  501 -0.00000000000E+00 -0.00000000000E+00 -0.41775490826E+02  0.41775490826E+02  0.00000000000E+00 0.  1.
         23    2    1    2    0    0  0.25140849540E+02  0.15580479511E+02  0.67539626977E+02  0.11539930845E+03  0.88772662018E+02 0.  0.
         23    2    1    2    0    0 -0.15062770680E+02  0.29716540628E+01  0.12238114473E+03  0.15317369663E+03  0.90825761574E+02 0.  0.
        -11    1    4    4    0    0  0.33654500924E+02 -0.10749619848E+02  0.24537943790E+02  0.43015002555E+02  0.00000000000E+00 0. -1.
         11    1    4    4    0    0 -0.48717271604E+02  0.13721273911E+02  0.97843200936E+02  0.11015869407E+03  0.00000000000E+00 0.  1.
        -13    1    3    3    0    0 -0.32595348596E+02 -0.34516944586E+01  0.23836845385E+02  0.40528584266E+02  0.00000000000E+00 0.  1.
         13    1    3    3    0    0  0.57736198137E+02  0.19032173970E+02  0.43702781592E+02  0.74870724187E+02  0.00000000000E+00 0. -1.
         21    1    1    2  502  501 -0.10078078861E+02 -0.18552133574E+02  0.43046873940E+02  0.47945622216E+02  0.00000000000E+00 0. -1.
<scales pt_clust_5="13000.00000" pt_clust_6="13000.00000" pt_clust_7="13000.00000" pt_clust_8="13000.00000" pt_clust_9="21.11278"></scales>
<clustering>
<clus scale="   21.113">  1  9  2 -1</clus>
<clus scale="   88.773">  7  8 -1 -1</clus>
<clus scale="   90.826">  5  6 -1 -1</clus>
<clus scale="   91.616">  2  7  1 -1</clus>
<clus scale="   21.113">  1  5  2 -1</clus>
</clustering>
</event>
<event>
 9    1  0.1435532E-005  0.9409152E+02  0.7546771E-02  0.1294542E+00
          2   -1    0    0  502    0  0.00000000000E+00  0.00000000000E+00  0.29752624863E+03  0.29752624863E+03  0.00000000000E+00 0. -1.
         -2   -1    0    0    0  501 -0.00000000000E+00 -0.00000000000E+00 -0.50995354389E+02  0.50995354389E+02  0.00000000000E+00 0.  1.
         23    2    1    2    0    0 -0.23485623090E+01  0.22288545236E+02  0.34361788146E+02  0.10013767246E+03  0.91348376934E+02 0.  0.
         23    2    1    2    0    0 -0.22294098084E+02 -0.20741825485E+02  0.11737563173E+03  0.15042753293E+03  0.89017715124E+02 0.  0.
        -11    1    3    3    0    0 -0.33853985899E+02  0.29692094301E+02 -0.91093174353E+01  0.45942273446E+02  0.00000000000E+00 0.  1.
         11    1    3    3    0    0  0.31505423590E+02 -0.74035490653E+01  0.43471105581E+02  0.54195399019E+02  0.00000000000E+00 0. -1.
        -13    1    4    4    0    0 -0.29682145474E+02 -0.41928215561E+02  0.11722751409E+03  0.12798943347E+03  0.00000000000E+00 0. -1.
         13    1    4    4    0    0  0.73880473897E+01  0.21186390076E+02  0.14811764266E+00  0.22438099464E+02  0.00000000000E+00 0.  1.
         21    1    1    2  502  501  0.24642660394E+02 -0.15467197514E+01  0.94793474366E+02  0.97956397625E+02  0.00000000000E+00 0. -1.
<scales pt_clust_5="13000.00000" pt_clust_6="13000.00000" pt_clust_7="13000.00000" pt_clust_8="13000.00000" pt_clust_9="24.69115"></scales>
<clustering>
<clus scale="   24.691">  1  9  2 -1</clus>
<clus scale="   89.018">  7  8 -1 -1</clus>
<clus scale="   91.348">  5  6 -1 -1</clus>
<clus scale="   91.831">  1  7  2 -1</clus>
<clus scale="   24.691">  1  5  2 -1</clus>
</clustering>
</event>
<event>
 9    1  0.1435532E-005  0.9756283E+02  0.7546771E-02  0.1286375E+00
          2   -1    0    0  502    0  0.00000000000E+00  0.00000000000E+00  0.14542695100E+03  0.14542695100E+03  0.00000000000E+00 0. -1.
         -2   -1    0    0    0  501 -0.00000000000E+00 -0.00000000000E+00 -0.14001153799E+03  0.14001153799E+03  0.00000000000E+00 0.  1.
         23    2    1    2    0    0 -0.21166593805E+02 -0.67806658004E+01 -0.81425424923E+02  0.12704998739E+03  0.94961030698E+02 0.  0.
         23    2    1    2    0    0  0.85337353399E+01  0.35428957600E+02  0.73949543504E+02  0.12452850739E+03  0.93331551427E+02 0.  0.
        -11    1    4    4    0    0  0.19811122752E+02  0.65130275926E+02  0.45501148083E+02  0.81882769273E+02  0.00000000000E+00 0.  1.
         11    1    4    4    0    0 -0.11277387412E+02 -0.29701318326E+02  0.28448395422E+02  0.42645738113E+02  0.00000000000E+00 0. -1.
        -13    1    3    3    0    0  0.26762917775E+02 -0.32782836863E+02 -0.28226778591E+02  0.50869629350E+02  0.00000000000E+00 0. -1.
         13    1    3    3    0    0 -0.47929511579E+02  0.26002171063E+02 -0.53198646332E+02  0.76180358044E+02  0.00000000000E+00 0.  1.
         21    1    1    2  502  501  0.12632858465E+02 -0.28648291800E+02  0.12891294420E+02  0.33859994209E+02  0.00000000000E+00 0. -1.
<scales pt_clust_5="13000.00000" pt_clust_6="13000.00000" pt_clust_7="13000.00000" pt_clust_8="13000.00000" pt_clust_9="31.30996"></scales>
<clustering>
<clus scale="   31.310">  1  9  2 -1</clus>
<clus scale="   93.332">  5  6 -1 -1</clus>
<clus scale="   94.961">  7  8 -1 -1</clus>
<clus scale="   95.978">  1  5  2 -1</clus>
<clus scale="   31.310">  1  5  2 -1</clus>
</clustering>
</event>
<event>
 9    1  0.1435532E-005  0.1124992E+03  0.7546771E-02  0.1264539E+00
          3   -1    0    0  502    0  0.00000000000E+00  0.00000000000E+00  0.85645261797E+02  0.85645261797E+02  0.00000000000E+00 0. -1.
         -3   -1    0    0    0  501 -0.00000000000E+00 -0.00000000000E+00 -0.46822712399E+03  0.46822712399E+03  0.00000000000E+00 0.  1.
         23    2    1    2    0    0  0.24049772544E+02  0.20665431490E+02 -0.32683958499E+03  0.34569932680E+03  0.10806691731E+03 0.  0.
         23    2    1    2    0    0  0.38242979909E+02 -0.66891608133E+02 -0.11642339075E+02  0.11894273366E+03  0.89859985980E+02 0.  0.
        -11    1    4    4    0    0  0.11625541741E+02 -0.69810256756E+02  0.23670928256E+02  0.74625317511E+02  0.00000000000E+00 0. -1.
         11    1    4    4    0    0  0.26617438168E+02  0.29186486233E+01 -0.35313267331E+02  0.44317416148E+02  0.00000000000E+00 0.  1.
        -13    1    3    3    0    0 -0.18955768897E+01 -0.43400654208E+02 -0.12066512709E+03  0.12824696056E+03  0.00000000000E+00 0. -1.
         13    1    3    3    0    0  0.25945349434E+02  0.64066085698E+02 -0.20617445789E+03  0.21745236623E+03  0.00000000000E+00 0.  1.
         21    1    1    2  502  501 -0.62292752453E+02  0.46226176643E+02 -0.44099938135E+02  0.89230325331E+02  0.00000000000E+00 0. -1.
<scales pt_clust_5="13000.00000" pt_clust_6="13000.00000" pt_clust_7="13000.00000" pt_clust_8="13000.00000" pt_clust_9="77.57091"></scales>
<clustering>
<clus scale="   77.571">  1  9  2 -1</clus>
<clus scale="   89.860">  5  6 -1 -1</clus>
<clus scale="   95.144">  1  5  2 -1</clus>
<clus scale="  108.067">  7  8 -1 -1</clus>
<clus scale="   77.571">  1  5  2 -1</clus>
</clustering>
</event>
<event>
 9    1  0.1435532E-005  0.1679504E+03  0.7546771E-02  0.1181414E+00
          2   -1    0    0  502    0  0.00000000000E+00  0.00000000000E+00  0.16109522259E+03  0.16109522259E+03  0.00000000000E+00 0. -1.
         -2   -1    0    0    0  501 -0.00000000000E+00 -0.00000000000E+00 -0.72969997869E+03  0.72969997869E+03  0.00000000000E+00 0.  1.
         23    2    1    2    0    0  0.65569327425E+02 -0.12818421145E+03 -0.37556177414E+03  0.41045929087E+03  0.81851417200E+02 0.  0.
         23    2    1    2    0    0 -0.85389619100E+02  0.10854211300E+03 -0.31458911611E+03  0.35562777627E+03  0.91826063479E+02 0.  0.
        -11    1    4    4    0    0 -0.89058606153E+02  0.70724359829E+02 -0.28688755999E+03  0.30860629041E+03  0.00000000000E+00 0.  1.
         11    1    4    4    0    0  0.36689870537E+01  0.37817753171E+02 -0.27701556120E+02  0.47021485859E+02  0.00000000000E+00 0. -1.
        -11    1    3    3    0    0  0.28254485190E+02 -0.11379838733E+01 -0.11187611200E+03  0.11539443391E+03  0.00000000000E+00 0.  1.
         11    1    3    3    0    0  0.37314842235E+02 -0.12704622758E+03 -0.26368566214E+03  0.29506485696E+03  0.00000000000E+00 0. -1.
         21    1    1    2  502  501  0.19820291675E+02  0.19642098454E+02  0.12154613415E+03  0.12470813414E+03  0.00000000000E+00 0. -1.
<scales pt_clust_5="13000.00000" pt_clust_6="13000.00000" pt_clust_7="13000.00000" pt_clust_8="13000.00000" pt_clust_9="27.90441"></scales>
<clustering>
<clus scale="   27.904">  1  9  2 -1</clus>
<clus scale="   81.851">  7  8 -1 -1</clus>
<clus scale="   91.826">  5  6 -1 -1</clus>
<clus scale="  162.711">  2  7  1 -1</clus>
<clus scale="   27.904">  1  5  2 -1</clus>
</clustering>
</event>
<event>
 9    1  0.1435532E-005  0.1006561E+03  0.7546771E-02  0.1280223E+00
          1   -1    0    0  502    0  0.00000000000E+00  0.00000000000E+00  0.25895084452E+02  0.25895084452E+02  0.00000000000E+00 0. -1.
         -1   -1    0    0    0  501 -0.00000000000E+00 -0.00000000000E+00 -0.70913086632E+03  0.70913086632E+03  0.00000000000E+00 0.  1.
         23    2    1    2    0    0 -0.23256262601E+02  0.21499975816E+02 -0.35107167090E+03  0.36304961733E+03  0.86894210532E+02 0.  0.
         23    2    1    2    0    0  0.97022035655E+01 -0.52799562883E+02 -0.12925466164E+03  0.16622011533E+03  0.89668459275E+02 0.  0.
        -11    1    3    3    0    0  0.23553493598E+02  0.34392492054E+02 -0.20249396196E+03  0.20673997001E+03  0.00000000000E+00 0.  1.
         11    1    3    3    0    0 -0.46809756200E+02 -0.12892516239E+02 -0.14857770894E+03  0.15630964732E+03  0.00000000000E+00 0. -1.
        -13    1    4    4    0    0 -0.33458709312E+02 -0.28749268711E+02 -0.98743508272E+02  0.10814936942E+03  0.00000000000E+00 0.  1.
         13    1    4    4    0    0  0.43160912878E+02 -0.24050294172E+02 -0.30511153368E+02  0.58070745906E+02  0.00000000000E+00 0. -1.
         21    1    1    2  502  501  0.13554059036E+02  0.31299587067E+02 -0.20290944933E+03  0.20575621812E+03  0.00000000000E+00 0.  1.
<scales pt_clust_5="13000.00000" pt_clust_6="13000.00000" pt_clust_7="13000.00000" pt_clust_8="13000.00000" pt_clust_9="34.10831"></scales>
<clustering>
<clus scale="   34.108">  2  9  1 -1</clus>
<clus scale="   86.894">  5  6 -1 -1</clus>
<clus scale="   89.668">  7  8 -1 -1</clus>
<clus scale="   98.193">  2  5  1 -1</clus>
<clus scale="  100.656">  1  5  2 -1</clus>
</clustering>
</event>
<event>
 9    1  0.1435532E-005  0.1170596E+03  0.7546771E-02  0.1248281E+00
         -2   -1    0    0    0  501 -0.00000000000E+00  0.00000000000E+00  0.74002332542E+02  0.74002332542E+02  0.00000000000E+00 0.  1.
          2   -1    0    0  502    0  0.00000000000E+00 -0.00000000000E+00 -0.34106379871E+03  0.34106379871E+03  0.00000000000E+00 0. -1.
         23    2    1    2    0    0  0.51412914673E+02 -0.40307729915E+02 -0.20917231141E+02  0.11482282430E+03  0.92080125630E+02 0.  0.
         23    2    1    2    0    0 -0.59195592099E+02  0.67771222370E+02 -0.13787597123E+03  0.18827531853E+03  0.91327736309E+02 0.  0.
        -11    1    4    4    0    0 -0.19191643973E+01 -0.21040866815E+02 -0.13534816732E+02  0.25091682532E+02  0.00000000000E+00 0.  1.
         11    1    4    4    0    0 -0.57276427702E+02  0.88812089184E+02 -0.12434115450E+03  0.16318363600E+03  0.00000000000E+00 0. -1.
        -11    1    3    3    0    0 -0.21854535372E+01  0.20213506779E+02 -0.26945458221E+02  0.33755292654E+02  0.00000000000E+00 0. -1.
         11    1    3    3    0    0  0.53598368210E+02 -0.60521236694E+02  0.60282270793E+01  0.81067531648E+02  0.00000000000E+00 0.  1.
         21    1    1    2  502  501  0.77826774260E+01 -0.27463492454E+02 -0.10826826380E+03  0.11196798842E+03  0.00000000000E+00 0.  1.
<scales pt_clust_5="13000.00000" pt_clust_6="13000.00000" pt_clust_7="13000.00000" pt_clust_8="13000.00000" pt_clust_9="28.54494"></scales>
<clustering>
<clus scale="   28.545">  2  9  1 -1</clus>
<clus scale="   91.328">  5  6 -1 -1</clus>
<clus scale="   92.080">  7  8 -1 -1</clus>
<clus scale="  116.469">  2  5  1 -1</clus>
<clus scale="   28.545">  2  5  1 -1</clus>
</clustering>
</event>
<event>
 9    1  0.1435532E-005  0.9738501E+02  0.7546771E-02  0.1292151E+00
          2   -1    0    0  502    0  0.00000000000E+00  0.00000000000E+00  0.91870509480E+02  0.91870509480E+02  0.00000000000E+00 0. -1.
         -2   -1    0    0    0  501 -0.00000000000E+00 -0.00000000000E+00 -0.13694765583E+03  0.13694765583E+03  0.00000000000E+00 0.  1.
         23    2    1    2    0    0  0.24896550949E+02 -0.49986595059E+02 -0.42142138825E+02  0.11093711494E+03  0.86096374330E+02 0.  0.
         23    2    1    2    0    0 -0.29949104898E+00  0.38024941755E+02 -0.20459328551E+02  0.85397233895E+02  0.73675759526E+02 0.  0.
        -11    1    4    4    0    0  0.20052436516E+01  0.59796003867E+02 -0.21247148719E+02  0.63490348946E+02  0.00000000000E+00 0.  1.
         11    1    4    4    0    0 -0.23047347006E+01 -0.21771062112E+02  0.78782016813E+00  0.21906884949E+02  0.00000000000E+00 0. -1.
        -11    1    3    3    0    0  0.57021710427E+02 -0.36018998474E+02 -0.24914010089E+02  0.71899593947E+02  0.00000000000E+00 0. -1.
         11    1    3    3    0    0 -0.32125159478E+02 -0.13967596585E+02 -0.17228128736E+02  0.39037520997E+02  0.00000000000E+00 0.  1.
         21    1    1    2  502  501 -0.24597059900E+02  0.11961653304E+02  0.17524321022E+02  0.32483816475E+02  0.00000000000E+00 0.  1.
<scales pt_clust_5="13000.00000" pt_clust_6="13000.00000" pt_clust_7="13000.00000" pt_clust_8="13000.00000" pt_clust_9="27.35135"></scales>
<clustering>
<clus scale="   27.351">  1  9  2 -1</clus>
<clus scale="   73.676">  5  6 -1 -1</clus>
<clus scale="   86.096">  7  8 -1 -1</clus>
<clus scale="   86.599">  1  5  2 -1</clus>
<clus scale="   27.351">  1  5  2 -1</clus>
</clustering>
</event>
<event>
 9    1  0.1435532E-005  0.9688933E+02  0.7546771E-02  0.1291708E+00
          1   -1    0    0  502    0  0.00000000000E+00  0.00000000000E+00  0.13292194484E+03  0.13292194484E+03  0.00000000000E+00 0. -1.
         -1   -1    0    0    0  501 -0.00000000000E+00 -0.00000000000E+00 -0.97733513672E+02  0.97733513672E+02  0.00000000000E+00 0.  1.
         23    2    1    2    0    0  0.17023092345E+02  0.16233615809E+02 -0.18383206276E+02  0.96530481374E+02  0.91798015262E+02 0.  0.
         23    2    1    2    0    0 -0.40716934324E+02 -0.16982454265E+02  0.25640259869E+02  0.97490010781E+02  0.83069890949E+02 0.  0.
        -11    1    4    4    0    0 -0.29000777926E+02  0.21532936929E+02 -0.16057894265E+02  0.39529336718E+02  0.00000000000E+00 0.  1.
         11    1    4    4    0    0 -0.11716156398E+02 -0.38515391194E+02  0.41698154135E+02  0.57960674063E+02  0.00000000000E+00 0. -1.
        -11    1    3    3    0    0  0.32074545537E+02 -0.24029126880E+02 -0.32167847250E+02  0.51390133360E+02  0.00000000000E+00 0. -1.
         11    1    3    3    0    0 -0.15051453192E+02  0.40262742689E+02  0.13784640974E+02  0.45140348014E+02  0.00000000000E+00 0.  1.
         21    1    1    2  502  501  0.23693841979E+02  0.74883845576E+00  0.27931377572E+02  0.36634966355E+02  0.00000000000E+00 0. -1.
<scales pt_clust_5="13000.00000" pt_clust_6="13000.00000" pt_clust_7="13000.00000" pt_clust_8="13000.00000" pt_clust_9="23.70567"></scales>
<clustering>
<clus scale="   23.706">  1  9  2 -1</clus>
<clus scale="   83.070">  5  6 -1 -1</clus>
<clus scale="   88.664">  1  5  2 -1</clus>
<clus scale="   91.798">  7  8 -1 -1</clus>
<clus scale="   23.706">  1  5  2 -1</clus>
</clustering>
</event>
<event>
 9    1  0.1435532E-005  0.1062958E+03  0.7546771E-02  0.1269101E+00
         -3   -1    0    0    0  501 -0.00000000000E+00  0.00000000000E+00  0.19993691106E+03  0.19993691106E+03  0.00000000000E+00 0.  1.
          3   -1    0    0  502    0  0.00000000000E+00 -0.00000000000E+00 -0.15402930494E+03  0.15402930494E+03  0.00000000000E+00 0. -1.
         23    2    1    2    0    0 -0.50280864158E+02 -0.35097653067E+01  0.12890431147E+03  0.16400097809E+03  0.87974516465E+02 0.  0.
         23    2    1    2    0    0  0.68221671913E+02 -0.22577910217E+02 -0.18147514238E+02  0.11779975458E+03  0.91561407579E+02 0.  0.
        -11    1    4    4    0    0  0.83216336845E+02 -0.36868025595E+02 -0.27487757227E+02  0.95077793551E+02  0.00000000000E+00 0. -1.
         11    1    4    4    0    0 -0.14994664932E+02  0.14290115379E+02  0.93402429890E+01  0.22721961030E+02  0.00000000000E+00 0.  1.
        -13    1    3    3    0    0 -0.39400282234E+02 -0.30262128056E+02  0.12543222031E+03  0.13491264035E+03  0.00000000000E+00 0.  1.
         13    1    3    3    0    0 -0.10880581924E+02  0.26752362750E+02  0.34720911612E+01  0.29088337744E+02  0.00000000000E+00 0. -1.
         21    1    1    2  502  501 -0.17940807756E+02  0.26087675523E+02 -0.64849191108E+02  0.72165483332E+02  0.00000000000E+00 0.  1.
<scales pt_clust_5="13000.00000" pt_clust_6="13000.00000" pt_clust_7="13000.00000" pt_clust_8="13000.00000" pt_clust_9="31.66132"></scales>
<clustering>
<clus scale="   31.661">  2  9  1 -1</clus>
<clus scale="   87.975">  7  8 -1 -1</clus>
<clus scale="   91.561">  5  6 -1 -1</clus>
<clus scale="  103.222">  1  7  2 -1</clus>
<clus scale="   31.661">  2  5  1 -1</clus>
</clustering>
</event>
<event>
 9    1  0.1435532E-005  0.9957248E+02  0.7546771E-02  0.1281230E+00
          1   -1    0    0  502    0  0.00000000000E+00  0.00000000000E+00  0.14395049994E+03  0.14395049994E+03  0.00000000000E+00 0. -1.
         -1   -1    0    0    0  501 -0.00000000000E+00 -0.00000000000E+00 -0.25118504895E+03  0.25118504895E+03  0.00000000000E+00 0.  1.
         23    2    1    2    0    0 -0.39749614939E+02  0.19283282405E+02 -0.18646770932E+03  0.21236746383E+03  0.91530629876E+02 0.  0.
         23    2    1    2    0    0  0.18712482369E+02 -0.12406357057E+02 -0.63267554646E+01  0.94391887832E+02  0.91464342571E+02 0.  0.
        -11    1    3    3    0    0 -0.63285834873E+02  0.35928569524E+02 -0.13103710530E+03  0.14988889875E+03  0.00000000000E+00 0. -1.
         11    1    3    3    0    0  0.23536219933E+02 -0.16645287119E+02 -0.55430604013E+02  0.62478565071E+02  0.00000000000E+00 0.  1.
        -11    1    4    4    0    0 -0.31164454201E+02  0.91924992595E+01  0.15275573093E+02  0.35903598449E+02  0.00000000000E+00 0. -1.
         11    1    4    4    0    0  0.49876936570E+02 -0.21598856316E+02 -0.21602328558E+02  0.58488289383E+02  0.00000000000E+00 0.  1.
         21    1    1    2  502  501  0.21037132570E+02 -0.68769253483E+01  0.85559915777E+02  0.88376197230E+02  0.00000000000E+00 0. -1.
<scales pt_clust_5="13000.00000" pt_clust_6="13000.00000" pt_clust_7="13000.00000" pt_clust_8="13000.00000" pt_clust_9="22.13262"></scales>
<clustering>
<clus scale="   22.133">  1  9  2 -1</clus>
<clus scale="   91.464">  7  8 -1 -1</clus>
<clus scale="   91.531">  5  6 -1 -1</clus>
<clus scale="   99.512">  1  7  2 -1</clus>
<clus scale="   22.133">  1  5  2 -1</clus>
</clustering>
</event>
<event>
 9    1  0.1435532E-005  0.1081657E+03  0.7546771E-02  0.1268016E+00
          2   -1    0    0  502    0  0.00000000000E+00  0.00000000000E+00  0.20752701702E+03  0.20752701702E+03  0.00000000000E+00 0. -1.
         -2   -1    0    0    0  501 -0.00000000000E+00 -0.00000000000E+00 -0.11782922810E+03  0.11782922810E+03  0.00000000000E+00 0.  1.
         23    2    1    2    0    0 -0.71524817219E+01 -0.28319250632E+02 -0.42115388452E+02  0.11216711215E+03  0.99772827727E+02 0.  0.
         23    2    1    2    0    0 -0.45772531164E+02  0.21193239519E+02  0.11948797722E+03  0.15838267730E+03  0.90903342945E+02 0.  0.
        -11    1    4    4    0    0 -0.52019009191E+02 -0.10040436525E+02  0.11447285110E+03  0.12613810416E+03  0.00000000000E+00 0. -1.
         11    1    4    4    0    0  0.62464780266E+01  0.31233676045E+02  0.50151261222E+01  0.32244573140E+02  0.00000000000E+00 0.  1.
        -13    1    3    3    0    0 -0.18875810719E+02 -0.57107812420E+02 -0.40463035043E+00  0.60147836165E+02  0.00000000000E+00 0. -1.
         13    1    3    3    0    0  0.11723328997E+02  0.28788561788E+02 -0.41710758102E+02  0.52019275985E+02  0.00000000000E+00 0.  1.
         21    1    1    2  502  501  0.52925012886E+02  0.71260111123E+01  0.12325200155E+02  0.54806455662E+02  0.00000000000E+00 0.  1.
<scales pt_clust_5="13000.00000" pt_clust_6="13000.00000" pt_clust_7="13000.00000" pt_clust_8="13000.00000" pt_clust_9="53.40259"></scales>
<clustering>
<clus scale="   53.403">  2  9  1 -1</clus>
<clus scale="   90.903">  5  6 -1 -1</clus>
<clus scale="   99.773">  7  8 -1 -1</clus>
<clus scale="  100.043">  1  5  2 -1</clus>
<clus scale="  100.043">  1  5  2 -1</clus>
</clustering>
</event>
<event>
 9    1  0.1435532E-005  0.2297879E+03  0.7546771E-02  0.1127044E+00
         -1   -1    0    0    0  501 -0.00000000000E+00  0.00000000000E+00  0.82544756012E+02  0.82544756012E+02  0.00000000000E+00 0.  1.
          1   -1    0    0  502    0  0.00000000000E+00 -0.00000000000E+00 -0.14275177623E+04  0.14275177623E+04  0.00000000000E+00 0. -1.
         23    2    1    2    0    0 -0.23045325155E+03  0.90920712755E+02 -0.23258644578E+03  0.35187242180E+03  0.91337119010E+02 0.  0.
         23    2    1    2    0    0  0.19509768509E+03 -0.59493077453E+02 -0.10755850755E+04  0.10982562861E+04  0.87641783070E+02 0.  0.
        -13    1    3    3    0    0 -0.15301412523E+03  0.51984441350E+02 -0.89910127503E+02  0.18493116473E+03  0.00000000000E+00 0.  1.
         13    1    3    3    0    0 -0.77439126324E+02  0.38936271405E+02 -0.14267631827E+03  0.16694125707E+03  0.00000000000E+00 0. -1.
        -13    1    4    4    0    0  0.91586960041E+02 -0.71394174318E+02 -0.49914623645E+03  0.51247659921E+03  0.00000000000E+00 0.  1.
         13    1    4    4    0    0  0.10351072505E+03  0.11901096865E+02 -0.57643883909E+03  0.58577968685E+03  0.00000000000E+00 0. -1.
         21    1    1    2  502  501  0.35355566458E+02 -0.31427635302E+02 -0.36801484997E+02  0.59933810477E+02  0.00000000000E+00 0. -1.
<scales pt_clust_5="13000.00000" pt_clust_6="13000.00000" pt_clust_7="13000.00000" pt_clust_8="13000.00000" pt_clust_9="47.30446"></scales>
<clustering>
<clus scale="   47.304">  1  9  2 -1</clus>
<clus scale="   87.642">  7  8 -1 -1</clus>
<clus scale="   91.337">  5  6 -1 -1</clus>
<clus scale="  228.344">  2  7  1 -1</clus>
<clus scale="  228.344">  2  5  1 -1</clus>
</clustering>
</event>
<event>
 9    1  0.1435532E-005  0.1757907E+03  0.7546771E-02  0.1184188E+00
         -2   -1    0    0    0  501 -0.00000000000E+00  0.00000000000E+00  0.14380515132E+03  0.14380515132E+03  0.00000000000E+00 0.  1.
          2   -1    0    0  502    0  0.00000000000E+00 -0.00000000000E+00 -0.11132267214E+04  0.11132267214E+04  0.00000000000E+00 0. -1.
         23    2    1    2    0    0 -0.11108843795E+03  0.10557426933E+03  0.47705731169E+02  0.18233362368E+03  0.86505179891E+02 0.  0.
         23    2    1    2    0    0  0.71752863915E+02  0.67800203020E+02 -0.21417749781E+03  0.25230273476E+03  0.89662301946E+02 0.  0.
        -13    1    3    3    0    0 -0.54945357959E+02 -0.15893136053E+01  0.13242829283E+02  0.56541054168E+02  0.00000000000E+00 0. -1.
         13    1    3    3    0    0 -0.56143079991E+02  0.10716358294E+03  0.34462901885E+02  0.12579256952E+03  0.00000000000E+00 0.  1.
        -13    1    4    4    0    0 -0.20915265486E+02  0.18605827394E+02 -0.37074127726E+02  0.46455528089E+02  0.00000000000E+00 0.  1.
         13    1    4    4    0    0  0.92668129401E+02  0.49194375626E+02 -0.17710337009E+03  0.20584720668E+03  0.00000000000E+00 0. -1.
         21    1    1    2  502  501  0.39335574034E+02 -0.17337447235E+03 -0.80294980339E+03  0.82239551423E+03  0.00000000000E+00 0. -1.
<scales pt_clust_5="13000.00000" pt_clust_6="13000.00000" pt_clust_7="13000.00000" pt_clust_8="13000.00000" pt_clust_9="153.03339"></scales>
<clustering>
<clus scale="   86.505">  5  6 -1 -1</clus>
<clus scale="   89.662">  7  8 -1 -1</clus>
<clus scale="  133.359">  2  7  1 -1</clus>
<clus scale="  153.033">  2  9  1 -1</clus>
<clus scale="  133.359">  2  5  1 -1</clus>
</clustering>
</event>
<event>
 9    1  0.1435532E-005  0.1560663E+03  0.7546771E-02  0.1193290E+00
          1   -1    0    0  502    0  0.00000000000E+00  0.00000000000E+00  0.97579564485E+02  0.97579564485E+02  0.00000000000E+00 0. -1.
         -1   -1    0    0    0  501 -0.00000000000E+00 -0.00000000000E+00 -0.32670458666E+03  0.32670458666E+03  0.00000000000E+00 0.  1.
         23    2    1    2    0    0 -0.96748270000E+02 -0.67321350569E+02 -0.14352231760E+03  0.20661728463E+03  0.90551944570E+02 0.  0.
         23    2    1    2    0    0  0.12646641635E+03  0.65630230181E+02 -0.81253415374E+02  0.18758457228E+03  0.91020726595E+02 0.  0.
        -13    1    3    3    0    0 -0.18458471484E+02 -0.52291643497E+02 -0.18723067917E+02  0.58529346668E+02  0.00000000000E+00 0.  1.
         13    1    3    3    0    0 -0.78289798516E+02 -0.15029707072E+02 -0.12479924969E+03  0.14808793796E+03  0.00000000000E+00 0. -1.
        -13    1    4    4    0    0  0.40382919255E+02  0.25717807396E+02 -0.79355559587E+02  0.92679504865E+02  0.00000000000E+00 0.  1.
         13    1    4    4    0    0  0.86083497091E+02  0.39912422785E+02 -0.18978557871E+01  0.94905067412E+02  0.00000000000E+00 0. -1.
         21    1    1    2  502  501 -0.29718146345E+02  0.16911203880E+01 -0.43492891973E+01  0.30082294242E+02  0.00000000000E+00 0.  1.
<scales pt_clust_5="13000.00000" pt_clust_6="13000.00000" pt_clust_7="13000.00000" pt_clust_8="13000.00000" pt_clust_9="29.76622"></scales>
<clustering>
<clus scale="   29.766">  1  9  2 -1</clus>
<clus scale="   90.552">  5  6 -1 -1</clus>
<clus scale="   91.021">  7  8 -1 -1</clus>
<clus scale="  155.793">  2  5  1 -1</clus>
<clus scale="   29.766">  1  5  2 -1</clus>
</clustering>
</event>
<event>
 9    1  0.1435532E-005  0.9964138E+02  0.7546771E-02  0.1282923E+00
         -1   -1    0    0    0  501 -0.00000000000E+00  0.00000000000E+00  0.13725984056E+03  0.13725984056E+03  0.00000000000E+00 0.  1.
          1   -1    0    0  502    0  0.00000000000E+00 -0.00000000000E+00 -0.96550487436E+02  0.96550487436E+02  0.00000000000E+00 0. -1.
         23    2    1    2    0    0 -0.23702953498E+02 -0.19205852671E+02  0.53781676520E+02  0.11352002081E+03  0.95203107161E+02 0.  0.
         23    2    1    2    0    0  0.32606108726E+02 -0.11912128218E+01 -0.85021595835E+01  0.97570429307E+02  0.91559404997E+02 0.  0.
        -11    1    4    4    0    0 -0.50502626829E+01  0.40589279174E+02 -0.20194426719E+01  0.40952080359E+02  0.00000000000E+00 0. -1.
         11    1    4    4    0    0  0.37656371409E+02 -0.41780491996E+02 -0.64827169116E+01  0.56618348948E+02  0.00000000000E+00 0.  1.
        -13    1    3    3    0    0  0.26917388664E+02  0.75950635959E+01  0.48516934934E+02  0.56001105158E+02  0.00000000000E+00 0.  1.
         13    1    3    3    0    0 -0.50620342162E+02 -0.26800916267E+02  0.52647415855E+01  0.57518915648E+02  0.00000000000E+00 0. -1.
         21    1    1    2  502  501 -0.89031552277E+01  0.20397065493E+02 -0.45701638130E+01  0.22719877883E+02  0.00000000000E+00 0.  1.
<scales pt_clust_5="13000.00000" pt_clust_6="13000.00000" pt_clust_7="13000.00000" pt_clust_8="13000.00000" pt_clust_9="22.25548"></scales>
<clustering>
<clus scale="   22.255">  2  9  1 -1</clus>
<clus scale="   91.559">  5  6 -1 -1</clus>
<clus scale="   95.203">  7  8 -1 -1</clus>
<clus scale="   96.166">  2  5  1 -1</clus>
<clus scale="   22.255">  2  5  1 -1</clus>
</clustering>
</event>
<event>
 9    1  0.1435532E-005  0.1424936E+03  0.7546771E-02  0.1212207E+00
         -1   -1    0    0    0  501 -0.00000000000E+00  0.00000000000E+00  0.57481747364E+03  0.57481747364E+03  0.00000000000E+00 0.  1.
          1   -1    0    0  502    0  0.00000000000E+00 -0.00000000000E+00 -0.41048840248E+02  0.41048840248E+02  0.00000000000E+00 0. -1.
         23    2    1    2    0    0  0.50704259840E+02 -0.95307764389E+02  0.29213279603E+03  0.32400664752E+03  0.89354603677E+02 0.  0.
         23    2    1    2    0    0 -0.63075811864E+02  0.73345610392E+02  0.20756803885E+03  0.24948035062E+03  0.98983927944E+02 0.  0.
        -11    1    3    3    0    0  0.31956367509E+02 -0.12274809852E+02  0.17998824351E+03  0.18321475973E+03  0.00000000000E+00 0. -1.
         11    1    3    3    0    0  0.18747892331E+02 -0.83032954537E+02  0.11214455253E+03  0.14079188779E+03  0.00000000000E+00 0.  1.
        -13    1    4    4    0    0 -0.10153233675E+02 -0.21527370067E+02  0.14283591839E+02  0.27758544845E+02  0.00000000000E+00 0.  1.
         13    1    4    4    0    0 -0.52922578188E+02  0.94872980459E+02  0.19328444701E+03  0.22172180578E+03  0.00000000000E+00 0. -1.
         21    1    1    2  502  501  0.12371552024E+02  0.21962153997E+02  0.34067798517E+02  0.42379315750E+02  0.00000000000E+00 0.  1.
<scales pt_clust_5="13000.00000" pt_clust_6="13000.00000" pt_clust_7="13000.00000" pt_clust_8="13000.00000" pt_clust_9="25.20697"></scales>
<clustering>
<clus scale="   25.207">  2  9  1 -1</clus>
<clus scale="   89.355">  5  6 -1 -1</clus>
<clus scale="   98.984">  7  8 -1 -1</clus>
<clus scale="  135.981">  1  5  2 -1</clus>
<clus scale="   25.207">  2  5  1 -1</clus>
</clustering>
</event>
<event>
 9    1  0.1435532E-005  0.1171461E+03  0.7546771E-02  0.1248887E+00
         -2   -1    0    0    0  501 -0.00000000000E+00  0.00000000000E+00  0.92306998239E+02  0.92306998239E+02  0.00000000000E+00 0.  1.
          2   -1    0    0  502    0  0.00000000000E+00 -0.00000000000E+00 -0.33649793315E+03  0.33649793315E+03  0.00000000000E+00 0. -1.
         23    2    1    2    0    0  0.23672963812E+02 -0.68192199120E+02  0.14293205562E+01  0.11741162330E+03  0.92589746153E+02 0.  0.
         23    2    1    2    0    0 -0.44284681852E+02  0.58438344894E+02 -0.72141277811E+02  0.13642206393E+03  0.89612735491E+02 0.  0.
        -11    1    4    4    0    0 -0.27185598264E+02  0.76619285017E+02 -0.28503803163E+02  0.86151252947E+02  0.00000000000E+00 0.  1.
         11    1    4    4    0    0 -0.17099083589E+02 -0.18180940123E+02 -0.43637474648E+02  0.50270810984E+02  0.00000000000E+00 0. -1.
        -13    1    3    3    0    0 -0.13169859060E+02  0.18776370514E+02  0.10864323042E+01  0.22960348701E+02  0.00000000000E+00 0.  1.
         13    1    3    3    0    0  0.36842822872E+02 -0.86968569634E+02  0.34288825202E+00  0.94451274601E+02  0.00000000000E+00 0. -1.
         21    1    1    2  502  501  0.20611718040E+02  0.97538542257E+01 -0.17347897766E+03  0.17497124416E+03  0.00000000000E+00 0. -1.
<scales pt_clust_5="13000.00000" pt_clust_6="13000.00000" pt_clust_7="13000.00000" pt_clust_8="13000.00000" pt_clust_9="22.80308"></scales>
<clustering>
<clus scale="   22.803">  2  9  1 -1</clus>
<clus scale="   89.613">  5  6 -1 -1</clus>
<clus scale="   92.590">  7  8 -1 -1</clus>
<clus scale="  114.808">  2  5  1 -1</clus>
<clus scale="   22.803">  2  5  1 -1</clus>
</clustering>
</event>
<event>
 9    1  0.2194054E-005  0.1496645E+03  0.7546771E-02  0.1201095E+00
         -2   -1    0    0    0  501 -0.00000000000E+00  0.00000000000E+00  0.11561657643E+03  0.11561657643E+03  0.00000000000E+00 0.  1.
          2   -1    0    0  502    0  0.00000000000E+00 -0.00000000000E+00 -0.56546970144E+03  0.56546970144E+03  0.00000000000E+00 0. -1.
         23    2    1    2    0    0 -0.93788949932E+02 -0.79578938798E+02  0.38056065976E+02  0.15807460822E+03  0.91706831679E+02 0.  0.
         23    2    1    2    0    0  0.48387035148E+02  0.71262894159E+02 -0.43591384488E+03  0.45348464986E+03  0.90596590672E+02 0.  0.
        -11    1    3    3    0    0  0.16809725156E+02 -0.23341371206E+02  0.18469128538E+01  0.28823559056E+02  0.00000000000E+00 0.  1.
         11    1    3    3    0    0 -0.11059867509E+03 -0.56237567592E+02  0.36209153122E+02  0.12925104916E+03  0.00000000000E+00 0. -1.
        -11    1    4    4    0    0  0.37309734286E+02 -0.96895265570E+01 -0.87434129198E+02  0.95554330859E+02  0.00000000000E+00 0.  1.
         11    1    4    4    0    0  0.11077300863E+02  0.80952420716E+02 -0.34847971569E+03  0.35793031900E+03  0.00000000000E+00 0. -1.
         21    1    1    2  502  501  0.45401914783E+02  0.83160446389E+01 -0.51995346102E+02  0.69527019788E+02  0.00000000000E+00 0.  1.
<scales pt_clust_5="13000.00000" pt_clust_6="13000.00000" pt_clust_7="13000.00000" pt_clust_8="13000.00000" pt_clust_9="46.15724"></scales>
<clustering>
<clus scale="   46.157">  2  9  1 -1</clus>
<clus scale="   90.597">  7  8 -1 -1</clus>
<clus scale="   91.707">  5  6 -1 -1</clus>
<clus scale="  148.987">  2  7  1 -1</clus>
<clus scale="   46.157">  2  5  1 -1</clus>
</clustering>
</event>
<event>
 9    1  0.1435532E-005  0.1098901E+03  0.7546771E-02  0.1262080E+00
          1   -1    0    0  502    0  0.00000000000E+00  0.00000000000E+00  0.36606324921E+02  0.36606324921E+02  0.00000000000E+00 0. -1.
         -1   -1    0    0    0  501 -0.00000000000E+00 -0.00000000000E+00 -0.53729168270E+03  0.53729168270E+03  0.00000000000E+00 0.  1.
         23    2    1    2    0    0  0.62570688990E+02  0.12813171994E+02 -0.36716016974E+03  0.38316868691E+03  0.89063931430E+02 0.  0.
         23    2    1    2    0    0 -0.50877041541E+02  0.11118543786E+02 -0.12215108708E+03  0.16176661049E+03  0.92387514440E+02 0.  0.
        -11    1    4    4    0    0 -0.29181388512E+02 -0.29290212389E+02 -0.10491870114E+03  0.11277146725E+03  0.00000000000E+00 0.  1.
         11    1    4    4    0    0 -0.21695653030E+02  0.40408756175E+02 -0.17232385935E+02  0.48995143239E+02  0.00000000000E+00 0. -1.
        -13    1    3    3    0    0  0.84900051987E+02  0.12036530339E+02 -0.26251383735E+03  0.27616374072E+03  0.00000000000E+00 0.  1.
         13    1    3    3    0    0 -0.22329362997E+02  0.77664165551E+00 -0.10464633239E+03  0.10700494618E+03  0.00000000000E+00 0. -1.
         21    1    1    2  502  501 -0.11693647449E+02 -0.23931715780E+02 -0.11374100960E+02  0.28962710224E+02  0.00000000000E+00 0. -1.
<scales pt_clust_5="13000.00000" pt_clust_6="13000.00000" pt_clust_7="13000.00000" pt_clust_8="13000.00000" pt_clust_9="26.63585"></scales>
<clustering>
<clus scale="   26.636">  1  9  2 -1</clus>
<clus scale="   89.064">  7  8 -1 -1</clus>
<clus scale="   92.388">  5  6 -1 -1</clus>
<clus scale="  107.111">  2  7  1 -1</clus>
<clus scale="   26.636">  1  5  2 -1</clus>
</clustering>
</event>
<event>
 9    1  0.1435532E-005  0.1312142E+03  0.7546771E-02  0.1226504E+00
         -1   -1    0    0    0  501 -0.00000000000E+00  0.00000000000E+00  0.10652504836E+03  0.10652504836E+03  0.00000000000E+00 0.  1.
          1   -1    0    0  502    0  0.00000000000E+00 -0.00000000000E+00 -0.59835890415E+03  0.59835890415E+03  0.00000000000E+00 0. -1.
         23    2    1    2    0    0 -0.95156012664E+02  0.43109696281E+01  0.44439916188E+02  0.14021624487E+03  0.92803221762E+02 0.  0.
         23    2    1    2    0    0  0.76220167855E+02 -0.31233982771E+02 -0.26739280127E+03  0.29377955495E+03  0.89568080623E+02 0.  0.
        -13    1    4    4    0    0  0.48152546679E+02  0.27763542808E+02 -0.10661340158E+03  0.12023268880E+03  0.00000000000E+00 0.  1.
         13    1    4    4    0    0  0.28067621175E+02 -0.58997525579E+02 -0.16077939969E+03  0.17354686614E+03  0.00000000000E+00 0. -1.
        -13    1    3    3    0    0 -0.70845410136E+02 -0.16928293681E+02 -0.13319690647E+02  0.74047642929E+02  0.00000000000E+00 0.  1.
         13    1    3    3    0    0 -0.24310602527E+02  0.21239263309E+02  0.57759606835E+02  0.66168601941E+02  0.00000000000E+00 0. -1.
         21    1    1    2  502  501  0.18935844809E+02  0.26923013143E+02 -0.26888097071E+03  0.27088815269E+03  0.00000000000E+00 0. -1.
<scales pt_clust_5="13000.00000" pt_clust_6="13000.00000" pt_clust_7="13000.00000" pt_clust_8="13000.00000" pt_clust_9="32.91527"></scales>
<clustering>
<clus scale="   32.915">  2  9  1 -1</clus>
<clus scale="   89.568">  5  6 -1 -1</clus>
<clus scale="   92.803">  7  8 -1 -1</clus>
<clus scale="  128.946">  2  5  1 -1</clus>
<clus scale="   32.915">  2  5  1 -1</clus>
</clustering>
</event>
<event>
 9    1  0.1435532E-005  0.2649176E+03  0.7546771E-02  0.1104416E+00
          2   -1    0    0  502    0  0.00000000000E+00  0.00000000000E+00  0.42652681466E+03  0.42652681466E+03  0.00000000000E+00 0. -1.
         -2   -1    0    0    0  501 -0.00000000000E+00 -0.00000000000E+00 -0.19439252767E+03  0.19439252767E+03  0.00000000000E+00 0.  1.
         23    2    1    2    0    0 -0.26323925783E+03 -0.79369741807E+01  0.11421422373E+03  0.30200495632E+03  0.93830710954E+02 0.  0.
         23    2    1    2    0    0  0.23263515382E+03  0.34870618470E+02  0.11797282938E+03  0.27814632055E+03  0.90070596399E+02 0.  0.
        -11    1    4    4    0    0  0.20313918034E+03  0.52129884622E+02  0.12371587053E+03  0.24349264482E+03  0.00000000000E+00 0. -1.
         11    1    4    4    0    0  0.29495973484E+02 -0.17259266152E+02 -0.57430411517E+01  0.34653675729E+02  0.00000000000E+00 0.  1.
        -11    1    3    3    0    0 -0.18962745978E+03  0.26579100197E+02  0.10946975436E+03  0.22056438785E+03  0.00000000000E+00 0.  1.
         11    1    3    3    0    0 -0.73611798056E+02 -0.34516074378E+02  0.47444693708E+01  0.81440568472E+02  0.00000000000E+00 0. -1.
         21    1    1    2  502  501  0.30604104011E+02 -0.26933644290E+02 -0.52766112315E-01  0.40768065459E+02  0.00000000000E+00 0. -1.
<scales pt_clust_5="13000.00000" pt_clust_6="13000.00000" pt_clust_7="13000.00000" pt_clust_8="13000.00000" pt_clust_9="40.76803"></scales>
<clustering>
<clus scale="   40.768">  2  9  1 -1</clus>
<clus scale="   90.071">  5  6 -1 -1</clus>
<clus scale="   93.831">  7  8 -1 -1</clus>
<clus scale="  263.609">  1  5  2 -1</clus>
<clus scale="  263.609">  1  5  2 -1</clus>
</clustering>
</event>
<event>
 9    1  0.1435532E-005  0.1105843E+03  0.7546771E-02  0.1259854E+00
          1   -1    0    0  502    0  0.00000000000E+00  0.00000000000E+00  0.47260992860E+03  0.47260992860E+03  0.00000000000E+00 0. -1.
         -1   -1    0    0    0  501 -0.00000000000E+00 -0.00000000000E+00 -0.47619466541E+02  0.47619466541E+02  0.00000000000E+00 0.  1.
         23    2    1    2    0    0 -0.45708823105E+02 -0.56535739818E+02  0.70515128976E+02  0.13644324822E+03  0.91426419507E+02 0.  0.
         23    2    1    2    0    0  0.35286202430E+02  0.10166745406E+02  0.24847268928E+03  0.26761698079E+03  0.92367160287E+02 0.  0.
        -11    1    4    4    0    0  0.40570397940E+02 -0.34104768893E+02  0.15990705540E+03  0.16846174289E+03  0.00000000000E+00 0.  1.
         11    1    4    4    0    0 -0.52841955100E+01  0.44271514298E+02  0.88565633879E+02  0.99155237909E+02  0.00000000000E+00 0. -1.
        -11    1    3    3    0    0 -0.49992616142E+02  0.55842631375E+01  0.49891519910E+02  0.70849201989E+02  0.00000000000E+00 0. -1.
         11    1    3    3    0    0  0.42837930370E+01 -0.62120002956E+02  0.20623609065E+02  0.65594046231E+02  0.00000000000E+00 0.  1.
         21    1    1    2  502  501  0.10422620675E+02  0.46368994413E+02  0.10600264380E+03  0.11616916613E+03  0.00000000000E+00 0. -1.
<scales pt_clust_5="13000.00000" pt_clust_6="13000.00000" pt_clust_7="13000.00000" pt_clust_8="13000.00000" pt_clust_9="47.52594"></scales>
<clustering>
<clus scale="   47.526">  1  9  2 -1</clus>
<clus scale="   91.426">  7  8 -1 -1</clus>
<clus scale="   92.367">  5  6 -1 -1</clus>
<clus scale="  109.800">  2  7  1 -1</clus>
<clus scale="   47.526">  1  5  2 -1</clus>
</clustering>
</event>
<event>
 9    1  0.1435532E-005  0.1117451E+03  0.7546771E-02  0.1259084E+00
         -3   -1    0    0    0  501 -0.00000000000E+00  0.00000000000E+00  0.26592182805E+03  0.26592182805E+03  0.00000000000E+00 0.  1.
          3   -1    0    0  502    0  0.00000000000E+00 -0.00000000000E+00 -0.72578162689E+02  0.72578162689E+02  0.00000000000E+00 0. -1.
         23    2    1    2    0    0  0.65134539612E+02  0.16654749561E+02  0.16841802749E+03  0.20302692336E+03  0.91298470385E+02 0.  0.
         23    2    1    2    0    0 -0.50139207857E+02 -0.34364763441E+02  0.32966120375E+02  0.11091387510E+03  0.86719348857E+02 0.  0.
        -11    1    4    4    0    0  0.16216372345E+02 -0.33601622025E+02  0.22946839514E+02  0.43801794237E+02  0.00000000000E+00 0.  1.
         11    1    4    4    0    0 -0.66355580202E+02 -0.76314141587E+00  0.10019280862E+02  0.67112080863E+02  0.00000000000E+00 0. -1.
        -13    1    3    3    0    0  0.11914212622E+02  0.43075668048E+02  0.34304740148E+02  0.56340720947E+02  0.00000000000E+00 0.  1.
         13    1    3    3    0    0  0.53220326990E+02 -0.26420918488E+02  0.13411328734E+03  0.14668620242E+03  0.00000000000E+00 0. -1.
         21    1    1    2  502  501 -0.14995331754E+02  0.17710013880E+02 -0.80404825053E+01  0.24559192271E+02  0.00000000000E+00 0. -1.
<scales pt_clust_5="13000.00000" pt_clust_6="13000.00000" pt_clust_7="13000.00000" pt_clust_8="13000.00000" pt_clust_9="23.20570"></scales>
<clustering>
<clus scale="   23.206">  2  9  1 -1</clus>
<clus scale="   86.719">  5  6 -1 -1</clus>
<clus scale="   91.298">  7  8 -1 -1</clus>
<clus scale="  108.036">  2  5  1 -1</clus>
<clus scale="   23.206">  2  5  1 -1</clus>
</clustering>
</event>
<event>
 9    1  0.1435532E-005  0.1218183E+03  0.7546771E-02  0.1240282E+00
          1   -1    0    0  502    0  0.00000000000E+00  0.00000000000E+00  0.65737264163E+03  0.65737264163E+03  0.00000000000E+00 0. -1.
         -1   -1    0    0    0  501 -0.00000000000E+00 -0.00000000000E+00 -0.35480356800E+02  0.35480356800E+02  0.00000000000E+00 0.  1.
         23    2    1    2    0    0  0.47690079187E+02 -0.60358485674E+02  0.12538190921E+03  0.17278621801E+03  0.90647468416E+02 0.  0.
         23    2    1    2    0    0 -0.50017663923E+02  0.81526440247E+02  0.45208859328E+03  0.47080427239E+03  0.90134563648E+02 0.  0.
        -11    1    3    3    0    0  0.40201187843E+02 -0.20520318221E+02  0.45832121241E+01  0.45367662461E+02  0.00000000000E+00 0.  1.
         11    1    3    3    0    0  0.74888913446E+01 -0.39838167453E+02  0.12079869709E+03  0.12741855555E+03  0.00000000000E+00 0. -1.
        -11    1    4    4    0    0  0.12184179140E+02  0.64744728088E+02  0.19788796683E+03  0.20856649168E+03  0.00000000000E+00 0.  1.
         11    1    4    4    0    0 -0.62201843062E+02  0.16781712158E+02  0.25420062645E+03  0.26223778071E+03  0.00000000000E+00 0. -1.
         21    1    1    2  502  501  0.23275847354E+01 -0.21167954573E+02  0.44421782343E+02  0.49262508037E+02  0.00000000000E+00 0. -1.
<scales pt_clust_5="13000.00000" pt_clust_6="13000.00000" pt_clust_7="13000.00000" pt_clust_8="13000.00000" pt_clust_9="21.29554"></scales>
<clustering>
<clus scale="   21.296">  1  9  2 -1</clus>
<clus scale="   90.135">  7  8 -1 -1</clus>
<clus scale="   90.647">  5  6 -1 -1</clus>
<clus scale="  121.437">  1  7  2 -1</clus>
<clus scale="   21.296">  1  5  2 -1</clus>
</clustering>
</event>
<event>
 9    1  0.1435532E-005  0.9357294E+02  0.7546771E-02  0.1294581E+00
         -1   -1    0    0    0  501 -0.00000000000E+00  0.00000000000E+00  0.78161894952E+02  0.78161894952E+02  0.00000000000E+00 0.  1.
          1   -1    0    0  502    0  0.00000000000E+00 -0.00000000000E+00 -0.28175832561E+03  0.28175832561E+03  0.00000000000E+00 0. -1.
         23    2    1    2    0    0 -0.19903626039E+02  0.15006972458E+02  0.25757161185E+02  0.97510551410E+02  0.90683585792E+02 0.  0.
         23    2    1    2    0    0 -0.52245256490E+01 -0.27546922387E+02 -0.14199806367E+03  0.17065094938E+03  0.90400043351E+02 0.  0.
        -11    1    3    3    0    0 -0.50563218434E+02  0.23966045530E+02 -0.81462026832E+00  0.55961361697E+02  0.00000000000E+00 0.  1.
         11    1    3    3    0    0  0.30659592396E+02 -0.89590730716E+01  0.26571781454E+02  0.41549189713E+02  0.00000000000E+00 0. -1.
        -13    1    4    4    0    0 -0.33104801144E+02 -0.49167943988E+02 -0.92633201723E+02  0.10997419987E+03  0.00000000000E+00 0. -1.
         13    1    4    4    0    0  0.27880275495E+02  0.21621021601E+02 -0.49364861946E+02  0.60676749515E+02  0.00000000000E+00 0.  1.
         21    1    1    2  502  501  0.25128151688E+02  0.12539949929E+02 -0.87355528174E+02  0.91758719771E+02  0.00000000000E+00 0.  1.
<scales pt_clust_5="13000.00000" pt_clust_6="13000.00000" pt_clust_7="13000.00000" pt_clust_8="13000.00000" pt_clust_9="28.08335"></scales>
<clustering>
<clus scale="   28.083">  2  9  1 -1</clus>
<clus scale="   90.400">  7  8 -1 -1</clus>
<clus scale="   90.684">  5  6 -1 -1</clus>
<clus scale="   93.298">  2  7  1 -1</clus>
<clus scale="   28.083">  2  5  1 -1</clus>
</clustering>
</event>
<event>
 9    1  0.1435532E-005  0.1018334E+03  0.7546771E-02  0.1277302E+00
          1   -1    0    0  502    0  0.00000000000E+00  0.00000000000E+00  0.78690045240E+02  0.78690045240E+02  0.00000000000E+00 0. -1.
         -1   -1    0    0    0  501 -0.00000000000E+00 -0.00000000000E+00 -0.37144052463E+03  0.37144052463E+03  0.00000000000E+00 0.  1.
         23    2    1    2    0    0 -0.44866733369E+02 -0.44496833078E+01 -0.29394149119E+03  0.31136977542E+03  0.92286040961E+02 0.  0.
         23    2    1    2    0    0  0.35207205153E+02 -0.16576714290E+02 -0.27101114357E+02  0.10221137196E+03  0.90544792275E+02 0.  0.
        -11    1    4    4    0    0  0.23446766894E+02 -0.53144566906E+02 -0.60298143333E+01  0.58399096999E+02  0.00000000000E+00 0.  1.
         11    1    4    4    0    0  0.11760438258E+02  0.36567852616E+02 -0.21071300024E+02  0.43812274965E+02  0.00000000000E+00 0. -1.
        -13    1    3    3    0    0 -0.70973792667E+02  0.57608297290E+01 -0.24307549373E+03  0.25329066713E+03  0.00000000000E+00 0.  1.
         13    1    3    3    0    0  0.26107059298E+02 -0.10210513037E+02 -0.50865997464E+02  0.58079108289E+02  0.00000000000E+00 0. -1.
         21    1    1    2  502  501  0.96595282167E+01  0.21026397598E+02  0.28292126160E+02  0.36549422484E+02  0.00000000000E+00 0. -1.
<scales pt_clust_5="13000.00000" pt_clust_6="13000.00000" pt_clust_7="13000.00000" pt_clust_8="13000.00000" pt_clust_9="23.13906"></scales>
<clustering>
<clus scale="   23.139">  1  9  2 -1</clus>
<clus scale="   90.545">  5  6 -1 -1</clus>
<clus scale="   92.286">  7  8 -1 -1</clus>
<clus scale="  100.258">  1  5  2 -1</clus>
<clus scale="   23.139">  1  5  2 -1</clus>
</clustering>
</event>
<event>
 9    1  0.1435532E-005  0.1409245E+03  0.7546771E-02  0.1212148E+00
          1   -1    0    0  502    0  0.00000000000E+00  0.00000000000E+00  0.12827686588E+04  0.12827686588E+04  0.00000000000E+00 0. -1.
         -1   -1    0    0    0  501 -0.00000000000E+00 -0.00000000000E+00 -0.60402882574E+02  0.60402882574E+02  0.00000000000E+00 0.  1.
         23    2    1    2    0    0  0.82979247937E+02  0.97981166449E+02  0.81299371223E+02  0.17789766946E+03  0.92477718781E+02 0.  0.
         23    2    1    2    0    0  0.23787495610E+02 -0.62181390390E+02  0.40591645057E+03  0.42154931470E+03  0.92213283347E+02 0.  0.
        -11    1    3    3    0    0  0.10229776524E+03  0.92186924255E+02  0.74780528118E+02  0.15670159273E+03  0.00000000000E+00 0.  1.
         11    1    3    3    0    0 -0.19318517305E+02  0.57942421937E+01  0.65188431049E+01  0.21196076734E+02  0.00000000000E+00 0. -1.
        -13    1    4    4    0    0  0.57353755615E+02 -0.22330159367E+02  0.22785487143E+03  0.23602104087E+03  0.00000000000E+00 0.  1.
         13    1    4    4    0    0 -0.33566260005E+02 -0.39851231023E+02  0.17806157914E+03  0.18552827383E+03  0.00000000000E+00 0. -1.
         21    1    1    2  502  501 -0.10676674355E+03 -0.35799776059E+02  0.73514995440E+03  0.74372455718E+03  0.00000000000E+00 0. -1.
<scales pt_clust_5="13000.00000" pt_clust_6="13000.00000" pt_clust_7="13000.00000" pt_clust_8="13000.00000" pt_clust_9="112.60889"></scales>
<clustering>
<clus scale="   92.213">  7  8 -1 -1</clus>
<clus scale="   92.478">  5  6 -1 -1</clus>
<clus scale="  112.609">  1  9  2 -1</clus>
<clus scale="  140.751">  1  7  2 -1</clus>
<clus scale="  112.609">  1  5  2 -1</clus>
</clustering>
</event>
<event>
 9    1  0.5467972E-005  0.1853557E+03  0.7546771E-02  0.1164978E+00
         -1   -1    0    0    0  501 -0.00000000000E+00  0.00000000000E+00  0.24344606252E+03  0.24344606252E+03  0.00000000000E+00 0.  1.
          1   -1    0    0  502    0  0.00000000000E+00 -0.00000000000E+00 -0.53401908915E+03  0.53401908915E+03  0.00000000000E+00 0. -1.
         23    2    1    2    0    0  0.15508930023E+03 -0.52400027314E+02  0.17874247091E+03  0.25916258736E+03  0.91749233631E+02 0.  0.
         23    2    1    2    0    0 -0.13059020131E+03  0.21274764019E+02 -0.44975527914E+03  0.47412576037E+03  0.70774354611E+02 0.  0.
        -11    1    3    3    0    0  0.14633895098E+03 -0.73096840765E+02  0.14482958451E+03  0.21848076633E+03  0.00000000000E+00 0.  1.
         11    1    3    3    0    0  0.87503492501E+01  0.20696813451E+02  0.33912886394E+02  0.40681821034E+02  0.00000000000E+00 0. -1.
        -11    1    4    4    0    0 -0.68051153994E+02 -0.22498565998E+02 -0.25693528600E+03  0.26674498350E+03  0.00000000000E+00 0.  1.
         11    1    4    4    0    0 -0.62539047320E+02  0.43773330017E+02 -0.19281999314E+03  0.20738077687E+03  0.00000000000E+00 0. -1.
         21    1    1    2  502  501 -0.24499098916E+02  0.31125263295E+02 -0.19560218395E+02  0.44176803942E+02  0.00000000000E+00 0. -1.
<scales pt_clust_5="13000.00000" pt_clust_6="13000.00000" pt_clust_7="13000.00000" pt_clust_8="13000.00000" pt_clust_9="39.61045"></scales>
<clustering>
<clus scale="   39.610">  2  9  1 -1</clus>
<clus scale="   70.774">  7  8 -1 -1</clus>
<clus scale="   91.749">  5  6 -1 -1</clus>
<clus scale="  175.920">  2  7  1 -1</clus>
<clus scale="   39.610">  2  5  1 -1</clus>
</clustering>
</event>
<event>
 9    1  0.1435532E-005  0.1153996E+03  0.7546771E-02  0.1251352E+00
         -1   -1    0    0    0  501 -0.00000000000E+00  0.00000000000E+00  0.72611892369E+03  0.72611892369E+03  0.00000000000E+00 0.  1.
          1   -1    0    0  502    0  0.00000000000E+00 -0.00000000000E+00 -0.26808155925E+02  0.26808155925E+02  0.00000000000E+00 0. -1.
         23    2    1    2    0    0 -0.31904715830E+02 -0.58206173601E+02  0.44993993009E+03  0.46414381598E+03  0.92615720483E+02 0.  0.
         23    2    1    2    0    0  0.57157173333E+02  0.51873304340E+02  0.20793823156E+03  0.23985011851E+03  0.91279729608E+02 0.  0.
        -11    1    3    3    0    0 -0.57572169908E+02 -0.88127444594E+01  0.22405557287E+03  0.23150187677E+03  0.00000000000E+00 0. -1.
         11    1    3    3    0    0  0.25667454078E+02 -0.49393429141E+02  0.22588435722E+03  0.23264193921E+03  0.00000000000E+00 0.  1.
        -11    1    4    4    0    0  0.24550505315E+02  0.69857297737E+02  0.17544058250E+03  0.19042627798E+03  0.00000000000E+00 0.  1.
         11    1    4    4    0    0  0.32606668018E+02 -0.17983993397E+02  0.32497649057E+02  0.49423840523E+02  0.00000000000E+00 0. -1.
         21    1    1    2  502  501 -0.25252457503E+02  0.63328692610E+01  0.41432606109E+02  0.48933145127E+02  0.00000000000E+00 0. -1.
<scales pt_clust_5="13000.00000" pt_clust_6="13000.00000" pt_clust_7="13000.00000" pt_clust_8="13000.00000" pt_clust_9="26.03444"></scales>
<clustering>
<clus scale="   26.034">  2  9  1 -1</clus>
<clus scale="   91.280">  7  8 -1 -1</clus>
<clus scale="   92.616">  5  6 -1 -1</clus>
<clus scale="  114.330">  2  7  1 -1</clus>
<clus scale="   26.034">  2  5  1 -1</clus>
</clustering>
</event>
<event>
 9    1  0.1435532E-005  0.1363706E+03  0.7546771E-02  0.1218440E+00
         -1   -1    0    0    0  501 -0.00000000000E+00  0.00000000000E+00  0.40761766376E+03  0.40761766376E+03  0.00000000000E+00 0.  1.
          1   -1    0    0  502    0  0.00000000000E+00 -0.00000000000E+00 -0.19888056443E+03  0.19888056443E+03  0.00000000000E+00 0. -1.
         23    2    1    2    0    0 -0.98558497059E+02  0.16673943312E+02  0.34754970534E+03  0.37290892876E+03  0.90986118381E+02 0.  0.
         23    2    1    2    0    0  0.11787838487E+03 -0.47815882836E+01 -0.76232804703E+02  0.16702416064E+03  0.90373959287E+02 0.  0.
        -11    1    4    4    0    0  0.60091903825E+02 -0.25458536975E+02 -0.82655864570E+02  0.10531460468E+03  0.00000000000E+00 0. -1.
         11    1    4    4    0    0  0.57786481044E+02  0.20676948691E+02  0.64230598677E+01  0.61709555959E+02  0.00000000000E+00 0.  1.
        -13    1    3    3    0    0 -0.60518129287E+02  0.42425592216E+02  0.29001973791E+03  0.29928886251E+03  0.00000000000E+00 0.  1.
         13    1    3    3    0    0 -0.38040367772E+02 -0.25751648903E+02  0.57529967430E+02  0.73620066245E+02  0.00000000000E+00 0. -1.
         21    1    1    2  502  501 -0.19319887810E+02 -0.11892355028E+02 -0.62579801305E+02  0.66565138807E+02  0.00000000000E+00 0. -1.
<scales pt_clust_5="13000.00000" pt_clust_6="13000.00000" pt_clust_7="13000.00000" pt_clust_8="13000.00000" pt_clust_9="22.68670"></scales>
<clustering>
<clus scale="   22.687">  2  9  1 -1</clus>
<clus scale="   90.374">  5  6 -1 -1</clus>
<clus scale="   90.986">  7  8 -1 -1</clus>
<clus scale="  135.963">  2  5  1 -1</clus>
<clus scale="   22.687">  2  5  1 -1</clus>
</clustering>
</event>
<event>
 9    1  0.1435532E-005  0.9561606E+02  0.7546771E-02  0.1290180E+00
          2   -1    0    0  502    0  0.00000000000E+00  0.00000000000E+00  0.42611903744E+03  0.42611903744E+03  0.00000000000E+00 0. -1.
         -2   -1    0    0    0  501 -0.00000000000E+00 -0.00000000000E+00 -0.53737398948E+02  0.53737398948E+02  0.00000000000E+00 0.  1.
         23    2    1    2    0    0  0.27614605504E+02 -0.94529421121E+01  0.10863549697E+02  0.95574010816E+02  0.90357347679E+02 0.  0.
         23    2    1    2    0    0 -0.30611698892E+02 -0.10734173081E+02  0.34529930138E+03  0.35821422169E+03  0.89629919689E+02 0.  0.
        -13    1    3    3    0    0 -0.29248912179E+02 -0.22020710142E+02  0.19860002057E+01  0.36665443344E+02  0.00000000000E+00 0. -1.
         13    1    3    3    0    0  0.56863517684E+02  0.12567768030E+02  0.88775494915E+01  0.58908567472E+02  0.00000000000E+00 0.  1.
        -13    1    4    4    0    0  0.11634244238E+01  0.35712530743E+02  0.18243751664E+03  0.18590370057E+03  0.00000000000E+00 0. -1.
         13    1    4    4    0    0 -0.31775123316E+02 -0.46446703824E+02  0.16286178474E+03  0.17231052111E+03  0.00000000000E+00 0.  1.
         21    1    1    2  502  501  0.29970933874E+01  0.20187115193E+02  0.16218787412E+02  0.26068203883E+02  0.00000000000E+00 0.  1.
<scales pt_clust_5="13000.00000" pt_clust_6="13000.00000" pt_clust_7="13000.00000" pt_clust_8="13000.00000" pt_clust_9="20.40839"></scales>
<clustering>
<clus scale="   20.408">  2  9  1 -1</clus>
<clus scale="   89.630">  7  8 -1 -1</clus>
<clus scale="   90.357">  5  6 -1 -1</clus>
<clus scale="   94.929">  1  7  2 -1</clus>
<clus scale="   94.929">  1  5  2 -1</clus>
</clustering>
</event>
<event>
 9    1  0.1435532E-005  0.1478596E+03  0.7546771E-02  0.1203355E+00
          1   -1    0    0  502    0  0.00000000000E+00  0.00000000000E+00  0.11396731324E+03  0.11396731324E+03  0.00000000000E+00 0. -1.
         -1   -1    0    0    0  501 -0.00000000000E+00 -0.00000000000E+00 -0.23987894959E+03  0.23987894959E+03  0.00000000000E+00 0.  1.
         23    2    1    2    0    0  0.91177908849E+02 -0.73562749889E+02 -0.10364834787E+03  0.18082551708E+03  0.90719338500E+02 0.  0.
         23    2    1    2    0    0 -0.10210593779E+03  0.54712645339E+02 -0.10429173384E+02  0.14822569507E+03  0.91885760217E+02 0.  0.
        -13    1    4    4    0    0 -0.23394012987E+02 -0.25656555423E+02  0.33929910332E+01  0.34886259014E+02  0.00000000000E+00 0.  1.
         13    1    4    4    0    0 -0.78711924804E+02  0.80369200762E+02 -0.13822164417E+02  0.11333943606E+03  0.00000000000E+00 0. -1.
        -13    1    3    3    0    0 -0.68280226976E+01 -0.44668677233E+02 -0.40703489244E+02  0.60816828726E+02  0.00000000000E+00 0.  1.
         13    1    3    3    0    0  0.98005931546E+02 -0.28894072656E+02 -0.62944858624E+02  0.12000868835E+03  0.00000000000E+00 0. -1.
         21    1    1    2  502  501  0.10928028943E+02  0.18850104550E+02 -0.11834115100E+02  0.24795050682E+02  0.00000000000E+00 0. -1.
<scales pt_clust_5="13000.00000" pt_clust_6="13000.00000" pt_clust_7="13000.00000" pt_clust_8="13000.00000" pt_clust_9="21.78872"></scales>
<clustering>
<clus scale="   21.789">  2  9  1 -1</clus>
<clus scale="   90.719">  7  8 -1 -1</clus>
<clus scale="   91.886">  5  6 -1 -1</clus>
<clus scale="  147.138">  2  7  1 -1</clus>
<clus scale="  147.860">  1  5  2 -1</clus>
</clustering>
</event>
<event>
 9    1  0.1435532E-005  0.1050307E+03  0.7546771E-02  0.1270566E+00
         -3   -1    0    0    0  501 -0.00000000000E+00  0.00000000000E+00  0.62017434669E+03  0.62017434669E+03  0.00000000000E+00 0.  1.
          3   -1    0    0  502    0  0.00000000000E+00 -0.00000000000E+00 -0.24672271116E+02  0.24672271116E+02  0.00000000000E+00 0. -1.
         23    2    1    2    0    0 -0.67681606646E+01 -0.62028329680E+02  0.35601032172E+03  0.37270818719E+03  0.90965498660E+02 0.  0.
         23    2    1    2    0    0  0.11559041738E+02  0.32403146303E+02  0.19609582253E+03  0.21937659889E+03  0.92135471944E+02 0.  0.
        -11    1    4    4    0    0 -0.20888508106E+02  0.60096096591E+01  0.31663247028E+01  0.21965217760E+02  0.00000000000E+00 0. -1.
         11    1    4    4    0    0  0.32447549844E+02  0.26393536643E+02  0.19292949783E+03  0.19741138113E+03  0.00000000000E+00 0.  1.
        -13    1    3    3    0    0  0.19960620769E+02 -0.71661116656E+02  0.30857580166E+03  0.31741576424E+03  0.00000000000E+00 0. -1.
         13    1    3    3    0    0 -0.26728781434E+02  0.96327869763E+01  0.47434520064E+02  0.55292422949E+02  0.00000000000E+00 0.  1.
         21    1    1    2  502  501 -0.47908810737E+01  0.29625183378E+02  0.43395931328E+02  0.52761831730E+02  0.00000000000E+00 0.  1.
<scales pt_clust_5="13000.00000" pt_clust_6="13000.00000" pt_clust_7="13000.00000" pt_clust_8="13000.00000" pt_clust_9="30.01007"></scales>
<clustering>
<clus scale="   30.010">  2  9  1 -1</clus>
<clus scale="   90.965">  7  8 -1 -1</clus>
<clus scale="   92.135">  5  6 -1 -1</clus>
<clus scale="  104.006">  1  7  2 -1</clus>
<clus scale="   30.010">  2  5  1 -1</clus>
</clustering>
</event>
<event>
 9    1  0.1435532E-005  0.1441663E+03  0.7546771E-02  0.1208277E+00
          3   -1    0    0  502    0  0.00000000000E+00  0.00000000000E+00  0.28162270833E+03  0.28162270833E+03  0.00000000000E+00 0. -1.
         -3   -1    0    0    0  501 -0.00000000000E+00 -0.00000000000E+00 -0.86346609655E+02  0.86346609655E+02  0.00000000000E+00 0.  1.
         23    2    1    2    0    0 -0.26830965105E+02 -0.11523340345E+03  0.67549152805E+02  0.16577078028E+03  0.94437416269E+02 0.  0.
         23    2    1    2    0    0  0.24181654303E+02  0.95153980222E+02  0.99795270539E+02  0.16769664541E+03  0.92325708788E+02 0.  0.
        -11    1    3    3    0    0 -0.48738195320E+02 -0.11157656970E+03  0.35590074299E+02  0.12685186627E+03  0.00000000000E+00 0. -1.
         11    1    3    3    0    0  0.21907230215E+02 -0.36568337545E+01  0.31959078506E+02  0.38918914010E+02  0.00000000000E+00 0.  1.
        -13    1    4    4    0    0  0.36381731901E+01  0.65346696666E+02  0.43218784556E+01  0.65590439110E+02  0.00000000000E+00 0.  1.
         13    1    4    4    0    0  0.20543481113E+02  0.29807283557E+02  0.95473392083E+02  0.10210620630E+03  0.00000000000E+00 0. -1.
         21    1    1    2  502  501  0.26493108016E+01  0.20079423229E+02  0.27931675332E+02  0.34501892292E+02  0.00000000000E+00 0.  1.
<scales pt_clust_5="13000.00000" pt_clust_6="13000.00000" pt_clust_7="13000.00000" pt_clust_8="13000.00000" pt_clust_9="20.25345"></scales>
<clustering>
<clus scale="   20.253">  1  9  2 -1</clus>
<clus scale="   92.326">  7  8 -1 -1</clus>
<clus scale="   94.437">  5  6 -1 -1</clus>
<clus scale="  142.792">  1  7  2 -1</clus>
<clus scale="   20.253">  1  5  2 -1</clus>
</clustering>
</event>
<event>
 9    1  0.1435532E-005  0.1569929E+03  0.7546771E-02  0.1192302E+00
         -1   -1    0    0    0  501 -0.00000000000E+00  0.00000000000E+00  0.13424834707E+03  0.13424834707E+03  0.00000000000E+00 0.  1.
          1   -1    0    0  502    0  0.00000000000E+00 -0.00000000000E+00 -0.55957196233E+03  0.55957196233E+03  0.00000000000E+00 0. -1.
         23    2    1    2    0    0 -0.11114706555E+03  0.64931827832E+02  0.67307448915E+02  0.17109725625E+03  0.90411094297E+02 0.  0.
         23    2    1    2    0    0  0.11124341032E+03 -0.42984316579E+02 -0.45488802601E+03  0.47906255083E+03  0.91406036927E+02 0.  0.
        -11    1    3    3    0    0 -0.62354103154E+02  0.47399466710E+02 -0.90025334407E+01  0.78840276717E+02  0.00000000000E+00 0.  1.
         11    1    3    3    0    0 -0.48792962392E+02  0.17532361122E+02  0.76309982356E+02  0.92256979533E+02  0.00000000000E+00 0. -1.
        -11    1    4    4    0    0  0.17015095127E+02 -0.48005889949E+02 -0.10541761180E+03  0.11707669200E+03  0.00000000000E+00 0.  1.
         11    1    4    4    0    0  0.94228315196E+02  0.50215733701E+01 -0.34947041421E+03  0.36198585883E+03  0.00000000000E+00 0. -1.
         21    1    1    2  502  501 -0.96344777577E-01 -0.21947511254E+02 -0.37743038170E+02  0.43660502320E+02  0.00000000000E+00 0. -1.
<scales pt_clust_5="13000.00000" pt_clust_6="13000.00000" pt_clust_7="13000.00000" pt_clust_8="13000.00000" pt_clust_9="21.94772"></scales>
<clustering>
<clus scale="   21.948">  2  9  1 -1</clus>
<clus scale="   90.411">  5  6 -1 -1</clus>
<clus scale="   91.406">  7  8 -1 -1</clus>
<clus scale="  156.416">  1  5  2 -1</clus>
<clus scale="   21.948">  2  5  1 -1</clus>
</clustering>
</event>
<event>
 9    1  0.1435532E-005  0.9404926E+02  0.7546771E-02  0.1293601E+00
          2   -1    0    0  502    0  0.00000000000E+00  0.00000000000E+00  0.27490809857E+03  0.27490809857E+03  0.00000000000E+00 0. -1.
         -2   -1    0    0    0  501 -0.00000000000E+00 -0.00000000000E+00 -0.58515556011E+02  0.58515556011E+02  0.00000000000E+00 0.  1.
         23    2    1    2    0    0  0.20082113760E+02 -0.14857750748E+01  0.38219753196E+02  0.10150843450E+03  0.91857029776E+02 0.  0.
         23    2    1    2    0    0 -0.16603660240E+02 -0.19833373598E+02  0.61231046198E+02  0.11299517537E+03  0.91376279183E+02 0.  0.
        -13    1    3    3    0    0  0.25436896588E+02 -0.24692378446E+02 -0.18502795194E+02  0.39988782069E+02  0.00000000000E+00 0.  1.
         13    1    3    3    0    0 -0.53547828280E+01  0.23206603372E+02  0.56722548390E+02  0.61519652429E+02  0.00000000000E+00 0. -1.
        -13    1    4    4    0    0 -0.40076378973E+02 -0.39478592766E+02  0.60164497525E+02  0.82367725480E+02  0.00000000000E+00 0.  1.
         13    1    4    4    0    0  0.23472718733E+02  0.19645219167E+02  0.10665486730E+01  0.30627449893E+02  0.00000000000E+00 0. -1.
         21    1    1    2  502  501 -0.34784535205E+01  0.21319148673E+02  0.11694174317E+03  0.11892004471E+03  0.00000000000E+00 0. -1.
<scales pt_clust_5="13000.00000" pt_clust_6="13000.00000" pt_clust_7="13000.00000" pt_clust_8="13000.00000" pt_clust_9="21.60106"></scales>
<clustering>
<clus scale="   21.601">  1  9  2 -1</clus>
<clus scale="   91.376">  7  8 -1 -1</clus>
<clus scale="   91.857">  5  6 -1 -1</clus>
<clus scale="   93.580">  1  7  2 -1</clus>
<clus scale="   21.601">  1  5  2 -1</clus>
</clustering>
</event>
<event>
 9    1  0.1435532E-005  0.1173215E+03  0.7546771E-02  0.1249215E+00
         -1   -1    0    0    0  501 -0.00000000000E+00  0.00000000000E+00  0.28762738618E+03  0.28762738618E+03  0.00000000000E+00 0.  1.
          1   -1    0    0  502    0  0.00000000000E+00 -0.00000000000E+00 -0.16401621669E+03  0.16401621669E+03  0.00000000000E+00 0. -1.
         23    2    1    2    0    0 -0.38014292166E+02 -0.65237922502E+02  0.19636144028E+03  0.23082176487E+03  0.94972622193E+02 0.  0.
         23    2    1    2    0    0  0.51758139710E+02 -0.21136854670E+02 -0.12844941398E+02  0.11481172544E+03  0.99453849237E+02 0.  0.
        -11    1    3    3    0    0 -0.21776213135E+02 -0.78908718098E+02  0.19258748579E+03  0.20926234476E+03  0.00000000000E+00 0.  1.
         11    1    3    3    0    0 -0.16238079031E+02  0.13670795596E+02  0.37739544858E+01  0.21559420106E+02  0.00000000000E+00 0. -1.
        -11    1    4    4    0    0  0.80115195545E+02 -0.85550093512E+01  0.16092708960E+01  0.80586738952E+02  0.00000000000E+00 0.  1.
         11    1    4    4    0    0 -0.28357055835E+02 -0.12581845319E+02 -0.14454212294E+02  0.34224986491E+02  0.00000000000E+00 0. -1.
         21    1    1    2  502  501 -0.13743847544E+02  0.86374777172E+02 -0.59905329390E+02  0.10601011257E+03  0.00000000000E+00 0.  1.
<scales pt_clust_5="13000.00000" pt_clust_6="13000.00000" pt_clust_7="13000.00000" pt_clust_8="13000.00000" pt_clust_9="87.46139"></scales>
<clustering>
<clus scale="   87.461">  2  9  1 -1</clus>
<clus scale="   94.973">  5  6 -1 -1</clus>
<clus scale="   99.454">  7  8 -1 -1</clus>
<clus scale="  113.548">  1  5  2 -1</clus>
<clus scale="   87.461">  2  5  1 -1</clus>
</clustering>
</event>
<event>
 9    1  0.1435532E-005  0.9750378E+02  0.7546771E-02  0.1288586E+00
          1   -1    0    0  502    0  0.00000000000E+00  0.00000000000E+00  0.14402055608E+03  0.14402055608E+03  0.00000000000E+00 0. -1.
         -1   -1    0    0    0  501 -0.00000000000E+00 -0.00000000000E+00 -0.17766017749E+03  0.17766017749E+03  0.00000000000E+00 0.  1.
         23    2    1    2    0    0  0.41054462868E+02 -0.33781739852E+02 -0.90610560769E+02  0.13899762455E+03  0.91013136623E+02 0.  0.
         23    2    1    2    0    0 -0.15267194971E+02 -0.36640600708E+02  0.11115375230E+02  0.94779627881E+02  0.85346384998E+02 0.  0.
        -11    1    3    3    0    0  0.16546667824E+02 -0.30892769764E+02  0.91584386080E+01  0.36221988315E+02  0.00000000000E+00 0.  1.
         11    1    3    3    0    0  0.24507795044E+02 -0.28889700886E+01 -0.99768999377E+02  0.10277563623E+03  0.00000000000E+00 0. -1.
        -13    1    4    4    0    0 -0.31695154004E+02 -0.74094743847E+01 -0.28228776929E+02  0.43085344897E+02  0.00000000000E+00 0.  1.
         13    1    4    4    0    0  0.16427959033E+02 -0.29231126323E+02  0.39344152159E+02  0.51694282984E+02  0.00000000000E+00 0. -1.
         21    1    1    2  502  501 -0.25787267897E+02  0.70422340560E+02  0.45855564131E+02  0.87903481144E+02  0.00000000000E+00 0.  1.
<scales pt_clust_5="13000.00000" pt_clust_6="13000.00000" pt_clust_7="13000.00000" pt_clust_8="13000.00000" pt_clust_9="74.99526"></scales>
<clustering>
<clus scale="   74.995">  1  9  2 -1</clus>
<clus scale="   85.346">  7  8 -1 -1</clus>
<clus scale="   91.013">  5  6 -1 -1</clus>
<clus scale="   92.237">  1  7  2 -1</clus>
<clus scale="   74.995">  1  5  2 -1</clus>
</clustering>
</event>
<event>
 9    1  0.1435532E-005  0.1090282E+03  0.7546771E-02  0.1262663E+00
         -1   -1    0    0    0  501 -0.00000000000E+00  0.00000000000E+00  0.11056920538E+03  0.11056920538E+03  0.00000000000E+00 0.  1.
          1   -1    0    0  502    0  0.00000000000E+00 -0.00000000000E+00 -0.27596132319E+03  0.27596132319E+03  0.00000000000E+00 0. -1.
         23    2    1    2    0    0 -0.43681060112E+02 -0.25328214977E+02  0.36015347866E+02  0.10998919364E+03  0.90834816836E+02 0.  0.
         23    2    1    2    0    0  0.67852342368E+02  0.54128891213E+02 -0.79858227218E+02  0.14930947097E+03  0.91553833557E+02 0.  0.
        -11    1    3    3    0    0 -0.67722961339E+02 -0.23911826603E+02  0.44459837694E+02  0.84468053794E+02  0.00000000000E+00 0.  1.
         11    1    3    3    0    0  0.24041901228E+02 -0.14163883739E+01 -0.84444898279E+01  0.25521139848E+02  0.00000000000E+00 0. -1.
        -13    1    4    4    0    0  0.18200509214E+02 -0.25270801091E+02 -0.29890957342E+02  0.43166436664E+02  0.00000000000E+00 0.  1.
         13    1    4    4    0    0  0.49651833154E+02  0.79399692304E+02 -0.49967269876E+02  0.10614303431E+03  0.00000000000E+00 0. -1.
         21    1    1    2  502  501 -0.24171282257E+02 -0.28800676237E+02 -0.12154923845E+03  0.12723186396E+03  0.00000000000E+00 0. -1.
<scales pt_clust_5="13000.00000" pt_clust_6="13000.00000" pt_clust_7="13000.00000" pt_clust_8="13000.00000" pt_clust_9="37.59960"></scales>
<clustering>
<clus scale="   37.600">  2  9  1 -1</clus>
<clus scale="   90.835">  5  6 -1 -1</clus>
<clus scale="   91.554">  7  8 -1 -1</clus>
<clus scale="  108.425">  1  5  2 -1</clus>
<clus scale="   37.600">  2  5  1 -1</clus>
</clustering>
</event>
<event>
 9    1  0.1435532E-005  0.1052634E+03  0.7546771E-02  0.1270706E+00
          1   -1    0    0  502    0  0.00000000000E+00  0.00000000000E+00  0.59924607041E+03  0.59924607041E+03  0.00000000000E+00 0. -1.
         -1   -1    0    0    0  501 -0.00000000000E+00 -0.00000000000E+00 -0.28689139256E+02  0.28689139256E+02  0.00000000000E+00 0.  1.
         23    2    1    2    0    0 -0.51281504179E+02  0.92350984459E+01  0.11816114025E+03  0.15881352794E+03  0.92437015739E+02 0.  0.
         23    2    1    2    0    0  0.47202236244E+02  0.11926031482E+02  0.38645245300E+03  0.39974619858E+03  0.89895736931E+02 0.  0.
        -11    1    3    3    0    0 -0.90546465787E+01 -0.26945903243E+02  0.93963892236E+02  0.98169656057E+02  0.00000000000E+00 0. -1.
         11    1    3    3    0    0 -0.42226857600E+02  0.36181001689E+02  0.24197248013E+02  0.60643871887E+02  0.00000000000E+00 0.  1.
        -13    1    4    4    0    0 -0.23311755422E+02  0.10754026816E+02  0.52656394340E+02  0.58581421103E+02  0.00000000000E+00 0.  1.
         13    1    4    4    0    0  0.70513991666E+02  0.11720046660E+01  0.33379605866E+03  0.34116477748E+03  0.00000000000E+00 0. -1.
         21    1    1    2  502  501  0.40792679355E+01 -0.21161129928E+02  0.65943337904E+02  0.69375483138E+02  0.00000000000E+00 0. -1.
<scales pt_clust_5="13000.00000" pt_clust_6="13000.00000" pt_clust_7="13000.00000" pt_clust_8="13000.00000" pt_clust_9="21.55073"></scales>
<clustering>
<clus scale="   21.551">  1  9  2 -1</clus>
<clus scale="   89.896">  7  8 -1 -1</clus>
<clus scale="   92.437">  5  6 -1 -1</clus>
<clus scale="  103.039">  1  7  2 -1</clus>
<clus scale="   21.551">  1  5  2 -1</clus>
</clustering>
</event>
<event>
 9    1  0.1435532E-005  0.9991266E+02  0.7546771E-02  0.1282351E+00
          2   -1    0    0  502    0  0.00000000000E+00  0.00000000000E+00  0.23252018431E+03  0.23252018431E+03  0.00000000000E+00 0. -1.
         -2   -1    0    0    0  501 -0.00000000000E+00 -0.00000000000E+00 -0.54468410900E+02  0.54468410900E+02  0.00000000000E+00 0.  1.
         23    2    1    2    0    0  0.33465027092E+02  0.22840096209E+02  0.53935673464E+02  0.11552075163E+03  0.93778511143E+02 0.  0.
         23    2    1    2    0    0 -0.29249224871E+02 -0.23401005754E+01  0.85750311181E+02  0.12776479383E+03  0.90054058486E+02 0.  0.
        -11    1    4    4    0    0 -0.15449311144E+02 -0.46180474073E+02  0.41902991012E+02  0.64243116800E+02  0.00000000000E+00 0. -1.
         11    1    4    4    0    0 -0.13799913726E+02  0.43840373498E+02  0.43847320169E+02  0.63521677035E+02  0.00000000000E+00 0.  1.
        -13    1    3    3    0    0 -0.17493686576E+02  0.20179435191E+02  0.58481107040E+02  0.64290579056E+02  0.00000000000E+00 0.  1.
         13    1    3    3    0    0  0.50958713668E+02  0.26606610174E+01 -0.45454335759E+01  0.51230172576E+02  0.00000000000E+00 0. -1.
         21    1    1    2  502  501 -0.42158022211E+01 -0.20499995633E+02  0.38365788765E+02  0.43703049743E+02  0.00000000000E+00 0. -1.
<scales pt_clust_5="13000.00000" pt_clust_6="13000.00000" pt_clust_7="13000.00000" pt_clust_8="13000.00000" pt_clust_9="20.92899"></scales>
<clustering>
<clus scale="   20.929">  1  9  2 -1</clus>
<clus scale="   90.054">  5  6 -1 -1</clus>
<clus scale="   93.779">  7  8 -1 -1</clus>
<clus scale="   96.425">  1  5  2 -1</clus>
<clus scale="   20.929">  1  5  2 -1</clus>
</clustering>
</event>
<event>
 9    1  0.1435532E-005  0.9364770E+02  0.7546771E-02  0.1295801E+00
          2   -1    0    0  502    0  0.00000000000E+00  0.00000000000E+00  0.36491177114E+03  0.36491177114E+03  0.00000000000E+00 0. -1.
         -2   -1    0    0    0  501 -0.00000000000E+00 -0.00000000000E+00 -0.36307056722E+02  0.36307056722E+02  0.00000000000E+00 0.  1.
         23    2    1    2    0    0 -0.55034076154E+01  0.93138165045E+01  0.78376704331E+02  0.12053267057E+03  0.90929545356E+02 0.  0.
         23    2    1    2    0    0 -0.62763686127E+00  0.17823710577E+02  0.15949793599E+03  0.18578630784E+03  0.93588898949E+02 0.  0.
        -13    1    4    4    0    0  0.29085273486E+02 -0.95613610983E+01  0.13522678755E+03  0.13864940256E+03  0.00000000000E+00 0.  1.
         13    1    4    4    0    0 -0.29712910347E+02  0.27385071675E+02  0.24271148442E+02  0.47136905272E+02  0.00000000000E+00 0. -1.
        -13    1    3    3    0    0  0.26602983922E+02  0.32975447869E+01 -0.81722749049E+01  0.28024607621E+02  0.00000000000E+00 0.  1.
         13    1    3    3    0    0 -0.32106391538E+02  0.60162717177E+01  0.86548979236E+02  0.92508062945E+02  0.00000000000E+00 0. -1.
         21    1    1    2  502  501  0.61310444766E+01 -0.27137527081E+02  0.90730074090E+02  0.94899849457E+02  0.00000000000E+00 0. -1.
<scales pt_clust_5="13000.00000" pt_clust_6="13000.00000" pt_clust_7="13000.00000" pt_clust_8="13000.00000" pt_clust_9="27.82149"></scales>
<clustering>
<clus scale="   27.821">  1  9  2 -1</clus>
<clus scale="   90.930">  7  8 -1 -1</clus>
<clus scale="   90.990">  2  7  1 -1</clus>
<clus scale="   93.589">  5  6 -1 -1</clus>
<clus scale="   27.821">  1  5  2 -1</clus>
</clustering>
</event>
<event>
 9    1  0.1435532E-005  0.1013397E+03  0.7546771E-02  0.1278561E+00
          3   -1    0    0  502    0  0.00000000000E+00  0.00000000000E+00  0.81746801638E+02  0.81746801638E+02  0.00000000000E+00 0. -1.
         -3   -1    0    0    0  501 -0.00000000000E+00 -0.00000000000E+00 -0.25989494480E+03  0.25989494480E+03  0.00000000000E+00 0.  1.
         23    2    1    2    0    0 -0.86788904848E+01  0.14488834259E+02 -0.10275571019E+03  0.14028537475E+03  0.94000004963E+02 0.  0.
         23    2    1    2    0    0  0.21912497953E+02 -0.75992218716E+02 -0.65256005783E+02  0.13763399083E+03  0.91813911093E+02 0.  0.
        -11    1    4    4    0    0 -0.10558311355E+02 -0.43670741228E+02 -0.78057151140E+02  0.90064035121E+02  0.00000000000E+00 0.  1.
         11    1    4    4    0    0  0.32470809308E+02 -0.32321477488E+02  0.12801145357E+02  0.47569955713E+02  0.00000000000E+00 0. -1.
        -13    1    3    3    0    0 -0.26882357627E+02  0.46171934724E+02 -0.83101940474E+02  0.98794945307E+02  0.00000000000E+00 0.  1.
         13    1    3    3    0    0  0.18203467142E+02 -0.31683100464E+02 -0.19653769713E+02  0.41490429438E+02  0.00000000000E+00 0. -1.
         21    1    1    2  502  501 -0.13233607468E+02  0.61503384457E+02 -0.10136427193E+02  0.63722380860E+02  0.00000000000E+00 0.  1.
<scales pt_clust_5="13000.00000" pt_clust_6="13000.00000" pt_clust_7="13000.00000" pt_clust_8="13000.00000" pt_clust_9="62.91101"></scales>
<clustering>
<clus scale="   62.911">  1  9  2 -1</clus>
<clus scale="   91.814">  5  6 -1 -1</clus>
<clus scale="   94.000">  7  8 -1 -1</clus>
<clus scale="   99.315">  1  5  2 -1</clus>
<clus scale="   62.911">  1  5  2 -1</clus>
</clustering>
</event>
<event>
 9    1  0.1435532E-005  0.1099572E+03  0.7546771E-02  0.1261465E+00
          2   -1    0    0  502    0  0.00000000000E+00  0.00000000000E+00  0.76918776527E+02  0.76918776527E+02  0.00000000000E+00 0. -1.
         -2   -1    0    0    0  501 -0.00000000000E+00 -0.00000000000E+00 -0.23717209108E+03  0.23717209108E+03  0.00000000000E+00 0.  1.
         23    2    1    2    0    0  0.13238833175E+02 -0.39457247634E+02 -0.61699010423E+02  0.11776443603E+03  0.91266387084E+02 0.  0.
         23    2    1    2    0    0 -0.21938640573E+02  0.78356862106E+02 -0.99538517527E+02  0.15645369238E+03  0.89155704244E+02 0.  0.
        -11    1    4    4    0    0  0.26676991089E+02  0.16426154147E+02 -0.61485796557E+02  0.69007126964E+02  0.00000000000E+00 0.  1.
         11    1    4    4    0    0 -0.48615631662E+02  0.61930707959E+02 -0.38052720970E+02  0.87446565418E+02  0.00000000000E+00 0. -1.
        -11    1    3    3    0    0  0.15206965164E+02 -0.63492037036E+02 -0.17788456470E+02  0.67667715641E+02  0.00000000000E+00 0. -1.
         11    1    3    3    0    0 -0.19681319897E+01  0.24034789402E+02 -0.43910553953E+02  0.50096720388E+02  0.00000000000E+00 0.  1.
         21    1    1    2  502  501  0.86998073981E+01 -0.38899614472E+02  0.98421339962E+00  0.39872739194E+02  0.00000000000E+00 0. -1.
<scales pt_clust_5="13000.00000" pt_clust_6="13000.00000" pt_clust_7="13000.00000" pt_clust_8="13000.00000" pt_clust_9="39.86059"></scales>
<clustering>
<clus scale="   39.861">  1  9  2 -1</clus>
<clus scale="   89.156">  5  6 -1 -1</clus>
<clus scale="   91.266">  7  8 -1 -1</clus>
<clus scale="  108.212">  1  5  2 -1</clus>
<clus scale="   39.861">  1  5  2 -1</clus>
</clustering>
</event>
<event>
 9    1  0.1435532E-005  0.9954194E+02  0.7546771E-02  0.1281699E+00
          2   -1    0    0  502    0  0.00000000000E+00  0.00000000000E+00  0.96082340628E+02  0.96082340628E+02  0.00000000000E+00 0. -1.
         -2   -1    0    0    0  501 -0.00000000000E+00 -0.00000000000E+00 -0.13613761325E+03  0.13613761325E+03  0.00000000000E+00 0.  1.
         23    2    1    2    0    0  0.24385705321E+01  0.22678975610E+02 -0.47596521147E+02  0.11084684027E+03  0.97474666509E+02 0.  0.
         23    2    1    2    0    0 -0.83009868497E+01 -0.29496083223E+01 -0.19197765713E+01  0.98720810090E+02  0.98308220566E+02 0.  0.
        -11    1    4    4    0    0 -0.16529044567E+02  0.45955914766E+02 -0.46092928890E+01  0.49055081258E+02  0.00000000000E+00 0.  1.
         11    1    4    4    0    0  0.82280577175E+01 -0.48905523089E+02  0.26895163177E+01  0.49665728832E+02  0.00000000000E+00 0. -1.
        -13    1    3    3    0    0 -0.33358511069E+02  0.21247365118E+02 -0.60912687436E+02  0.72626415827E+02  0.00000000000E+00 0.  1.
         13    1    3    3    0    0  0.35797081601E+02  0.14316104919E+01  0.13316166289E+02  0.38220424440E+02  0.00000000000E+00 0. -1.
         21    1    1    2  502  501  0.58624163176E+01 -0.19729367288E+02  0.94610251007E+01  0.22652303517E+02  0.00000000000E+00 0. -1.
<scales pt_clust_5="13000.00000" pt_clust_6="13000.00000" pt_clust_7="13000.00000" pt_clust_8="13000.00000" pt_clust_9="20.58193"></scales>
<clustering>
<clus scale="   20.582">  1  9  2 -1</clus>
<clus scale="   97.475">  7  8 -1 -1</clus>
<clus scale="   98.308">  5  6 -1 -1</clus>
<clus scale="   98.719">  2  7  1 -1</clus>
<clus scale="   20.582">  1  5  2 -1</clus>
</clustering>
</event>
<event>
 9    1  0.1435532E-005  0.1392027E+03  0.7546771E-02  0.1234403E+00
          1   -1    0    0  502    0  0.00000000000E+00  0.00000000000E+00  0.25713545734E+03  0.25713545734E+03  0.00000000000E+00 0. -1.
         -1   -1    0    0    0  501 -0.00000000000E+00 -0.00000000000E+00 -0.15069530967E+03  0.15069530967E+03  0.00000000000E+00 0.  1.
         23    2    1    2    0    0  0.16975140574E+02 -0.10031562555E+03 -0.22134840530E+02  0.13830990150E+03  0.91040087659E+02 0.  0.
         23    2    1    2    0    0 -0.10932557078E+01 -0.70507274567E+01  0.13220467816E+03  0.16092554943E+03  0.91477033002E+02 0.  0.
        -11    1    3    3    0    0 -0.32774782027E+02 -0.66014847941E+02  0.71239592134E+00  0.73706539693E+02  0.00000000000E+00 0. -1.
         11    1    3    3    0    0  0.49749922601E+02 -0.34300777608E+02 -0.22847236451E+02  0.64603361807E+02  0.00000000000E+00 0.  1.
        -13    1    4    4    0    0  0.18149221040E+02  0.22548613635E+02  0.55889735236E+01  0.29480007229E+02  0.00000000000E+00 0.  1.
         13    1    4    4    0    0 -0.19242476747E+02 -0.29599341092E+02  0.12661570463E+03  0.13144554220E+03  0.00000000000E+00 0. -1.
         21    1    1    2  502  501 -0.15881884866E+02  0.10736635301E+03 -0.36296899521E+01  0.10859531608E+03  0.00000000000E+00 0. -1.
<scales pt_clust_5="13000.00000" pt_clust_6="13000.00000" pt_clust_7="13000.00000" pt_clust_8="13000.00000" pt_clust_9="105.30471"></scales>
<clustering>
<clus scale="   91.040">  5  6 -1 -1</clus>
<clus scale="   91.477">  7  8 -1 -1</clus>
<clus scale="   91.755">  1  7  2 -1</clus>
<clus scale="  105.305">  1  9  2 -1</clus>
<clus scale="   91.755">  1  5  2 -1</clus>
</clustering>
</event>
<event>
 9    1  0.2371277E-005  0.9472794E+02  0.7546771E-02  0.1293319E+00
         -1   -1    0    0    0  501 -0.00000000000E+00  0.00000000000E+00  0.30750232981E+03  0.30750232981E+03  0.00000000000E+00 0.  1.
          1   -1    0    0  502    0  0.00000000000E+00 -0.00000000000E+00 -0.25335981663E+03  0.25335981663E+03  0.00000000000E+00 0. -1.
         23    2    1    2    0    0  0.13609760833E+02 -0.22608068733E+00  0.27870810219E+03  0.29429603012E+03  0.93523635615E+02 0.  0.
         23    2    1    2    0    0 -0.50855419713E+02  0.73320465982E+01 -0.17992297833E+03  0.20799396811E+03  0.90824996663E+02 0.  0.
        -11    1    3    3    0    0 -0.30553609235E+02 -0.22850310145E+02  0.69499987311E+02  0.79283718046E+02  0.00000000000E+00 0. -1.
         11    1    3    3    0    0  0.44163370068E+02  0.22624229458E+02  0.20920811488E+03  0.21501231208E+03  0.00000000000E+00 0.  1.
        -13    1    4    4    0    0 -0.52074452224E+02 -0.24485614975E+02 -0.56930541578E+02  0.80946775596E+02  0.00000000000E+00 0.  1.
         13    1    4    4    0    0  0.12190325112E+01  0.31817661573E+02 -0.12299243675E+03  0.12704719251E+03  0.00000000000E+00 0. -1.
         21    1    1    2  502  501  0.37245658880E+02 -0.71059659109E+01 -0.44642610683E+02  0.58572148206E+02  0.00000000000E+00 0.  1.
<scales pt_clust_5="13000.00000" pt_clust_6="13000.00000" pt_clust_7="13000.00000" pt_clust_8="13000.00000" pt_clust_9="37.91746"></scales>
<clustering>
<clus scale="   37.917">  2  9  1 -1</clus>
<clus scale="   90.825">  7  8 -1 -1</clus>
<clus scale="   92.065">  2  7  1 -1</clus>
<clus scale="   93.524">  5  6 -1 -1</clus>
<clus scale="   37.917">  2  5  1 -1</clus>
</clustering>
</event>
<event>
 9    1  0.1435532E-005  0.1361961E+03  0.7546771E-02  0.1218566E+00
         -1   -1    0    0    0  501 -0.00000000000E+00  0.00000000000E+00  0.29364391518E+02  0.29364391518E+02  0.00000000000E+00 0.  1.
          1   -1    0    0  502    0  0.00000000000E+00 -0.00000000000E+00 -0.10724717209E+04  0.10724717209E+04  0.00000000000E+00 0. -1.
         23    2    1    2    0    0 -0.97981853138E+02  0.32732644781E+02 -0.23063900005E+03  0.26881528803E+03  0.91626639977E+02 0.  0.
         23    2    1    2    0    0  0.10032267481E+03  0.57628204370E+01 -0.49867291280E+03  0.51686430663E+03  0.91521518367E+02 0.  0.
        -11    1    4    4    0    0  0.11214252231E+03 -0.13322823639E+02 -0.39750839211E+03  0.41323887128E+03  0.00000000000E+00 0. -1.
         11    1    4    4    0    0 -0.11819847493E+02  0.19085644076E+02 -0.10116452069E+03  0.10362543535E+03  0.00000000000E+00 0.  1.
        -11    1    3    3    0    0 -0.62361605084E+02  0.63417293901E+02 -0.12740045762E+03  0.15537567235E+03  0.00000000000E+00 0.  1.
         11    1    3    3    0    0 -0.35620248054E+02 -0.30684649120E+02 -0.10323854243E+03  0.11343961568E+03  0.00000000000E+00 0. -1.
         21    1    1    2  502  501 -0.23408216760E+01 -0.38495465218E+02 -0.31379541654E+03  0.31615651777E+03  0.00000000000E+00 0.  1.
<scales pt_clust_5="13000.00000" pt_clust_6="13000.00000" pt_clust_7="13000.00000" pt_clust_8="13000.00000" pt_clust_9="38.56657"></scales>
<clustering>
<clus scale="   38.567">  2  9  1 -1</clus>
<clus scale="   91.522">  5  6 -1 -1</clus>
<clus scale="   91.627">  7  8 -1 -1</clus>
<clus scale="  136.125">  2  5  1 -1</clus>
<clus scale="   38.567">  2  5  1 -1</clus>
</clustering>
</event>
<event>
 9    1  0.1435532E-005  0.1008103E+03  0.7546771E-02  0.1282190E+00
          1   -1    0    0  502    0  0.00000000000E+00  0.00000000000E+00  0.93803213274E+02  0.93803213274E+02  0.00000000000E+00 0. -1.
         -1   -1    0    0    0  501 -0.00000000000E+00 -0.00000000000E+00 -0.20874982895E+03  0.20874982895E+03  0.00000000000E+00 0.  1.
         23    2    1    2    0    0 -0.30423990331E+02  0.11012814765E+02 -0.14398519673E+03  0.17716690314E+03  0.98027921603E+02 0.  0.
         23    2    1    2    0    0  0.21417721120E+02  0.86105238644E+01  0.38738122669E+02  0.10171612828E+03  0.91173837829E+02 0.  0.
        -11    1    4    4    0    0 -0.32481285414E+02 -0.81479381326E+01  0.41281898043E+00  0.33490195841E+02  0.00000000000E+00 0.  1.
         11    1    4    4    0    0  0.53899006534E+02  0.16758461997E+02  0.38325303689E+02  0.68225932435E+02  0.00000000000E+00 0. -1.
        -11    1    3    3    0    0 -0.44950624992E+02 -0.33708690500E+02 -0.76546392027E+02  0.94953592006E+02  0.00000000000E+00 0.  1.
         11    1    3    3    0    0  0.14526634661E+02  0.44721505265E+02 -0.67438804701E+02  0.82213311132E+02  0.00000000000E+00 0. -1.
         21    1    1    2  502  501  0.90062692107E+01 -0.19623338630E+02 -0.96995416134E+01  0.23670010806E+02  0.00000000000E+00 0. -1.
<scales pt_clust_5="13000.00000" pt_clust_6="13000.00000" pt_clust_7="13000.00000" pt_clust_8="13000.00000" pt_clust_9="21.59139"></scales>
<clustering>
<clus scale="   21.591">  2  9  1 -1</clus>
<clus scale="   91.174">  5  6 -1 -1</clus>
<clus scale="   94.159">  1  5  2 -1</clus>
<clus scale="   98.028">  7  8 -1 -1</clus>
<clus scale="   94.159">  1  5  2 -1</clus>
</clustering>
</event>
<event>
 9    1  0.1435532E-005  0.9625065E+02  0.7546771E-02  0.1291140E+00
          4   -1    0    0  502    0  0.00000000000E+00  0.00000000000E+00  0.19425030952E+03  0.19425030952E+03  0.00000000000E+00 0. -1.
         -4   -1    0    0    0  501 -0.00000000000E+00 -0.00000000000E+00 -0.77834099248E+02  0.77834099248E+02  0.00000000000E+00 0.  1.
         23    2    1    2    0    0 -0.20977361359E+02 -0.41359487802E+01 -0.14453798784E+02  0.92116546781E+02  0.88427315517E+02 0.  0.
         23    2    1    2    0    0  0.22683024689E+02  0.25872714312E+02  0.11895475685E+03  0.15512094068E+03  0.93425666207E+02 0.  0.
        -11    1    4    4    0    0  0.51331034446E+02  0.17102948916E+02  0.31343150455E+02  0.62528225941E+02  0.00000000000E+00 0.  1.
         11    1    4    4    0    0 -0.28648009757E+02  0.87697653961E+01  0.87611606396E+02  0.92592714743E+02  0.00000000000E+00 0. -1.
        -13    1    3    3    0    0 -0.22280117826E+02 -0.44284314057E+02 -0.44757322482E+00  0.49575240227E+02  0.00000000000E+00 0. -1.
         13    1    3    3    0    0  0.13027564666E+01  0.40148365277E+02 -0.14006225560E+02  0.42541306553E+02  0.00000000000E+00 0.  1.
         21    1    1    2  502  501 -0.17056633299E+01 -0.21736765532E+02  0.11915252208E+02  0.24846921306E+02  0.00000000000E+00 0. -1.
<scales pt_clust_5="13000.00000" pt_clust_6="13000.00000" pt_clust_7="13000.00000" pt_clust_8="13000.00000" pt_clust_9="21.80358"></scales>
<clustering>
<clus scale="   21.804">  1  9  2 -1</clus>
<clus scale="   88.427">  7  8 -1 -1</clus>
<clus scale="   91.407">  2  7  1 -1</clus>
<clus scale="   93.426">  5  6 -1 -1</clus>
<clus scale="   21.804">  1  5  2 -1</clus>
</clustering>
</event>
<event>
 9    1  0.1784071E-005  0.2016216E+03  0.7546771E-02  0.1148687E+00
         -2   -1    0    0    0  501 -0.00000000000E+00  0.00000000000E+00  0.21194859944E+03  0.21194859944E+03  0.00000000000E+00 0.  1.
          2   -1    0    0  502    0  0.00000000000E+00 -0.00000000000E+00 -0.62647955002E+03  0.62647955002E+03  0.00000000000E+00 0. -1.
         23    2    1    2    0    0 -0.12706745213E+03  0.12441540395E+03  0.13248632122E+03  0.23985580454E+03  0.91393935951E+02 0.  0.
         23    2    1    2    0    0  0.14942319421E+03 -0.12800353718E+03 -0.45033760164E+03  0.49927676331E+03  0.88097300899E+02 0.  0.
        -11    1    3    3    0    0 -0.48021179869E+02  0.48048847944E+02  0.28380443402E+00  0.67932363787E+02  0.00000000000E+00 0. -1.
         11    1    3    3    0    0 -0.79046272261E+02  0.76366556010E+02  0.13220251679E+03  0.17192344075E+03  0.00000000000E+00 0.  1.
        -13    1    4    4    0    0  0.91431841897E+02 -0.11960887637E+03 -0.26362572926E+03  0.30358621534E+03  0.00000000000E+00 0. -1.
         13    1    4    4    0    0  0.57991352317E+02 -0.83946608116E+01 -0.18671187238E+03  0.19569054796E+03  0.00000000000E+00 0.  1.
         21    1    1    2  502  501 -0.22355742083E+02  0.35881332267E+01 -0.96679670169E+02  0.99295581614E+02  0.00000000000E+00 0. -1.
<scales pt_clust_5="13000.00000" pt_clust_6="13000.00000" pt_clust_7="13000.00000" pt_clust_8="13000.00000" pt_clust_9="22.64186"></scales>
<clustering>
<clus scale="   22.642">  2  9  1 -1</clus>
<clus scale="   88.097">  7  8 -1 -1</clus>
<clus scale="   91.394">  5  6 -1 -1</clus>
<clus scale="  200.149">  2  7  1 -1</clus>
<clus scale="   22.642">  2  5  1 -1</clus>
</clustering>
</event>
<event>
 9    1  0.1435532E-005  0.1165473E+03  0.7546771E-02  0.1249968E+00
          1   -1    0    0  502    0  0.00000000000E+00  0.00000000000E+00  0.47728359550E+03  0.47728359550E+03  0.00000000000E+00 0. -1.
         -1   -1    0    0    0  501 -0.00000000000E+00 -0.00000000000E+00 -0.47092542011E+02  0.47092542011E+02  0.00000000000E+00 0.  1.
         23    2    1    2    0    0  0.97853899934E+02  0.38673668539E+01  0.13137375438E+03  0.18749802963E+03  0.91137838013E+02 0.  0.
         23    2    1    2    0    0 -0.40748927242E+02 -0.12448489647E+02  0.18373021700E+03  0.20811611798E+03  0.87977758310E+02 0.  0.
        -11    1    4    4    0    0  0.19686866558E+02  0.12692767410E+02  0.16841703340E+02  0.28849991868E+02  0.00000000000E+00 0.  1.
         11    1    4    4    0    0 -0.60435793800E+02 -0.25141257057E+02  0.16688851366E+03  0.17926612611E+03  0.00000000000E+00 0. -1.
        -13    1    3    3    0    0  0.30285079970E+02  0.22260395313E+02 -0.11570502386E+01  0.37603856631E+02  0.00000000000E+00 0.  1.
         13    1    3    3    0    0  0.67568819964E+02 -0.18393028459E+02  0.13253080462E+03  0.14989417300E+03  0.00000000000E+00 0. -1.
         21    1    1    2  502  501 -0.57104972692E+02  0.85811227929E+01  0.11508708211E+03  0.12876198990E+03  0.00000000000E+00 0. -1.
<scales pt_clust_5="13000.00000" pt_clust_6="13000.00000" pt_clust_7="13000.00000" pt_clust_8="13000.00000" pt_clust_9="57.74611"></scales>
<clustering>
<clus scale="   57.746">  1  9  2 -1</clus>
<clus scale="   87.978">  5  6 -1 -1</clus>
<clus scale="   91.138">  7  8 -1 -1</clus>
<clus scale="  114.093">  1  5  2 -1</clus>
<clus scale="   57.746">  1  5  2 -1</clus>
</clustering>
</event>
<event>
 9    1  0.1435532E-005  0.9936720E+02  0.7546771E-02  0.1282425E+00
          1   -1    0    0  502    0  0.00000000000E+00  0.00000000000E+00  0.22479097502E+03  0.22479097502E+03  0.00000000000E+00 0. -1.
         -1   -1    0    0    0  501 -0.00000000000E+00 -0.00000000000E+00 -0.20356463814E+03  0.20356463814E+03  0.00000000000E+00 0.  1.
         23    2    1    2    0    0  0.78614061097E+02 -0.14242805002E+02 -0.13163972553E+03  0.17923687976E+03  0.91726842480E+02 0.  0.
         23    2    1    2    0    0 -0.31972788795E+02 -0.16228278517E+02  0.16565297047E+03  0.19195755575E+03  0.90117591717E+02 0.  0.
        -11    1    4    4    0    0 -0.15864928283E+02  0.37569310128E+02  0.66672257181E+02  0.78155862803E+02  0.00000000000E+00 0.  1.
         11    1    4    4    0    0 -0.16107860512E+02 -0.53797588645E+02  0.98980713285E+02  0.11380169294E+03  0.00000000000E+00 0. -1.
        -11    1    3    3    0    0  0.60791338432E+02 -0.37191283292E+02 -0.13218850864E+03  0.15017516505E+03  0.00000000000E+00 0.  1.
         11    1    3    3    0    0  0.17822722664E+02  0.22948478290E+02  0.54878310692E+00  0.29061714710E+02  0.00000000000E+00 0. -1.
         21    1    1    2  502  501 -0.46641272302E+02  0.30471083519E+02 -0.12786908060E+02  0.57161177651E+02  0.00000000000E+00 0. -1.
<scales pt_clust_5="13000.00000" pt_clust_6="13000.00000" pt_clust_7="13000.00000" pt_clust_8="13000.00000" pt_clust_9="55.71261"></scales>
<clustering>
<clus scale="   55.713">  2  9  1 -1</clus>
<clus scale="   90.118">  5  6 -1 -1</clus>
<clus scale="   91.727">  7  8 -1 -1</clus>
<clus scale="   97.884">  1  5  2 -1</clus>
<clus scale="   97.884">  1  5  2 -1</clus>
</clustering>
</event>
<event>
 9    1  0.1435532E-005  0.1790829E+03  0.7546771E-02  0.1170133E+00
          2   -1    0    0  502    0  0.00000000000E+00  0.00000000000E+00  0.57348557456E+03  0.57348557456E+03  0.00000000000E+00 0. -1.
         -2   -1    0    0    0  501 -0.00000000000E+00 -0.00000000000E+00 -0.18810452822E+03  0.18810452822E+03  0.00000000000E+00 0.  1.
         23    2    1    2    0    0  0.11209839923E+03 -0.10142483013E+03 -0.11587047670E+03  0.21667660119E+03  0.10329440864E+03 0.  0.
         23    2    1    2    0    0 -0.50241335450E+02  0.10149221170E+03  0.40326418419E+03  0.42903503312E+03  0.92866552499E+02 0.  0.
        -11    1    3    3    0    0  0.90543672887E+02 -0.11188814153E+03 -0.12539256940E+03  0.19089371225E+03  0.00000000000E+00 0.  1.
         11    1    3    3    0    0  0.21554726341E+02  0.10463311393E+02  0.95220927042E+01  0.25782888946E+02  0.00000000000E+00 0. -1.
        -13    1    4    4    0    0 -0.69619678683E+02  0.41208230535E+02  0.18842928046E+03  0.20506245795E+03  0.00000000000E+00 0.  1.
         13    1    4    4    0    0  0.19378343232E+02  0.60283981163E+02  0.21483490372E+03  0.22397257517E+03  0.00000000000E+00 0. -1.
         21    1    1    2  502  501 -0.61857063778E+02 -0.67381565533E-01  0.97987338848E+02  0.11587846847E+03  0.00000000000E+00 0. -1.
<scales pt_clust_5="13000.00000" pt_clust_6="13000.00000" pt_clust_7="13000.00000" pt_clust_8="13000.00000" pt_clust_9="61.85710"></scales>
<clustering>
<clus scale="   61.857">  1  9  2 -1</clus>
<clus scale="   92.867">  7  8 -1 -1</clus>
<clus scale="  103.294">  5  6 -1 -1</clus>
<clus scale="  173.278">  1  7  2 -1</clus>
<clus scale="   61.857">  1  5  2 -1</clus>
</clustering>
</event>
<event>
 9    1  0.1435532E-005  0.9850025E+02  0.7546771E-02  0.1285043E+00
          1   -1    0    0  502    0  0.00000000000E+00  0.00000000000E+00  0.11701349491E+03  0.11701349491E+03  0.00000000000E+00 0. -1.
         -1   -1    0    0    0  501 -0.00000000000E+00 -0.00000000000E+00 -0.11925396702E+03  0.11925396702E+03  0.00000000000E+00 0.  1.
         23    2    1    2    0    0 -0.29714722239E+02 -0.39809347763E+02 -0.19392615519E+02  0.10610865029E+03  0.91734525900E+02 0.  0.
         23    2    1    2    0    0  0.24601089039E+02  0.54578202223E+01  0.17836877616E+01  0.92180316172E+02  0.88651157714E+02 0.  0.
        -11    1    3    3    0    0 -0.51954556709E+02 -0.44146390232E+02 -0.36855295110E+02  0.77501564572E+02  0.00000000000E+00 0.  1.
         11    1    3    3    0    0  0.22239834470E+02  0.43370424691E+01  0.17462679591E+02  0.28607085716E+02  0.00000000000E+00 0. -1.
        -13    1    4    4    0    0 -0.19301858389E+02  0.11540674163E+02  0.31583170870E+02  0.38771711074E+02  0.00000000000E+00 0.  1.
         13    1    4    4    0    0  0.43902947429E+02 -0.60828539403E+01 -0.29799483109E+02  0.53408605098E+02  0.00000000000E+00 0. -1.
         21    1    1    2  502  501  0.51136332002E+01  0.34351527541E+02  0.15368455656E+02  0.37978495470E+02  0.00000000000E+00 0.  1.
<scales pt_clust_5="13000.00000" pt_clust_6="13000.00000" pt_clust_7="13000.00000" pt_clust_8="13000.00000" pt_clust_9="34.73005"></scales>
<clustering>
<clus scale="   34.730">  1  9  2 -1</clus>
<clus scale="   88.651">  7  8 -1 -1</clus>
<clus scale="   91.735">  5  6 -1 -1</clus>
<clus scale="   95.635">  1  7  2 -1</clus>
<clus scale="   34.730">  1  5  2 -1</clus>
</clustering>
</event>
<event>
 9    1  0.1435532E-005  0.1974819E+03  0.7546771E-02  0.1152114E+00
         -2   -1    0    0    0  501 -0.00000000000E+00  0.00000000000E+00  0.33107421335E+02  0.33107421335E+02  0.00000000000E+00 0.  1.
          2   -1    0    0  502    0  0.00000000000E+00 -0.00000000000E+00 -0.15241838654E+04  0.15241838654E+04  0.00000000000E+00 0. -1.
         23    2    1    2    0    0 -0.78053810092E+02  0.18427110602E+03 -0.68339889162E+03  0.71824981539E+03  0.93811057184E+02 0.  0.
         23    2    1    2    0    0  0.71230300942E+02 -0.13839366129E+03 -0.65993593364E+03  0.68419029719E+03  0.91511556616E+02 0.  0.
        -13    1    4    4    0    0  0.82339755253E+02 -0.95097643172E+02 -0.57053791605E+03  0.58424045622E+03  0.00000000000E+00 0.  1.
         13    1    4    4    0    0 -0.11109454311E+02 -0.43296018119E+02 -0.89398017588E+02  0.99949840964E+02  0.00000000000E+00 0. -1.
        -13    1    3    3    0    0  0.92930258548E+01  0.28885224211E+02 -0.37679281577E+02  0.48378143489E+02  0.00000000000E+00 0.  1.
         13    1    3    3    0    0 -0.87346835946E+02  0.15538588181E+03 -0.64571961005E+03  0.66987167190E+03  0.00000000000E+00 0. -1.
         21    1    1    2  502  501  0.68235091491E+01 -0.45877444734E+02 -0.14774161878E+03  0.15485117414E+03  0.00000000000E+00 0.  1.
<scales pt_clust_5="13000.00000" pt_clust_6="13000.00000" pt_clust_7="13000.00000" pt_clust_8="13000.00000" pt_clust_9="46.38211"></scales>
<clustering>
<clus scale="   46.382">  1  9  2 -1</clus>
<clus scale="   91.512">  5  6 -1 -1</clus>
<clus scale="   93.811">  7  8 -1 -1</clus>
<clus scale="  196.400">  2  5  1 -1</clus>
<clus scale="  196.400">  2  5  1 -1</clus>
</clustering>
</event>
<event>
 9    1  0.1435532E-005  0.1465049E+03  0.7546771E-02  0.1205532E+00
         -2   -1    0    0    0  501 -0.00000000000E+00  0.00000000000E+00  0.58246279626E+02  0.58246279626E+02  0.00000000000E+00 0.  1.
          2   -1    0    0  502    0  0.00000000000E+00 -0.00000000000E+00 -0.52123895550E+03  0.52123895550E+03  0.00000000000E+00 0. -1.
         23    2    1    2    0    0 -0.11031455733E+03 -0.70217241407E+02 -0.21933218885E+03  0.27123096427E+03  0.91432293881E+02 0.  0.
         23    2    1    2    0    0  0.59229253118E+02  0.78639416797E+02 -0.18474325488E+03  0.22982033950E+03  0.94842268655E+02 0.  0.
        -11    1    3    3    0    0 -0.71094084456E+02 -0.78368776257E+02 -0.10090295596E+03  0.14621026113E+03  0.00000000000E+00 0.  1.
         11    1    3    3    0    0 -0.39220472873E+02  0.81515348493E+01 -0.11842923288E+03  0.12502070314E+03  0.00000000000E+00 0. -1.
        -13    1    4    4    0    0  0.64606132321E+02  0.31399087309E+02 -0.51605276688E+02  0.88447496287E+02  0.00000000000E+00 0.  1.
         13    1    4    4    0    0 -0.53768792032E+01  0.47240329488E+02 -0.13313797820E+03  0.14137284321E+03  0.00000000000E+00 0. -1.
         21    1    1    2  502  501  0.51085304211E+02 -0.84221753897E+01 -0.58917232139E+02  0.78433931354E+02  0.00000000000E+00 0.  1.
<scales pt_clust_5="13000.00000" pt_clust_6="13000.00000" pt_clust_7="13000.00000" pt_clust_8="13000.00000" pt_clust_9="51.77491"></scales>
<clustering>
<clus scale="   51.775">  1  9  2 -1</clus>
<clus scale="   91.432">  5  6 -1 -1</clus>
<clus scale="   94.842">  7  8 -1 -1</clus>
<clus scale="  144.321">  1  5  2 -1</clus>
<clus scale="  146.505">  2  5  1 -1</clus>
</clustering>
</event>
<event>
 9    1  0.1435532E-005  0.2111403E+03  0.7546771E-02  0.1140813E+00
          1   -1    0    0  502    0  0.00000000000E+00  0.00000000000E+00  0.13729552612E+04  0.13729552612E+04  0.00000000000E+00 0. -1.
         -1   -1    0    0    0  501 -0.00000000000E+00 -0.00000000000E+00 -0.88962931232E+02  0.88962931232E+02  0.00000000000E+00 0.  1.
         23    2    1    2    0    0  0.17450125290E+03 -0.61204246506E+02  0.24510028580E+03  0.32004160283E+03  0.90309636192E+02 0.  0.
         23    2    1    2    0    0 -0.94135193671E+02  0.22364355867E+03  0.39232013550E+03  0.47038536353E+03  0.92029481596E+02 0.  0.
        -11    1    4    4    0    0 -0.97137114248E+02  0.18949896795E+03  0.27293799811E+03  0.34618005234E+03  0.00000000000E+00 0.  1.
         11    1    4    4    0    0  0.30019205770E+01  0.34144590714E+02  0.11938213738E+03  0.12420531119E+03  0.00000000000E+00 0. -1.
        -13    1    3    3    0    0  0.39731836569E+02 -0.57351999153E+02  0.10042561991E+03  0.12228317864E+03  0.00000000000E+00 0.  1.
         13    1    3    3    0    0  0.13476941633E+03 -0.38522473535E+01  0.14467466589E+03  0.19775842419E+03  0.00000000000E+00 0. -1.
         21    1    1    2  502  501 -0.80366059231E+02 -0.16243931216E+03  0.64657190865E+03  0.67149122605E+03  0.00000000000E+00 0. -1.
<scales pt_clust_5="13000.00000" pt_clust_6="13000.00000" pt_clust_7="13000.00000" pt_clust_8="13000.00000" pt_clust_9="181.23254"></scales>
<clustering>
<clus scale="   90.310">  7  8 -1 -1</clus>
<clus scale="   92.029">  5  6 -1 -1</clus>
<clus scale="  181.233">  1  9  2 -1</clus>
<clus scale="  210.396">  2  7  1 -1</clus>
<clus scale="  181.233">  1  5  2 -1</clus>
</clustering>
</event>
<event>
 9    1  0.1435532E-005  0.2189910E+03  0.7546771E-02  0.1155872E+00
         -2   -1    0    0    0  501 -0.00000000000E+00  0.00000000000E+00  0.39247642447E+03  0.39247642447E+03  0.00000000000E+00 0.  1.
          2   -1    0    0  502    0  0.00000000000E+00 -0.00000000000E+00 -0.20821134277E+03  0.20821134277E+03  0.00000000000E+00 0. -1.
         23    2    1    2    0    0  0.61783451351E+02 -0.79705472528E+02  0.53647388489E+02  0.14233618478E+03  0.84919903402E+02 0.  0.
         23    2    1    2    0    0  0.71000975476E+02  0.21744711873E+03  0.99457841830E+02  0.26450782723E+03  0.88023521877E+02 0.  0.
        -13    1    4    4    0    0 -0.64507900875E+01  0.34275422460E+02  0.47553827666E+02  0.58972737796E+02  0.00000000000E+00 0.  1.
         13    1    4    4    0    0  0.77451765563E+02  0.18317169627E+03  0.51904014164E+02  0.20553508943E+03  0.00000000000E+00 0. -1.
        -13    1    3    3    0    0  0.43590632463E+01 -0.47769577464E+02  0.59431933968E+02  0.76374660318E+02  0.00000000000E+00 0.  1.
         13    1    3    3    0    0  0.57424388104E+02 -0.31935895063E+02 -0.57845454796E+01  0.65961524460E+02  0.00000000000E+00 0. -1.
         21    1    1    2  502  501 -0.13278442683E+03 -0.13774164620E+03  0.31159851375E+02  0.19384375523E+03  0.00000000000E+00 0.  1.
<scales pt_clust_5="13000.00000" pt_clust_6="13000.00000" pt_clust_7="13000.00000" pt_clust_8="13000.00000" pt_clust_9="200.52166"></scales>
<clustering>
<clus scale="   84.920">  7  8 -1 -1</clus>
<clus scale="   88.024">  5  6 -1 -1</clus>
<clus scale="  131.839">  1  7  2 -1</clus>
<clus scale="  200.522">  2  9  1 -1</clus>
<clus scale="  200.522">  2  5  1 -1</clus>
</clustering>
</event>
<event>
 9    1  0.1435532E-005  0.2339906E+03  0.7546771E-02  0.1124142E+00
         -1   -1    0    0    0  501 -0.00000000000E+00  0.00000000000E+00  0.39768417421E+03  0.39768417421E+03  0.00000000000E+00 0.  1.
          1   -1    0    0  502    0  0.00000000000E+00 -0.00000000000E+00 -0.18920409249E+03  0.18920409249E+03  0.00000000000E+00 0. -1.
         23    2    1    2    0    0  0.15732236626E+03  0.10249925141E+03  0.91161519282E+02  0.22799003740E+03  0.91720287239E+02 0.  0.
         23    2    1    2    0    0 -0.20112780372E+03 -0.14415853534E+03  0.13601517716E+03  0.29562125330E+03  0.87508400963E+02 0.  0.
        -11    1    4    4    0    0 -0.13807409283E+03 -0.97605824750E+02  0.13639426302E+03  0.21724352032E+03  0.00000000000E+00 0.  1.
         11    1    4    4    0    0 -0.63053710890E+02 -0.46552710595E+02 -0.37908585343E+00  0.78377732978E+02  0.00000000000E+00 0. -1.
        -13    1    3    3    0    0  0.11416908779E+03  0.73061514503E+02  0.16039928765E+02  0.13649118955E+03  0.00000000000E+00 0. -1.
         13    1    3    3    0    0  0.43153278462E+02  0.29437736906E+02  0.75121590518E+02  0.91498847851E+02  0.00000000000E+00 0.  1.
         21    1    1    2  502  501  0.43805437466E+02  0.41659283936E+02 -0.18696614723E+02  0.63276976001E+02  0.00000000000E+00 0. -1.
<scales pt_clust_5="13000.00000" pt_clust_6="13000.00000" pt_clust_7="13000.00000" pt_clust_8="13000.00000" pt_clust_9="60.45174"></scales>
<clustering>
<clus scale="   60.452">  2  9  1 -1</clus>
<clus scale="   87.508">  5  6 -1 -1</clus>
<clus scale="   91.720">  7  8 -1 -1</clus>
<clus scale="  232.372">  2  5  1 -1</clus>
<clus scale="   60.452">  2  5  1 -1</clus>
</clustering>
</event>
<event>
 9    1  0.1435532E-005  0.1561945E+03  0.7546771E-02  0.1193145E+00
         -2   -1    0    0    0  501 -0.00000000000E+00  0.00000000000E+00  0.18283347518E+03  0.18283347518E+03  0.00000000000E+00 0.  1.
          2   -1    0    0  502    0  0.00000000000E+00 -0.00000000000E+00 -0.26413807079E+03  0.26413807079E+03  0.00000000000E+00 0. -1.
         23    2    1    2    0    0  0.73691009739E+01 -0.13991528167E+03  0.73434580264E+02  0.18236155804E+03  0.90733183438E+02 0.  0.
         23    2    1    2    0    0 -0.52429003304E+02  0.93797212194E+02 -0.67922754668E+02  0.15646951391E+03  0.91227686476E+02 0.  0.
        -13    1    4    4    0    0 -0.47068007067E+00  0.31208282728E+02  0.19699824329E+02  0.36908827252E+02  0.00000000000E+00 0.  1.
         13    1    4    4    0    0 -0.51958323233E+02  0.62588929466E+02 -0.87622578997E+02  0.11956068666E+03  0.00000000000E+00 0. -1.
        -13    1    3    3    0    0 -0.39698796026E+02 -0.71828440739E+02  0.22210309361E+02  0.85021274671E+02  0.00000000000E+00 0.  1.
         13    1    3    3    0    0  0.47067897000E+02 -0.68086840935E+02  0.51224270903E+02  0.97340283368E+02  0.00000000000E+00 0. -1.
         21    1    1    2  502  501  0.45059902330E+02  0.46118069480E+02 -0.86816421199E+02  0.10814047402E+03  0.00000000000E+00 0. -1.
<scales pt_clust_5="13000.00000" pt_clust_6="13000.00000" pt_clust_7="13000.00000" pt_clust_8="13000.00000" pt_clust_9="64.47690"></scales>
<clustering>
<clus scale="   64.477">  2  9  1 -1</clus>
<clus scale="   90.733">  7  8 -1 -1</clus>
<clus scale="   91.228">  5  6 -1 -1</clus>
<clus scale="  155.906">  1  7  2 -1</clus>
<clus scale="   64.477">  2  5  1 -1</clus>
</clustering>
</event>
<event>
 9    1  0.1435532E-005  0.1117341E+03  0.7546771E-02  0.1258389E+00
          1   -1    0    0  502    0  0.00000000000E+00  0.00000000000E+00  0.30689801809E+03  0.30689801809E+03  0.00000000000E+00 0. -1.
         -1   -1    0    0    0  501 -0.00000000000E+00 -0.00000000000E+00 -0.58384953486E+02  0.58384953486E+02  0.00000000000E+00 0.  1.
         23    2    1    2    0    0 -0.10306446697E+02 -0.72298543808E+02  0.54419335278E+02  0.12905010979E+03  0.91428466604E+02 0.  0.
         23    2    1    2    0    0  0.22301546392E+02  0.43640738107E+02  0.16505483409E+03  0.19370746136E+03  0.88755897476E+02 0.  0.
        -13    1    4    4    0    0  0.27595846220E+02  0.36655823491E+01  0.45412071487E+01  0.28206201178E+02  0.00000000000E+00 0.  1.
         13    1    4    4    0    0 -0.52942998282E+01  0.39975155758E+02  0.16051362694E+03  0.16550126018E+03  0.00000000000E+00 0. -1.
        -13    1    3    3    0    0 -0.22027797393E+02 -0.22930141486E+02 -0.21032847457E+02  0.38123430050E+02  0.00000000000E+00 0.  1.
         13    1    3    3    0    0  0.11721350697E+02 -0.49368402322E+02  0.75452182735E+02  0.90926679745E+02  0.00000000000E+00 0. -1.
         21    1    1    2  502  501 -0.11995099695E+02  0.28657805701E+02  0.29038895235E+02  0.42525400419E+02  0.00000000000E+00 0.  1.
<scales pt_clust_5="13000.00000" pt_clust_6="13000.00000" pt_clust_7="13000.00000" pt_clust_8="13000.00000" pt_clust_9="31.06690"></scales>
<clustering>
<clus scale="   31.067">  1  9  2 -1</clus>
<clus scale="   88.756">  5  6 -1 -1</clus>
<clus scale="   91.428">  7  8 -1 -1</clus>
<clus scale="  109.558">  1  5  2 -1</clus>
<clus scale="   31.067">  1  5  2 -1</clus>
</clustering>
</event>
<event>
 9    1  0.1435532E-005  0.1091161E+03  0.7546771E-02  0.1262739E+00
         -1   -1    0    0    0  501 -0.00000000000E+00  0.00000000000E+00  0.67991768717E+03  0.67991768717E+03  0.00000000000E+00 0.  1.
          1   -1    0    0  502    0  0.00000000000E+00 -0.00000000000E+00 -0.41452271478E+02  0.41452271478E+02  0.00000000000E+00 0. -1.
         23    2    1    2    0    0 -0.19552940751E+02 -0.51796879694E+02  0.48845056281E+03  0.49977607237E+03  0.90149520068E+02 0.  0.
         23    2    1    2    0    0  0.36343538708E+02  0.64656208836E+02  0.15962167561E+03  0.19836507725E+03  0.91478666381E+02 0.  0.
        -11    1    4    4    0    0  0.33153676724E+02  0.42344584218E+02  0.16636334112E+03  0.17483990209E+03  0.00000000000E+00 0.  1.
         11    1    4    4    0    0  0.31898619841E+01  0.22311624618E+02 -0.67416655152E+01  0.23525175164E+02  0.00000000000E+00 0. -1.
        -13    1    3    3    0    0 -0.90079774667E+01 -0.76915205186E+02  0.39067700642E+03  0.39827831449E+03  0.00000000000E+00 0.  1.
         13    1    3    3    0    0 -0.10544963284E+02  0.25118325492E+02  0.97773556389E+02  0.10149775788E+03  0.00000000000E+00 0. -1.
         21    1    1    2  502  501 -0.16790597957E+02 -0.12859329142E+02 -0.96068227250E+01  0.23228809023E+02  0.00000000000E+00 0.  1.
<scales pt_clust_5="13000.00000" pt_clust_6="13000.00000" pt_clust_7="13000.00000" pt_clust_8="13000.00000" pt_clust_9="21.14915"></scales>
<clustering>
<clus scale="   21.149">  2  9  1 -1</clus>
<clus scale="   90.150">  7  8 -1 -1</clus>
<clus scale="   91.479">  5  6 -1 -1</clus>
<clus scale="  108.004">  1  7  2 -1</clus>
<clus scale="   21.149">  2  5  1 -1</clus>
</clustering>
</event>
<event>
 9    1  0.1435532E-005  0.1540612E+03  0.7546771E-02  0.1197277E+00
          2   -1    0    0  502    0  0.00000000000E+00  0.00000000000E+00  0.28417580972E+03  0.28417580972E+03  0.00000000000E+00 0. -1.
         -2   -1    0    0    0  501 -0.00000000000E+00 -0.00000000000E+00 -0.11232028670E+03  0.11232028670E+03  0.00000000000E+00 0.  1.
         23    2    1    2    0    0  0.12469139443E+03 -0.12283789926E+02  0.16243616721E+01  0.15554283538E+03  0.92152589468E+02 0.  0.
         23    2    1    2    0    0 -0.95090571324E+02  0.18488770686E+02  0.14563578410E+03  0.20197066112E+03  0.10098670679E+03 0.  0.
        -13    1    4    4    0    0 -0.31617288215E+02 -0.32244933944E+02  0.97688721926E+02  0.10762190795E+03  0.00000000000E+00 0. -1.
         13    1    4    4    0    0 -0.63473283109E+02  0.50733704630E+02  0.47947062170E+02  0.94348753171E+02  0.00000000000E+00 0.  1.
        -13    1    3    3    0    0  0.11429137786E+03  0.20903348017E+02 -0.14718591258E+02  0.11711578007E+03  0.00000000000E+00 0.  1.
         13    1    3    3    0    0  0.10400016574E+02 -0.33187137943E+02  0.16342952930E+02  0.38427055313E+02  0.00000000000E+00 0. -1.
         21    1    1    2  502  501 -0.29600823110E+02 -0.62049807606E+01  0.24595377249E+02  0.38982599927E+02  0.00000000000E+00 0.  1.
<scales pt_clust_5="13000.00000" pt_clust_6="13000.00000" pt_clust_7="13000.00000" pt_clust_8="13000.00000" pt_clust_9="30.24418"></scales>
<clustering>
<clus scale="   30.244">  1  9  2 -1</clus>
<clus scale="   92.153">  7  8 -1 -1</clus>
<clus scale="  100.987">  5  6 -1 -1</clus>
<clus scale="  148.420">  2  7  1 -1</clus>
<clus scale="   30.244">  1  5  2 -1</clus>
</clustering>
</event>
<event>
 9    1  0.1435532E-005  0.1164541E+03  0.7546771E-02  0.1249069E+00
          1   -1    0    0  502    0  0.00000000000E+00  0.00000000000E+00  0.22242700847E+03  0.22242700847E+03  0.00000000000E+00 0. -1.
         -1   -1    0    0    0  501 -0.00000000000E+00 -0.00000000000E+00 -0.75246592236E+02  0.75246592236E+02  0.00000000000E+00 0.  1.
         23    2    1    2    0    0  0.78815743409E+02  0.94373068250E+01  0.43941789935E+02  0.12933618817E+03  0.92173664885E+02 0.  0.
         23    2    1    2    0    0 -0.60721110684E+02  0.36303008373E+01  0.89390220975E+02  0.14207039075E+03  0.92158298354E+02 0.  0.
        -11    1    3    3    0    0  0.17725186695E+02 -0.30441964035E+02  0.44022189413E+02  0.56381278616E+02  0.00000000000E+00 0. -1.
         11    1    3    3    0    0  0.61090556714E+02  0.39879270859E+02 -0.80399477610E-01  0.72954909554E+02  0.00000000000E+00 0.  1.
        -13    1    4    4    0    0 -0.21267954713E+02 -0.44119385135E-01  0.99032234057E+02  0.10129023263E+03  0.00000000000E+00 0. -1.
         13    1    4    4    0    0 -0.39453155971E+02  0.36744202225E+01 -0.96420130823E+01  0.40780158120E+02  0.00000000000E+00 0.  1.
         21    1    1    2  502  501 -0.18094632725E+02 -0.13067607662E+02  0.13848405327E+02  0.26267021787E+02  0.00000000000E+00 0.  1.
<scales pt_clust_5="13000.00000" pt_clust_6="13000.00000" pt_clust_7="13000.00000" pt_clust_8="13000.00000" pt_clust_9="22.31990"></scales>
<clustering>
<clus scale="   22.320">  1  9  2 -1</clus>
<clus scale="   92.158">  7  8 -1 -1</clus>
<clus scale="   92.174">  5  6 -1 -1</clus>
<clus scale="  116.442">  1  7  2 -1</clus>
<clus scale="   22.320">  1  5  2 -1</clus>
</clustering>
</event>
<event>
 9    1  0.1435532E-005  0.1321321E+03  0.7546771E-02  0.1224679E+00
         -1   -1    0    0    0  501 -0.00000000000E+00  0.00000000000E+00  0.56474737828E+03  0.56474737828E+03  0.00000000000E+00 0.  1.
          1   -1    0    0  502    0  0.00000000000E+00 -0.00000000000E+00 -0.51019976187E+02  0.51019976187E+02  0.00000000000E+00 0. -1.
         23    2    1    2    0    0 -0.10739709923E+01 -0.10068994020E+03  0.37638417970E+03  0.40053473319E+03  0.92862286699E+02 0.  0.
         23    2    1    2    0    0 -0.13119014060E+02  0.81238222688E+02  0.14480642155E+03  0.19002330791E+03  0.91477868763E+02 0.  0.
        -11    1    3    3    0    0  0.22158086355E+02 -0.33086089847E+02  0.39276976960E+02  0.55931664122E+02  0.00000000000E+00 0.  1.
         11    1    3    3    0    0 -0.23232057348E+02 -0.67603850355E+02  0.33710720274E+03  0.34460306907E+03  0.00000000000E+00 0. -1.
        -13    1    4    4    0    0  0.21193699329E+02  0.48780320489E+02  0.13010499930E+03  0.14055605075E+03  0.00000000000E+00 0. -1.
         13    1    4    4    0    0 -0.34312713389E+02  0.32457902200E+02  0.14701422242E+02  0.49467257163E+02  0.00000000000E+00 0.  1.
         21    1    1    2  502  501  0.14192985053E+02  0.19451717514E+02 -0.74631991498E+01  0.25209313369E+02  0.00000000000E+00 0. -1.
<scales pt_clust_5="13000.00000" pt_clust_6="13000.00000" pt_clust_7="13000.00000" pt_clust_8="13000.00000" pt_clust_9="24.07925"></scales>
<clustering>
<clus scale="   24.079">  2  9  1 -1</clus>
<clus scale="   91.478">  7  8 -1 -1</clus>
<clus scale="   92.862">  5  6 -1 -1</clus>
<clus scale="  131.163">  2  7  1 -1</clus>
<clus scale="   24.079">  2  5  1 -1</clus>
</clustering>
</event>
<event>
 9    1  0.1435532E-005  0.1030635E+03  0.7546771E-02  0.1278827E+00
         -2   -1    0    0    0  501 -0.00000000000E+00  0.00000000000E+00  0.97882175152E+02  0.97882175152E+02  0.00000000000E+00 0.  1.
          2   -1    0    0  502    0  0.00000000000E+00 -0.00000000000E+00 -0.31716460946E+03  0.31716460946E+03  0.00000000000E+00 0. -1.
         23    2    1    2    0    0  0.20127073449E+02 -0.25032287220E+02  0.19827679912E+02  0.10815823772E+03  0.10135755032E+03 0.  0.
         23    2    1    2    0    0 -0.39554093834E+01 -0.56447336098E+02 -0.15224471357E+03  0.18669682686E+03  0.92061421530E+02 0.  0.
        -11    1    3    3    0    0 -0.22774076996E+02 -0.48129237724E+02  0.25625491563E+02  0.59091013909E+02  0.00000000000E+00 0. -1.
         11    1    3    3    0    0  0.42901150445E+02  0.23096950504E+02 -0.57978116511E+01  0.49067223806E+02  0.00000000000E+00 0.  1.
        -13    1    4    4    0    0 -0.37991235642E+02 -0.15708411791E+02 -0.11423268286E+03  0.12140508235E+03  0.00000000000E+00 0. -1.
         13    1    4    4    0    0  0.34035826259E+02 -0.40738924307E+02 -0.38012030708E+02  0.65291744512E+02  0.00000000000E+00 0.  1.
         21    1    1    2  502  501 -0.16171664066E+02  0.81479623318E+02 -0.86865400652E+02  0.12019172004E+03  0.00000000000E+00 0. -1.
<scales pt_clust_5="13000.00000" pt_clust_6="13000.00000" pt_clust_7="13000.00000" pt_clust_8="13000.00000" pt_clust_9="83.06896"></scales>
<clustering>
<clus scale="   83.069">  2  9  1 -1</clus>
<clus scale="   92.061">  7  8 -1 -1</clus>
<clus scale="   93.936">  2  7  1 -1</clus>
<clus scale="  101.358">  5  6 -1 -1</clus>
<clus scale="   83.069">  2  5  1 -1</clus>
</clustering>
</event>
<event>
 9    1  0.1435532E-005  0.9639905E+02  0.7546771E-02  0.1288487E+00
         -2   -1    0    0    0  501 -0.00000000000E+00  0.00000000000E+00  0.43711550502E+02  0.43711550502E+02  0.00000000000E+00 0.  1.
          2   -1    0    0  502    0  0.00000000000E+00 -0.00000000000E+00 -0.62889802787E+03  0.62889802787E+03  0.00000000000E+00 0. -1.
         23    2    1    2    0    0 -0.31518524645E+02  0.23486822393E+02 -0.42307096480E+02  0.10839591946E+03  0.91731874079E+02 0.  0.
         23    2    1    2    0    0  0.92448867238E+01  0.18006958585E+02 -0.23554121018E+03  0.25328826596E+03  0.90915155454E+02 0.  0.
        -13    1    3    3    0    0 -0.10509458431E+02  0.56940718256E+02 -0.13365754615E+02  0.59425057917E+02  0.00000000000E+00 0.  1.
         13    1    3    3    0    0 -0.21009066214E+02 -0.33453895864E+02 -0.28941341866E+02  0.48970861547E+02  0.00000000000E+00 0. -1.
        -13    1    4    4    0    0 -0.22066718632E+02  0.45186854306E+02 -0.10705183727E+03  0.11827462846E+03  0.00000000000E+00 0.  1.
         13    1    4    4    0    0  0.31311605356E+02 -0.27179895720E+02 -0.12848937291E+03  0.13501363750E+03  0.00000000000E+00 0. -1.
         21    1    1    2  502  501  0.22273637921E+02 -0.41493780978E+02 -0.30733817071E+03  0.31092539295E+03  0.00000000000E+00 0. -1.
<scales pt_clust_5="13000.00000" pt_clust_6="13000.00000" pt_clust_7="13000.00000" pt_clust_8="13000.00000" pt_clust_9="47.09404"></scales>
<clustering>
<clus scale="   47.094">  2  9  1 -1</clus>
<clus scale="   90.915">  7  8 -1 -1</clus>
<clus scale="   91.732">  5  6 -1 -1</clus>
<clus scale="   95.622">  2  7  1 -1</clus>
<clus scale="   47.094">  2  5  1 -1</clus>
</clustering>
</event>
<event>
 9    1  0.1435532E-005  0.1114524E+03  0.7546771E-02  0.1264027E+00
         -1   -1    0    0    0  501 -0.00000000000E+00  0.00000000000E+00  0.38545735963E+03  0.38545735963E+03  0.00000000000E+00 0.  1.
          1   -1    0    0  502    0  0.00000000000E+00 -0.00000000000E+00 -0.10189306171E+03  0.10189306171E+03  0.00000000000E+00 0. -1.
         23    2    1    2    0    0 -0.43326754935E+02  0.11631937037E+01  0.34050265849E+03  0.35854563886E+03  0.10360672756E+03 0.  0.
         23    2    1    2    0    0  0.22123204121E+02 -0.87893653149E+01 -0.45077027030E+02  0.10334029164E+03  0.89892093124E+02 0.  0.
        -13    1    3    3    0    0 -0.12346317599E+02  0.47640493788E+02  0.97630617510E+02  0.10933336948E+03  0.00000000000E+00 0.  1.
         13    1    3    3    0    0 -0.30980437336E+02 -0.46477300085E+02  0.24287204098E+03  0.24921226938E+03  0.00000000000E+00 0. -1.
        -13    1    4    4    0    0 -0.24302083589E+02  0.13545791668E+02  0.84213632646E+01  0.29068868191E+02  0.00000000000E+00 0.  1.
         13    1    4    4    0    0  0.46425287710E+02 -0.22335156983E+02 -0.53498390295E+02  0.74271423445E+02  0.00000000000E+00 0. -1.
         21    1    1    2  502  501  0.21203550814E+02  0.76261716112E+01 -0.11861333541E+02  0.25464490844E+02  0.00000000000E+00 0. -1.
<scales pt_clust_5="13000.00000" pt_clust_6="13000.00000" pt_clust_7="13000.00000" pt_clust_8="13000.00000" pt_clust_9="22.53329"></scales>
<clustering>
<clus scale="   22.533">  2  9  1 -1</clus>
<clus scale="   89.892">  7  8 -1 -1</clus>
<clus scale="   98.833">  2  7  1 -1</clus>
<clus scale="  103.607">  5  6 -1 -1</clus>
<clus scale="   22.533">  2  5  1 -1</clus>
</clustering>
</event>
<event>
 9    1  0.1435532E-005  0.1104436E+03  0.7546771E-02  0.1259858E+00
          1   -1    0    0  502    0  0.00000000000E+00  0.00000000000E+00  0.55729115580E+02  0.55729115580E+02  0.00000000000E+00 0. -1.
         -1   -1    0    0    0  501 -0.00000000000E+00 -0.00000000000E+00 -0.30623979284E+03  0.30623979284E+03  0.00000000000E+00 0.  1.
         23    2    1    2    0    0  0.36185374047E+02  0.42969328673E+02 -0.16091221221E+03  0.19372130226E+03  0.92083974765E+02 0.  0.
         23    2    1    2    0    0 -0.61192714895E+02 -0.39037639006E+02 -0.71803227999E+02  0.13730417808E+03  0.91805490856E+02 0.  0.
        -11    1    3    3    0    0  0.53845402562E+02  0.61179252293E+02 -0.13317251624E+03  0.15613182690E+03  0.00000000000E+00 0.  1.
         11    1    3    3    0    0 -0.17660028515E+02 -0.18209923621E+02 -0.27739695973E+02  0.37589475363E+02  0.00000000000E+00 0. -1.
        -11    1    4    4    0    0 -0.85495702742E+02 -0.28855737064E+02 -0.50387816814E+02  0.10334941138E+03  0.00000000000E+00 0. -1.
         11    1    4    4    0    0  0.24302987847E+02 -0.10181901942E+02 -0.21415411185E+02  0.33954766700E+02  0.00000000000E+00 0.  1.
         21    1    1    2  502  501  0.25007340848E+02 -0.39316896662E+01 -0.17795237050E+02  0.30943428084E+02  0.00000000000E+00 0. -1.
<scales pt_clust_5="13000.00000" pt_clust_6="13000.00000" pt_clust_7="13000.00000" pt_clust_8="13000.00000" pt_clust_9="25.31453"></scales>
<clustering>
<clus scale="   25.315">  1  9  2 -1</clus>
<clus scale="   91.805">  7  8 -1 -1</clus>
<clus scale="   92.084">  5  6 -1 -1</clus>
<clus scale="  110.212">  1  7  2 -1</clus>
<clus scale="   25.315">  1  5  2 -1</clus>
</clustering>
</event>
<event>
 9    1  0.1435532E-005  0.9816822E+02  0.7546771E-02  0.1284677E+00
          2   -1    0    0  502    0  0.00000000000E+00  0.00000000000E+00  0.86239030306E+03  0.86239030306E+03  0.00000000000E+00 0. -1.
         -2   -1    0    0    0  501 -0.00000000000E+00 -0.00000000000E+00 -0.17194045813E+02  0.17194045813E+02  0.00000000000E+00 0.  1.
         23    2    1    2    0    0  0.88162511639E+00 -0.22906413926E+02  0.29688334622E+03  0.31079463901E+03  0.89039908543E+02 0.  0.
         23    2    1    2    0    0 -0.20700479307E+02  0.53514963324E+02  0.31378333233E+03  0.33144229875E+03  0.90009202915E+02 0.  0.
        -11    1    4    4    0    0 -0.36634663762E+02  0.37536792866E+02  0.30094246424E+03  0.30547909288E+03  0.00000000000E+00 0.  1.
         11    1    4    4    0    0  0.15934184455E+02  0.15978170458E+02  0.12840868091E+02  0.25963205865E+02  0.00000000000E+00 0. -1.
        -11    1    3    3    0    0  0.42276644862E+02 -0.25503164848E+02  0.13723077529E+03  0.14584242114E+03  0.00000000000E+00 0.  1.
         11    1    3    3    0    0 -0.41395019746E+02  0.25967509222E+01  0.15965257093E+03  0.16495221787E+03  0.00000000000E+00 0. -1.
         21    1    1    2  502  501  0.19818854191E+02 -0.30608549399E+02  0.23452957870E+03  0.23734741112E+03  0.00000000000E+00 0.  1.
<scales pt_clust_5="13000.00000" pt_clust_6="13000.00000" pt_clust_7="13000.00000" pt_clust_8="13000.00000" pt_clust_9="36.46464"></scales>
<clustering>
<clus scale="   36.465">  1  9  2 -1</clus>
<clus scale="   89.040">  7  8 -1 -1</clus>
<clus scale="   90.009">  5  6 -1 -1</clus>
<clus scale="   97.280">  2  7  1 -1</clus>
<clus scale="   36.465">  1  5  2 -1</clus>
</clustering>
</event>
<event>
 9    1  0.1435532E-005  0.9488818E+02  0.7546771E-02  0.1291766E+00
         -1   -1    0    0    0  501 -0.00000000000E+00  0.00000000000E+00  0.40376368892E+02  0.40376368892E+02  0.00000000000E+00 0.  1.
          1   -1    0    0  502    0  0.00000000000E+00 -0.00000000000E+00 -0.32495776138E+03  0.32495776138E+03  0.00000000000E+00 0. -1.
         23    2    1    2    0    0 -0.71134043384E+01 -0.21908632155E+02 -0.68924296146E+02  0.11758079646E+03  0.92434281585E+02 0.  0.
         23    2    1    2    0    0 -0.14388583087E+02  0.20601650062E+02 -0.14158942781E+03  0.17061668113E+03  0.91820621345E+02 0.  0.
        -11    1    4    4    0    0  0.17977512294E+02 -0.29240945539E+02 -0.38137885120E+02  0.51310058719E+02  0.00000000000E+00 0.  1.
         11    1    4    4    0    0 -0.32366095381E+02  0.49842595601E+02 -0.10345154269E+03  0.11930662242E+03  0.00000000000E+00 0. -1.
        -13    1    3    3    0    0 -0.65385421088E+01 -0.53180055809E+02 -0.15676432954E+02  0.55826708831E+02  0.00000000000E+00 0.  1.
         13    1    3    3    0    0 -0.57486222961E+00  0.31271423655E+02 -0.53247863192E+02  0.61754087626E+02  0.00000000000E+00 0. -1.
         21    1    1    2  502  501  0.21501987425E+02  0.13069820926E+01 -0.74067668526E+02  0.77136652678E+02  0.00000000000E+00 0.  1.
<scales pt_clust_5="13000.00000" pt_clust_6="13000.00000" pt_clust_7="13000.00000" pt_clust_8="13000.00000" pt_clust_9="21.54167"></scales>
<clustering>
<clus scale="   21.542">  2  9  1 -1</clus>
<clus scale="   91.821">  5  6 -1 -1</clus>
<clus scale="   92.434">  7  8 -1 -1</clus>
<clus scale="   94.290">  2  5  1 -1</clus>
<clus scale="   21.542">  2  5  1 -1</clus>
</clustering>
</event>
<event>
 9    1  0.1435532E-005  0.2676576E+03  0.7546771E-02  0.1102724E+00
         -1   -1    0    0    0  501 -0.00000000000E+00  0.00000000000E+00  0.11483236663E+03  0.11483236663E+03  0.00000000000E+00 0.  1.
          1   -1    0    0  502    0  0.00000000000E+00 -0.00000000000E+00 -0.69992845180E+03  0.69992845180E+03  0.00000000000E+00 0. -1.
         23    2    1    2    0    0 -0.14472703457E+03  0.20455201322E+03 -0.20852252066E+03  0.33823077865E+03  0.90171932174E+02 0.  0.
         23    2    1    2    0    0  0.12835345014E+03 -0.21995177742E+03 -0.34970075849E+03  0.44149584638E+03  0.88173518286E+02 0.  0.
        -11    1    3    3    0    0 -0.14374876926E+03  0.13824251101E+03 -0.16570037721E+03  0.25929002203E+03  0.00000000000E+00 0.  1.
         11    1    3    3    0    0 -0.97826531103E+00  0.66309502205E+02 -0.42822143455E+02  0.78940756620E+02  0.00000000000E+00 0. -1.
        -11    1    4    4    0    0 -0.12280458746E+02 -0.30527626591E+02 -0.33241368802E+02  0.46773221529E+02  0.00000000000E+00 0.  1.
         11    1    4    4    0    0  0.14063390889E+03 -0.18942415083E+03 -0.31645938969E+03  0.39472262485E+03  0.00000000000E+00 0. -1.
         21    1    1    2  502  501  0.16373584430E+02  0.15399764200E+02 -0.26872806008E+02  0.35034193401E+02  0.00000000000E+00 0.  1.
<scales pt_clust_5="13000.00000" pt_clust_6="13000.00000" pt_clust_7="13000.00000" pt_clust_8="13000.00000" pt_clust_9="22.47770"></scales>
<clustering>
<clus scale="   22.478">  2  9  1 -1</clus>
<clus scale="   88.174">  7  8 -1 -1</clus>
<clus scale="   90.172">  5  6 -1 -1</clus>
<clus scale="  266.991">  2  7  1 -1</clus>
<clus scale="   22.478">  2  5  1 -1</clus>
</clustering>
</event>
<event>
 9    1  0.1435532E-005  0.1601708E+03  0.7546771E-02  0.1188528E+00
         -1   -1    0    0    0  501 -0.00000000000E+00  0.00000000000E+00  0.48748233339E+03  0.48748233339E+03  0.00000000000E+00 0. -1.
          1   -1    0    0  502    0  0.00000000000E+00 -0.00000000000E+00 -0.97547512511E+02  0.97547512511E+02  0.00000000000E+00 0.  1.
         23    2    1    2    0    0  0.12117437088E+03 -0.88937361663E+01  0.26066790271E+03  0.30153145918E+03  0.90615333547E+02 0.  0.
         23    2    1    2    0    0 -0.16350915909E+03 -0.36219368592E+02  0.94065076118E+02  0.21231836004E+03  0.90464134867E+02 0.  0.
        -11    1    4    4    0    0 -0.26969764823E+02 -0.14055241829E+02  0.63860473205E+02  0.70732440050E+02  0.00000000000E+00 0. -1.
         11    1    4    4    0    0 -0.13653939427E+03 -0.22164126763E+02  0.30204602913E+02  0.14158591999E+03  0.00000000000E+00 0.  1.
        -13    1    3    3    0    0  0.25592885324E+02  0.37273894047E+02  0.70776354406E+02  0.83985899410E+02  0.00000000000E+00 0.  1.
         13    1    3    3    0    0  0.95581485558E+02 -0.46167630214E+02  0.18989154830E+03  0.21754555977E+03  0.00000000000E+00 0. -1.
         21    1    1    2  502  501  0.42334788210E+02  0.45113104758E+02  0.35201842054E+02  0.71180026677E+02  0.00000000000E+00 0. -1.
<scales pt_clust_5="13000.00000" pt_clust_6="13000.00000" pt_clust_7="13000.00000" pt_clust_8="13000.00000" pt_clust_9="61.86620"></scales>
<clustering>
<clus scale="   61.866">  2  9  1 -1</clus>
<clus scale="   90.464">  5  6 -1 -1</clus>
<clus scale="   90.615">  7  8 -1 -1</clus>
<clus scale="  160.085">  2  5  1 -1</clus>
<clus scale="   61.866">  2  5  1 -1</clus>
</clustering>
</event>
<event>
 9    1  0.1435532E-005  0.1226016E+03  0.7546771E-02  0.1240156E+00
          1   -1    0    0  502    0  0.00000000000E+00  0.00000000000E+00  0.75306818900E+03  0.75306818900E+03  0.00000000000E+00 0. -1.
         -1   -1    0    0    0  501 -0.00000000000E+00 -0.00000000000E+00 -0.26540955514E+02  0.26540955514E+02  0.00000000000E+00 0.  1.
         23    2    1    2    0    0  0.22195950966E+02  0.66725276677E+02  0.22256210200E+03  0.24980715108E+03  0.89021349669E+02 0.  0.
         23    2    1    2    0    0 -0.42623757509E+02 -0.87120791773E+02  0.41858635439E+03  0.43967537198E+03  0.93236685819E+02 0.  0.
        -11    1    3    3    0    0 -0.32751787059E+02  0.25572158553E+02  0.11424948238E+03  0.12157120988E+03  0.00000000000E+00 0.  1.
         11    1    3    3    0    0  0.54947738024E+02  0.41153118123E+02  0.10831261962E+03  0.12823594120E+03  0.00000000000E+00 0. -1.
        -13    1    4    4    0    0 -0.66566573702E+02 -0.31846062522E+02  0.24925646560E+03  0.25995012228E+03  0.00000000000E+00 0.  1.
         13    1    4    4    0    0  0.23942816193E+02 -0.55274729251E+02  0.16932988880E+03  0.17972524970E+03  0.00000000000E+00 0. -1.
         21    1    1    2  502  501  0.20427806544E+02  0.20395515096E+02  0.85378777093E+02  0.90126621451E+02  0.00000000000E+00 0. -1.
<scales pt_clust_5="13000.00000" pt_clust_6="13000.00000" pt_clust_7="13000.00000" pt_clust_8="13000.00000" pt_clust_9="28.86646"></scales>
<clustering>
<clus scale="   28.866">  1  9  2 -1</clus>
<clus scale="   89.021">  5  6 -1 -1</clus>
<clus scale="   93.237">  7  8 -1 -1</clus>
<clus scale="  119.427">  2  5  1 -1</clus>
<clus scale="   28.866">  1  5  2 -1</clus>
</clustering>
</event>
<event>
 9    1  0.1435532E-005  0.1004352E+03  0.7546771E-02  0.1280667E+00
         -1   -1    0    0    0  501 -0.00000000000E+00  0.00000000000E+00  0.36812411921E+03  0.36812411921E+03  0.00000000000E+00 0.  1.
          1   -1    0    0  502    0  0.00000000000E+00 -0.00000000000E+00 -0.89884737121E+02  0.89884737121E+02  0.00000000000E+00 0. -1.
         23    2    1    2    0    0  0.61625916873E+01 -0.21733363461E+02  0.26157420805E+03  0.27847947575E+03  0.92840914876E+02 0.  0.
         23    2    1    2    0    0  0.44395425681E+02 -0.54118805162E+01 -0.30542714874E+02  0.10522216581E+03  0.90214214369E+02 0.  0.
        -13    1    3    3    0    0 -0.35266560794E+02 -0.36809520691E+02  0.15415323763E+03  0.16236345585E+03  0.00000000000E+00 0.  1.
         13    1    3    3    0    0  0.41429152481E+02  0.15076157230E+02  0.10742097042E+03  0.11611601990E+03  0.00000000000E+00 0. -1.
        -13    1    4    4    0    0 -0.11007729542E+02 -0.30791937887E+02 -0.29854171746E+02  0.44278494997E+02  0.00000000000E+00 0.  1.
         13    1    4    4    0    0  0.55403155223E+02  0.25380057371E+02 -0.68854312751E+00  0.60943670815E+02  0.00000000000E+00 0. -1.
         21    1    1    2  502  501 -0.50558017368E+02  0.27145243977E+02  0.47207888917E+02  0.74307214769E+02  0.00000000000E+00 0.  1.
<scales pt_clust_5="13000.00000" pt_clust_6="13000.00000" pt_clust_7="13000.00000" pt_clust_8="13000.00000" pt_clust_9="57.38447"></scales>
<clustering>
<clus scale="   57.384">  1  9  2 -1</clus>
<clus scale="   90.214">  7  8 -1 -1</clus>
<clus scale="   92.841">  5  6 -1 -1</clus>
<clus scale="   98.012">  2  7  1 -1</clus>
<clus scale="   98.012">  2  5  1 -1</clus>
</clustering>
</event>
<event>
 9    1  0.1435532E-005  0.1546468E+03  0.7546771E-02  0.1195143E+00
         -1   -1    0    0    0  501 -0.00000000000E+00  0.00000000000E+00  0.92771376097E+02  0.92771376097E+02  0.00000000000E+00 0.  1.
          1   -1    0    0  502    0  0.00000000000E+00 -0.00000000000E+00 -0.43759131568E+03  0.43759131568E+03  0.00000000000E+00 0. -1.
         23    2    1    2    0    0 -0.11344943400E+03 -0.42778186907E+02 -0.33510146237E+02  0.15582853974E+03  0.91972042211E+02 0.  0.
         23    2    1    2    0    0  0.13124963128E+03  0.21734985952E+02 -0.18460554788E+03  0.24486677314E+03  0.90452490041E+02 0.  0.
        -11    1    4    4    0    0  0.22810392908E+02 -0.32401919574E+02 -0.48055264173E+02  0.62285687211E+02  0.00000000000E+00 0.  1.
         11    1    4    4    0    0  0.10843923837E+03  0.54136905525E+02 -0.13655028371E+03  0.18258108593E+03  0.00000000000E+00 0. -1.
        -13    1    3    3    0    0 -0.48303128571E+02  0.13078240134E+02 -0.47365304417E+02  0.68903589582E+02  0.00000000000E+00 0. -1.
         13    1    3    3    0    0 -0.65146305426E+02 -0.55856427042E+02  0.13855158179E+02  0.86924950162E+02  0.00000000000E+00 0.  1.
         21    1    1    2  502  501 -0.17800197283E+02  0.21043200956E+02 -0.12670424546E+03  0.12966737889E+03  0.00000000000E+00 0.  1.
<scales pt_clust_5="13000.00000" pt_clust_6="13000.00000" pt_clust_7="13000.00000" pt_clust_8="13000.00000" pt_clust_9="27.56199"></scales>
<clustering>
<clus scale="   27.562">  2  9  1 -1</clus>
<clus scale="   90.452">  5  6 -1 -1</clus>
<clus scale="   91.972">  7  8 -1 -1</clus>
<clus scale="  153.748">  2  5  1 -1</clus>
<clus scale="   27.562">  2  5  1 -1</clus>
</clustering>
</event>
<event>
 9    1  0.1435532E-005  0.1024795E+03  0.7546771E-02  0.1276234E+00
          3   -1    0    0  502    0  0.00000000000E+00  0.00000000000E+00  0.22720797993E+03  0.22720797993E+03  0.00000000000E+00 0. -1.
         -3   -1    0    0    0  501 -0.00000000000E+00 -0.00000000000E+00 -0.12583907548E+03  0.12583907548E+03  0.00000000000E+00 0.  1.
         23    2    1    2    0    0 -0.53394560764E+02 -0.64724564891E+02 -0.38456673286E+02  0.12950476429E+03  0.90842279993E+02 0.  0.
         23    2    1    2    0    0  0.12051844887E+02  0.33497366694E+02  0.13982529893E+03  0.17173150013E+03  0.93130410581E+02 0.  0.
        -13    1    3    3    0    0 -0.55406657371E+02 -0.45916161743E+01  0.41939333919E+01  0.55754548671E+02  0.00000000000E+00 0.  1.
         13    1    3    3    0    0  0.20120966073E+01 -0.60132948716E+02 -0.42650606678E+02  0.73750215620E+02  0.00000000000E+00 0. -1.
        -13    1    4    4    0    0  0.39117830609E+02  0.45838358629E+02  0.12439117497E+03  0.13821911663E+03  0.00000000000E+00 0.  1.
         13    1    4    4    0    0 -0.27065985722E+02 -0.12340991935E+02  0.15434123964E+02  0.33512383496E+02  0.00000000000E+00 0. -1.
         21    1    1    2  502  501  0.41342715877E+02  0.31227198197E+02  0.27881265906E-03  0.51810790994E+02  0.00000000000E+00 0.  1.
<scales pt_clust_5="13000.00000" pt_clust_6="13000.00000" pt_clust_7="13000.00000" pt_clust_8="13000.00000" pt_clust_9="51.81079"></scales>
<clustering>
<clus scale="   51.811">  2  9  1 -1</clus>
<clus scale="   90.842">  5  6 -1 -1</clus>
<clus scale="   93.130">  7  8 -1 -1</clus>
<clus scale="  100.405">  2  5  1 -1</clus>
<clus scale="  102.480">  1  5  2 -1</clus>
</clustering>
</event>
<event>
 9    1  0.1435532E-005  0.1036459E+03  0.7546771E-02  0.1273921E+00
         -1   -1    0    0    0  501 -0.00000000000E+00  0.00000000000E+00  0.55237939927E+03  0.55237939927E+03  0.00000000000E+00 0.  1.
          1   -1    0    0  502    0  0.00000000000E+00 -0.00000000000E+00 -0.25159415410E+02  0.25159415410E+02  0.00000000000E+00 0. -1.
         23    2    1    2    0    0  0.37167958757E+02  0.16722868380E+02  0.26671540174E+03  0.28418825122E+03  0.89245420732E+02 0.  0.
         23    2    1    2    0    0 -0.46200230608E+02 -0.39746374397E+02  0.21451078463E+03  0.24112898582E+03  0.91728269864E+02 0.  0.
        -11    1    3    3    0    0  0.49455206342E+02 -0.18200146304E+02  0.96080924642E+02  0.10958378913E+03  0.00000000000E+00 0. -1.
         11    1    3    3    0    0 -0.12287247585E+02  0.34923014685E+02  0.17063447710E+03  0.17460446209E+03  0.00000000000E+00 0.  1.
        -11    1    4    4    0    0  0.23329317005E+02 -0.18826137905E+01  0.18831665299E+02  0.30040520711E+02  0.00000000000E+00 0. -1.
         11    1    4    4    0    0 -0.69529547613E+02 -0.37863760607E+02  0.19567911933E+03  0.21108846511E+03  0.00000000000E+00 0.  1.
         21    1    1    2  502  501  0.90322718505E+01  0.23023506017E+02  0.45993797495E+02  0.52221577648E+02  0.00000000000E+00 0.  1.
<scales pt_clust_5="13000.00000" pt_clust_6="13000.00000" pt_clust_7="13000.00000" pt_clust_8="13000.00000" pt_clust_9="24.73184"></scales>
<clustering>
<clus scale="   24.732">  2  9  1 -1</clus>
<clus scale="   89.245">  5  6 -1 -1</clus>
<clus scale="   91.728">  7  8 -1 -1</clus>
<clus scale="  101.455">  1  5  2 -1</clus>
<clus scale="   24.732">  2  5  1 -1</clus>
</clustering>
</event>
<event>
 9    1  0.1435532E-005  0.1038015E+03  0.7546771E-02  0.1273926E+00
         -2   -1    0    0    0  501 -0.00000000000E+00  0.00000000000E+00  0.35186256570E+02  0.35186256570E+02  0.00000000000E+00 0.  1.
          2   -1    0    0  502    0  0.00000000000E+00 -0.00000000000E+00 -0.53851757087E+03  0.53851757087E+03  0.00000000000E+00 0. -1.
         23    2    1    2    0    0 -0.40310459477E+02 -0.14988623251E+02 -0.14283016103E+03  0.17645651494E+03  0.94270116123E+02 0.  0.
         23    2    1    2    0    0  0.37150697859E+02 -0.43137072688E+02 -0.25556054891E+03  0.27724268315E+03  0.91166495001E+02 0.  0.
        -11    1    4    4    0    0  0.29772825959E+02  0.13957842833E+02 -0.30203764445E+02  0.44648739387E+02  0.00000000000E+00 0. -1.
         11    1    4    4    0    0  0.73778718995E+01 -0.57094915521E+02 -0.22535678447E+03  0.23259394377E+03  0.00000000000E+00 0.  1.
        -13    1    3    3    0    0 -0.31249272627E+02  0.36360103551E+02 -0.91438330839E+02  0.10324506049E+03  0.00000000000E+00 0. -1.
         13    1    3    3    0    0 -0.90611868502E+01 -0.51348726802E+02 -0.51391830194E+02  0.73211454445E+02  0.00000000000E+00 0.  1.
         21    1    1    2  502  501  0.31597616184E+01  0.58125695939E+02 -0.10494060435E+03  0.12000462934E+03  0.00000000000E+00 0. -1.
<scales pt_clust_5="13000.00000" pt_clust_6="13000.00000" pt_clust_7="13000.00000" pt_clust_8="13000.00000" pt_clust_9="58.21152"></scales>
<clustering>
<clus scale="   58.212">  1  9  2 -1</clus>
<clus scale="   91.166">  5  6 -1 -1</clus>
<clus scale="   94.270">  7  8 -1 -1</clus>
<clus scale="  100.991">  2  5  1 -1</clus>
<clus scale="  100.991">  2  5  1 -1</clus>
</clustering>
</event>
<event>
 9    1  0.1435532E-005  0.9503924E+02  0.7546771E-02  0.1291427E+00
          1   -1    0    0  502    0  0.00000000000E+00  0.00000000000E+00  0.48550999002E+03  0.48550999002E+03  0.00000000000E+00 0. -1.
         -1   -1    0    0    0  501 -0.00000000000E+00 -0.00000000000E+00 -0.41139688155E+02  0.41139688155E+02  0.00000000000E+00 0.  1.
         23    2    1    2    0    0  0.14471069723E+02  0.15078958938E+02  0.44540445874E+02  0.10345234955E+03  0.91004123238E+02 0.  0.
         23    2    1    2    0    0 -0.30207943514E+02 -0.41690845973E+02  0.26089755560E+03  0.28086663685E+03  0.90376361359E+02 0.  0.
        -13    1    4    4    0    0 -0.39161615710E+02  0.16247052982E+02  0.77669531851E+02  0.88488163353E+02  0.00000000000E+00 0.  1.
         13    1    4    4    0    0  0.89536721955E+01 -0.57937898956E+02  0.18322802375E+03  0.19237847350E+03  0.00000000000E+00 0. -1.
        -13    1    3    3    0    0  0.52126662875E+02  0.15961281322E+02  0.34339782186E+02  0.64429590442E+02  0.00000000000E+00 0. -1.
         13    1    3    3    0    0 -0.37655593152E+02 -0.88232238382E+00  0.10200663689E+02  0.39022759104E+02  0.00000000000E+00 0.  1.
         21    1    1    2  502  501  0.15736873791E+02  0.26611887035E+02  0.13893230040E+03  0.14233069178E+03  0.00000000000E+00 0.  1.
<scales pt_clust_5="13000.00000" pt_clust_6="13000.00000" pt_clust_7="13000.00000" pt_clust_8="13000.00000" pt_clust_9="30.91669"></scales>
<clustering>
<clus scale="   30.917">  1  9  2 -1</clus>
<clus scale="   90.376">  5  6 -1 -1</clus>
<clus scale="   91.004">  7  8 -1 -1</clus>
<clus scale="   94.438">  1  5  2 -1</clus>
<clus scale="   30.917">  1  5  2 -1</clus>
</clustering>
</event>
<event>
 9    1  0.1435532E-005  0.1553827E+03  0.7546771E-02  0.1194629E+00
          2   -1    0    0  502    0  0.00000000000E+00  0.00000000000E+00  0.15860345670E+03  0.15860345670E+03  0.00000000000E+00 0. -1.
         -2   -1    0    0    0  501 -0.00000000000E+00 -0.00000000000E+00 -0.30348742875E+03  0.30348742875E+03  0.00000000000E+00 0.  1.
         23    2    1    2    0    0  0.75196826104E+02 -0.23119120899E+02 -0.28471173499E+02  0.12322847572E+03  0.90474267622E+02 0.  0.
         23    2    1    2    0    0 -0.15663056849E+03  0.71799006135E+02 -0.14002236911E+03  0.24109432982E+03  0.93978613283E+02 0.  0.
        -13    1    3    3    0    0  0.70565689055E+01 -0.43237280906E+02 -0.28346441112E+02  0.52180248644E+02  0.00000000000E+00 0.  1.
         13    1    3    3    0    0  0.68140257198E+02  0.20118160007E+02 -0.12473238761E+00  0.71048227080E+02  0.00000000000E+00 0. -1.
        -13    1    4    4    0    0 -0.56215373410E+02  0.24590874741E+02 -0.11030952175E+03  0.12622626476E+03  0.00000000000E+00 0.  1.
         13    1    4    4    0    0 -0.10041519508E+03  0.47208131393E+02 -0.29712847366E+02  0.11486806506E+03  0.00000000000E+00 0. -1.
         21    1    1    2  502  501  0.81433742382E+02 -0.48679885235E+02  0.23609570565E+02  0.97768079899E+02  0.00000000000E+00 0.  1.
<scales pt_clust_5="13000.00000" pt_clust_6="13000.00000" pt_clust_7="13000.00000" pt_clust_8="13000.00000" pt_clust_9="94.87458"></scales>
<clustering>
<clus scale="   90.474">  5  6 -1 -1</clus>
<clus scale="   93.979">  7  8 -1 -1</clus>
<clus scale="   94.875">  1  9  2 -1</clus>
<clus scale="  153.289">  2  5  1 -1</clus>
<clus scale="   94.875">  1  5  2 -1</clus>
</clustering>
</event>
<event>
 9    1  0.1435532E-005  0.1588054E+03  0.7546771E-02  0.1193466E+00
          1   -1    0    0  502    0  0.00000000000E+00  0.00000000000E+00  0.46580170175E+03  0.46580170175E+03  0.00000000000E+00 0. -1.
         -1   -1    0    0    0  501 -0.00000000000E+00 -0.00000000000E+00 -0.98520767343E+02  0.98520767343E+02  0.00000000000E+00 0.  1.
         23    2    1    2    0    0 -0.13201131702E+03 -0.66096436841E+02  0.27405128231E+02  0.17561286244E+03  0.91066512042E+02 0.  0.
         23    2    1    2    0    0  0.90777867178E+02  0.42672724908E+02  0.15112572497E+03  0.19409341817E+03  0.69077403018E+02 0.  0.
        -11    1    4    4    0    0  0.13831272705E+02 -0.15367204374E+02  0.51410253824E+02  0.55411815285E+02  0.00000000000E+00 0.  1.
         11    1    4    4    0    0  0.76946594473E+02  0.58039929282E+02  0.99715471144E+02  0.13868160288E+03  0.00000000000E+00 0. -1.
        -13    1    3    3    0    0 -0.51812380043E+02 -0.74747549465E+02  0.27267371421E+02  0.94948556708E+02  0.00000000000E+00 0.  1.
         13    1    3    3    0    0 -0.80198936976E+02  0.86511126234E+01  0.13775681019E+00  0.80664305729E+02  0.00000000000E+00 0. -1.
         21    1    1    2  502  501  0.41233449840E+02  0.23423711934E+02  0.18875008121E+03  0.19461618849E+03  0.00000000000E+00 0. -1.
<scales pt_clust_5="13000.00000" pt_clust_6="13000.00000" pt_clust_7="13000.00000" pt_clust_8="13000.00000" pt_clust_9="47.42223"></scales>
<clustering>
<clus scale="   47.422">  1  9  2 -1</clus>
<clus scale="   69.077">  5  6 -1 -1</clus>
<clus scale="   91.067">  7  8 -1 -1</clus>
<clus scale="  147.302">  1  5  2 -1</clus>
<clus scale="   47.422">  1  5  2 -1</clus>
</clustering>
</event>
<event>
 9    1  0.1435532E-005  0.4592954E+03  0.7546771E-02  0.1025026E+00
         -1   -1    0    0    0  501 -0.00000000000E+00  0.00000000000E+00  0.49450960305E+03  0.49450960305E+03  0.00000000000E+00 0.  1.
          1   -1    0    0  502    0  0.00000000000E+00 -0.00000000000E+00 -0.10464815929E+04  0.10464815929E+04  0.00000000000E+00 0. -1.
         23    2    1    2    0    0  0.34404810484E+03 -0.23406360626E+03  0.11988093288E+03  0.44332383474E+03  0.94919514099E+02 0.  0.
         23    2    1    2    0    0 -0.41253389975E+03  0.31395104609E+03 -0.12553105251E+03  0.54130426662E+03  0.92210553290E+02 0.  0.
        -11    1    3    3    0    0  0.18500103702E+03 -0.17156201297E+03  0.99530923911E+02  0.27122926244E+03  0.00000000000E+00 0. -1.
         11    1    3    3    0    0  0.15904706782E+03 -0.62501593294E+02  0.20350008965E+02  0.17209457229E+03  0.00000000000E+00 0.  1.
        -11    1    4    4    0    0 -0.29935591353E+03  0.27054459388E+03 -0.11535983128E+03  0.41966204369E+03  0.00000000000E+00 0.  1.
         11    1    4    4    0    0 -0.11317798622E+03  0.43406452205E+02 -0.10171221225E+02  0.12164222292E+03  0.00000000000E+00 0. -1.
         21    1    1    2  502  501  0.68485794906E+02 -0.79887439824E+02 -0.54632187023E+03  0.55636309460E+03  0.00000000000E+00 0.  1.
<scales pt_clust_5="13000.00000" pt_clust_6="13000.00000" pt_clust_7="13000.00000" pt_clust_8="13000.00000" pt_clust_9="105.22503"></scales>
<clustering>
<clus scale="   92.211">  7  8 -1 -1</clus>
<clus scale="   94.920">  5  6 -1 -1</clus>
<clus scale="  105.225">  2  9  1 -1</clus>
<clus scale="  458.743">  2  7  1 -1</clus>
<clus scale="  105.225">  2  5  1 -1</clus>
</clustering>
</event>
<event>
 9    1  0.1435532E-005  0.1114318E+03  0.7546771E-02  0.1259591E+00
          3   -1    0    0  502    0  0.00000000000E+00  0.00000000000E+00  0.17679570134E+03  0.17679570134E+03  0.00000000000E+00 0. -1.
         -3   -1    0    0    0  501 -0.00000000000E+00 -0.00000000000E+00 -0.15768630025E+03  0.15768630025E+03  0.00000000000E+00 0.  1.
         23    2    1    2    0    0  0.59757405664E+02 -0.32256202040E+02 -0.71242306111E+02  0.13401500648E+03  0.90956834152E+02 0.  0.
         23    2    1    2    0    0 -0.88132850205E+01  0.52205044944E+02  0.18971189531E+02  0.11053125103E+03  0.95153616383E+02 0.  0.
        -13    1    4    4    0    0  0.20289361437E+02 -0.20839436155E+02 -0.20009228219E+01  0.29153798704E+02  0.00000000000E+00 0.  1.
         13    1    4    4    0    0 -0.29102646457E+02  0.73044481099E+02  0.20972112353E+02  0.81377452322E+02  0.00000000000E+00 0. -1.
        -13    1    3    3    0    0  0.75823615224E+01 -0.53843990308E+02 -0.49426843413E+02  0.73482517297E+02  0.00000000000E+00 0.  1.
         13    1    3    3    0    0  0.52175044142E+02  0.21587788268E+02 -0.21815462698E+02  0.60532489179E+02  0.00000000000E+00 0. -1.
         21    1    1    2  502  501 -0.50944120644E+02 -0.19948842904E+02  0.71380517677E+02  0.89935744091E+02  0.00000000000E+00 0. -1.
<scales pt_clust_5="13000.00000" pt_clust_6="13000.00000" pt_clust_7="13000.00000" pt_clust_8="13000.00000" pt_clust_9="54.71069"></scales>
<clustering>
<clus scale="   54.711">  1  9  2 -1</clus>
<clus scale="   90.957">  7  8 -1 -1</clus>
<clus scale="   95.154">  5  6 -1 -1</clus>
<clus scale="  107.870">  2  7  1 -1</clus>
<clus scale="   54.711">  1  5  2 -1</clus>
</clustering>
</event>
<event>
 9    1  0.1435532E-005  0.1318170E+03  0.7546771E-02  0.1225056E+00
         -2   -1    0    0    0  501 -0.00000000000E+00  0.00000000000E+00  0.57637332143E+02  0.57637332143E+02  0.00000000000E+00 0.  1.
          2   -1    0    0  502    0  0.00000000000E+00 -0.00000000000E+00 -0.46873401894E+03  0.46873401894E+03  0.00000000000E+00 0. -1.
         23    2    1    2    0    0 -0.20286751815E+02  0.73193144447E+02 -0.16090690825E+03  0.20047609408E+03  0.92362559957E+02 0.  0.
         23    2    1    2    0    0 -0.18715482106E+02 -0.11495864240E+03 -0.15104210474E+03  0.21145840851E+03  0.91297220086E+02 0.  0.
        -13    1    4    4    0    0  0.33147980886E+02 -0.54609174491E+02 -0.41934198203E+02  0.76416147209E+02  0.00000000000E+00 0.  1.
         13    1    4    4    0    0 -0.51863462991E+02 -0.60349467908E+02 -0.10910790653E+03  0.13504226130E+03  0.00000000000E+00 0. -1.
        -13    1    3    3    0    0  0.21418438667E+02  0.58341032971E+02 -0.45953823910E+02  0.77292817098E+02  0.00000000000E+00 0.  1.
         13    1    3    3    0    0 -0.41705190482E+02  0.14852111475E+02 -0.11495308434E+03  0.12318327699E+03  0.00000000000E+00 0. -1.
         21    1    1    2  502  501  0.39002233921E+02  0.41765497952E+02 -0.99147673807E+02  0.11443684849E+03  0.00000000000E+00 0.  1.
<scales pt_clust_5="13000.00000" pt_clust_6="13000.00000" pt_clust_7="13000.00000" pt_clust_8="13000.00000" pt_clust_9="57.14483"></scales>
<clustering>
<clus scale="   57.145">  2  9  1 -1</clus>
<clus scale="   91.297">  5  6 -1 -1</clus>
<clus scale="   92.363">  7  8 -1 -1</clus>
<clus scale="  131.073">  2  5  1 -1</clus>
<clus scale="   57.145">  2  5  1 -1</clus>
</clustering>
</event>
<event>
 9    1  0.1435532E-005  0.9513536E+02  0.7546771E-02  0.1291912E+00
          2   -1    0    0  502    0  0.00000000000E+00  0.00000000000E+00  0.92639898615E+03  0.92639898615E+03  0.00000000000E+00 0. -1.
         -2   -1    0    0    0  501 -0.00000000000E+00 -0.00000000000E+00 -0.13267219494E+02  0.13267219494E+02  0.00000000000E+00 0.  1.
         23    2    1    2    0    0  0.16879867514E+02 -0.86123123835E+01  0.27189467077E+03  0.28704242054E+03  0.90041864424E+02 0.  0.
         23    2    1    2    0    0 -0.66372801545E+01  0.29801419964E+02  0.54557407663E+03  0.55410829328E+03  0.91938835454E+02 0.  0.
        -11    1    4    4    0    0 -0.33413539015E+02  0.52173159289E+02  0.34257346968E+03  0.34813084504E+03  0.00000000000E+00 0. -1.
         11    1    4    4    0    0  0.26776258860E+02 -0.22371739324E+02  0.20300060695E+03  0.20597744824E+03  0.00000000000E+00 0.  1.
        -13    1    3    3    0    0  0.41647264346E+02  0.95817483659E+01  0.23578078890E+03  0.23962237989E+03  0.00000000000E+00 0.  1.
         13    1    3    3    0    0 -0.24767396832E+02 -0.18194060749E+02  0.36113881869E+02  0.47420040658E+02  0.00000000000E+00 0. -1.
         21    1    1    2  502  501 -0.10242587360E+02 -0.21189107581E+02  0.95663019253E+02  0.98515491820E+02  0.00000000000E+00 0. -1.
<scales pt_clust_5="13000.00000" pt_clust_6="13000.00000" pt_clust_7="13000.00000" pt_clust_8="13000.00000" pt_clust_9="23.53484"></scales>
<clustering>
<clus scale="   23.535">  2  9  1 -1</clus>
<clus scale="   90.042">  7  8 -1 -1</clus>
<clus scale="   91.939">  5  6 -1 -1</clus>
<clus scale="   93.303">  2  7  1 -1</clus>
<clus scale="   95.135">  1  5  2 -1</clus>
</clustering>
</event>
<event>
 9    1  0.1435532E-005  0.1600865E+03  0.7546771E-02  0.1189035E+00
         -1   -1    0    0    0  501 -0.00000000000E+00  0.00000000000E+00  0.41869265541E+03  0.41869265541E+03  0.00000000000E+00 0.  1.
          1   -1    0    0  502    0  0.00000000000E+00 -0.00000000000E+00 -0.24174434155E+03  0.24174434155E+03  0.00000000000E+00 0. -1.
         23    2    1    2    0    0 -0.13276946611E+03  0.10194314530E+02  0.36168831043E+03  0.39615629155E+03  0.91595405201E+02 0.  0.
         23    2    1    2    0    0  0.10143053790E+03  0.64467703927E+01 -0.95686281343E+02  0.16841820846E+03  0.94229048796E+02 0.  0.
        -11    1    4    4    0    0  0.87503676410E+02 -0.26875739007E+02 -0.35405725965E+02  0.98146646216E+02  0.00000000000E+00 0.  1.
         11    1    4    4    0    0  0.13926861490E+02  0.33322509400E+02 -0.60280555378E+02  0.70271562244E+02  0.00000000000E+00 0. -1.
        -13    1    3    3    0    0 -0.63253827928E+02  0.29758053714E+02  0.27288262914E+03  0.28169401448E+03  0.00000000000E+00 0.  1.
         13    1    3    3    0    0 -0.69515638177E+02 -0.19563739183E+02  0.88805681285E+02  0.11446227706E+03  0.00000000000E+00 0. -1.
         21    1    1    2  502  501  0.31338928206E+02 -0.16641084923E+02 -0.89053715223E+02  0.95862496961E+02  0.00000000000E+00 0. -1.
<scales pt_clust_5="13000.00000" pt_clust_6="13000.00000" pt_clust_7="13000.00000" pt_clust_8="13000.00000" pt_clust_9="35.48315"></scales>
<clustering>
<clus scale="   35.483">  2  9  1 -1</clus>
<clus scale="   91.595">  7  8 -1 -1</clus>
<clus scale="   94.229">  5  6 -1 -1</clus>
<clus scale="  158.551">  1  7  2 -1</clus>
<clus scale="   35.483">  2  5  1 -1</clus>
</clustering>
</event>
<event>
 9    1  0.1435532E-005  0.9458078E+02  0.7546771E-02  0.1293115E+00
          3   -1    0    0  502    0  0.00000000000E+00  0.00000000000E+00  0.55229154776E+02  0.55229154776E+02  0.00000000000E+00 0. -1.
         -3   -1    0    0    0  501 -0.00000000000E+00 -0.00000000000E+00 -0.40068065862E+03  0.40068065862E+03  0.00000000000E+00 0.  1.
         23    2    1    2    0    0  0.24289898062E+02 -0.13270932837E+01 -0.19779677667E+03  0.21843868569E+03  0.89443469407E+02 0.  0.
         23    2    1    2    0    0 -0.20040837386E+02  0.22458205046E+02 -0.17680112387E+03  0.20122073680E+03  0.91242212722E+02 0.  0.
        -11    1    4    4    0    0  0.26910552812E+02  0.35741075444E+02 -0.61783633794E+02  0.76281188581E+02  0.00000000000E+00 0.  1.
         11    1    4    4    0    0 -0.46951390198E+02 -0.13282870398E+02 -0.11501749007E+03  0.12493954822E+03  0.00000000000E+00 0. -1.
        -13    1    3    3    0    0 -0.32919437681E+02  0.61258372296E+01 -0.54507097615E+02  0.63970610044E+02  0.00000000000E+00 0. -1.
         13    1    3    3    0    0  0.57209335744E+02 -0.74529305132E+01 -0.14328967905E+03  0.15446807564E+03  0.00000000000E+00 0.  1.
         21    1    1    2  502  501 -0.42490606766E+01 -0.21131111763E+02  0.29146396689E+02  0.36250390907E+02  0.00000000000E+00 0. -1.
<scales pt_clust_5="13000.00000" pt_clust_6="13000.00000" pt_clust_7="13000.00000" pt_clust_8="13000.00000" pt_clust_9="21.55408"></scales>
<clustering>
<clus scale="   21.554">  1  9  2 -1</clus>
<clus scale="   89.443">  7  8 -1 -1</clus>
<clus scale="   91.242">  5  6 -1 -1</clus>
<clus scale="   92.847">  2  7  1 -1</clus>
<clus scale="   21.554">  1  5  2 -1</clus>
</clustering>
</event>
<event>
 9    1  0.1435532E-005  0.1026170E+03  0.7546771E-02  0.1275065E+00
          1   -1    0    0  502    0  0.00000000000E+00  0.00000000000E+00  0.53575176940E+02  0.53575176940E+02  0.00000000000E+00 0. -1.
         -1   -1    0    0    0  501 -0.00000000000E+00 -0.00000000000E+00 -0.31995766798E+03  0.31995766798E+03  0.00000000000E+00 0.  1.
         23    2    1    2    0    0  0.42146851531E+02 -0.76883568827E+01 -0.12159272564E+03  0.15900680944E+03  0.93074736605E+02 0.  0.
         23    2    1    2    0    0 -0.21818847629E+02  0.44942062290E+02 -0.65469580263E+02  0.12456627737E+03  0.93459298321E+02 0.  0.
        -13    1    3    3    0    0 -0.71021134030E+01  0.24154780990E+02 -0.13371148021E+01  0.25212721699E+02  0.00000000000E+00 0. -1.
         13    1    3    3    0    0  0.49248964934E+02 -0.31843137872E+02 -0.12025561084E+03  0.13379408774E+03  0.00000000000E+00 0.  1.
        -13    1    4    4    0    0  0.37076139212E+02  0.17623854265E+02 -0.25415827871E+02  0.48282550102E+02  0.00000000000E+00 0. -1.
         13    1    4    4    0    0 -0.58894986841E+02  0.27318208025E+02 -0.40053752392E+02  0.76283727265E+02  0.00000000000E+00 0.  1.
         21    1    1    2  502  501 -0.20328003902E+02 -0.37253705407E+02 -0.79320185135E+02  0.89959758109E+02  0.00000000000E+00 0.  1.
<scales pt_clust_5="13000.00000" pt_clust_6="13000.00000" pt_clust_7="13000.00000" pt_clust_8="13000.00000" pt_clust_9="42.43897"></scales>
<clustering>
<clus scale="   42.439">  2  9  1 -1</clus>
<clus scale="   93.075">  5  6 -1 -1</clus>
<clus scale="   93.459">  7  8 -1 -1</clus>
<clus scale="  102.267">  2  5  1 -1</clus>
<clus scale="  102.617">  1  5  2 -1</clus>
</clustering>
</event>
<event>
 9    1  0.1435532E-005  0.1165009E+03  0.7546771E-02  0.1249849E+00
         -1   -1    0    0    0  501 -0.00000000000E+00  0.00000000000E+00  0.84370243496E+02  0.84370243496E+02  0.00000000000E+00 0.  1.
          1   -1    0    0  502    0  0.00000000000E+00 -0.00000000000E+00 -0.32847155507E+03  0.32847155507E+03  0.00000000000E+00 0. -1.
         23    2    1    2    0    0 -0.33318813240E+02  0.69047869462E+02  0.11566287345E+02  0.11716274406E+03  0.87838362912E+02 0.  0.
         23    2    1    2    0    0  0.50900700888E+02 -0.40115917724E+02 -0.21983044420E+03  0.24637913298E+03  0.90427234634E+02 0.  0.
        -11    1    4    4    0    0  0.25796602388E+02 -0.55968653453E+02 -0.68410544761E+02  0.92075824724E+02  0.00000000000E+00 0. -1.
         11    1    4    4    0    0  0.25104098501E+02  0.15852735730E+02 -0.15141989944E+03  0.15430330825E+03  0.00000000000E+00 0.  1.
        -13    1    3    3    0    0  0.20472672520E+02  0.47283917793E+02  0.25493112369E+02  0.57487372355E+02  0.00000000000E+00 0. -1.
         13    1    3    3    0    0 -0.53791485760E+02  0.21763951668E+02 -0.13926825024E+02  0.59675371702E+02  0.00000000000E+00 0.  1.
         21    1    1    2  502  501 -0.17581887648E+02 -0.28931951738E+02 -0.35837154719E+02  0.49299921532E+02  0.00000000000E+00 0. -1.
<scales pt_clust_5="13000.00000" pt_clust_6="13000.00000" pt_clust_7="13000.00000" pt_clust_8="13000.00000" pt_clust_9="33.85529"></scales>
<clustering>
<clus scale="   33.855">  2  9  1 -1</clus>
<clus scale="   87.838">  7  8 -1 -1</clus>
<clus scale="   90.427">  5  6 -1 -1</clus>
<clus scale="  114.503">  1  7  2 -1</clus>
<clus scale="   33.855">  2  5  1 -1</clus>
</clustering>
</event>
<event>
 9    1  0.1435532E-005  0.1116481E+03  0.7546771E-02  0.1258146E+00
          2   -1    0    0  502    0  0.00000000000E+00  0.00000000000E+00  0.63612021873E+03  0.63612021873E+03  0.00000000000E+00 0. -1.
         -2   -1    0    0    0  501 -0.00000000000E+00 -0.00000000000E+00 -0.41280271179E+02  0.41280271179E+02  0.00000000000E+00 0.  1.
         23    2    1    2    0    0  0.21325501780E+02 -0.53224143894E+02  0.73640306781E+02  0.13090989929E+03  0.91798259400E+02 0.  0.
         23    2    1    2    0    0 -0.59941380345E+02  0.57328090364E+02  0.41651945478E+03  0.43483948318E+03  0.93367236764E+02 0.  0.
        -11    1    3    3    0    0 -0.13567045633E+02 -0.16337897760E+02  0.77144614817E+02  0.80014268888E+02  0.00000000000E+00 0. -1.
         11    1    3    3    0    0  0.34892547413E+02 -0.36886246133E+02 -0.35043080364E+01  0.50895630398E+02  0.00000000000E+00 0.  1.
        -13    1    4    4    0    0  0.16503594994E+02 -0.12667484421E+02  0.57045184193E+02  0.60720563641E+02  0.00000000000E+00 0.  1.
         13    1    4    4    0    0 -0.76444975338E+02  0.69995574785E+02  0.35947427058E+03  0.37411891954E+03  0.00000000000E+00 0. -1.
         21    1    1    2  502  501  0.38615878565E+02 -0.41039464706E+01  0.10468018600E+03  0.11165110745E+03  0.00000000000E+00 0.  1.
<scales pt_clust_5="13000.00000" pt_clust_6="13000.00000" pt_clust_7="13000.00000" pt_clust_8="13000.00000" pt_clust_9="38.83334"></scales>
<clustering>
<clus scale="   38.833">  1  9  2 -1</clus>
<clus scale="   91.798">  5  6 -1 -1</clus>
<clus scale="   93.367">  7  8 -1 -1</clus>
<clus scale="  110.339">  2  5  1 -1</clus>
<clus scale="   38.833">  1  5  2 -1</clus>
</clustering>
</event>
<event>
 9    1  0.1435532E-005  0.9328662E+02  0.7546771E-02  0.1295645E+00
         -1   -1    0    0    0  501 -0.00000000000E+00  0.00000000000E+00  0.35892156678E+02  0.35892156678E+02  0.00000000000E+00 0.  1.
          1   -1    0    0  502    0  0.00000000000E+00 -0.00000000000E+00 -0.44915123694E+03  0.44915123694E+03  0.00000000000E+00 0. -1.
         23    2    1    2    0    0  0.37346796730E+02 -0.67879911811E+01 -0.10959356346E+03  0.14751239570E+03  0.91149863870E+02 0.  0.
         23    2    1    2    0    0  0.83417093085E+01  0.15819493507E+02 -0.14086095917E+03  0.16819602928E+03  0.90156829790E+02 0.  0.
        -11    1    3    3    0    0  0.16224958454E+02  0.40728500173E+02 -0.68076657058E+02  0.80972163361E+02  0.00000000000E+00 0. -1.
         11    1    3    3    0    0  0.21121838276E+02 -0.47516491354E+02 -0.41516906404E+02  0.66540232342E+02  0.00000000000E+00 0.  1.
        -13    1    4    4    0    0  0.17665611763E+02 -0.35408362211E+02 -0.67304542266E+02  0.78075139212E+02  0.00000000000E+00 0.  1.
         13    1    4    4    0    0 -0.93239024540E+01  0.51227855719E+02 -0.73556416907E+02  0.90120890068E+02  0.00000000000E+00 0. -1.
         21    1    1    2  502  501 -0.45688506038E+02 -0.90315023261E+01 -0.16280455762E+03  0.16933496863E+03  0.00000000000E+00 0. -1.
<scales pt_clust_5="13000.00000" pt_clust_6="13000.00000" pt_clust_7="13000.00000" pt_clust_8="13000.00000" pt_clust_9="46.57261"></scales>
<clustering>
<clus scale="   46.573">  2  9  1 -1</clus>
<clus scale="   90.157">  7  8 -1 -1</clus>
<clus scale="   91.150">  5  6 -1 -1</clus>
<clus scale="   92.317">  2  7  1 -1</clus>
<clus scale="   46.573">  2  5  1 -1</clus>
</clustering>
</event>
<event>
 9    1  0.1435532E-005  0.1648585E+03  0.7546771E-02  0.1183650E+00
         -1   -1    0    0    0  501 -0.00000000000E+00  0.00000000000E+00  0.48839461296E+03  0.48839461296E+03  0.00000000000E+00 0.  1.
          1   -1    0    0  502    0  0.00000000000E+00 -0.00000000000E+00 -0.34667368866E+03  0.34667368866E+03  0.00000000000E+00 0. -1.
         23    2    1    2    0    0 -0.11107765140E+03  0.41410814243E+02  0.28212705449E+03  0.31896163441E+03  0.89931914088E+02 0.  0.
         23    2    1    2    0    0  0.18836555106E+03 -0.89821257727E+02  0.10734007785E+03  0.25210823146E+03  0.92126157483E+02 0.  0.
        -11    1    4    4    0    0  0.65906134600E+02 -0.80347633068E+02  0.35500959184E+02  0.10981656897E+03  0.00000000000E+00 0.  1.
         11    1    4    4    0    0  0.12245941646E+03 -0.94736246585E+01  0.71839118666E+02  0.14229166249E+03  0.00000000000E+00 0. -1.
        -13    1    3    3    0    0 -0.10718626668E+03  0.13489484152E+02  0.15621051731E+03  0.18992784858E+03  0.00000000000E+00 0. -1.
         13    1    3    3    0    0 -0.38913847162E+01  0.27921330091E+02  0.12591653718E+03  0.12903378583E+03  0.00000000000E+00 0.  1.
         21    1    1    2  502  501 -0.77287899660E+02  0.48410443484E+02 -0.24774620804E+03  0.26399843574E+03  0.00000000000E+00 0. -1.
<scales pt_clust_5="13000.00000" pt_clust_6="13000.00000" pt_clust_7="13000.00000" pt_clust_8="13000.00000" pt_clust_9="91.19754"></scales>
<clustering>
<clus scale="   89.932">  7  8 -1 -1</clus>
<clus scale="   91.198">  2  9  1 -1</clus>
<clus scale="   92.126">  5  6 -1 -1</clus>
<clus scale="  163.642">  1  7  2 -1</clus>
<clus scale="   91.198">  2  5  1 -1</clus>
</clustering>
</event>
<event>
 9    1  0.1435532E-005  0.9933074E+02  0.7546771E-02  0.1281899E+00
         -1   -1    0    0    0  501 -0.00000000000E+00  0.00000000000E+00  0.11618200019E+03  0.11618200019E+03  0.00000000000E+00 0.  1.
          1   -1    0    0  502    0  0.00000000000E+00 -0.00000000000E+00 -0.18768892688E+03  0.18768892688E+03  0.00000000000E+00 0. -1.
         23    2    1    2    0    0 -0.19587229271E+02  0.55709602276E+02 -0.45407980362E+01  0.10776756877E+03  0.90033386565E+02 0.  0.
         23    2    1    2    0    0  0.50132781257E+02  0.13018141329E+02 -0.16441508022E+02  0.10549833208E+03  0.90425699474E+02 0.  0.
        -11    1    4    4    0    0  0.32112605360E+02  0.49794951244E+02  0.46464963497E+01  0.59433547099E+02  0.00000000000E+00 0.  1.
         11    1    4    4    0    0  0.18020175897E+02 -0.36776809916E+02 -0.21088004371E+02  0.46064784981E+02  0.00000000000E+00 0. -1.
        -13    1    3    3    0    0  0.33213607585E+01  0.36625353624E+02 -0.44614898616E+02  0.57818138537E+02  0.00000000000E+00 0.  1.
         13    1    3    3    0    0 -0.22908590029E+02  0.19084248652E+02  0.40074100579E+02  0.49949430237E+02  0.00000000000E+00 0. -1.
         21    1    1    2  502  501 -0.30545551986E+02 -0.68727743605E+02 -0.50524620628E+02  0.90605026222E+02  0.00000000000E+00 0. -1.
<scales pt_clust_5="13000.00000" pt_clust_6="13000.00000" pt_clust_7="13000.00000" pt_clust_8="13000.00000" pt_clust_9="75.20993"></scales>
<clustering>
<clus scale="   75.210">  2  9  1 -1</clus>
<clus scale="   90.033">  7  8 -1 -1</clus>
<clus scale="   90.426">  5  6 -1 -1</clus>
<clus scale="   98.974">  1  7  2 -1</clus>
<clus scale="   75.210">  2  5  1 -1</clus>
</clustering>
</event>
<event>
 9    1  0.1435532E-005  0.1748297E+03  0.7546771E-02  0.1173625E+00
          3   -1    0    0  502    0  0.00000000000E+00  0.00000000000E+00  0.44685637846E+03  0.44685637846E+03  0.00000000000E+00 0. -1.
         -3   -1    0    0    0  501 -0.00000000000E+00 -0.00000000000E+00 -0.15224504660E+03  0.15224504660E+03  0.00000000000E+00 0.  1.
         23    2    1    2    0    0  0.68052009086E+02 -0.14720739897E+03 -0.31254198566E+02  0.18959976380E+03  0.93113646970E+02 0.  0.
         23    2    1    2    0    0 -0.12091647440E+02  0.14206463943E+03  0.30267336310E+03  0.34870785667E+03  0.98272248690E+02 0.  0.
        -11    1    4    4    0    0 -0.37026832010E+02  0.86952561514E+02  0.10172091842E+03  0.13884840470E+03  0.00000000000E+00 0.  1.
         11    1    4    4    0    0  0.24935184570E+02  0.55112077912E+02  0.20095244468E+03  0.20985945198E+03  0.00000000000E+00 0. -1.
        -13    1    3    3    0    0  0.45502312268E+02 -0.40483185745E+02  0.26214674108E+02  0.66306544838E+02  0.00000000000E+00 0. -1.
         13    1    3    3    0    0  0.22549696818E+02 -0.10672421322E+03 -0.57468872674E+02  0.12329321896E+03  0.00000000000E+00 0.  1.
         21    1    1    2  502  501 -0.55960361646E+02  0.51427595412E+01  0.23192167335E+02  0.60793804593E+02  0.00000000000E+00 0.  1.
<scales pt_clust_5="13000.00000" pt_clust_6="13000.00000" pt_clust_7="13000.00000" pt_clust_8="13000.00000" pt_clust_9="56.19617"></scales>
<clustering>
<clus scale="   56.196">  2  9  1 -1</clus>
<clus scale="   93.114">  7  8 -1 -1</clus>
<clus scale="   98.272">  5  6 -1 -1</clus>
<clus scale="  171.983">  2  7  1 -1</clus>
<clus scale="  174.830">  1  5  2 -1</clus>
</clustering>
</event>
<event>
 9    1  0.1435532E-005  0.1013055E+03  0.7546771E-02  0.1279170E+00
          1   -1    0    0  502    0  0.00000000000E+00  0.00000000000E+00  0.32483522868E+03  0.32483522868E+03  0.00000000000E+00 0. -1.
         -1   -1    0    0    0  501 -0.00000000000E+00 -0.00000000000E+00 -0.43588885604E+02  0.43588885604E+02  0.00000000000E+00 0.  1.
         23    2    1    2    0    0  0.11144732487E+02  0.43199447066E+02  0.88209163224E+02  0.13290463487E+03  0.88839114154E+02 0.  0.
         23    2    1    2    0    0  0.20294799775E+02 -0.40224334848E+02  0.13656441881E+03  0.17081655660E+03  0.92187740570E+02 0.  0.
        -11    1    4    4    0    0 -0.59913735269E+01  0.27427436652E+02  0.24279427202E+02  0.37116727001E+02  0.00000000000E+00 0.  1.
         11    1    4    4    0    0  0.26286173302E+02 -0.67651771500E+02  0.11228499161E+03  0.13369982960E+03  0.00000000000E+00 0. -1.
        -13    1    3    3    0    0  0.35255466173E+02 -0.11164774333E+01  0.50418323957E+01  0.35631650128E+02  0.00000000000E+00 0.  1.
         13    1    3    3    0    0 -0.24110733685E+02  0.44315924499E+02  0.83167330828E+02  0.97272984740E+02  0.00000000000E+00 0. -1.
         21    1    1    2  502  501 -0.31439532262E+02 -0.29751122181E+01  0.56472761037E+02  0.64702922814E+02  0.00000000000E+00 0.  1.
<scales pt_clust_5="13000.00000" pt_clust_6="13000.00000" pt_clust_7="13000.00000" pt_clust_8="13000.00000" pt_clust_9="31.57999"></scales>
<clustering>
<clus scale="   31.580">  1  9  2 -1</clus>
<clus scale="   88.839">  7  8 -1 -1</clus>
<clus scale="   92.188">  5  6 -1 -1</clus>
<clus scale="   98.268">  2  7  1 -1</clus>
<clus scale="   31.580">  1  5  2 -1</clus>
</clustering>
</event>
<event>
 9    1  0.1435532E-005  0.9265305E+02  0.7546771E-02  0.1297318E+00
         -2   -1    0    0    0  501 -0.00000000000E+00  0.00000000000E+00  0.25479477317E+02  0.25479477317E+02  0.00000000000E+00 0.  1.
          2   -1    0    0  502    0  0.00000000000E+00 -0.00000000000E+00 -0.47950315599E+03  0.47950315599E+03  0.00000000000E+00 0. -1.
         23    2    1    2    0    0  0.23133889026E+02 -0.59506882495E+01 -0.13508535022E+03  0.16426727045E+03  0.90360925114E+02 0.  0.
         23    2    1    2    0    0  0.39222875659E+01 -0.14817585789E+01 -0.24162436076E+03  0.25846739900E+03  0.91681430409E+02 0.  0.
        -13    1    3    3    0    0  0.29328964496E+02 -0.43485374170E+02 -0.57326673875E+02  0.77701437971E+02  0.00000000000E+00 0. -1.
         13    1    3    3    0    0 -0.61950754703E+01  0.37534685921E+02 -0.77758676341E+02  0.86565832483E+02  0.00000000000E+00 0.  1.
        -13    1    4    4    0    0 -0.14306176858E+02 -0.36789947454E+02 -0.55238992604E+02  0.67893396099E+02  0.00000000000E+00 0. -1.
         13    1    4    4    0    0  0.18228464424E+02  0.35308188875E+02 -0.18638536816E+03  0.19057400290E+03  0.00000000000E+00 0.  1.
         21    1    1    2  502  501 -0.27056176592E+02  0.74324468284E+01 -0.77313967694E+02  0.82247963854E+02  0.00000000000E+00 0. -1.
<scales pt_clust_5="13000.00000" pt_clust_6="13000.00000" pt_clust_7="13000.00000" pt_clust_8="13000.00000" pt_clust_9="28.05847"></scales>
<clustering>
<clus scale="   28.058">  2  9  1 -1</clus>
<clus scale="   90.361">  5  6 -1 -1</clus>
<clus scale="   91.347">  1  5  2 -1</clus>
<clus scale="   91.681">  7  8 -1 -1</clus>
<clus scale="   28.058">  2  5  1 -1</clus>
</clustering>
</event>
<event>
 9    1  0.1435532E-005  0.9993870E+02  0.7546771E-02  0.1281074E+00
         -1   -1    0    0    0  501 -0.00000000000E+00  0.00000000000E+00  0.92094081874E+02  0.92094081874E+02  0.00000000000E+00 0.  1.
          1   -1    0    0  502    0  0.00000000000E+00 -0.00000000000E+00 -0.31001897228E+03  0.31001897228E+03  0.00000000000E+00 0. -1.
         23    2    1    2    0    0  0.11522928737E+01  0.38839932556E+02  0.37137342041E+02  0.10762075375E+03  0.93237204613E+02 0.  0.
         23    2    1    2    0    0  0.15689134221E+02 -0.25554132562E+02 -0.10434415576E+03  0.14225536406E+03  0.91922375610E+02 0.  0.
        -11    1    4    4    0    0 -0.37707958803E+02 -0.12227326039E+02 -0.58295348574E+02  0.70496420650E+02  0.00000000000E+00 0. -1.
         11    1    4    4    0    0  0.53397093024E+02 -0.13326806523E+02 -0.46048807190E+02  0.71758943409E+02  0.00000000000E+00 0.  1.
        -11    1    3    3    0    0 -0.65818390451E+00 -0.31069667511E+02  0.11278651856E+02  0.33060027722E+02  0.00000000000E+00 0. -1.
         11    1    3    3    0    0  0.18104767782E+01  0.69909600068E+02  0.25858690185E+02  0.74560726028E+02  0.00000000000E+00 0.  1.
         21    1    1    2  502  501 -0.16841427095E+02 -0.13285799995E+02 -0.15071807668E+03  0.15223693634E+03  0.00000000000E+00 0. -1.
<scales pt_clust_5="13000.00000" pt_clust_6="13000.00000" pt_clust_7="13000.00000" pt_clust_8="13000.00000" pt_clust_9="21.45102"></scales>
<clustering>
<clus scale="   21.451">  2  9  1 -1</clus>
<clus scale="   91.922">  5  6 -1 -1</clus>
<clus scale="   93.237">  7  8 -1 -1</clus>
<clus scale="   98.713">  2  5  1 -1</clus>
<clus scale="   21.451">  2  5  1 -1</clus>
</clustering>
</event>
<event>
 9    1  0.1435532E-005  0.9187640E+02  0.7546771E-02  0.1303706E+00
         -2   -1    0    0    0  501 -0.00000000000E+00  0.00000000000E+00  0.83844267604E+02  0.83844267604E+02  0.00000000000E+00 0.  1.
          2   -1    0    0  502    0  0.00000000000E+00 -0.00000000000E+00 -0.23102266136E+03  0.23102266136E+03  0.00000000000E+00 0. -1.
         23    2    1    2    0    0 -0.12431944410E+02 -0.11570599471E+02  0.33258340576E+02  0.90591146780E+02  0.82536092973E+02 0.  0.
         23    2    1    2    0    0 -0.71757232194E+01 -0.76393751356E+01 -0.85498970365E+02  0.12544935464E+03  0.91200962657E+02 0.  0.
        -11    1    4    4    0    0  0.42153154795E+02 -0.34825117340E+01 -0.39139809069E+02  0.57627606241E+02  0.00000000000E+00 0. -1.
         11    1    4    4    0    0 -0.49328878015E+02 -0.41568634016E+01 -0.46359161296E+02  0.67821748397E+02  0.00000000000E+00 0.  1.
        -11    1    3    3    0    0 -0.27336928510E+02 -0.39187657292E+02  0.44438595120E+01  0.47986748502E+02  0.00000000000E+00 0.  1.
         11    1    3    3    0    0  0.14904984101E+02  0.27617057821E+02  0.28814481064E+02  0.42604398279E+02  0.00000000000E+00 0. -1.
         21    1    1    2  502  501  0.19607667629E+02  0.19209974607E+02 -0.94937763965E+02  0.98826427543E+02  0.00000000000E+00 0. -1.
<scales pt_clust_5="13000.00000" pt_clust_6="13000.00000" pt_clust_7="13000.00000" pt_clust_8="13000.00000" pt_clust_9="27.44966"></scales>
<clustering>
<clus scale="   27.450">  2  9  1 -1</clus>
<clus scale="   82.536">  7  8 -1 -1</clus>
<clus scale="   83.282">  1  7  2 -1</clus>
<clus scale="   91.201">  5  6 -1 -1</clus>
<clus scale="   27.450">  2  5  1 -1</clus>
</clustering>
</event>
<event>
 9    1  0.1435532E-005  0.2136772E+03  0.7546771E-02  0.1139236E+00
          1   -1    0    0  502    0  0.00000000000E+00  0.00000000000E+00  0.52902745801E+03  0.52902745801E+03  0.00000000000E+00 0. -1.
         -1   -1    0    0    0  501 -0.00000000000E+00 -0.00000000000E+00 -0.11895509129E+03  0.11895509129E+03  0.00000000000E+00 0.  1.
         23    2    1    2    0    0  0.83016428331E+02  0.16625909383E+03  0.64733661880E+02  0.21708523230E+03  0.91660991959E+02 0.  0.
         23    2    1    2    0    0 -0.85954784665E+02 -0.19052793824E+03  0.27083789209E+03  0.35248824962E+03  0.84886289047E+02 0.  0.
        -11    1    4    4    0    0 -0.47816653263E+02 -0.14017655374E+03  0.24042573049E+03  0.28238348115E+03  0.00000000000E+00 0. -1.
         11    1    4    4    0    0 -0.38138131402E+02 -0.50351384501E+02  0.30412161606E+02  0.70104768465E+02  0.00000000000E+00 0.  1.
        -13    1    3    3    0    0  0.30055172510E+02  0.35714555182E+02  0.60143355705E+02  0.76131899240E+02  0.00000000000E+00 0. -1.
         13    1    3    3    0    0  0.52961255821E+02  0.13054453865E+03  0.45903061746E+01  0.14095333306E+03  0.00000000000E+00 0.  1.
         21    1    1    2  502  501  0.29383563340E+01  0.24268844409E+02  0.74500812747E+02  0.78409067377E+02  0.00000000000E+00 0. -1.
<scales pt_clust_5="13000.00000" pt_clust_6="13000.00000" pt_clust_7="13000.00000" pt_clust_8="13000.00000" pt_clust_9="24.44608"></scales>
<clustering>
<clus scale="   24.446">  1  9  2 -1</clus>
<clus scale="   84.886">  5  6 -1 -1</clus>
<clus scale="   91.661">  7  8 -1 -1</clus>
<clus scale="  210.860">  1  5  2 -1</clus>
<clus scale="   24.446">  1  5  2 -1</clus>
</clustering>
</event>
<event>
 9    1  0.1435532E-005  0.1026328E+03  0.7546771E-02  0.1276137E+00
          2   -1    0    0  502    0  0.00000000000E+00  0.00000000000E+00  0.28775624132E+02  0.28775624132E+02  0.00000000000E+00 0. -1.
         -2   -1    0    0    0  501 -0.00000000000E+00 -0.00000000000E+00 -0.55769611137E+03  0.55769611137E+03  0.00000000000E+00 0.  1.
         23    2    1    2    0    0  0.43117770510E+02 -0.40334336952E+02 -0.31714588683E+03  0.33569891953E+03  0.92877608546E+02 0.  0.
         23    2    1    2    0    0 -0.24227967218E+02  0.90692890851E+01 -0.17720961157E+03  0.20048299255E+03  0.90116244196E+02 0.  0.
        -11    1    3    3    0    0 -0.14915478350E+02 -0.33971461037E+02 -0.21386709677E+03  0.21706143541E+03  0.00000000000E+00 0.  1.
         11    1    3    3    0    0  0.58033248860E+02 -0.63628759152E+01 -0.10327879006E+03  0.11863748412E+03  0.00000000000E+00 0. -1.
        -13    1    4    4    0    0 -0.27381433756E+02  0.41936704703E+02 -0.57266347834E+02  0.76078017259E+02  0.00000000000E+00 0. -1.
         13    1    4    4    0    0  0.31534665379E+01 -0.32867415618E+02 -0.11994326374E+03  0.12440497529E+03  0.00000000000E+00 0.  1.
         21    1    1    2  502  501 -0.18889803292E+02  0.31265047867E+02 -0.34564988832E+02  0.50289823418E+02  0.00000000000E+00 0. -1.
<scales pt_clust_5="13000.00000" pt_clust_6="13000.00000" pt_clust_7="13000.00000" pt_clust_8="13000.00000" pt_clust_9="36.52845"></scales>
<clustering>
<clus scale="   36.528">  1  9  2 -1</clus>
<clus scale="   90.116">  7  8 -1 -1</clus>
<clus scale="   92.878">  5  6 -1 -1</clus>
<clus scale="  100.141">  1  7  2 -1</clus>
<clus scale="   36.528">  1  5  2 -1</clus>
</clustering>
</event>
<event>
 9    1  0.1435532E-005  0.1083702E+03  0.7546771E-02  0.1264947E+00
          2   -1    0    0  502    0  0.00000000000E+00  0.00000000000E+00  0.47175576909E+03  0.47175576909E+03  0.00000000000E+00 0. -1.
         -2   -1    0    0    0  501 -0.00000000000E+00 -0.00000000000E+00 -0.56360953735E+02  0.56360953735E+02  0.00000000000E+00 0.  1.
         23    2    1    2    0    0 -0.95823271604E+01 -0.58815681058E+02  0.25698850333E+02  0.11196048578E+03  0.91233843146E+02 0.  0.
         23    2    1    2    0    0 -0.43398881512E+01  0.34764222975E+02  0.19488857164E+03  0.21937661099E+03  0.94430695563E+02 0.  0.
        -11    1    4    4    0    0  0.19923544806E+02 -0.26572934615E+02  0.84349795294E+02  0.90652945114E+02  0.00000000000E+00 0.  1.
         11    1    4    4    0    0 -0.24263432957E+02  0.61337157590E+02  0.11053877635E+03  0.12872366587E+03  0.00000000000E+00 0. -1.
        -11    1    3    3    0    0  0.20416076102E+02 -0.48880751605E+02  0.49420624034E+02  0.72446822710E+02  0.00000000000E+00 0. -1.
         11    1    3    3    0    0 -0.29998403263E+02 -0.99349294538E+01 -0.23721773701E+02  0.39513663069E+02  0.00000000000E+00 0.  1.
         21    1    1    2  502  501  0.13922215312E+02  0.24051458084E+02  0.19480739339E+03  0.19677962606E+03  0.00000000000E+00 0. -1.
<scales pt_clust_5="13000.00000" pt_clust_6="13000.00000" pt_clust_7="13000.00000" pt_clust_8="13000.00000" pt_clust_9="27.79030"></scales>
<clustering>
<clus scale="   27.790">  1  9  2 -1</clus>
<clus scale="   91.234">  7  8 -1 -1</clus>
<clus scale="   94.431">  5  6 -1 -1</clus>
<clus scale="  105.596">  2  7  1 -1</clus>
<clus scale="   27.790">  1  5  2 -1</clus>
</clustering>
</event>
<event>
 9    1  0.1435532E-005  0.1100364E+03  0.7546771E-02  0.1260695E+00
          2   -1    0    0  502    0  0.00000000000E+00  0.00000000000E+00  0.25498872729E+03  0.25498872729E+03  0.00000000000E+00 0. -1.
         -2   -1    0    0    0  501 -0.00000000000E+00 -0.00000000000E+00 -0.18358979525E+03  0.18358979525E+03  0.00000000000E+00 0.  1.
         23    2    1    2    0    0  0.44100469701E+02  0.18203553429E+02 -0.95669537915E+02  0.14315891059E+03  0.95213404577E+02 0.  0.
         23    2    1    2    0    0 -0.65404151504E+02 -0.24201265748E+02 -0.82649379279E+01  0.11869490137E+03  0.95690992855E+02 0.  0.
        -13    1    3    3    0    0  0.31398796971E+02  0.55175391182E+02 -0.39653924172E+02  0.74850797895E+02  0.00000000000E+00 0.  1.
         13    1    3    3    0    0  0.12701672730E+02 -0.36971837753E+02 -0.56015613743E+02  0.68308112695E+02  0.00000000000E+00 0. -1.
        -13    1    4    4    0    0 -0.42350001022E+02 -0.29457332020E+01 -0.50575625600E+02  0.66031006622E+02  0.00000000000E+00 0.  1.
         13    1    4    4    0    0 -0.23054150482E+02 -0.21255532546E+02  0.42310687672E+02  0.52663894744E+02  0.00000000000E+00 0. -1.
         21    1    1    2  502  501  0.21303681803E+02  0.59977123194E+01  0.17533340788E+03  0.17672471058E+03  0.00000000000E+00 0. -1.
<scales pt_clust_5="13000.00000" pt_clust_6="13000.00000" pt_clust_7="13000.00000" pt_clust_8="13000.00000" pt_clust_9="22.13186"></scales>
<clustering>
<clus scale="   22.132">  1  9  2 -1</clus>
<clus scale="   95.213">  5  6 -1 -1</clus>
<clus scale="   95.691">  7  8 -1 -1</clus>
<clus scale="  109.621">  2  5  1 -1</clus>
<clus scale="   22.132">  1  5  2 -1</clus>
</clustering>
</event>
<event>
 9    1  0.1435532E-005  0.1201043E+03  0.7546771E-02  0.1243234E+00
         -3   -1    0    0    0  501 -0.00000000000E+00  0.00000000000E+00  0.22536286157E+03  0.22536286157E+03  0.00000000000E+00 0.  1.
          3   -1    0    0  502    0  0.00000000000E+00 -0.00000000000E+00 -0.98745194893E+02  0.98745194893E+02  0.00000000000E+00 0. -1.
         23    2    1    2    0    0 -0.80132606809E+02  0.55405379165E+02  0.50670769334E+02  0.14292746679E+03  0.91486300531E+02 0.  0.
         23    2    1    2    0    0  0.65552615362E+02 -0.97550921946E+01  0.33256023904E+02  0.11700087694E+03  0.90503783758E+02 0.  0.
        -11    1    4    4    0    0 -0.19600845928E+01  0.21650471945E+02 -0.16633465157E+02  0.27372559803E+02  0.00000000000E+00 0. -1.
         11    1    4    4    0    0  0.67512699955E+02 -0.31405564140E+02  0.49889489061E+02  0.89628317138E+02  0.00000000000E+00 0.  1.
        -11    1    3    3    0    0  0.19535229860E+02  0.81573724746E+01  0.18279802389E+02  0.27969967943E+02  0.00000000000E+00 0. -1.
         11    1    3    3    0    0 -0.99667836669E+02  0.47248006690E+02  0.32390966946E+02  0.11495749885E+03  0.00000000000E+00 0.  1.
         21    1    1    2  502  501  0.14579991446E+02 -0.45650286970E+02  0.42690873443E+02  0.64179712732E+02  0.00000000000E+00 0.  1.
<scales pt_clust_5="13000.00000" pt_clust_6="13000.00000" pt_clust_7="13000.00000" pt_clust_8="13000.00000" pt_clust_9="47.92207"></scales>
<clustering>
<clus scale="   47.922">  1  9  2 -1</clus>
<clus scale="   90.504">  5  6 -1 -1</clus>
<clus scale="   91.486">  7  8 -1 -1</clus>
<clus scale="  119.358">  2  5  1 -1</clus>
<clus scale="  119.358">  2  5  1 -1</clus>
</clustering>
</event>
<event>
 9    1  0.1435532E-005  0.1305471E+03  0.7546771E-02  0.1226758E+00
         -1   -1    0    0    0  501 -0.00000000000E+00  0.00000000000E+00  0.28063370201E+03  0.28063370201E+03  0.00000000000E+00 0.  1.
          1   -1    0    0  502    0  0.00000000000E+00 -0.00000000000E+00 -0.17081942283E+03  0.17081942283E+03  0.00000000000E+00 0. -1.
         23    2    1    2    0    0  0.32986444618E+02 -0.84446808716E+02  0.20513712802E+03  0.24218564722E+03  0.91396265762E+02 0.  0.
         23    2    1    2    0    0 -0.72723307457E+02  0.87385445804E+02 -0.66367831595E+02  0.16001256030E+03  0.90963920312E+02 0.  0.
        -11    1    4    4    0    0 -0.66249028772E+02  0.12324895967E+02 -0.15610256066E+02  0.69170202893E+02  0.00000000000E+00 0. -1.
         11    1    4    4    0    0 -0.64742786854E+01  0.75060549837E+02 -0.50757575529E+02  0.90842357411E+02  0.00000000000E+00 0.  1.
        -13    1    3    3    0    0  0.50769513254E+02 -0.26702075549E+02  0.14919848245E+03  0.15984596173E+03  0.00000000000E+00 0.  1.
         13    1    3    3    0    0 -0.17783068636E+02 -0.57744733167E+02  0.55938645570E+02  0.82339685492E+02  0.00000000000E+00 0. -1.
         21    1    1    2  502  501  0.39736862840E+02 -0.29386370877E+01 -0.28955017251E+02  0.49254917321E+02  0.00000000000E+00 0.  1.
<scales pt_clust_5="13000.00000" pt_clust_6="13000.00000" pt_clust_7="13000.00000" pt_clust_8="13000.00000" pt_clust_9="39.84537"></scales>
<clustering>
<clus scale="   39.845">  2  9  1 -1</clus>
<clus scale="   90.964">  5  6 -1 -1</clus>
<clus scale="   91.396">  7  8 -1 -1</clus>
<clus scale="  130.245">  2  5  1 -1</clus>
<clus scale="   39.845">  2  5  1 -1</clus>
</clustering>
</event>
<event>
 9    1  0.1435532E-005  0.1372525E+03  0.7546771E-02  0.1217303E+00
          1   -1    0    0  502    0  0.00000000000E+00  0.00000000000E+00  0.19670256843E+03  0.19670256843E+03  0.00000000000E+00 0. -1.
         -1   -1    0    0    0  501 -0.00000000000E+00 -0.00000000000E+00 -0.44912696980E+03  0.44912696980E+03  0.00000000000E+00 0.  1.
         23    2    1    2    0    0  0.11069819135E+03 -0.16044032548E+01 -0.39026401382E+03  0.41548534366E+03  0.89807609005E+02 0.  0.
         23    2    1    2    0    0 -0.50825248156E+02 -0.29754326600E+02  0.49239421879E+02  0.11890751734E+03  0.90807220040E+02 0.  0.
        -11    1    4    4    0    0  0.12045709088E+02  0.18920998248E+02  0.29362423446E+02  0.36949359842E+02  0.00000000000E+00 0. -1.
         11    1    4    4    0    0 -0.62870957244E+02 -0.48675324847E+02  0.19876998432E+02  0.81958157498E+02  0.00000000000E+00 0.  1.
        -13    1    3    3    0    0  0.33835509157E+02  0.23355327506E+02 -0.45271811428E+02  0.61154312299E+02  0.00000000000E+00 0. -1.
         13    1    3    3    0    0  0.76862682193E+02 -0.24959730761E+02 -0.34499220239E+03  0.35433103136E+03  0.00000000000E+00 0.  1.
         21    1    1    2  502  501 -0.59872943193E+02  0.31358729855E+02  0.88600190566E+02  0.11143667723E+03  0.00000000000E+00 0. -1.
<scales pt_clust_5="13000.00000" pt_clust_6="13000.00000" pt_clust_7="13000.00000" pt_clust_8="13000.00000" pt_clust_9="67.58801"></scales>
<clustering>
<clus scale="   67.588">  1  9  2 -1</clus>
<clus scale="   89.808">  7  8 -1 -1</clus>
<clus scale="   90.807">  5  6 -1 -1</clus>
<clus scale="  136.593">  2  7  1 -1</clus>
<clus scale="   67.588">  1  5  2 -1</clus>
</clustering>
</event>
<event>
 9    1  0.1435532E-005  0.9199208E+02  0.7546771E-02  0.1301292E+00
          1   -1    0    0  502    0  0.00000000000E+00  0.00000000000E+00  0.30191451992E+03  0.30191451992E+03  0.00000000000E+00 0. -1.
         -1   -1    0    0    0  501 -0.00000000000E+00 -0.00000000000E+00 -0.19134471001E+03  0.19134471001E+03  0.00000000000E+00 0.  1.
         23    2    1    2    0    0 -0.20336927327E+00  0.56168271920E+01 -0.15223832098E+03  0.17775279322E+03  0.91585801386E+02 0.  0.
         23    2    1    2    0    0 -0.57240372797E+02 -0.28261704354E+02  0.12677467388E+03  0.16611542162E+03  0.86297920894E+02 0.  0.
        -11    1    4    4    0    0 -0.40465418963E+02 -0.49477643509E+02  0.40423629609E+02  0.75627753965E+02  0.00000000000E+00 0.  1.
         11    1    4    4    0    0 -0.16774953834E+02  0.21215939155E+02  0.86351044270E+02  0.90487667651E+02  0.00000000000E+00 0. -1.
        -13    1    3    3    0    0 -0.13751940864E+02  0.45299298266E+02 -0.10099597888E+03  0.11154071028E+03  0.00000000000E+00 0.  1.
         13    1    3    3    0    0  0.13548571590E+02 -0.39682471074E+02 -0.51242342103E+02  0.66212082937E+02  0.00000000000E+00 0. -1.
         21    1    1    2  502  501  0.57443742071E+02  0.22644877162E+02  0.13603345701E+03  0.14939101510E+03  0.00000000000E+00 0. -1.
<scales pt_clust_5="13000.00000" pt_clust_6="13000.00000" pt_clust_7="13000.00000" pt_clust_8="13000.00000" pt_clust_9="61.74604"></scales>
<clustering>
<clus scale="   61.746">  1  9  2 -1</clus>
<clus scale="   86.298">  5  6 -1 -1</clus>
<clus scale="   86.729">  1  5  2 -1</clus>
<clus scale="   91.586">  7  8 -1 -1</clus>
<clus scale="   61.746">  1  5  2 -1</clus>
</clustering>
</event>
<event>
 9    1  0.1435532E-005  0.1544723E+03  0.7546771E-02  0.1195599E+00
          2   -1    0    0  502    0  0.00000000000E+00  0.00000000000E+00  0.42503379199E+02  0.42503379199E+02  0.00000000000E+00 0. -1.
         -2   -1    0    0    0  501 -0.00000000000E+00 -0.00000000000E+00 -0.71878666357E+03  0.71878666357E+03  0.00000000000E+00 0.  1.
         23    2    1    2    0    0  0.13227754143E+03 -0.13912164605E+02 -0.45459749804E+03  0.48218949633E+03  0.90315717665E+02 0.  0.
         23    2    1    2    0    0 -0.10547959742E+03  0.17189277089E+02 -0.19523469833E+03  0.24130465611E+03  0.93219809638E+02 0.  0.
        -11    1    3    3    0    0  0.54435629084E+02  0.29002699463E+02 -0.10796536879E+03  0.12434192836E+03  0.00000000000E+00 0.  1.
         11    1    3    3    0    0  0.77841912345E+02 -0.42914864068E+02 -0.34663212925E+03  0.35784756798E+03  0.00000000000E+00 0. -1.
        -11    1    4    4    0    0  0.13851546361E+02  0.17604689195E+02 -0.27940284711E+02  0.35811310057E+02  0.00000000000E+00 0.  1.
         11    1    4    4    0    0 -0.11933114378E+03 -0.41541210577E+00 -0.16729441362E+03  0.20549334606E+03  0.00000000000E+00 0. -1.
         21    1    1    2  502  501 -0.26797944006E+02 -0.32771124840E+01 -0.26451087996E+02  0.37795890324E+02  0.00000000000E+00 0. -1.
<scales pt_clust_5="13000.00000" pt_clust_6="13000.00000" pt_clust_7="13000.00000" pt_clust_8="13000.00000" pt_clust_9="26.99758"></scales>
<clustering>
<clus scale="   26.998">  1  9  2 -1</clus>
<clus scale="   90.316">  5  6 -1 -1</clus>
<clus scale="   93.220">  7  8 -1 -1</clus>
<clus scale="  152.737">  2  5  1 -1</clus>
<clus scale="   26.998">  1  5  2 -1</clus>
</clustering>
</event>
<event>
 9    1  0.1435532E-005  0.1173925E+03  0.7546771E-02  0.1247486E+00
          1   -1    0    0  502    0  0.00000000000E+00  0.00000000000E+00  0.30847976579E+03  0.30847976579E+03  0.00000000000E+00 0. -1.
         -1   -1    0    0    0  501 -0.00000000000E+00 -0.00000000000E+00 -0.81231849373E+02  0.81231849373E+02  0.00000000000E+00 0.  1.
         23    2    1    2    0    0 -0.46341411535E+02  0.49706243989E+02  0.23589246274E+01  0.11445696442E+03  0.92068425984E+02 0.  0.
         23    2    1    2    0    0  0.46031579949E+02 -0.76885561498E+02  0.16190711745E+03  0.20665780103E+03  0.91995848420E+02 0.  0.
        -13    1    3    3    0    0 -0.59130712540E+02  0.68545956788E+02  0.83526887752E+01  0.90910707660E+02  0.00000000000E+00 0.  1.
         13    1    3    3    0    0  0.12789301005E+02 -0.18839712799E+02 -0.59937641478E+01  0.23546256755E+02  0.00000000000E+00 0. -1.
        -13    1    4    4    0    0  0.24159385154E+02  0.12220276080E+02  0.93644226173E+01  0.28647922253E+02  0.00000000000E+00 0.  1.
         13    1    4    4    0    0  0.21872194796E+02 -0.89105837577E+02  0.15254269483E+03  0.17800987878E+03  0.00000000000E+00 0. -1.
         21    1    1    2  502  501  0.30983158588E+00  0.27179317508E+02  0.62981874340E+02  0.68596849718E+02  0.00000000000E+00 0.  1.
<scales pt_clust_5="13000.00000" pt_clust_6="13000.00000" pt_clust_7="13000.00000" pt_clust_8="13000.00000" pt_clust_9="27.18108"></scales>
<clustering>
<clus scale="   27.181">  1  9  2 -1</clus>
<clus scale="   91.996">  7  8 -1 -1</clus>
<clus scale="   92.068">  5  6 -1 -1</clus>
<clus scale="  117.336">  1  7  2 -1</clus>
<clus scale="   27.181">  1  5  2 -1</clus>
</clustering>
</event>
<event>
 9    1  0.1435532E-005  0.9189187E+02  0.7546771E-02  0.1299437E+00
          1   -1    0    0  502    0  0.00000000000E+00  0.00000000000E+00  0.25336246854E+03  0.25336246854E+03  0.00000000000E+00 0. -1.
         -1   -1    0    0    0  501 -0.00000000000E+00 -0.00000000000E+00 -0.53672941183E+02  0.53672941183E+02  0.00000000000E+00 0.  1.
         23    2    1    2    0    0  0.17256061083E+02 -0.15134911268E+02  0.45265898670E+02  0.10468256700E+03  0.91556545742E+02 0.  0.
         23    2    1    2    0    0  0.93060123431E+01 -0.10501799904E+02  0.88438077993E+02  0.12674280632E+03  0.89697021399E+02 0.  0.
        -13    1    4    4    0    0 -0.36091772855E+02 -0.12002369859E+01  0.66050067059E+02  0.75277274095E+02  0.00000000000E+00 0.  1.
         13    1    4    4    0    0  0.45397785198E+02 -0.93015629183E+01  0.22388010934E+02  0.51465532225E+02  0.00000000000E+00 0. -1.
        -13    1    3    3    0    0 -0.29975201054E+02 -0.24634718069E+02  0.32827905006E+00  0.38800641486E+02  0.00000000000E+00 0.  1.
         13    1    3    3    0    0  0.47231262137E+02  0.94998068007E+01  0.44937619620E+02  0.65881925514E+02  0.00000000000E+00 0. -1.
         21    1    1    2  502  501 -0.26562073426E+02  0.25636711173E+02  0.65985550693E+02  0.75610036402E+02  0.00000000000E+00 0.  1.
<scales pt_clust_5="13000.00000" pt_clust_6="13000.00000" pt_clust_7="13000.00000" pt_clust_8="13000.00000" pt_clust_9="36.91591"></scales>
<clustering>
<clus scale="   36.916">  1  9  2 -1</clus>
<clus scale="   89.697">  5  6 -1 -1</clus>
<clus scale="   90.039">  1  5  2 -1</clus>
<clus scale="   91.557">  7  8 -1 -1</clus>
<clus scale="   36.916">  1  5  2 -1</clus>
</clustering>
</event>
<event>
 9    1  0.1435532E-005  0.9506753E+02  0.7546771E-02  0.1291069E+00
          2   -1    0    0  502    0  0.00000000000E+00  0.00000000000E+00  0.51861828106E+03  0.51861828106E+03  0.00000000000E+00 0. -1.
         -2   -1    0    0    0  501 -0.00000000000E+00 -0.00000000000E+00 -0.24940314574E+02  0.24940314574E+02  0.00000000000E+00 0.  1.
         23    2    1    2    0    0 -0.33980160364E+02  0.79628338724E+01  0.13863834700E+03  0.16957193110E+03  0.91192053027E+02 0.  0.
         23    2    1    2    0    0  0.10482147820E+02 -0.10790902629E+02  0.25560307122E+03  0.27177227369E+03  0.91109383295E+02 0.  0.
        -11    1    3    3    0    0 -0.16987376905E+02 -0.31404856017E+02  0.15032934921E+02  0.38740483836E+02  0.00000000000E+00 0.  1.
         11    1    3    3    0    0 -0.16992783459E+02  0.39367689889E+02  0.12360541208E+03  0.13083144726E+03  0.00000000000E+00 0. -1.
        -11    1    4    4    0    0 -0.34397642691E+02 -0.21610096840E+02  0.16692730933E+03  0.17179907074E+03  0.00000000000E+00 0.  1.
         11    1    4    4    0    0  0.44879790511E+02  0.10819194210E+02  0.88675761896E+02  0.99973202947E+02  0.00000000000E+00 0. -1.
         21    1    1    2  502  501  0.23498012544E+02  0.28280687568E+01  0.99436548261E+02  0.10221439085E+03  0.00000000000E+00 0. -1.
<scales pt_clust_5="13000.00000" pt_clust_6="13000.00000" pt_clust_7="13000.00000" pt_clust_8="13000.00000" pt_clust_9="23.66758"></scales>
<clustering>
<clus scale="   23.668">  1  9  2 -1</clus>
<clus scale="   91.109">  7  8 -1 -1</clus>
<clus scale="   91.192">  5  6 -1 -1</clus>
<clus scale="   94.988">  1  7  2 -1</clus>
<clus scale="   23.668">  1  5  2 -1</clus>
</clustering>
</event>
<event>
 9    1  0.1435532E-005  0.1029292E+03  0.7546771E-02  0.1275388E+00
         -2   -1    0    0    0  501 -0.00000000000E+00  0.00000000000E+00  0.63107396965E+03  0.63107396965E+03  0.00000000000E+00 0.  1.
          2   -1    0    0  502    0  0.00000000000E+00 -0.00000000000E+00 -0.21889657803E+02  0.21889657803E+02  0.00000000000E+00 0. -1.
         23    2    1    2    0    0  0.22499960727E+02 -0.42903997018E+02  0.36247354830E+03  0.37674897726E+03  0.90585415257E+02 0.  0.
         23    2    1    2    0    0 -0.32202724727E+02  0.23365624731E+02  0.21617435926E+03  0.23868647934E+03  0.93042538217E+02 0.  0.
        -13    1    3    3    0    0  0.52225337064E+02 -0.21186898274E+02  0.29039527469E+03  0.29581376921E+03  0.00000000000E+00 0.  1.
         13    1    3    3    0    0 -0.29725376338E+02 -0.21717098744E+02  0.72078273614E+02  0.80935208058E+02  0.00000000000E+00 0. -1.
        -13    1    4    4    0    0 -0.62782751279E+02  0.42738636401E+01  0.11223296736E+03  0.12867081538E+03  0.00000000000E+00 0. -1.
         13    1    4    4    0    0  0.30580026552E+02  0.19091761091E+02  0.10394139190E+03  0.11001566395E+03  0.00000000000E+00 0.  1.
         21    1    1    2  502  501  0.97027640001E+01  0.19538372287E+02  0.30536404284E+02  0.37528170851E+02  0.00000000000E+00 0. -1.
<scales pt_clust_5="13000.00000" pt_clust_6="13000.00000" pt_clust_7="13000.00000" pt_clust_8="13000.00000" pt_clust_9="21.81494"></scales>
<clustering>
<clus scale="   21.815">  2  9  1 -1</clus>
<clus scale="   90.585">  5  6 -1 -1</clus>
<clus scale="   93.043">  7  8 -1 -1</clus>
<clus scale="  100.714">  1  5  2 -1</clus>
<clus scale="   21.815">  2  5  1 -1</clus>
</clustering>
</event>
<event>
 9    1  0.1435532E-005  0.1336335E+03  0.7546771E-02  0.1222860E+00
         -2   -1    0    0    0  501 -0.00000000000E+00  0.00000000000E+00  0.18213265555E+03  0.18213265555E+03  0.00000000000E+00 0.  1.
          2   -1    0    0  502    0  0.00000000000E+00 -0.00000000000E+00 -0.18281232156E+03  0.18281232156E+03  0.00000000000E+00 0. -1.
         23    2    1    2    0    0  0.65015220367E+01 -0.91343104963E+02  0.98944441621E+02  0.16408686933E+03  0.93534301444E+02 0.  0.
         23    2    1    2    0    0  0.15183553731E+02  0.10966163508E+03 -0.68364460625E+02  0.15863280034E+03  0.90743877787E+02 0.  0.
        -11    1    3    3    0    0 -0.33220884497E+02 -0.76037712623E+02  0.42034791899E+02  0.93017657666E+02  0.00000000000E+00 0.  1.
         11    1    3    3    0    0  0.39722406534E+02 -0.15305392340E+02  0.56909649721E+02  0.71069211667E+02  0.00000000000E+00 0. -1.
        -11    1    4    4    0    0  0.39151318230E+02  0.76258570181E+02 -0.78560234667E+02  0.11627512940E+03  0.00000000000E+00 0. -1.
         11    1    4    4    0    0 -0.23967764499E+02  0.33403064899E+02  0.10195774042E+02  0.42357670947E+02  0.00000000000E+00 0.  1.
         21    1    1    2  502  501 -0.21685075768E+02 -0.18318530116E+02 -0.31259647009E+02  0.42225307433E+02  0.00000000000E+00 0. -1.
<scales pt_clust_5="13000.00000" pt_clust_6="13000.00000" pt_clust_7="13000.00000" pt_clust_8="13000.00000" pt_clust_9="28.38681"></scales>
<clustering>
<clus scale="   28.387">  2  9  1 -1</clus>
<clus scale="   90.744">  7  8 -1 -1</clus>
<clus scale="   93.534">  5  6 -1 -1</clus>
<clus scale="  131.695">  2  7  1 -1</clus>
<clus scale="   28.387">  2  5  1 -1</clus>
</clustering>
</event>
<event>
 9    1  0.1435532E-005  0.1061004E+03  0.7546771E-02  0.1268713E+00
          1   -1    0    0  502    0  0.00000000000E+00  0.00000000000E+00  0.14393521230E+03  0.14393521230E+03  0.00000000000E+00 0. -1.
         -1   -1    0    0    0  501 -0.00000000000E+00 -0.00000000000E+00 -0.23616320856E+03  0.23616320856E+03  0.00000000000E+00 0.  1.
         23    2    1    2    0    0 -0.48950044640E+02 -0.23774921829E+02 -0.18383347789E+03  0.21275905491E+03  0.92251363539E+02 0.  0.
         23    2    1    2    0    0  0.20826404142E+02  0.39672560422E+02  0.89551989579E+02  0.13496822298E+03  0.90494260685E+02 0.  0.
        -11    1    4    4    0    0 -0.35145057261E+02  0.22075684165E+02  0.28848651008E+02  0.50544589682E+02  0.00000000000E+00 0.  1.
         11    1    4    4    0    0  0.55971461402E+02  0.17596876257E+02  0.60703338572E+02  0.84423633298E+02  0.00000000000E+00 0. -1.
        -13    1    3    3    0    0  0.15674738088E+01  0.28016013227E+02 -0.89998937195E+02  0.94271749043E+02  0.00000000000E+00 0.  1.
         13    1    3    3    0    0 -0.50517518449E+02 -0.51790935056E+02 -0.93834540692E+02  0.11848730586E+03  0.00000000000E+00 0. -1.
         21    1    1    2  502  501  0.28123640498E+02 -0.15897638593E+02  0.20534920399E+01  0.32371142972E+02  0.00000000000E+00 0. -1.
<scales pt_clust_5="13000.00000" pt_clust_6="13000.00000" pt_clust_7="13000.00000" pt_clust_8="13000.00000" pt_clust_9="32.30594"></scales>
<clustering>
<clus scale="   32.306">  1  9  2 -1</clus>
<clus scale="   90.494">  5  6 -1 -1</clus>
<clus scale="   92.251">  7  8 -1 -1</clus>
<clus scale="  104.576">  1  5  2 -1</clus>
<clus scale="   32.306">  1  5  2 -1</clus>
</clustering>
</event>
<event>
 9    1  0.1435532E-005  0.1414924E+03  0.7546771E-02  0.1229706E+00
         -1   -1    0    0    0  501 -0.00000000000E+00  0.00000000000E+00  0.11987528113E+03  0.11987528113E+03  0.00000000000E+00 0.  1.
          1   -1    0    0  502    0  0.00000000000E+00 -0.00000000000E+00 -0.52185894267E+03  0.52185894267E+03  0.00000000000E+00 0. -1.
         23    2    1    2    0    0  0.37680933342E+02 -0.10388840791E+03  0.44381172577E+02  0.14984255730E+03  0.90942011549E+02 0.  0.
         23    2    1    2    0    0 -0.30148131656E+02  0.97193285969E-01 -0.27556400728E+03  0.29188596213E+03  0.91394603176E+02 0.  0.
        -11    1    4    4    0    0 -0.32107473927E+02 -0.40284031657E+02 -0.19577449456E+03  0.20243849883E+03  0.00000000000E+00 0.  1.
         11    1    4    4    0    0  0.19593422710E+01  0.40381224943E+02 -0.79789512722E+02  0.89447463298E+02  0.00000000000E+00 0. -1.
        -13    1    3    3    0    0 -0.11850880468E+02 -0.47494459455E+02  0.55458514265E+02  0.73971709804E+02  0.00000000000E+00 0. -1.
         13    1    3    3    0    0  0.49531813810E+02 -0.56393948454E+02 -0.11077341688E+02  0.75870847500E+02  0.00000000000E+00 0.  1.
         21    1    1    2  502  501 -0.75328016857E+01  0.10379121462E+03 -0.17080082683E+03  0.20000570437E+03  0.00000000000E+00 0. -1.
<scales pt_clust_5="13000.00000" pt_clust_6="13000.00000" pt_clust_7="13000.00000" pt_clust_8="13000.00000" pt_clust_9="108.39580"></scales>
<clustering>
<clus scale="   90.942">  7  8 -1 -1</clus>
<clus scale="   91.395">  5  6 -1 -1</clus>
<clus scale="   96.239">  2  5  1 -1</clus>
<clus scale="  108.396">  2  9  1 -1</clus>
<clus scale="   96.239">  2  5  1 -1</clus>
</clustering>
</event>
<event>
 9    1  0.1435532E-005  0.9394789E+02  0.7546771E-02  0.1295380E+00
          1   -1    0    0  502    0  0.00000000000E+00  0.00000000000E+00  0.16037086610E+03  0.16037086610E+03  0.00000000000E+00 0. -1.
         -1   -1    0    0    0  501 -0.00000000000E+00 -0.00000000000E+00 -0.16367126044E+03  0.16367126044E+03  0.00000000000E+00 0.  1.
         23    2    1    2    0    0  0.17451852803E+02  0.76938394011E+01 -0.99830991828E+02  0.13680647957E+03  0.91575234606E+02 0.  0.
         23    2    1    2    0    0 -0.12391631917E+02 -0.29091973416E+02  0.59734978712E+01  0.94047266445E+02  0.88370301517E+02 0.  0.
        -11    1    3    3    0    0  0.22490402371E+02 -0.31673262010E+02 -0.86696111812E+02  0.95001208037E+02  0.00000000000E+00 0.  1.
         11    1    3    3    0    0 -0.50385495683E+01  0.39367101411E+02 -0.13134880016E+02  0.41805271537E+02  0.00000000000E+00 0. -1.
        -13    1    4    4    0    0 -0.43927750293E+02  0.55471890166E+01  0.14175019254E+02  0.46490318590E+02  0.00000000000E+00 0. -1.
         13    1    4    4    0    0  0.31536118376E+02 -0.34639162433E+02 -0.82015213826E+01  0.47556947855E+02  0.00000000000E+00 0.  1.
         21    1    1    2  502  501 -0.50602208859E+01  0.21398134015E+02  0.90557099615E+02  0.93188380528E+02  0.00000000000E+00 0. -1.
<scales pt_clust_5="13000.00000" pt_clust_6="13000.00000" pt_clust_7="13000.00000" pt_clust_8="13000.00000" pt_clust_9="21.98831"></scales>
<clustering>
<clus scale="   21.988">  1  9  2 -1</clus>
<clus scale="   88.370">  7  8 -1 -1</clus>
<clus scale="   90.827">  1  7  2 -1</clus>
<clus scale="   91.575">  5  6 -1 -1</clus>
<clus scale="   21.988">  1  5  2 -1</clus>
</clustering>
</event>
<event>
 9    1  0.1435532E-005  0.2080346E+03  0.7546771E-02  0.1143176E+00
         -1   -1    0    0    0  501 -0.00000000000E+00  0.00000000000E+00  0.45774972346E+03  0.45774972346E+03  0.00000000000E+00 0.  1.
          1   -1    0    0  502    0  0.00000000000E+00 -0.00000000000E+00 -0.26747833269E+03  0.26747833269E+03  0.00000000000E+00 0. -1.
         23    2    1    2    0    0  0.14169478187E+03 -0.12854938349E+03  0.37751761470E+03  0.43272254950E+03  0.90149321878E+02 0.  0.
         23    2    1    2    0    0 -0.10879002070E+03  0.12155599802E+03 -0.13334901907E+03  0.22897174052E+03  0.89637981965E+02 0.  0.
        -11    1    4    4    0    0 -0.22913613311E+02  0.89270555582E+02 -0.84473725012E+02  0.12502030230E+03  0.00000000000E+00 0. -1.
         11    1    4    4    0    0 -0.85876407385E+02  0.32285442436E+02 -0.48875294057E+02  0.10395143822E+03  0.00000000000E+00 0.  1.
        -13    1    3    3    0    0  0.14609067637E+03 -0.92677952837E+02  0.28506310926E+03  0.33345564161E+03  0.00000000000E+00 0. -1.
         13    1    3    3    0    0 -0.43958945005E+01 -0.35871430649E+02  0.92454505439E+02  0.99266907886E+02  0.00000000000E+00 0.  1.
         21    1    1    2  502  501 -0.32904761171E+02  0.69933854682E+01 -0.53897204854E+02  0.63533766133E+02  0.00000000000E+00 0. -1.
<scales pt_clust_5="13000.00000" pt_clust_6="13000.00000" pt_clust_7="13000.00000" pt_clust_8="13000.00000" pt_clust_9="33.63972"></scales>
<clustering>
<clus scale="   33.640">  2  9  1 -1</clus>
<clus scale="   89.638">  5  6 -1 -1</clus>
<clus scale="   90.149">  7  8 -1 -1</clus>
<clus scale="  207.813">  2  5  1 -1</clus>
<clus scale="   33.640">  2  5  1 -1</clus>
</clustering>
</event>
<event>
 9    1  0.1435532E-005  0.1396004E+03  0.7546771E-02  0.1214349E+00
         -2   -1    0    0    0  501 -0.00000000000E+00  0.00000000000E+00  0.36256491556E+03  0.36256491556E+03  0.00000000000E+00 0.  1.
          2   -1    0    0  502    0  0.00000000000E+00 -0.00000000000E+00 -0.10076696218E+03  0.10076696218E+03  0.00000000000E+00 0. -1.
         23    2    1    2    0    0 -0.91999176720E+01 -0.11208115412E+03  0.19223971597E+03  0.24111711978E+03  0.92382538734E+02 0.  0.
         23    2    1    2    0    0  0.28670951863E+02  0.87440740897E+02  0.10948695355E+03  0.17141541239E+03  0.94487797930E+02 0.  0.
        -13    1    4    4    0    0  0.16868199334E+02 -0.16101189348E+02  0.39543282535E+02  0.45907032586E+02  0.00000000000E+00 0.  1.
         13    1    4    4    0    0  0.11802752529E+02  0.10354193024E+03  0.69943671018E+02  0.12550837981E+03  0.00000000000E+00 0. -1.
        -13    1    3    3    0    0  0.26859026214E+02 -0.10377528860E+02  0.81767279990E+02  0.86689033166E+02  0.00000000000E+00 0.  1.
         13    1    3    3    0    0 -0.36058943886E+02 -0.10170362526E+03  0.11047243598E+03  0.15442808662E+03  0.00000000000E+00 0. -1.
         21    1    1    2  502  501 -0.19471034191E+02  0.24640413222E+02 -0.39928716150E+02  0.50799345563E+02  0.00000000000E+00 0. -1.
<scales pt_clust_5="13000.00000" pt_clust_6="13000.00000" pt_clust_7="13000.00000" pt_clust_8="13000.00000" pt_clust_9="31.40495"></scales>
<clustering>
<clus scale="   31.405">  2  9  1 -1</clus>
<clus scale="   92.383">  7  8 -1 -1</clus>
<clus scale="   94.488">  5  6 -1 -1</clus>
<clus scale="  138.184">  1  7  2 -1</clus>
<clus scale="   31.405">  2  5  1 -1</clus>
</clustering>
</event>
<event>
 9    1  0.1435532E-005  0.1537640E+03  0.7546771E-02  0.1196303E+00
          1   -1    0    0  502    0  0.00000000000E+00  0.00000000000E+00  0.36645907905E+03  0.36645907905E+03  0.00000000000E+00 0. -1.
         -1   -1    0    0    0  501 -0.00000000000E+00 -0.00000000000E+00 -0.22271631800E+03  0.22271631800E+03  0.00000000000E+00 0.  1.
         23    2    1    2    0    0 -0.17319119191E+03 -0.53919786595E+02 -0.10175720643E+03  0.22707146749E+03  0.91128425554E+02 0.  0.
         23    2    1    2    0    0  0.11725059562E+03 -0.12646700900E+02  0.23064104021E+03  0.27389261912E+03  0.88961992791E+02 0.  0.
        -11    1    3    3    0    0 -0.20348548828E+02  0.22681883575E+02 -0.57988207401E+01  0.31018665411E+02  0.00000000000E+00 0. -1.
         11    1    3    3    0    0 -0.15284264309E+03 -0.76601670170E+02 -0.95958385688E+02  0.19605280208E+03  0.00000000000E+00 0.  1.
        -11    1    4    4    0    0  0.82982009775E+02  0.33267737920E+02  0.15594914067E+03  0.17975786717E+03  0.00000000000E+00 0. -1.
         11    1    4    4    0    0  0.34268585845E+02 -0.45914438820E+02  0.74691899537E+02  0.94134751949E+02  0.00000000000E+00 0.  1.
         21    1    1    2  502  501  0.55940596295E+02  0.66566487495E+02  0.14858927263E+02  0.88211310446E+02  0.00000000000E+00 0. -1.
<scales pt_clust_5="13000.00000" pt_clust_6="13000.00000" pt_clust_7="13000.00000" pt_clust_8="13000.00000" pt_clust_9="86.95083"></scales>
<clustering>
<clus scale="   86.951">  2  9  1 -1</clus>
<clus scale="   88.962">  7  8 -1 -1</clus>
<clus scale="   91.128">  5  6 -1 -1</clus>
<clus scale="  152.490">  1  7  2 -1</clus>
<clus scale="  152.490">  1  5  2 -1</clus>
</clustering>
</event>
<event>
 9    1  0.1435532E-005  0.1705888E+03  0.7546771E-02  0.1177572E+00
         -1   -1    0    0    0  501 -0.00000000000E+00  0.00000000000E+00  0.12921870222E+03  0.12921870222E+03  0.00000000000E+00 0.  1.
          1   -1    0    0  502    0  0.00000000000E+00 -0.00000000000E+00 -0.39055882599E+03  0.39055882599E+03  0.00000000000E+00 0. -1.
         23    2    1    2    0    0  0.66089765850E+02  0.14188227451E+03 -0.12538903263E+02  0.18121087192E+03  0.90452855317E+02 0.  0.
         23    2    1    2    0    0 -0.19206850439E+02 -0.12407983217E+03 -0.11007531211E+03  0.19105458095E+03  0.92847028543E+02 0.  0.
        -11    1    4    4    0    0 -0.50965086579E+02 -0.10301409536E+03 -0.98105318807E+02  0.15110922364E+03  0.00000000000E+00 0.  1.
         11    1    4    4    0    0  0.31758236140E+02 -0.21065736817E+02 -0.11969993298E+02  0.39945357301E+02  0.00000000000E+00 0. -1.
        -11    1    3    3    0    0  0.27561809857E+02  0.13803087132E+03 -0.82626898621E+00  0.14075815259E+03  0.00000000000E+00 0. -1.
         11    1    3    3    0    0  0.38527955992E+02  0.38514031950E+01 -0.11712634277E+02  0.40452719330E+02  0.00000000000E+00 0.  1.
         21    1    1    2  502  501 -0.46882915410E+02 -0.17802442338E+02 -0.13872590840E+03  0.14751207534E+03  0.00000000000E+00 0. -1.
<scales pt_clust_5="13000.00000" pt_clust_6="13000.00000" pt_clust_7="13000.00000" pt_clust_8="13000.00000" pt_clust_9="50.14912"></scales>
<clustering>
<clus scale="   50.149">  2  9  1 -1</clus>
<clus scale="   90.453">  7  8 -1 -1</clus>
<clus scale="   92.847">  5  6 -1 -1</clus>
<clus scale="  169.298">  1  7  2 -1</clus>
<clus scale="   50.149">  2  5  1 -1</clus>
</clustering>
</event>
<event>
 9    1  0.1435532E-005  0.1030887E+03  0.7546771E-02  0.1274169E+00
         -1   -1    0    0    0  501 -0.00000000000E+00  0.00000000000E+00  0.23068047894E+03  0.23068047894E+03  0.00000000000E+00 0.  1.
          1   -1    0    0  502    0  0.00000000000E+00 -0.00000000000E+00 -0.77689644910E+02  0.77689644910E+02  0.00000000000E+00 0. -1.
         23    2    1    2    0    0 -0.16303624562E+02  0.51058833419E+02  0.15276413815E+03  0.18597565570E+03  0.91527318146E+02 0.  0.
         23    2    1    2    0    0  0.93846819986E+01 -0.26579305503E+02 -0.81501259474E+01  0.95612194212E+02  0.90998546097E+02 0.  0.
        -11    1    3    3    0    0 -0.46635942565E+02  0.24630056624E+01  0.87143322145E+02  0.98868276663E+02  0.00000000000E+00 0. -1.
         11    1    3    3    0    0  0.30332318003E+02  0.48595827756E+02  0.65620816002E+02  0.87107379042E+02  0.00000000000E+00 0.  1.
        -11    1    4    4    0    0  0.38756888361E+02 -0.28470884960E+01 -0.32517143129E+02  0.50671164439E+02  0.00000000000E+00 0. -1.
         11    1    4    4    0    0 -0.29372206363E+02 -0.23732217007E+02  0.24367017182E+02  0.44941029772E+02  0.00000000000E+00 0.  1.
         21    1    1    2  502  501  0.69189425632E+01 -0.24479527916E+02  0.83768218319E+01  0.26782273936E+02  0.00000000000E+00 0. -1.
<scales pt_clust_5="13000.00000" pt_clust_6="13000.00000" pt_clust_7="13000.00000" pt_clust_8="13000.00000" pt_clust_9="25.43853"></scales>
<clustering>
<clus scale="   25.439">  2  9  1 -1</clus>
<clus scale="   90.999">  7  8 -1 -1</clus>
<clus scale="   91.527">  5  6 -1 -1</clus>
<clus scale="  102.620">  2  7  1 -1</clus>
<clus scale="   25.439">  2  5  1 -1</clus>
</clustering>
</event>
<event>
 9    1  0.1435532E-005  0.1764429E+03  0.7546771E-02  0.1171788E+00
          1   -1    0    0  502    0  0.00000000000E+00  0.00000000000E+00  0.34877037168E+03  0.34877037168E+03  0.00000000000E+00 0. -1.
         -1   -1    0    0    0  501 -0.00000000000E+00 -0.00000000000E+00 -0.14469406126E+03  0.14469406126E+03  0.00000000000E+00 0.  1.
         23    2    1    2    0    0  0.12348819565E+03 -0.10273552687E+03  0.11981728859E+02  0.18532909154E+03  0.91648171830E+02 0.  0.
         23    2    1    2    0    0 -0.12897982087E+03  0.57280051639E+02  0.74846968489E+02  0.18226492808E+03  0.87758969947E+02 0.  0.
        -11    1    3    3    0    0 -0.91231126140E+01 -0.33333141273E+02  0.86153326201E+01  0.35616757952E+02  0.00000000000E+00 0.  1.
         11    1    3    3    0    0  0.13261130826E+03 -0.69402385602E+02  0.33663962385E+01  0.14971233359E+03  0.00000000000E+00 0. -1.
        -11    1    4    4    0    0 -0.73033793139E+02 -0.17890939595E+01  0.20367098682E+01  0.73084088450E+02  0.00000000000E+00 0.  1.
         11    1    4    4    0    0 -0.55946027734E+02  0.59069145599E+02  0.72810258621E+02  0.10918083963E+03  0.00000000000E+00 0. -1.
         21    1    1    2  502  501  0.54916252259E+01  0.45455475235E+02  0.11724761308E+03  0.12587041332E+03  0.00000000000E+00 0. -1.
<scales pt_clust_5="13000.00000" pt_clust_6="13000.00000" pt_clust_7="13000.00000" pt_clust_8="13000.00000" pt_clust_9="45.78600"></scales>
<clustering>
<clus scale="   45.786">  1  9  2 -1</clus>
<clus scale="   87.759">  7  8 -1 -1</clus>
<clus scale="   91.648">  5  6 -1 -1</clus>
<clus scale="  174.454">  1  7  2 -1</clus>
<clus scale="   45.786">  1  5  2 -1</clus>
</clustering>
</event>
<event>
 9    1  0.1435532E-005  0.1040042E+03  0.7546771E-02  0.1275399E+00
          1   -1    0    0  502    0  0.00000000000E+00  0.00000000000E+00  0.41769252252E+03  0.41769252252E+03  0.00000000000E+00 0. -1.
         -1   -1    0    0    0  501 -0.00000000000E+00 -0.00000000000E+00 -0.59876081804E+02  0.59876081804E+02  0.00000000000E+00 0.  1.
         23    2    1    2    0    0  0.58928377960E+02 -0.31133871920E+01  0.34256178142E+02  0.11470286779E+03  0.92200950264E+02 0.  0.
         23    2    1    2    0    0 -0.32020207518E+02 -0.79328259476E+01  0.91943237517E+02  0.12942941811E+03  0.84912849033E+02 0.  0.
        -13    1    4    4    0    0  0.10435222932E+02 -0.34886252173E+02  0.19683803111E+02  0.41393194770E+02  0.00000000000E+00 0. -1.
         13    1    4    4    0    0 -0.42455430450E+02  0.26953426225E+02  0.72259434406E+02  0.88036223344E+02  0.00000000000E+00 0.  1.
        -13    1    3    3    0    0  0.40365467315E+02  0.16260343629E+02 -0.24621348812E+02  0.49999805438E+02  0.00000000000E+00 0.  1.
         13    1    3    3    0    0  0.18562910645E+02 -0.19373730821E+02  0.58877526954E+02  0.64703062352E+02  0.00000000000E+00 0. -1.
         21    1    1    2  502  501 -0.26908170443E+02  0.11046213140E+02  0.23161702506E+03  0.23343631842E+03  0.00000000000E+00 0. -1.
<scales pt_clust_5="13000.00000" pt_clust_6="13000.00000" pt_clust_7="13000.00000" pt_clust_8="13000.00000" pt_clust_9="29.08726"></scales>
<clustering>
<clus scale="   29.087">  1  9  2 -1</clus>
<clus scale="   84.913">  5  6 -1 -1</clus>
<clus scale="   92.201">  7  8 -1 -1</clus>
<clus scale="   97.602">  1  5  2 -1</clus>
<clus scale="   29.087">  1  5  2 -1</clus>
</clustering>
</event>
<event>
 9    1  0.1435532E-005  0.4157486E+03  0.7546771E-02  0.1038520E+00
          1   -1    0    0  502    0  0.00000000000E+00  0.00000000000E+00  0.10541465879E+04  0.10541465879E+04  0.00000000000E+00 0. -1.
         -1   -1    0    0    0  501 -0.00000000000E+00 -0.00000000000E+00 -0.27305959210E+03  0.27305959210E+03  0.00000000000E+00 0.  1.
         23    2    1    2    0    0  0.39513464883E+03 -0.12177202706E+03  0.92429877860E+02  0.43275051138E+03  0.88147067451E+02 0.  0.
         23    2    1    2    0    0 -0.32355965367E+03  0.24632187627E+03  0.43187176004E+03  0.60022044826E+03  0.91575396164E+02 0.  0.
        -11    1    3    3    0    0  0.15137865842E+03 -0.91976992915E+02  0.35033023940E+02  0.18056184042E+03  0.00000000000E+00 0.  1.
         11    1    3    3    0    0  0.24375599041E+03 -0.29795034150E+02  0.57396853920E+02  0.25218867096E+03  0.00000000000E+00 0. -1.
        -11    1    4    4    0    0 -0.17579398281E+03  0.15133712414E+03  0.18228841633E+03  0.29501782364E+03  0.00000000000E+00 0.  1.
         11    1    4    4    0    0 -0.14776567086E+03  0.94984752126E+02  0.24958334371E+03  0.30520262463E+03  0.00000000000E+00 0. -1.
         21    1    1    2  502  501 -0.71574995160E+02 -0.12454984920E+03  0.25678535791E+03  0.29423522037E+03  0.00000000000E+00 0.  1.
<scales pt_clust_5="13000.00000" pt_clust_6="13000.00000" pt_clust_7="13000.00000" pt_clust_8="13000.00000" pt_clust_9="143.65112"></scales>
<clustering>
<clus scale="   88.147">  5  6 -1 -1</clus>
<clus scale="   91.575">  7  8 -1 -1</clus>
<clus scale="  143.651">  1  9  2 -1</clus>
<clus scale="  415.007">  2  5  1 -1</clus>
<clus scale="  143.651">  1  5  2 -1</clus>
</clustering>
</event>
<event>
 9    1  0.1435532E-005  0.1071842E+03  0.7546771E-02  0.1266566E+00
         -1   -1    0    0    0  501 -0.00000000000E+00  0.00000000000E+00  0.63720906220E+02  0.63720906220E+02  0.00000000000E+00 0.  1.
          1   -1    0    0  502    0  0.00000000000E+00 -0.00000000000E+00 -0.44936812235E+03  0.44936812235E+03  0.00000000000E+00 0. -1.
         23    2    1    2    0    0 -0.94229113723E+01  0.58239748738E+02 -0.10071677027E+02  0.10753055381E+03  0.89334885301E+02 0.  0.
         23    2    1    2    0    0  0.38729648639E+02 -0.40239934227E+02 -0.20081285198E+03  0.22744369441E+03  0.91025241637E+02 0.  0.
        -11    1    4    4    0    0  0.48228707711E+02  0.15082965471E+02 -0.89573214720E+02  0.10284388601E+03  0.00000000000E+00 0.  1.
         11    1    4    4    0    0 -0.94990590721E+01 -0.55322899698E+02 -0.11123963726E+03  0.12459980840E+03  0.00000000000E+00 0. -1.
        -13    1    3    3    0    0 -0.11992863657E+02 -0.21631552797E+02 -0.12222860942E+02  0.27588968533E+02  0.00000000000E+00 0. -1.
         13    1    3    3    0    0  0.25699522850E+01  0.79871301535E+02  0.21511839147E+01  0.79941585272E+02  0.00000000000E+00 0.  1.
         21    1    1    2  502  501 -0.29306737267E+02 -0.17999814512E+02 -0.17476268712E+03  0.17811478036E+03  0.00000000000E+00 0. -1.
<scales pt_clust_5="13000.00000" pt_clust_6="13000.00000" pt_clust_7="13000.00000" pt_clust_8="13000.00000" pt_clust_9="34.39300"></scales>
<clustering>
<clus scale="   34.393">  2  9  1 -1</clus>
<clus scale="   89.335">  7  8 -1 -1</clus>
<clus scale="   91.025">  5  6 -1 -1</clus>
<clus scale="  105.752">  1  7  2 -1</clus>
<clus scale="   34.393">  2  5  1 -1</clus>
</clustering>
</event>
<event>
 9    1  0.1435532E-005  0.1921160E+03  0.7546771E-02  0.1158138E+00
         -1   -1    0    0    0  501 -0.00000000000E+00  0.00000000000E+00  0.49328146290E+03  0.49328146290E+03  0.00000000000E+00 0.  1.
          1   -1    0    0  502    0  0.00000000000E+00 -0.00000000000E+00 -0.12644258151E+03  0.12644258151E+03  0.00000000000E+00 0. -1.
         23    2    1    2    0    0  0.13022452793E+03  0.93254546630E+02  0.33383282926E+03  0.38117167761E+03  0.90513268526E+02 0.  0.
         23    2    1    2    0    0 -0.11387855550E+03 -0.12518341227E+03  0.38359216262E+02  0.20228530679E+03  0.10396491599E+03 0.  0.
        -13    1    4    4    0    0 -0.45309177159E+02  0.81793011291E+01  0.23219243480E+02  0.51565063460E+02  0.00000000000E+00 0.  1.
         13    1    4    4    0    0 -0.68569378342E+02 -0.13336271340E+03  0.15139972781E+02  0.15072024333E+03  0.00000000000E+00 0. -1.
        -13    1    3    3    0    0  0.75995234050E+02  0.94192758358E+02  0.27864388131E+03  0.30379263309E+03  0.00000000000E+00 0.  1.
         13    1    3    3    0    0  0.54229293877E+02 -0.93821172822E+00  0.55188947948E+02  0.77379044522E+02  0.00000000000E+00 0. -1.
         21    1    1    2  502  501 -0.16345972425E+02  0.31928865645E+02 -0.53531641363E+01  0.36267060015E+02  0.00000000000E+00 0. -1.
<scales pt_clust_5="13000.00000" pt_clust_6="13000.00000" pt_clust_7="13000.00000" pt_clust_8="13000.00000" pt_clust_9="35.86981"></scales>
<clustering>
<clus scale="   35.870">  2  9  1 -1</clus>
<clus scale="   90.513">  7  8 -1 -1</clus>
<clus scale="  103.965">  5  6 -1 -1</clus>
<clus scale="  185.182">  1  7  2 -1</clus>
<clus scale="   35.870">  2  5  1 -1</clus>
</clustering>
</event>
<event>
 9    1  0.1435532E-005  0.1211233E+03  0.7546771E-02  0.1242093E+00
          1   -1    0    0  502    0  0.00000000000E+00  0.00000000000E+00  0.15429730848E+03  0.15429730848E+03  0.00000000000E+00 0. -1.
         -1   -1    0    0    0  501 -0.00000000000E+00 -0.00000000000E+00 -0.21004597731E+03  0.21004597731E+03  0.00000000000E+00 0.  1.
         23    2    1    2    0    0  0.65975673990E+02  0.11695592161E+02 -0.88340339268E+02  0.14047826997E+03  0.86258636424E+02 0.  0.
         23    2    1    2    0    0 -0.12561255475E+03 -0.23744203301E+02  0.20990217779E+01  0.15580968392E+03  0.89050270125E+02 0.  0.
        -13    1    4    4    0    0 -0.34220919901E+02 -0.42525235258E+02  0.24540459402E+02  0.59847315231E+02  0.00000000000E+00 0. -1.
         13    1    4    4    0    0 -0.91391634847E+02  0.18781031957E+02 -0.22441437624E+02  0.95962368687E+02  0.00000000000E+00 0.  1.
        -13    1    3    3    0    0  0.47644697992E+02  0.43992756423E+02 -0.30310788379E+02  0.71582985105E+02  0.00000000000E+00 0. -1.
         13    1    3    3    0    0  0.18330975999E+02 -0.32297164262E+02 -0.58029550888E+02  0.68895284866E+02  0.00000000000E+00 0.  1.
         21    1    1    2  502  501  0.59636880758E+02  0.12048611139E+02  0.30492648658E+02  0.68055331893E+02  0.00000000000E+00 0. -1.
<scales pt_clust_5="13000.00000" pt_clust_6="13000.00000" pt_clust_7="13000.00000" pt_clust_8="13000.00000" pt_clust_9="60.84182"></scales>
<clustering>
<clus scale="   60.842">  1  9  2 -1</clus>
<clus scale="   86.259">  7  8 -1 -1</clus>
<clus scale="   89.050">  5  6 -1 -1</clus>
<clus scale="  119.086">  2  7  1 -1</clus>
<clus scale="   60.842">  1  5  2 -1</clus>
</clustering>
</event>
<event>
 9    1  0.1435532E-005  0.1036486E+03  0.7546771E-02  0.1273718E+00
         -2   -1    0    0    0  501 -0.00000000000E+00  0.00000000000E+00  0.16517650994E+03  0.16517650994E+03  0.00000000000E+00 0.  1.
          2   -1    0    0  502    0  0.00000000000E+00 -0.00000000000E+00 -0.80182464960E+02  0.80182464960E+02  0.00000000000E+00 0. -1.
         23    2    1    2    0    0 -0.21002465892E+02 -0.48887410686E+02  0.53557335683E+02  0.11854153331E+03  0.91392693459E+02 0.  0.
         23    2    1    2    0    0  0.34246511149E+02  0.30953053114E+02  0.25395926387E+02  0.10371902228E+03  0.89340738093E+02 0.  0.
        -11    1    3    3    0    0  0.23770752468E+02 -0.31642468181E+02 -0.81189866393E+01  0.40400648627E+02  0.00000000000E+00 0. -1.
         11    1    3    3    0    0 -0.44773218360E+02 -0.17244942505E+02  0.61676322322E+02  0.78140884686E+02  0.00000000000E+00 0.  1.
        -13    1    4    4    0    0  0.56607868891E+02 -0.50797589190E+01  0.62105641560E+01  0.57173646711E+02  0.00000000000E+00 0. -1.
         13    1    4    4    0    0 -0.22361357742E+02  0.36032812033E+02  0.19185362231E+02  0.46545375570E+02  0.00000000000E+00 0.  1.
         21    1    1    2  502  501 -0.13244045257E+02  0.17934357572E+02  0.60407829117E+01  0.23098419307E+02  0.00000000000E+00 0. -1.
<scales pt_clust_5="13000.00000" pt_clust_6="13000.00000" pt_clust_7="13000.00000" pt_clust_8="13000.00000" pt_clust_9="22.29453"></scales>
<clustering>
<clus scale="   22.295">  2  9  1 -1</clus>
<clus scale="   89.341">  7  8 -1 -1</clus>
<clus scale="   91.393">  5  6 -1 -1</clus>
<clus scale="  101.844">  2  7  1 -1</clus>
<clus scale="   22.295">  2  5  1 -1</clus>
</clustering>
</event>
<event>
 9    1  0.1435532E-005  0.9314643E+02  0.7546771E-02  0.1299406E+00
          1   -1    0    0  502    0  0.00000000000E+00  0.00000000000E+00  0.20797473023E+02  0.20797473023E+02  0.00000000000E+00 0. -1.
         -1   -1    0    0    0  501 -0.00000000000E+00 -0.00000000000E+00 -0.65211081578E+03  0.65211081578E+03  0.00000000000E+00 0.  1.
         23    2    1    2    0    0 -0.28819898285E+02  0.99732906669E+01 -0.27555777138E+03  0.28997415723E+03  0.84987489855E+02 0.  0.
         23    2    1    2    0    0 -0.14351516936E+00  0.23255782486E+02 -0.27643171406E+03  0.29218544033E+03  0.91744138711E+02 0.  0.
        -13    1    3    3    0    0  0.26449732998E+02 -0.12095069048E+02 -0.11856143681E+03  0.12207658813E+03  0.00000000000E+00 0.  1.
         13    1    3    3    0    0 -0.55269631284E+02  0.22068359715E+02 -0.15699633457E+03  0.16789756910E+03  0.00000000000E+00 0. -1.
        -13    1    4    4    0    0  0.33444735294E+01  0.58815763268E+02 -0.17343882644E+03  0.18317070188E+03  0.00000000000E+00 0.  1.
         13    1    4    4    0    0 -0.34879886987E+01 -0.35559980782E+02 -0.10299288762E+03  0.10901473845E+03  0.00000000000E+00 0. -1.
         21    1    1    2  502  501  0.28963413455E+02 -0.33229073153E+02 -0.79323857317E+02  0.90748691236E+02  0.00000000000E+00 0.  1.
<scales pt_clust_5="13000.00000" pt_clust_6="13000.00000" pt_clust_7="13000.00000" pt_clust_8="13000.00000" pt_clust_9="44.08005"></scales>
<clustering>
<clus scale="   44.080">  1  9  2 -1</clus>
<clus scale="   84.987">  5  6 -1 -1</clus>
<clus scale="   86.499">  2  5  1 -1</clus>
<clus scale="   91.744">  7  8 -1 -1</clus>
<clus scale="   44.080">  1  5  2 -1</clus>
</clustering>
</event>
<event>
 9    1  0.1435532E-005  0.1782313E+03  0.7546771E-02  0.1169683E+00
          2   -1    0    0  502    0  0.00000000000E+00  0.00000000000E+00  0.53234681361E+03  0.53234681361E+03  0.00000000000E+00 0. -1.
         -2   -1    0    0    0  501 -0.00000000000E+00 -0.00000000000E+00 -0.96779297668E+02  0.96779297668E+02  0.00000000000E+00 0.  1.
         23    2    1    2    0    0  0.11644928232E+03  0.10937915634E+03  0.11512620742E+03  0.21687747163E+03  0.90871111313E+02 0.  0.
         23    2    1    2    0    0 -0.12313590220E+03 -0.81991760393E+02  0.12161810552E+03  0.21143667189E+03  0.89606938600E+02 0.  0.
        -11    1    3    3    0    0 -0.14666080002E+02  0.21188937975E+02  0.17069645705E+02  0.30910156901E+02  0.00000000000E+00 0.  1.
         11    1    3    3    0    0  0.13111536232E+03  0.88190218364E+02  0.98056561711E+02  0.18596731473E+03  0.00000000000E+00 0. -1.
        -11    1    4    4    0    0 -0.60820655404E+02 -0.67544598714E+02  0.22778512742E+02  0.93703178078E+02  0.00000000000E+00 0.  1.
         11    1    4    4    0    0 -0.62315246801E+02 -0.14447161679E+02  0.98839592779E+02  0.11773349381E+03  0.00000000000E+00 0. -1.
         21    1    1    2  502  501  0.66866198833E+01 -0.27387395946E+02  0.19882320301E+03  0.20081196776E+03  0.00000000000E+00 0. -1.
<scales pt_clust_5="13000.00000" pt_clust_6="13000.00000" pt_clust_7="13000.00000" pt_clust_8="13000.00000" pt_clust_9="28.19185"></scales>
<clustering>
<clus scale="   28.192">  1  9  2 -1</clus>
<clus scale="   89.607">  7  8 -1 -1</clus>
<clus scale="   90.871">  5  6 -1 -1</clus>
<clus scale="  177.590">  1  7  2 -1</clus>
<clus scale="   28.192">  1  5  2 -1</clus>
</clustering>
</event>
<event>
 9    1  0.1435532E-005  0.9725840E+02  0.7546771E-02  0.1287425E+00
          1   -1    0    0  502    0  0.00000000000E+00  0.00000000000E+00  0.59583477025E+02  0.59583477025E+02  0.00000000000E+00 0. -1.
         -1   -1    0    0    0  501 -0.00000000000E+00 -0.00000000000E+00 -0.42013730905E+03  0.42013730905E+03  0.00000000000E+00 0.  1.
         23    2    1    2    0    0  0.23181081544E+02 -0.13497738810E+02 -0.29224845892E+03  0.30726931928E+03  0.91025937680E+02 0.  0.
         23    2    1    2    0    0 -0.44694902245E+02  0.48930979866E+02 -0.70070957033E+02  0.13096078906E+03  0.88594097849E+02 0.  0.
        -11    1    4    4    0    0 -0.28356885436E+02 -0.17271884008E+01  0.13832465096E+02  0.31597993956E+02  0.00000000000E+00 0. -1.
         11    1    4    4    0    0 -0.16338016808E+02  0.50658168266E+02 -0.83903422128E+02  0.99362795101E+02  0.00000000000E+00 0.  1.
        -13    1    3    3    0    0 -0.21316162333E+02 -0.35163320961E+02 -0.17928214629E+03  0.18393728794E+03  0.00000000000E+00 0.  1.
         13    1    3    3    0    0  0.44497243877E+02  0.21665582151E+02 -0.11296631264E+03  0.12333203134E+03  0.00000000000E+00 0. -1.
         21    1    1    2  502  501  0.21513820701E+02 -0.35433241056E+02  0.17655839314E+01  0.41490677742E+02  0.00000000000E+00 0.  1.
<scales pt_clust_5="13000.00000" pt_clust_6="13000.00000" pt_clust_7="13000.00000" pt_clust_8="13000.00000" pt_clust_9="41.45309"></scales>
<clustering>
<clus scale="   41.453">  1  9  2 -1</clus>
<clus scale="   88.594">  5  6 -1 -1</clus>
<clus scale="   91.026">  7  8 -1 -1</clus>
<clus scale="   94.986">  1  5  2 -1</clus>
<clus scale="   41.453">  1  5  2 -1</clus>
</clustering>
</event>
<event>
 9    1  0.1435532E-005  0.1154610E+03  0.7546771E-02  0.1250846E+00
         -1   -1    0    0    0  501 -0.00000000000E+00  0.00000000000E+00  0.31009028133E+02  0.31009028133E+02  0.00000000000E+00 0.  1.
          1   -1    0    0  502    0  0.00000000000E+00 -0.00000000000E+00 -0.97511547359E+03  0.97511547359E+03  0.00000000000E+00 0. -1.
         23    2    1    2    0    0 -0.16698263502E+02  0.50844683815E+02 -0.20482060208E+03  0.23028611951E+03  0.90643278435E+02 0.  0.
         23    2    1    2    0    0 -0.40806392382E+02 -0.11081295620E+03 -0.40992991937E+03  0.43616456247E+03  0.90842246990E+02 0.  0.
        -11    1    4    4    0    0 -0.20378192012E+02 -0.11836829185E+03 -0.38375834974E+03  0.40211539913E+03  0.00000000000E+00 0.  1.
         11    1    4    4    0    0 -0.20428200370E+02  0.75553356444E+01 -0.26171569630E+02  0.34049163337E+02  0.00000000000E+00 0. -1.
        -11    1    3    3    0    0  0.24590312684E+02  0.44333853468E+02 -0.55250517628E+02  0.74985290153E+02  0.00000000000E+00 0.  1.
         11    1    3    3    0    0 -0.41288576186E+02  0.65108303469E+01 -0.14957008445E+03  0.15530082935E+03  0.00000000000E+00 0. -1.
         21    1    1    2  502  501  0.57504655885E+02  0.59968272387E+02 -0.32935592401E+03  0.33967381975E+03  0.00000000000E+00 0.  1.
<scales pt_clust_5="13000.00000" pt_clust_6="13000.00000" pt_clust_7="13000.00000" pt_clust_8="13000.00000" pt_clust_9="83.08417"></scales>
<clustering>
<clus scale="   83.084">  2  9  1 -1</clus>
<clus scale="   90.643">  7  8 -1 -1</clus>
<clus scale="   90.842">  5  6 -1 -1</clus>
<clus scale="  115.305">  1  7  2 -1</clus>
<clus scale="   83.084">  2  5  1 -1</clus>
</clustering>
</event>
<event>
 9    1  0.1435532E-005  0.1882123E+03  0.7546771E-02  0.1185824E+00
          2   -1    0    0  502    0  0.00000000000E+00  0.00000000000E+00  0.33252598789E+03  0.33252598789E+03  0.00000000000E+00 0. -1.
         -2   -1    0    0    0  501 -0.00000000000E+00 -0.00000000000E+00 -0.69696762055E+03  0.69696762055E+03  0.00000000000E+00 0.  1.
         23    2    1    2    0    0 -0.50416815157E+02 -0.17972158512E+01 -0.34472703828E+03  0.36029629616E+03  0.91823770715E+02 0.  0.
         23    2    1    2    0    0  0.19868728254E+03  0.63820702888E+02 -0.28122877401E+03  0.36224338970E+03  0.92633318464E+02 0.  0.
        -11    1    4    4    0    0  0.17232413254E+03  0.22871069261E+02 -0.24961102674E+03  0.30417816676E+03  0.00000000000E+00 0.  1.
         11    1    4    4    0    0  0.26363150003E+02  0.40949633627E+02 -0.31617747263E+02  0.58065222933E+02  0.00000000000E+00 0. -1.
        -11    1    3    3    0    0 -0.24873353110E+02 -0.46047617132E+02 -0.20309839059E+03  0.20973321864E+03  0.00000000000E+00 0.  1.
         11    1    3    3    0    0 -0.25543462046E+02  0.44250401281E+02 -0.14162864769E+03  0.15056307752E+03  0.00000000000E+00 0. -1.
         21    1    1    2  502  501 -0.14827046739E+03 -0.62023487037E+02  0.26151417963E+03  0.30695392259E+03  0.00000000000E+00 0. -1.
<scales pt_clust_5="13000.00000" pt_clust_6="13000.00000" pt_clust_7="13000.00000" pt_clust_8="13000.00000" pt_clust_9="163.83817"></scales>
<clustering>
<clus scale="   91.824">  7  8 -1 -1</clus>
<clus scale="   92.633">  5  6 -1 -1</clus>
<clus scale="  104.770">  2  7  1 -1</clus>
<clus scale="  163.838">  1  9  2 -1</clus>
<clus scale="  163.838">  1  5  2 -1</clus>
</clustering>
</event>
<event>
 9    1  0.1435532E-005  0.1020651E+03  0.7546771E-02  0.1279615E+00
          1   -1    0    0  502    0  0.00000000000E+00  0.00000000000E+00  0.39724807063E+03  0.39724807063E+03  0.00000000000E+00 0. -1.
         -1   -1    0    0    0  501 -0.00000000000E+00 -0.00000000000E+00 -0.66505602957E+02  0.66505602957E+02  0.00000000000E+00 0.  1.
         23    2    1    2    0    0 -0.13933470725E+02  0.30600330813E+02  0.39913056530E+02  0.11041011594E+03  0.97297583570E+02 0.  0.
         23    2    1    2    0    0  0.34847936617E+02 -0.71668511467E+01  0.47386526034E+02  0.10788280485E+03  0.90152505737E+02 0.  0.
        -11    1    3    3    0    0  0.95656741475E+01  0.40695252663E+02 -0.19199117923E+02  0.46002302554E+02  0.00000000000E+00 0.  1.
         11    1    3    3    0    0 -0.23499144872E+02 -0.10094921851E+02  0.59112174453E+02  0.64407813388E+02  0.00000000000E+00 0. -1.
        -13    1    4    4    0    0 -0.30438072145E+02 -0.84422450072E+01  0.16774407320E+02  0.35764905671E+02  0.00000000000E+00 0. -1.
         13    1    4    4    0    0  0.65286008763E+02  0.12753938605E+01  0.30612118713E+02  0.72117899178E+02  0.00000000000E+00 0.  1.
         21    1    1    2  502  501 -0.20914465893E+02 -0.23433479666E+02  0.24344288511E+03  0.24546075279E+03  0.00000000000E+00 0. -1.
<scales pt_clust_5="13000.00000" pt_clust_6="13000.00000" pt_clust_7="13000.00000" pt_clust_8="13000.00000" pt_clust_9="31.40928"></scales>
<clustering>
<clus scale="   31.409">  1  9  2 -1</clus>
<clus scale="   90.153">  7  8 -1 -1</clus>
<clus scale="   95.278">  1  7  2 -1</clus>
<clus scale="   97.298">  5  6 -1 -1</clus>
<clus scale="   31.409">  1  5  2 -1</clus>
</clustering>
</event>
<event>
 9    1  0.1435532E-005  0.9234437E+02  0.7546771E-02  0.1297570E+00
          1   -1    0    0  502    0  0.00000000000E+00  0.00000000000E+00  0.63341024660E+03  0.63341024660E+03  0.00000000000E+00 0. -1.
         -1   -1    0    0    0  501 -0.00000000000E+00 -0.00000000000E+00 -0.56245500252E+02  0.56245500252E+02  0.00000000000E+00 0.  1.
         23    2    1    2    0    0 -0.13164873239E+02 -0.18410033025E+02  0.19605863244E+02  0.95271214880E+02  0.90443193817E+02 0.  0.
         23    2    1    2    0    0  0.30922106328E+02 -0.31708100589E+02  0.13318104643E+03  0.16668873482E+03  0.89924206329E+02 0.  0.
        -11    1    3    3    0    0 -0.52215056805E+02 -0.10305446102E+02  0.87398913101E+01  0.53935146951E+02  0.00000000000E+00 0.  1.
         11    1    3    3    0    0  0.39050183566E+02 -0.81045869233E+01  0.10865971934E+02  0.41336067929E+02  0.00000000000E+00 0. -1.
        -13    1    4    4    0    0  0.32437764881E+02  0.34399010798E+01  0.12680698772E+03  0.13093530328E+03  0.00000000000E+00 0. -1.
         13    1    4    4    0    0 -0.15156585528E+01 -0.35148001669E+02  0.63740587064E+01  0.35753431535E+02  0.00000000000E+00 0.  1.
         21    1    1    2  502  501 -0.17757233089E+02  0.50118133613E+02  0.42437783667E+03  0.42769579715E+03  0.00000000000E+00 0.  1.
<scales pt_clust_5="13000.00000" pt_clust_6="13000.00000" pt_clust_7="13000.00000" pt_clust_8="13000.00000" pt_clust_9="53.17092"></scales>
<clustering>
<clus scale="   53.171">  1  9  2 -1</clus>
<clus scale="   89.924">  7  8 -1 -1</clus>
<clus scale="   90.443">  5  6 -1 -1</clus>
<clus scale="   91.836">  1  7  2 -1</clus>
<clus scale="   53.171">  1  5  2 -1</clus>
</clustering>
</event>
<event>
 9    1  0.1435532E-005  0.1370094E+03  0.7546771E-02  0.1221379E+00
          2   -1    0    0  502    0  0.00000000000E+00  0.00000000000E+00  0.55877301764E+03  0.55877301764E+03  0.00000000000E+00 0.  1.
         -2   -1    0    0    0  501 -0.00000000000E+00 -0.00000000000E+00 -0.21891293897E+03  0.21891293897E+03  0.00000000000E+00 0. -1.
         23    2    1    2    0    0 -0.67167174480E+02  0.52057445378E+02 -0.15892891972E+03  0.20237284939E+03  0.92059555187E+02 0.  0.
         23    2    1    2    0    0  0.36738508790E+02 -0.10286345645E+03  0.12615354105E+03  0.19800111626E+03  0.10657916034E+03 0.  0.
        -13    1    4    4    0    0 -0.97208971607E+01 -0.10561348815E+03  0.88670371388E+02  0.13824304497E+03  0.00000000000E+00 0. -1.
         13    1    4    4    0    0  0.46459405950E+02  0.27500317019E+01  0.37483169666E+02  0.59758071286E+02  0.00000000000E+00 0.  1.
        -13    1    3    3    0    0 -0.36422903083E+02  0.66230561386E+02 -0.56141895687E+02  0.94154275431E+02  0.00000000000E+00 0.  1.
         13    1    3    3    0    0 -0.30744271397E+02 -0.14173116008E+02 -0.10278702403E+03  0.10821857396E+03  0.00000000000E+00 0. -1.
         21    1    1    2  502  501  0.30428665690E+02  0.50806011072E+02  0.37263545734E+03  0.37731199096E+03  0.00000000000E+00 0.  1.
<scales pt_clust_5="13000.00000" pt_clust_6="13000.00000" pt_clust_7="13000.00000" pt_clust_8="13000.00000" pt_clust_9="59.22123"></scales>
<clustering>
<clus scale="   59.221">  1  9  2 -1</clus>
<clus scale="   92.060">  7  8 -1 -1</clus>
<clus scale="  106.579">  5  6 -1 -1</clus>
<clus scale="  126.045">  2  7  1 -1</clus>
<clus scale="   59.221">  1  5  2 -1</clus>
</clustering>
</event>
<event>
 9    1  0.1435532E-005  0.1034847E+03  0.7546771E-02  0.1273347E+00
         -1   -1    0    0    0  501 -0.00000000000E+00  0.00000000000E+00  0.88862679495E+02  0.88862679495E+02  0.00000000000E+00 0.  1.
          1   -1    0    0  502    0  0.00000000000E+00 -0.00000000000E+00 -0.30368558480E+03  0.30368558480E+03  0.00000000000E+00 0. -1.
         23    2    1    2    0    0 -0.45234540575E+02 -0.95619430642E+01  0.14030965935E+02  0.10316067250E+03  0.91146376390E+02 0.  0.
         23    2    1    2    0    0  0.40534827609E+02  0.66736808944E+02 -0.15910014852E+03  0.19907350417E+03  0.90667132336E+02 0.  0.
        -11    1    3    3    0    0 -0.31680636980E+02 -0.50158230713E+02  0.61680832934E+01  0.59645252278E+02  0.00000000000E+00 0.  1.
         11    1    3    3    0    0 -0.13553903595E+02  0.40596287649E+02  0.78628826418E+01  0.43515420221E+02  0.00000000000E+00 0. -1.
        -11    1    4    4    0    0 -0.21515750335E+02  0.22772224982E+02 -0.12131834980E+02  0.33595880151E+02  0.00000000000E+00 0.  1.
         11    1    4    4    0    0  0.62050577944E+02  0.43964583962E+02 -0.14696831354E+03  0.16547762402E+03  0.00000000000E+00 0. -1.
         21    1    1    2  502  501  0.46997129659E+01 -0.57174865880E+02 -0.69753722712E+02  0.90314087620E+02  0.00000000000E+00 0.  1.
<scales pt_clust_5="13000.00000" pt_clust_6="13000.00000" pt_clust_7="13000.00000" pt_clust_8="13000.00000" pt_clust_9="57.36770"></scales>
<clustering>
<clus scale="   57.368">  2  9  1 -1</clus>
<clus scale="   90.667">  7  8 -1 -1</clus>
<clus scale="   91.146">  5  6 -1 -1</clus>
<clus scale="  103.063">  2  7  1 -1</clus>
<clus scale="   57.368">  2  5  1 -1</clus>
</clustering>
</event>
<event>
 9    1  0.1435532E-005  0.1114285E+03  0.7546771E-02  0.1268640E+00
          2   -1    0    0  502    0  0.00000000000E+00  0.00000000000E+00  0.14707235800E+03  0.14707235800E+03  0.00000000000E+00 0. -1.
         -2   -1    0    0    0  501 -0.00000000000E+00 -0.00000000000E+00 -0.11397426609E+03  0.11397426609E+03  0.00000000000E+00 0.  1.
         23    2    1    2    0    0 -0.26953598496E+02  0.13116823874E+02 -0.12018910773E+02  0.11185462724E+03  0.10709087673E+03 0.  0.
         23    2    1    2    0    0  0.33875068442E+02  0.21312980198E+02  0.25249342910E+01  0.93988713936E+02  0.85004350872E+02 0.  0.
        -11    1    4    4    0    0  0.17036447748E+02  0.36983796495E+02  0.35338846157E+02  0.53915450502E+02  0.00000000000E+00 0.  1.
         11    1    4    4    0    0  0.16838620693E+02 -0.15670816297E+02 -0.32813911866E+02  0.40073263434E+02  0.00000000000E+00 0. -1.
        -11    1    3    3    0    0 -0.25738001713E+02 -0.11266106397E+02 -0.55376640894E+02  0.62096233720E+02  0.00000000000E+00 0.  1.
         11    1    3    3    0    0 -0.12155967826E+01  0.24382930271E+02  0.43357730121E+02  0.49758393517E+02  0.00000000000E+00 0. -1.
         21    1    1    2  502  501 -0.69214699460E+01 -0.34429804072E+02  0.42592068390E+02  0.55203282913E+02  0.00000000000E+00 0. -1.
<scales pt_clust_5="13000.00000" pt_clust_6="13000.00000" pt_clust_7="13000.00000" pt_clust_8="13000.00000" pt_clust_9="35.11863"></scales>
<clustering>
<clus scale="   35.119">  1  9  2 -1</clus>
<clus scale="   85.004">  5  6 -1 -1</clus>
<clus scale="   90.408">  1  5  2 -1</clus>
<clus scale="  107.091">  7  8 -1 -1</clus>
<clus scale="   35.119">  1  5  2 -1</clus>
</clustering>
</event>
<event>
 9    1  0.1435532E-005  0.1369020E+03  0.7546771E-02  0.1217976E+00
          3   -1    0    0  502    0  0.00000000000E+00  0.00000000000E+00  0.93877744622E+03  0.93877744622E+03  0.00000000000E+00 0. -1.
         -3   -1    0    0    0  501 -0.00000000000E+00 -0.00000000000E+00 -0.43310882660E+02  0.43310882660E+02  0.00000000000E+00 0.  1.
         23    2    1    2    0    0  0.56158561098E+02 -0.46923285013E+02  0.22517300796E+03  0.25395841165E+03  0.91849946501E+02 0.  0.
         23    2    1    2    0    0 -0.54706791582E+02  0.14631297618E+03  0.36581143023E+03  0.40783351855E+03  0.90054740670E+02 0.  0.
        -11    1    4    4    0    0 -0.40395649734E+02  0.10660237368E+02  0.61494063683E+02  0.74343587796E+02  0.00000000000E+00 0.  1.
         11    1    4    4    0    0 -0.14311141848E+02  0.13565273881E+03  0.30431736655E+03  0.33348993075E+03  0.00000000000E+00 0. -1.
        -13    1    3    3    0    0  0.23846196734E+02 -0.28273534245E+02  0.14052025836E+02  0.39566314808E+02  0.00000000000E+00 0.  1.
         13    1    3    3    0    0  0.32312364364E+02 -0.18649750767E+02  0.21112098213E+03  0.21439209684E+03  0.00000000000E+00 0. -1.
         21    1    1    2  502  501 -0.14517695167E+01 -0.99389691164E+02  0.30448212537E+03  0.32029639869E+03  0.00000000000E+00 0.  1.
<scales pt_clust_5="13000.00000" pt_clust_6="13000.00000" pt_clust_7="13000.00000" pt_clust_8="13000.00000" pt_clust_9="99.40029"></scales>
<clustering>
<clus scale="   90.055">  5  6 -1 -1</clus>
<clus scale="   91.850">  7  8 -1 -1</clus>
<clus scale="   99.400">  1  9  2 -1</clus>
<clus scale="  135.704">  1  5  2 -1</clus>
<clus scale="   99.400">  1  5  2 -1</clus>
</clustering>
</event>
<event>
 9    1  0.1435532E-005  0.1221562E+03  0.7546771E-02  0.1239848E+00
         -1   -1    0    0    0  501 -0.00000000000E+00  0.00000000000E+00  0.63845782224E+02  0.63845782224E+02  0.00000000000E+00 0.  1.
          1   -1    0    0  502    0  0.00000000000E+00 -0.00000000000E+00 -0.32491564994E+03  0.32491564994E+03  0.00000000000E+00 0. -1.
         23    2    1    2    0    0  0.80248516230E+02  0.56390107403E+01 -0.49133137083E+02  0.13145905024E+03  0.91628565039E+02 0.  0.
         23    2    1    2    0    0 -0.75654408834E+02 -0.27577200167E+02 -0.16827723423E+03  0.20822548712E+03  0.92501537170E+02 0.  0.
        -11    1    4    4    0    0 -0.26120352638E+02  0.34234549032E+02 -0.51707717273E+02  0.67290156746E+02  0.00000000000E+00 0.  1.
         11    1    4    4    0    0 -0.49534056196E+02 -0.61811749200E+02 -0.11656951696E+03  0.14093533037E+03  0.00000000000E+00 0. -1.
        -13    1    3    3    0    0  0.15026523682E+02  0.20631563255E+02  0.22069969928E+02  0.33742278952E+02  0.00000000000E+00 0. -1.
         13    1    3    3    0    0  0.65221992548E+02 -0.14992552514E+02 -0.71203107011E+02  0.97716771288E+02  0.00000000000E+00 0.  1.
         21    1    1    2  502  501 -0.45941073957E+01  0.21938189427E+02 -0.43659496404E+02  0.49076894812E+02  0.00000000000E+00 0. -1.
<scales pt_clust_5="13000.00000" pt_clust_6="13000.00000" pt_clust_7="13000.00000" pt_clust_8="13000.00000" pt_clust_9="22.41406"></scales>
<clustering>
<clus scale="   22.414">  2  9  1 -1</clus>
<clus scale="   91.629">  7  8 -1 -1</clus>
<clus scale="   92.502">  5  6 -1 -1</clus>
<clus scale="  121.496">  1  7  2 -1</clus>
<clus scale="   22.414">  2  5  1 -1</clus>
</clustering>
</event>
<event>
 9    1  0.1435532E-005  0.1432703E+03  0.7546771E-02  0.1211272E+00
          1   -1    0    0  502    0  0.00000000000E+00  0.00000000000E+00  0.41936454365E+03  0.41936454365E+03  0.00000000000E+00 0. -1.
         -1   -1    0    0    0  501 -0.00000000000E+00 -0.00000000000E+00 -0.58113600721E+02  0.58113600721E+02  0.00000000000E+00 0.  1.
         23    2    1    2    0    0  0.57368978415E+00  0.10341759102E+03  0.13403491685E+03  0.19630475204E+03  0.99371371573E+02 0.  0.
         23    2    1    2    0    0 -0.24289236396E+02 -0.10155971693E+03  0.16591980093E+03  0.21542306103E+03  0.89293738737E+02 0.  0.
        -11    1    4    4    0    0  0.13214646480E+02 -0.53587785296E+02  0.13762155553E+03  0.14827666762E+03  0.00000000000E+00 0.  1.
         11    1    4    4    0    0 -0.37503882876E+02 -0.47971931634E+02  0.28298245395E+02  0.67146393410E+02  0.00000000000E+00 0. -1.
        -13    1    3    3    0    0  0.12413082196E+02  0.61979244637E+02  0.87476740962E+01  0.63812484496E+02  0.00000000000E+00 0.  1.
         13    1    3    3    0    0 -0.11839392412E+02  0.41438346381E+02  0.12528724275E+03  0.13249226755E+03  0.00000000000E+00 0. -1.
         21    1    1    2  502  501  0.23715546612E+02 -0.18578740885E+01  0.61296225155E+02  0.65750331296E+02  0.00000000000E+00 0.  1.
<scales pt_clust_5="13000.00000" pt_clust_6="13000.00000" pt_clust_7="13000.00000" pt_clust_8="13000.00000" pt_clust_9="23.78821"></scales>
<clustering>
<clus scale="   23.788">  1  9  2 -1</clus>
<clus scale="   89.294">  5  6 -1 -1</clus>
<clus scale="   99.371">  7  8 -1 -1</clus>
<clus scale="  136.474">  1  5  2 -1</clus>
<clus scale="   23.788">  1  5  2 -1</clus>
</clustering>
</event>
<event>
 9    1  0.1435532E-005  0.9516326E+02  0.7546771E-02  0.1290936E+00
         -1   -1    0    0    0  501 -0.00000000000E+00  0.00000000000E+00  0.51457400768E+02  0.51457400768E+02  0.00000000000E+00 0.  1.
          1   -1    0    0  502    0  0.00000000000E+00 -0.00000000000E+00 -0.28049038958E+03  0.28049038958E+03  0.00000000000E+00 0. -1.
         23    2    1    2    0    0 -0.32523433048E+02 -0.19369223088E+02 -0.45519106724E+02  0.10893778213E+03  0.91446764830E+02 0.  0.
         23    2    1    2    0    0  0.64452559744E+01  0.45223236297E+01 -0.10699149589E+03  0.14081403915E+03  0.91210858409E+02 0.  0.
        -11    1    3    3    0    0 -0.43349033580E+02 -0.49046495588E+02 -0.40439592587E+02  0.76941913743E+02  0.00000000000E+00 0.  1.
         11    1    3    3    0    0  0.10825600533E+02  0.29677272499E+02 -0.50795141375E+01  0.31995868386E+02  0.00000000000E+00 0. -1.
        -11    1    4    4    0    0  0.33650252174E+02 -0.39288857548E+01 -0.41882281556E+01  0.34136737831E+02  0.00000000000E+00 0.  1.
         11    1    4    4    0    0 -0.27204996200E+02  0.84512093845E+01 -0.10280326774E+03  0.10667730132E+03  0.00000000000E+00 0. -1.
         21    1    1    2  502  501  0.26078177073E+02  0.14846899459E+02 -0.76522386188E+02  0.82195969068E+02  0.00000000000E+00 0. -1.
<scales pt_clust_5="13000.00000" pt_clust_6="13000.00000" pt_clust_7="13000.00000" pt_clust_8="13000.00000" pt_clust_9="30.00836"></scales>
<clustering>
<clus scale="   30.008">  2  9  1 -1</clus>
<clus scale="   91.211">  7  8 -1 -1</clus>
<clus scale="   91.447">  5  6 -1 -1</clus>
<clus scale="   94.937">  2  7  1 -1</clus>
<clus scale="   30.008">  2  5  1 -1</clus>
</clustering>
</event>
<event>
 9    1  0.1435532E-005  0.1065184E+03  0.7546771E-02  0.1268384E+00
         -1   -1    0    0    0  501 -0.00000000000E+00  0.00000000000E+00  0.17134875432E+03  0.17134875432E+03  0.00000000000E+00 0.  1.
          1   -1    0    0  502    0  0.00000000000E+00 -0.00000000000E+00 -0.11277914326E+03  0.11277914326E+03  0.00000000000E+00 0. -1.
         23    2    1    2    0    0  0.15923090717E+02  0.43819967947E+02  0.66457213529E+02  0.12200143429E+03  0.91071698839E+02 0.  0.
         23    2    1    2    0    0 -0.50811955565E+02 -0.53140687344E+02  0.20001961831E+02  0.11649822096E+03  0.88124738474E+02 0.  0.
        -13    1    3    3    0    0 -0.21209881905E+02  0.14307743888E+02  0.69909109814E+02  0.74443631431E+02  0.00000000000E+00 0.  1.
         13    1    3    3    0    0  0.37132972622E+02  0.29512224058E+02 -0.34518962849E+01  0.47557802857E+02  0.00000000000E+00 0. -1.
        -13    1    4    4    0    0 -0.55256683223E+02 -0.21024200499E+02  0.46024862746E+02  0.74924001750E+02  0.00000000000E+00 0.  1.
         13    1    4    4    0    0  0.44447276577E+01 -0.32116486845E+02 -0.26022900916E+02  0.41574219215E+02  0.00000000000E+00 0. -1.
         21    1    1    2  502  501  0.34888864848E+02  0.93207193977E+01 -0.27889564309E+02  0.45628242327E+02  0.00000000000E+00 0. -1.
<scales pt_clust_5="13000.00000" pt_clust_6="13000.00000" pt_clust_7="13000.00000" pt_clust_8="13000.00000" pt_clust_9="36.11245"></scales>
<clustering>
<clus scale="   36.112">  2  9  1 -1</clus>
<clus scale="   88.125">  7  8 -1 -1</clus>
<clus scale="   91.072">  5  6 -1 -1</clus>
<clus scale="  104.010">  2  7  1 -1</clus>
<clus scale="   36.112">  2  5  1 -1</clus>
</clustering>
</event>
<event>
 9    1  0.1435532E-005  0.1598175E+03  0.7546771E-02  0.1189047E+00
         -2   -1    0    0    0  501 -0.00000000000E+00  0.00000000000E+00  0.62560587852E+02  0.62560587852E+02  0.00000000000E+00 0.  1.
          2   -1    0    0  502    0  0.00000000000E+00 -0.00000000000E+00 -0.93481391292E+03  0.93481391292E+03  0.00000000000E+00 0. -1.
         23    2    1    2    0    0  0.12232570597E+03  0.64126392949E+02 -0.15020612291E+03  0.22256076754E+03  0.88857432287E+02 0.  0.
         23    2    1    2    0    0 -0.72436793167E+02 -0.11547512693E+03 -0.25441061666E+03  0.30172856945E+03  0.87941877437E+02 0.  0.
        -11    1    3    3    0    0  0.92370032202E+02  0.19334478691E+02 -0.45423997996E+02  0.10473482949E+03  0.00000000000E+00 0.  1.
         11    1    3    3    0    0  0.29955673769E+02  0.44791914258E+02 -0.10478212492E+03  0.11782593804E+03  0.00000000000E+00 0. -1.
        -13    1    4    4    0    0 -0.73337761368E+02 -0.70118130132E+02 -0.22720240606E+03  0.24882908338E+03  0.00000000000E+00 0. -1.
         13    1    4    4    0    0  0.90096820060E+00 -0.45356996800E+02 -0.27208210604E+02  0.52899486072E+02  0.00000000000E+00 0.  1.
         21    1    1    2  502  501 -0.49888912804E+02  0.51348733982E+02 -0.46763658549E+03  0.47308516378E+03  0.00000000000E+00 0.  1.
<scales pt_clust_5="13000.00000" pt_clust_6="13000.00000" pt_clust_7="13000.00000" pt_clust_8="13000.00000" pt_clust_9="71.59327"></scales>
<clustering>
<clus scale="   71.593">  2  9  1 -1</clus>
<clus scale="   87.942">  7  8 -1 -1</clus>
<clus scale="   88.857">  5  6 -1 -1</clus>
<clus scale="  159.310">  2  7  1 -1</clus>
<clus scale="   71.593">  2  5  1 -1</clus>
</clustering>
</event>
<event>
 9    1  0.1435532E-005  0.9731214E+02  0.7546771E-02  0.1286662E+00
         -2   -1    0    0    0  501 -0.00000000000E+00  0.00000000000E+00  0.65050680654E+02  0.65050680654E+02  0.00000000000E+00 0.  1.
          2   -1    0    0  502    0  0.00000000000E+00 -0.00000000000E+00 -0.36829612299E+03  0.36829612299E+03  0.00000000000E+00 0. -1.
         23    2    1    2    0    0 -0.70298270108E+02 -0.17710605515E+02 -0.89031539319E+02  0.14731091903E+03  0.92295067819E+02 0.  0.
         23    2    1    2    0    0 -0.17567374194E+02  0.32981067368E+02 -0.13238008090E+03  0.16499732507E+03  0.91122269627E+02 0.  0.
        -11    1    3    3    0    0  0.84600642175E+01  0.18826346443E+02 -0.45985055285E+02  0.50404655703E+02  0.00000000000E+00 0.  1.
         11    1    3    3    0    0 -0.78758334326E+02 -0.36536951958E+02 -0.43046484035E+02  0.96906263327E+02  0.00000000000E+00 0. -1.
        -11    1    4    4    0    0  0.35145956370E+01 -0.30745468040E+02 -0.49039911173E+02  0.57987490680E+02  0.00000000000E+00 0. -1.
         11    1    4    4    0    0 -0.21081969831E+02  0.63726535408E+02 -0.83340169723E+02  0.10700983439E+03  0.00000000000E+00 0.  1.
         21    1    1    2  502  501  0.87865644302E+02 -0.15270461853E+02 -0.81833822125E+02  0.12103855955E+03  0.00000000000E+00 0. -1.
<scales pt_clust_5="13000.00000" pt_clust_6="13000.00000" pt_clust_7="13000.00000" pt_clust_8="13000.00000" pt_clust_9="89.18273"></scales>
<clustering>
<clus scale="   89.183">  1  9  2 -1</clus>
<clus scale="   91.122">  7  8 -1 -1</clus>
<clus scale="   92.295">  5  6 -1 -1</clus>
<clus scale="   96.201">  2  7  1 -1</clus>
<clus scale="   96.201">  2  5  1 -1</clus>
</clustering>
</event>
<event>
 9    1  0.1435532E-005  0.1727217E+03  0.7546771E-02  0.1175696E+00
         -2   -1    0    0    0  501 -0.00000000000E+00  0.00000000000E+00  0.76135149665E+02  0.76135149665E+02  0.00000000000E+00 0.  1.
          2   -1    0    0  502    0  0.00000000000E+00 -0.00000000000E+00 -0.62974780469E+03  0.62974780469E+03  0.00000000000E+00 0. -1.
         23    2    1    2    0    0  0.98089211494E+02 -0.96348247889E+02 -0.83885744579E+02  0.18731540176E+03  0.95633484250E+02 0.  0.
         23    2    1    2    0    0 -0.10607860135E+03  0.12214778069E+03 -0.35364388547E+03  0.39938401795E+03  0.90944192065E+02 0.  0.
        -11    1    4    4    0    0 -0.36152423287E+02  0.91163299243E+02 -0.26354089157E+03  0.28119663292E+03  0.00000000000E+00 0. -1.
         11    1    4    4    0    0 -0.69926178066E+02  0.30984481448E+02 -0.90102993904E+02  0.11818738503E+03  0.00000000000E+00 0.  1.
        -13    1    3    3    0    0  0.46903991596E+02  0.10081608871E+01  0.31979325540E+01  0.47023691780E+02  0.00000000000E+00 0.  1.
         13    1    3    3    0    0  0.51185219898E+02 -0.97356408776E+02 -0.87083677133E+02  0.14029170998E+03  0.00000000000E+00 0. -1.
         21    1    1    2  502  501  0.79893898601E+01 -0.25799532802E+02 -0.11608302498E+03  0.11918353465E+03  0.00000000000E+00 0.  1.
<scales pt_clust_5="13000.00000" pt_clust_6="13000.00000" pt_clust_7="13000.00000" pt_clust_8="13000.00000" pt_clust_9="27.00826"></scales>
<clustering>
<clus scale="   27.008">  2  9  1 -1</clus>
<clus scale="   90.944">  5  6 -1 -1</clus>
<clus scale="   95.633">  7  8 -1 -1</clus>
<clus scale="  170.170">  2  5  1 -1</clus>
<clus scale="   27.008">  2  5  1 -1</clus>
</clustering>
</event>
<event>
 9    1  0.1435532E-005  0.1214278E+03  0.7546771E-02  0.1247531E+00
          1   -1    0    0  502    0  0.00000000000E+00  0.00000000000E+00  0.56625599889E+03  0.56625599889E+03  0.00000000000E+00 0. -1.
         -1   -1    0    0    0  501 -0.00000000000E+00 -0.00000000000E+00 -0.61208401993E+02  0.61208401993E+02  0.00000000000E+00 0.  1.
         23    2    1    2    0    0 -0.44883852770E+02 -0.81479690819E+02  0.71696189078E+02  0.15812250510E+03  0.10587201158E+03 0.  0.
         23    2    1    2    0    0  0.13022255078E+02  0.75112734980E+01  0.14636897939E+03  0.17127243677E+03  0.87660544783E+02 0.  0.
        -11    1    4    4    0    0 -0.11501533187E+02 -0.30996613798E+02  0.24550555678E+02  0.41180154404E+02  0.00000000000E+00 0.  1.
         11    1    4    4    0    0  0.24523788265E+02  0.38507887296E+02  0.12181842371E+03  0.13009228236E+03  0.00000000000E+00 0. -1.
        -13    1    3    3    0    0  0.28977481290E+01 -0.87178196354E+02  0.24225445182E+02  0.90527935236E+02  0.00000000000E+00 0.  1.
         13    1    3    3    0    0 -0.47781600899E+02  0.56985055346E+01  0.47470743896E+02  0.67594569869E+02  0.00000000000E+00 0. -1.
         21    1    1    2  502  501  0.31861597692E+02  0.73968417321E+02  0.28698242843E+03  0.29806945902E+03  0.00000000000E+00 0. -1.
<scales pt_clust_5="13000.00000" pt_clust_6="13000.00000" pt_clust_7="13000.00000" pt_clust_8="13000.00000" pt_clust_9="80.53874"></scales>
<clustering>
<clus scale="   80.539">  1  9  2 -1</clus>
<clus scale="   87.661">  5  6 -1 -1</clus>
<clus scale="  105.872">  7  8 -1 -1</clus>
<clus scale="  105.925">  1  5  2 -1</clus>
<clus scale="   80.539">  1  5  2 -1</clus>
</clustering>
</event>
<event>
 9    1  0.1435532E-005  0.1045605E+03  0.7546771E-02  0.1271109E+00
          1   -1    0    0  502    0  0.00000000000E+00  0.00000000000E+00  0.52468365319E+02  0.52468365319E+02  0.00000000000E+00 0. -1.
         -1   -1    0    0    0  501 -0.00000000000E+00 -0.00000000000E+00 -0.26725748533E+03  0.26725748533E+03  0.00000000000E+00 0.  1.
         23    2    1    2    0    0 -0.40572747878E+02 -0.52433607294E+01 -0.12013791671E+03  0.15687608057E+03  0.92213583176E+02 0.  0.
         23    2    1    2    0    0  0.61792862364E+02  0.82779639144E+01 -0.79194162284E+02  0.13642209155E+03  0.91936876154E+02 0.  0.
        -11    1    4    4    0    0  0.51875699433E+02  0.45150645540E+02 -0.67803330330E+02  0.96576190587E+02  0.00000000000E+00 0.  1.
         11    1    4    4    0    0  0.99171629310E+01 -0.36872681626E+02 -0.11390831954E+02  0.39845900962E+02  0.00000000000E+00 0. -1.
        -13    1    3    3    0    0 -0.15609309483E+02 -0.32231048147E+02 -0.51820036786E+01  0.36184861051E+02  0.00000000000E+00 0. -1.
         13    1    3    3    0    0 -0.24963438395E+02  0.26987687417E+02 -0.11495591303E+03  0.12069121952E+03  0.00000000000E+00 0.  1.
         21    1    1    2  502  501 -0.21220114486E+02 -0.30346031850E+01 -0.15457041014E+02  0.26427678525E+02  0.00000000000E+00 0.  1.
<scales pt_clust_5="13000.00000" pt_clust_6="13000.00000" pt_clust_7="13000.00000" pt_clust_8="13000.00000" pt_clust_9="21.43600"></scales>
<clustering>
<clus scale="   21.436">  1  9  2 -1</clus>
<clus scale="   91.937">  5  6 -1 -1</clus>
<clus scale="   92.214">  7  8 -1 -1</clus>
<clus scale="  104.317">  1  5  2 -1</clus>
<clus scale="   21.436">  1  5  2 -1</clus>
</clustering>
</event>
<event>
 9    1  0.1435532E-005  0.1398711E+03  0.7546771E-02  0.1213716E+00
         -1   -1    0    0    0  501 -0.00000000000E+00  0.00000000000E+00  0.14724798755E+03  0.14724798755E+03  0.00000000000E+00 0.  1.
          1   -1    0    0  502    0  0.00000000000E+00 -0.00000000000E+00 -0.21738845850E+03  0.21738845850E+03  0.00000000000E+00 0. -1.
         23    2    1    2    0    0 -0.22290827888E+02 -0.85884186985E+02  0.18062125675E+02  0.12903350773E+03  0.91926226684E+02 0.  0.
         23    2    1    2    0    0  0.76646238532E+02  0.89543606410E+02 -0.10065907883E+03  0.17971854009E+03  0.90960431905E+02 0.  0.
        -11    1    4    4    0    0  0.29386763403E+02  0.94316599568E+02 -0.51681702014E+02  0.11149081191E+03  0.00000000000E+00 0. -1.
         11    1    4    4    0    0  0.47259475128E+02 -0.47729931587E+01 -0.48977376816E+02  0.68227728182E+02  0.00000000000E+00 0.  1.
        -13    1    3    3    0    0  0.14789809462E+02 -0.70579575252E+02  0.40869119142E+02  0.82888478126E+02  0.00000000000E+00 0.  1.
         13    1    3    3    0    0 -0.37080637350E+02 -0.15304611734E+02 -0.22806993466E+02  0.46145029609E+02  0.00000000000E+00 0. -1.
         21    1    1    2  502  501 -0.54355410643E+02 -0.36594194244E+01  0.12456482205E+02  0.55884398231E+02  0.00000000000E+00 0.  1.
<scales pt_clust_5="13000.00000" pt_clust_6="13000.00000" pt_clust_7="13000.00000" pt_clust_8="13000.00000" pt_clust_9="54.47845"></scales>
<clustering>
<clus scale="   54.478">  1  9  2 -1</clus>
<clus scale="   90.960">  5  6 -1 -1</clus>
<clus scale="   91.926">  7  8 -1 -1</clus>
<clus scale="  139.238">  2  5  1 -1</clus>
<clus scale="  139.238">  2  5  1 -1</clus>
</clustering>
</event>
<event>
 9    1  0.1435532E-005  0.1389075E+03  0.7546771E-02  0.1230278E+00
          1   -1    0    0  502    0  0.00000000000E+00  0.00000000000E+00  0.12791814590E+04  0.12791814590E+04  0.00000000000E+00 0. -1.
         -1   -1    0    0    0  501 -0.00000000000E+00 -0.00000000000E+00 -0.30163781927E+02  0.30163781927E+02  0.00000000000E+00 0.  1.
         23    2    1    2    0    0  0.29933689648E+02 -0.97408147528E+02  0.24121770834E+03  0.27654780765E+03  0.88928814905E+02 0.  0.
         23    2    1    2    0    0  0.48035485440E+02  0.86853092280E+00  0.39775566552E+03  0.41025977038E+03  0.88291265320E+02 0.  0.
        -11    1    4    4    0    0  0.59130467307E+02  0.30969541918E+02  0.23120665643E+03  0.24064921082E+03  0.00000000000E+00 0.  1.
         11    1    4    4    0    0 -0.11094981867E+02 -0.30101010996E+02  0.16654900909E+03  0.16961055956E+03  0.00000000000E+00 0. -1.
        -13    1    3    3    0    0 -0.10976964920E+02 -0.90500632838E+02  0.13897336268E+03  0.16620605836E+03  0.00000000000E+00 0. -1.
         13    1    3    3    0    0  0.40910654568E+02 -0.69075146900E+01  0.10224434566E+03  0.11034174929E+03  0.00000000000E+00 0.  1.
         21    1    1    2  502  501 -0.77969175088E+02  0.96539616605E+02  0.61004430317E+03  0.62253766285E+03  0.00000000000E+00 0. -1.
<scales pt_clust_5="13000.00000" pt_clust_6="13000.00000" pt_clust_7="13000.00000" pt_clust_8="13000.00000" pt_clust_9="106.70970"></scales>
<clustering>
<clus scale="   88.291">  5  6 -1 -1</clus>
<clus scale="   88.929">  7  8 -1 -1</clus>
<clus scale="  100.516">  1  5  2 -1</clus>
<clus scale="  106.710">  1  9  2 -1</clus>
<clus scale="  100.516">  1  5  2 -1</clus>
</clustering>
</event>
<event>
 9    1  0.1435532E-005  0.2743635E+03  0.7546771E-02  0.1098824E+00
          3   -1    0    0  502    0  0.00000000000E+00  0.00000000000E+00  0.19684364997E+03  0.19684364997E+03  0.00000000000E+00 0. -1.
         -3   -1    0    0    0  501 -0.00000000000E+00 -0.00000000000E+00 -0.89267601279E+03  0.89267601279E+03  0.00000000000E+00 0.  1.
         23    2    1    2    0    0  0.57753610654E+02 -0.27925254328E+03 -0.70465267503E+03  0.76577594931E+03  0.92519995922E+02 0.  0.
         23    2    1    2    0    0 -0.34944133571E+02  0.15038912190E+03  0.49848516587E+02  0.18659646714E+03  0.92170420882E+02 0.  0.
        -13    1    4    4    0    0 -0.54494353773E+02  0.80221006236E+02 -0.23096816941E+01  0.97007108318E+02  0.00000000000E+00 0. -1.
         13    1    4    4    0    0  0.19550220202E+02  0.70168115663E+02  0.52158198282E+02  0.89589358819E+02  0.00000000000E+00 0.  1.
        -13    1    3    3    0    0 -0.16617858711E+02 -0.11977817247E+02 -0.30186838451E+02  0.36481043705E+02  0.00000000000E+00 0. -1.
         13    1    3    3    0    0  0.74371469365E+02 -0.26727472603E+03 -0.67446583658E+03  0.72929490561E+03  0.00000000000E+00 0.  1.
         21    1    1    2  502  501 -0.22809477083E+02  0.12886342138E+03 -0.41028204373E+02  0.13714724630E+03  0.00000000000E+00 0. -1.
<scales pt_clust_5="13000.00000" pt_clust_6="13000.00000" pt_clust_7="13000.00000" pt_clust_8="13000.00000" pt_clust_9="130.86655"></scales>
<clustering>
<clus scale="   92.170">  5  6 -1 -1</clus>
<clus scale="   92.520">  7  8 -1 -1</clus>
<clus scale="  130.867">  1  9  2 -1</clus>
<clus scale="  274.246">  1  5  2 -1</clus>
<clus scale="  130.867">  1  5  2 -1</clus>
</clustering>
</event>
<event>
 9    1  0.1435532E-005  0.1611939E+03  0.7546771E-02  0.1188405E+00
         -3   -1    0    0    0  501 -0.00000000000E+00  0.00000000000E+00  0.19760295250E+03  0.19760295250E+03  0.00000000000E+00 0.  1.
          3   -1    0    0  502    0  0.00000000000E+00 -0.00000000000E+00 -0.17067271565E+03  0.17067271565E+03  0.00000000000E+00 0. -1.
         23    2    1    2    0    0  0.15770080230E+02  0.13911058925E+03  0.78545066750E+02  0.18691675713E+03  0.95750170292E+02 0.  0.
         23    2    1    2    0    0 -0.89437559366E+01 -0.11231285822E+03 -0.31644199236E+02  0.14724816226E+03  0.89367203456E+02 0.  0.
        -11    1    4    4    0    0  0.22206499037E+02 -0.29765144580E+02  0.22795993649E+02  0.43574645814E+02  0.00000000000E+00 0.  1.
         11    1    4    4    0    0 -0.31150254974E+02 -0.82547713636E+02 -0.54440192885E+02  0.10367351645E+03  0.00000000000E+00 0. -1.
        -13    1    3    3    0    0  0.27231997853E+02  0.29469121586E+02 -0.14495417295E+02  0.42662957664E+02  0.00000000000E+00 0. -1.
         13    1    3    3    0    0 -0.11461917623E+02  0.10964146767E+03  0.93040484045E+02  0.14425379946E+03  0.00000000000E+00 0.  1.
         21    1    1    2  502  501 -0.68263242934E+01 -0.26797731037E+02 -0.19970630662E+02  0.34110748762E+02  0.00000000000E+00 0. -1.
<scales pt_clust_5="13000.00000" pt_clust_6="13000.00000" pt_clust_7="13000.00000" pt_clust_8="13000.00000" pt_clust_9="27.65352"></scales>
<clustering>
<clus scale="   27.654">  2  9  1 -1</clus>
<clus scale="   89.367">  5  6 -1 -1</clus>
<clus scale="   95.750">  7  8 -1 -1</clus>
<clus scale="  157.486">  2  5  1 -1</clus>
<clus scale="   27.654">  2  5  1 -1</clus>
</clustering>
</event>
<event>
 9    1  0.1435532E-005  0.1203259E+03  0.7546771E-02  0.1242891E+00
          2   -1    0    0  502    0  0.00000000000E+00  0.00000000000E+00  0.41963268259E+02  0.41963268259E+02  0.00000000000E+00 0. -1.
         -2   -1    0    0    0  501 -0.00000000000E+00 -0.00000000000E+00 -0.47762896227E+03  0.47762896227E+03  0.00000000000E+00 0.  1.
         23    2    1    2    0    0 -0.67591822769E+02 -0.30766150119E+02 -0.24635600623E+03  0.27284259013E+03  0.90755642718E+02 0.  0.
         23    2    1    2    0    0  0.61440649306E+02  0.61762005091E+02 -0.15492327988E+03  0.20004840906E+03  0.91807650324E+02 0.  0.
        -13    1    4    4    0    0  0.81693034729E+02  0.28929130760E+02 -0.11992453720E+03  0.14796128261E+03  0.00000000000E+00 0.  1.
         13    1    4    4    0    0 -0.20252385424E+02  0.32832874331E+02 -0.34998742682E+02  0.52087126447E+02  0.00000000000E+00 0. -1.
        -13    1    3    3    0    0  0.16934338045E+02 -0.18822434748E+02 -0.10235500115E+03  0.10544004038E+03  0.00000000000E+00 0.  1.
         13    1    3    3    0    0 -0.84526160815E+02 -0.11943715371E+02 -0.14400100508E+03  0.16740254975E+03  0.00000000000E+00 0. -1.
         21    1    1    2  502  501  0.61511734639E+01 -0.30995854971E+02 -0.34386407903E+02  0.46701231342E+02  0.00000000000E+00 0.  1.
<scales pt_clust_5="13000.00000" pt_clust_6="13000.00000" pt_clust_7="13000.00000" pt_clust_8="13000.00000" pt_clust_9="31.60032"></scales>
<clustering>
<clus scale="   31.600">  1  9  2 -1</clus>
<clus scale="   90.756">  7  8 -1 -1</clus>
<clus scale="   91.808">  5  6 -1 -1</clus>
<clus scale="  119.525">  2  7  1 -1</clus>
<clus scale="   31.600">  1  5  2 -1</clus>
</clustering>
</event>
<event>
 9    1  0.1435532E-005  0.9519254E+02  0.7546771E-02  0.1290940E+00
         -3   -1    0    0    0  501 -0.00000000000E+00  0.00000000000E+00  0.21646779380E+03  0.21646779380E+03  0.00000000000E+00 0.  1.
          3   -1    0    0  502    0  0.00000000000E+00 -0.00000000000E+00 -0.57221454767E+02  0.57221454767E+02  0.00000000000E+00 0. -1.
         23    2    1    2    0    0  0.15058130795E+02 -0.11858270314E+02  0.10306730563E+03  0.13897755675E+03  0.91238839937E+02 0.  0.
         23    2    1    2    0    0 -0.19485185263E+02  0.34156316231E+02  0.44845631750E+02  0.10930996636E+03  0.91603557116E+02 0.  0.
        -11    1    4    4    0    0 -0.46290778855E+02  0.13065902970E+02 -0.55909156218E+01  0.48423262643E+02  0.00000000000E+00 0. -1.
         11    1    4    4    0    0  0.26805593592E+02  0.21090413260E+02  0.50436547371E+02  0.60886703722E+02  0.00000000000E+00 0.  1.
        -11    1    3    3    0    0  0.23711285919E+02 -0.48724659268E+02  0.71264976785E+02  0.89526612898E+02  0.00000000000E+00 0.  1.
         11    1    3    3    0    0 -0.86531551241E+01  0.36866388954E+02  0.31802328843E+02  0.49450943853E+02  0.00000000000E+00 0. -1.
         21    1    1    2  502  501  0.44270544681E+01 -0.22298045916E+02  0.11333401659E+02  0.25401725455E+02  0.00000000000E+00 0.  1.
<scales pt_clust_5="13000.00000" pt_clust_6="13000.00000" pt_clust_7="13000.00000" pt_clust_8="13000.00000" pt_clust_9="22.73327"></scales>
<clustering>
<clus scale="   22.733">  2  9  1 -1</clus>
<clus scale="   91.239">  7  8 -1 -1</clus>
<clus scale="   91.604">  5  6 -1 -1</clus>
<clus scale="   94.842">  1  7  2 -1</clus>
<clus scale="   22.733">  2  5  1 -1</clus>
</clustering>
</event>
<event>
 9    1  0.1435532E-005  0.2078367E+03  0.7546771E-02  0.1143706E+00
          1   -1    0    0  502    0  0.00000000000E+00  0.00000000000E+00  0.17354008578E+03  0.17354008578E+03  0.00000000000E+00 0. -1.
         -1   -1    0    0    0  501 -0.00000000000E+00 -0.00000000000E+00 -0.36398216271E+03  0.36398216271E+03  0.00000000000E+00 0.  1.
         23    2    1    2    0    0  0.79953407191E+02 -0.16913193779E+03 -0.22718169393E+03  0.30866182967E+03  0.93072247959E+02 0.  0.
         23    2    1    2    0    0 -0.60662281777E+02  0.16365125396E+03  0.16901527681E+02  0.20065163999E+03  0.97538575137E+02 0.  0.
        -11    1    4    4    0    0 -0.74308522148E+02  0.12978695584E+03  0.43185451085E+02  0.15566436187E+03  0.00000000000E+00 0. -1.
         11    1    4    4    0    0  0.13646240371E+02  0.33864298122E+02 -0.26283923404E+02  0.44987278125E+02  0.00000000000E+00 0.  1.
        -11    1    3    3    0    0  0.33004516828E+02 -0.47429534506E+02 -0.15180267196E+02  0.59743613773E+02  0.00000000000E+00 0. -1.
         11    1    3    3    0    0  0.46948890363E+02 -0.12170240328E+03 -0.21200142673E+03  0.24891821590E+03  0.00000000000E+00 0.  1.
         21    1    1    2  502  501 -0.19291125414E+02  0.54806838299E+01  0.19838089320E+02  0.28208778826E+02  0.00000000000E+00 0. -1.
<scales pt_clust_5="13000.00000" pt_clust_6="13000.00000" pt_clust_7="13000.00000" pt_clust_8="13000.00000" pt_clust_9="20.05456"></scales>
<clustering>
<clus scale="   20.055">  1  9  2 -1</clus>
<clus scale="   93.072">  7  8 -1 -1</clus>
<clus scale="   97.539">  5  6 -1 -1</clus>
<clus scale="  205.778">  2  7  1 -1</clus>
<clus scale="   20.055">  1  5  2 -1</clus>
</clustering>
</event>
<event>
 9    1  0.1435532E-005  0.1532494E+03  0.7546771E-02  0.1212355E+00
         -2   -1    0    0    0  501 -0.00000000000E+00  0.00000000000E+00  0.55124982967E+02  0.55124982967E+02  0.00000000000E+00 0.  1.
          2   -1    0    0  502    0  0.00000000000E+00 -0.00000000000E+00 -0.13128864166E+04  0.13128864166E+04  0.00000000000E+00 0. -1.
         23    2    1    2    0    0  0.28350276515E+02 -0.49226950577E+02 -0.62975423293E+02  0.12585757973E+03  0.92990298392E+02 0.  0.
         23    2    1    2    0    0  0.10062065544E+03  0.31402506033E+02 -0.22930767588E+03  0.26793637675E+03  0.89984765820E+02 0.  0.
        -11    1    4    4    0    0  0.10744966801E+03  0.46593146410E+01 -0.20338360071E+03  0.23006961861E+03  0.00000000000E+00 0.  1.
         11    1    4    4    0    0 -0.68290125703E+01  0.26743191392E+02 -0.25924075172E+02  0.37866758140E+02  0.00000000000E+00 0. -1.
        -11    1    3    3    0    0  0.21310659556E+01 -0.58224107191E+02 -0.75560295896E+02  0.95414602741E+02  0.00000000000E+00 0. -1.
         11    1    3    3    0    0  0.26219210560E+02  0.89971566149E+01  0.12584872603E+02  0.30442976989E+02  0.00000000000E+00 0.  1.
         21    1    1    2  502  501 -0.12897093196E+03  0.17824444544E+02 -0.96547833450E+03  0.97421744313E+03  0.00000000000E+00 0. -1.
<scales pt_clust_5="13000.00000" pt_clust_6="13000.00000" pt_clust_7="13000.00000" pt_clust_8="13000.00000" pt_clust_9="124.04890"></scales>
<clustering>
<clus scale="   89.985">  5  6 -1 -1</clus>
<clus scale="   92.990">  7  8 -1 -1</clus>
<clus scale="  108.969">  1  7  2 -1</clus>
<clus scale="  124.049">  2  9  1 -1</clus>
<clus scale="  124.049">  2  5  1 -1</clus>
</clustering>
</event>
<event>
 9    1  0.1435532E-005  0.1073818E+03  0.7546771E-02  0.1266413E+00
         -1   -1    0    0    0  501 -0.00000000000E+00  0.00000000000E+00  0.91766803094E+02  0.91766803094E+02  0.00000000000E+00 0.  1.
          1   -1    0    0  502    0  0.00000000000E+00 -0.00000000000E+00 -0.35978976643E+03  0.35978976643E+03  0.00000000000E+00 0. -1.
         23    2    1    2    0    0  0.12537398589E+02 -0.51859900535E+02  0.26430580762E+02  0.10949315166E+03  0.91888731700E+02 0.  0.
         23    2    1    2    0    0  0.32551480677E+02  0.43378346080E+02 -0.26786983728E+03  0.28903854382E+03  0.94062480769E+02 0.  0.
        -11    1    3    3    0    0 -0.41037829904E+01  0.23189205254E+02  0.22422310620E+02  0.32516769346E+02  0.00000000000E+00 0. -1.
         11    1    3    3    0    0  0.16641181580E+02 -0.75049105789E+02  0.40082701417E+01  0.76976382310E+02  0.00000000000E+00 0.  1.
        -13    1    4    4    0    0  0.65469062964E+02  0.22341235565E+02 -0.18187042561E+03  0.19458206681E+03  0.00000000000E+00 0.  1.
         13    1    4    4    0    0 -0.32917582288E+02  0.21037110515E+02 -0.85999411668E+02  0.94456477013E+02  0.00000000000E+00 0. -1.
         21    1    1    2  502  501 -0.45088879266E+02  0.84815544545E+01 -0.26583706821E+02  0.53024874048E+02  0.00000000000E+00 0.  1.
<scales pt_clust_5="13000.00000" pt_clust_6="13000.00000" pt_clust_7="13000.00000" pt_clust_8="13000.00000" pt_clust_9="45.87967"></scales>
<clustering>
<clus scale="   45.880">  1  9  2 -1</clus>
<clus scale="   91.889">  5  6 -1 -1</clus>
<clus scale="   94.062">  7  8 -1 -1</clus>
<clus scale="  105.483">  1  5  2 -1</clus>
<clus scale="  107.382">  2  5  1 -1</clus>
</clustering>
</event>
<event>
 9    1  0.1435532E-005  0.1023764E+03  0.7546771E-02  0.1276092E+00
         -4   -1    0    0    0  501 -0.00000000000E+00  0.00000000000E+00  0.24757734737E+03  0.24757734737E+03  0.00000000000E+00 0.  1.
          4   -1    0    0  502    0  0.00000000000E+00 -0.00000000000E+00 -0.58079430983E+02  0.58079430983E+02  0.00000000000E+00 0. -1.
         23    2    1    2    0    0 -0.15374520314E+02 -0.33712816643E+02  0.11913820195E+03  0.15489531026E+03  0.91791699484E+02 0.  0.
         23    2    1    2    0    0  0.30833828946E+02  0.50705906460E+02  0.68099330752E+02  0.12767760665E+03  0.90234352850E+02 0.  0.
        -11    1    3    3    0    0  0.14138038876E+01  0.31556766834E+02  0.37256747097E+02  0.48845609615E+02  0.00000000000E+00 0.  1.
         11    1    3    3    0    0 -0.16788324202E+02 -0.65269583477E+02  0.81881454855E+02  0.10604970064E+03  0.00000000000E+00 0. -1.
        -13    1    4    4    0    0 -0.31107767482E+02  0.90747598714E+01  0.28688267489E+02  0.43278876556E+02  0.00000000000E+00 0. -1.
         13    1    4    4    0    0  0.61941596428E+02  0.41631146589E+02  0.39411063263E+02  0.84398730096E+02  0.00000000000E+00 0.  1.
         21    1    1    2  502  501 -0.15459308632E+02 -0.16993089817E+02  0.22603836863E+01  0.23083861447E+02  0.00000000000E+00 0. -1.
<scales pt_clust_5="13000.00000" pt_clust_6="13000.00000" pt_clust_7="13000.00000" pt_clust_8="13000.00000" pt_clust_9="22.97293"></scales>
<clustering>
<clus scale="   22.973">  2  9  1 -1</clus>
<clus scale="   90.234">  7  8 -1 -1</clus>
<clus scale="   91.792">  5  6 -1 -1</clus>
<clus scale="  100.982">  2  7  1 -1</clus>
<clus scale="   22.973">  2  5  1 -1</clus>
</clustering>
</event>
<event>
 9    1  0.1435532E-005  0.1603947E+03  0.7546771E-02  0.1190314E+00
         -1   -1    0    0    0  501 -0.00000000000E+00  0.00000000000E+00  0.33121473301E+03  0.33121473301E+03  0.00000000000E+00 0.  1.
          1   -1    0    0  502    0  0.00000000000E+00 -0.00000000000E+00 -0.31798603592E+03  0.31798603592E+03  0.00000000000E+00 0. -1.
         23    2    1    2    0    0  0.23680873607E+02  0.12323603724E+03  0.27938836362E+03  0.32250411021E+03  0.10101058719E+03 0.  0.
         23    2    1    2    0    0 -0.46520705631E+02 -0.10946145733E+03 -0.16511057671E+03  0.22218677627E+03  0.89215885990E+02 0.  0.
        -13    1    4    4    0    0 -0.59870479024E+02 -0.47224770486E+02 -0.12660056493E+03  0.14779159735E+03  0.00000000000E+00 0.  1.
         13    1    4    4    0    0  0.13349773393E+02 -0.62236686846E+02 -0.38510011781E+02  0.74395178921E+02  0.00000000000E+00 0. -1.
        -13    1    3    3    0    0  0.62229692755E+02  0.65985563134E+02  0.17915607165E+03  0.20080718914E+03  0.00000000000E+00 0.  1.
         13    1    3    3    0    0 -0.38548819148E+02  0.57250474108E+02  0.10023229197E+03  0.12169692107E+03  0.00000000000E+00 0. -1.
         21    1    1    2  502  501  0.22839832024E+02 -0.13774579911E+02 -0.10104908982E+03  0.10450988246E+03  0.00000000000E+00 0. -1.
<scales pt_clust_5="13000.00000" pt_clust_6="13000.00000" pt_clust_7="13000.00000" pt_clust_8="13000.00000" pt_clust_9="26.67203"></scales>
<clustering>
<clus scale="   26.672">  2  9  1 -1</clus>
<clus scale="   89.216">  5  6 -1 -1</clus>
<clus scale="  101.011">  7  8 -1 -1</clus>
<clus scale="  153.241">  2  5  1 -1</clus>
<clus scale="   26.672">  2  5  1 -1</clus>
</clustering>
</event>
<event>
 9    1  0.1435532E-005  0.1147753E+03  0.7546771E-02  0.1252990E+00
         -2   -1    0    0    0  501 -0.00000000000E+00  0.00000000000E+00  0.36279278491E+02  0.36279278491E+02  0.00000000000E+00 0.  1.
          2   -1    0    0  502    0  0.00000000000E+00 -0.00000000000E+00 -0.68895678365E+03  0.68895678365E+03  0.00000000000E+00 0. -1.
         23    2    1    2    0    0  0.98271508397E+02 -0.11241034639E+02 -0.18344229528E+03  0.22758069895E+03  0.91423457692E+02 0.  0.
         23    2    1    2    0    0 -0.37791198472E+02 -0.64136983260E+01 -0.21364047285E+03  0.23440979897E+03  0.88523398059E+02 0.  0.
        -11    1    4    4    0    0 -0.66346691457E+02 -0.69031079625E+00 -0.16308821593E+03  0.17606852692E+03  0.00000000000E+00 0. -1.
         11    1    4    4    0    0  0.28555492985E+02 -0.57233875297E+01 -0.50552256922E+02  0.58341272049E+02  0.00000000000E+00 0.  1.
        -11    1    3    3    0    0  0.62514454820E+02 -0.25132350101E+02 -0.38400531141E+02  0.77551872156E+02  0.00000000000E+00 0.  1.
         11    1    3    3    0    0  0.35757053576E+02  0.13891315461E+02 -0.14504176414E+03  0.15002882680E+03  0.00000000000E+00 0. -1.
         21    1    1    2  502  501 -0.60480309925E+02  0.17654732965E+02 -0.25559473703E+03  0.26324556422E+03  0.00000000000E+00 0.  1.
<scales pt_clust_5="13000.00000" pt_clust_6="13000.00000" pt_clust_7="13000.00000" pt_clust_8="13000.00000" pt_clust_9="63.00442"></scales>
<clustering>
<clus scale="   63.004">  2  9  1 -1</clus>
<clus scale="   88.523">  5  6 -1 -1</clus>
<clus scale="   91.423">  7  8 -1 -1</clus>
<clus scale="  112.479">  2  5  1 -1</clus>
<clus scale="   63.004">  2  5  1 -1</clus>
</clustering>
</event>
<event>
 9    1  0.1435532E-005  0.1219288E+03  0.7546771E-02  0.1240114E+00
         -4   -1    0    0    0  501 -0.00000000000E+00  0.00000000000E+00  0.54948444597E+03  0.54948444597E+03  0.00000000000E+00 0.  1.
          4   -1    0    0  502    0  0.00000000000E+00 -0.00000000000E+00 -0.33404964255E+02  0.33404964255E+02  0.00000000000E+00 0. -1.
         23    2    1    2    0    0 -0.30939660225E+02 -0.83490917554E+02  0.32885571835E+03  0.35265549614E+03  0.91059428843E+02 0.  0.
         23    2    1    2    0    0  0.25368003209E+02  0.64259221100E+02  0.16242496048E+03  0.19836100811E+03  0.90512091286E+02 0.  0.
        -11    1    3    3    0    0 -0.62548592338E+02 -0.61926325456E+02  0.20708097818E+03  0.22501050578E+03  0.00000000000E+00 0.  1.
         11    1    3    3    0    0  0.31608932113E+02 -0.21564592098E+02  0.12177474017E+03  0.12764499036E+03  0.00000000000E+00 0. -1.
        -11    1    4    4    0    0  0.31853441103E+02  0.36860272222E+02  0.16307618524E+03  0.17019742528E+03  0.00000000000E+00 0.  1.
         11    1    4    4    0    0 -0.64854378939E+01  0.27398948878E+02 -0.65122476239E+00  0.28163582833E+02  0.00000000000E+00 0. -1.
         21    1    1    2  502  501  0.55716570163E+01  0.19231696454E+02  0.24798802892E+02  0.31872905975E+02  0.00000000000E+00 0. -1.
<scales pt_clust_5="13000.00000" pt_clust_6="13000.00000" pt_clust_7="13000.00000" pt_clust_8="13000.00000" pt_clust_9="20.02253"></scales>
<clustering>
<clus scale="   20.023">  2  9  1 -1</clus>
<clus scale="   90.512">  7  8 -1 -1</clus>
<clus scale="   91.059">  5  6 -1 -1</clus>
<clus scale="  121.521">  2  7  1 -1</clus>
<clus scale="   20.023">  2  5  1 -1</clus>
</clustering>
</event>
<event>
 9    1  0.1435532E-005  0.1010741E+03  0.7546771E-02  0.1279832E+00
         -1   -1    0    0    0  501 -0.00000000000E+00  0.00000000000E+00  0.44366536308E+03  0.44366536308E+03  0.00000000000E+00 0.  1.
          1   -1    0    0  502    0  0.00000000000E+00 -0.00000000000E+00 -0.33943947107E+02  0.33943947107E+02  0.00000000000E+00 0. -1.
         23    2    1    2    0    0 -0.30963268336E+02  0.13467319423E+02  0.27590800865E+03  0.29209613292E+03  0.89748698876E+02 0.  0.
         23    2    1    2    0    0  0.51739974014E+02 -0.98479669021E+01  0.10820766857E+03  0.15234052184E+03  0.93406250822E+02 0.  0.
        -13    1    4    4    0    0 -0.59867320579E+01  0.23634716914E+02  0.72842761622E+02  0.76814768925E+02  0.00000000000E+00 0.  1.
         13    1    4    4    0    0  0.57726706072E+02 -0.33482683816E+02  0.35364906953E+02  0.75525752914E+02  0.00000000000E+00 0. -1.
        -13    1    3    3    0    0  0.29268046390E+02  0.18544839363E+02  0.11924302614E+03  0.12417499302E+03  0.00000000000E+00 0. -1.
         13    1    3    3    0    0 -0.60231314727E+02 -0.50775199402E+01  0.15666498251E+03  0.16792113991E+03  0.00000000000E+00 0.  1.
         21    1    1    2  502  501 -0.20776705677E+02 -0.36193525212E+01  0.25605738747E+02  0.33172655429E+02  0.00000000000E+00 0.  1.
<scales pt_clust_5="13000.00000" pt_clust_6="13000.00000" pt_clust_7="13000.00000" pt_clust_8="13000.00000" pt_clust_9="21.08960"></scales>
<clustering>
<clus scale="   21.090">  2  9  1 -1</clus>
<clus scale="   89.749">  7  8 -1 -1</clus>
<clus scale="   93.406">  5  6 -1 -1</clus>
<clus scale="   97.704">  1  7  2 -1</clus>
<clus scale="   21.090">  2  5  1 -1</clus>
</clustering>
</event>
<event>
 9    1  0.1435532E-005  0.1029120E+03  0.7546771E-02  0.1276141E+00
         -4   -1    0    0    0  501 -0.00000000000E+00  0.00000000000E+00  0.54338150545E+02  0.54338150545E+02  0.00000000000E+00 0.  1.
          4   -1    0    0  502    0  0.00000000000E+00 -0.00000000000E+00 -0.41792323308E+03  0.41792323308E+03  0.00000000000E+00 0. -1.
         23    2    1    2    0    0 -0.15293147731E+02 -0.33410297790E+02 -0.44210535841E+02  0.10897151313E+03  0.92574785062E+02 0.  0.
         23    2    1    2    0    0  0.41227044083E+02  0.13442594144E+02 -0.11460057797E+03  0.15591664552E+03  0.96417505556E+02 0.  0.
        -13    1    3    3    0    0 -0.20579556684E+02  0.29767056298E+02 -0.16940238606E+02  0.39957070438E+02  0.00000000000E+00 0. -1.
         13    1    3    3    0    0  0.52864089527E+01 -0.63177354089E+02 -0.27270297235E+02  0.69014442695E+02  0.00000000000E+00 0.  1.
        -13    1    4    4    0    0  0.11753245802E+02  0.19962514618E+02 -0.12253454775E+03  0.12470507676E+03  0.00000000000E+00 0. -1.
         13    1    4    4    0    0  0.29473798281E+02 -0.65199204742E+01  0.79339697790E+01  0.31211568762E+02  0.00000000000E+00 0.  1.
         21    1    1    2  502  501 -0.25933896352E+02  0.19967703647E+02 -0.20477396872E+03  0.20737322497E+03  0.00000000000E+00 0. -1.
<scales pt_clust_5="13000.00000" pt_clust_6="13000.00000" pt_clust_7="13000.00000" pt_clust_8="13000.00000" pt_clust_9="32.73036"></scales>
<clustering>
<clus scale="   32.730">  2  9  1 -1</clus>
<clus scale="   92.575">  5  6 -1 -1</clus>
<clus scale="   96.418">  7  8 -1 -1</clus>
<clus scale="   99.321">  1  5  2 -1</clus>
<clus scale="   32.730">  2  5  1 -1</clus>
</clustering>
</event>
<event>
 9    1  0.1435532E-005  0.1180544E+03  0.7546771E-02  0.1247207E+00
         -2   -1    0    0    0  501 -0.00000000000E+00  0.00000000000E+00  0.42592210965E+02  0.42592210965E+02  0.00000000000E+00 0.  1.
          2   -1    0    0  502    0  0.00000000000E+00 -0.00000000000E+00 -0.72470410527E+03  0.72470410527E+03  0.00000000000E+00 0. -1.
         23    2    1    2    0    0 -0.79220909896E+01  0.76254286252E+02 -0.80535957101E+02  0.14665446362E+03  0.95624346361E+02 0.  0.
         23    2    1    2    0    0  0.18128175323E+02 -0.34075479619E+02 -0.50205180332E+03  0.51206805692E+03  0.93101625366E+02 0.  0.
        -11    1    3    3    0    0  0.16962037300E+02 -0.17950854602E+02 -0.11520188734E+02  0.27251763957E+02  0.00000000000E+00 0. -1.
         11    1    3    3    0    0 -0.24884128290E+02  0.94205140854E+02 -0.69015768367E+02  0.11940269967E+03  0.00000000000E+00 0.  1.
        -13    1    4    4    0    0  0.49922769565E+02 -0.44954202374E+02 -0.33355803664E+03  0.34025597282E+03  0.00000000000E+00 0. -1.
         13    1    4    4    0    0 -0.31794594242E+02  0.10878722755E+02 -0.16849376668E+03  0.17181208409E+03  0.00000000000E+00 0.  1.
         21    1    1    2  502  501 -0.10206084334E+02 -0.42178806632E+02 -0.99524133880E+02  0.10857379569E+03  0.00000000000E+00 0.  1.
<scales pt_clust_5="13000.00000" pt_clust_6="13000.00000" pt_clust_7="13000.00000" pt_clust_8="13000.00000" pt_clust_9="43.39604"></scales>
<clustering>
<clus scale="   43.396">  2  9  1 -1</clus>
<clus scale="   93.102">  7  8 -1 -1</clus>
<clus scale="   95.624">  5  6 -1 -1</clus>
<clus scale="  116.020">  2  7  1 -1</clus>
<clus scale="   43.396">  2  5  1 -1</clus>
</clustering>
</event>
<event>
 9    1  0.1435532E-005  0.1629561E+03  0.7546771E-02  0.1185416E+00
          1   -1    0    0  502    0  0.00000000000E+00  0.00000000000E+00  0.37355935497E+02  0.37355935497E+02  0.00000000000E+00 0. -1.
         -1   -1    0    0    0  501 -0.00000000000E+00 -0.00000000000E+00 -0.99174569268E+03  0.99174569268E+03  0.00000000000E+00 0.  1.
         23    2    1    2    0    0 -0.12946949286E+03  0.26071574515E+02 -0.61553604123E+03  0.63639044967E+03  0.93091942709E+02 0.  0.
         23    2    1    2    0    0  0.13871520214E+03  0.16203539514E+00 -0.31258001282E+03  0.35444901828E+03  0.93198222021E+02 0.  0.
        -13    1    3    3    0    0 -0.30203045684E+02 -0.32518419655E+02 -0.13027947456E+03  0.13763143927E+03  0.00000000000E+00 0. -1.
         13    1    3    3    0    0 -0.99266447176E+02  0.58589994170E+02 -0.48525656667E+03  0.49875901040E+03  0.00000000000E+00 0.  1.
        -13    1    4    4    0    0  0.11090943771E+02 -0.25360192755E+02 -0.19764843584E+02  0.34011725217E+02  0.00000000000E+00 0.  1.
         13    1    4    4    0    0  0.12762425837E+03  0.25522228150E+02 -0.29281516923E+03  0.32043729306E+03  0.00000000000E+00 0. -1.
         21    1    1    2  502  501 -0.92457092775E+01 -0.26233609910E+02 -0.26273703142E+02  0.38262160234E+02  0.00000000000E+00 0. -1.
<scales pt_clust_5="13000.00000" pt_clust_6="13000.00000" pt_clust_7="13000.00000" pt_clust_8="13000.00000" pt_clust_9="27.81520"></scales>
<clustering>
<clus scale="   27.815">  1  9  2 -1</clus>
<clus scale="   93.092">  5  6 -1 -1</clus>
<clus scale="   93.198">  7  8 -1 -1</clus>
<clus scale="  162.895">  2  5  1 -1</clus>
<clus scale="   27.815">  1  5  2 -1</clus>
</clustering>
</event>
<event>
 9    1  0.1435532E-005  0.3292776E+03  0.7546771E-02  0.1071481E+00
         -1   -1    0    0    0  501 -0.00000000000E+00  0.00000000000E+00  0.32064072284E+03  0.32064072284E+03  0.00000000000E+00 0.  1.
          1   -1    0    0  502    0  0.00000000000E+00 -0.00000000000E+00 -0.39578336726E+03  0.39578336726E+03  0.00000000000E+00 0. -1.
         23    2    1    2    0    0 -0.44237339147E+02  0.30725305566E+03  0.47799515306E+02  0.32649561593E+03  0.89180778026E+02 0.  0.
         23    2    1    2    0    0  0.23329686977E+02 -0.32750717841E+03 -0.10558708357E+03  0.35603809094E+03  0.88370038908E+02 0.  0.
        -11    1    3    3    0    0 -0.15808164190E+02  0.17970896628E+03  0.70826539427E+02  0.19380817656E+03  0.00000000000E+00 0.  1.
         11    1    3    3    0    0 -0.28429174957E+02  0.12754408939E+03 -0.23027024121E+02  0.13268743937E+03  0.00000000000E+00 0. -1.
        -13    1    4    4    0    0  0.55105313942E+02 -0.19527554596E+03 -0.77324811764E+02  0.21713650313E+03  0.00000000000E+00 0. -1.
         13    1    4    4    0    0 -0.31775626965E+02 -0.13223163245E+03 -0.28262271809E+02  0.13890158781E+03  0.00000000000E+00 0.  1.
         21    1    1    2  502  501  0.20907652171E+02  0.20254122746E+02 -0.17355076157E+02  0.33890383237E+02  0.00000000000E+00 0. -1.
<scales pt_clust_5="13000.00000" pt_clust_6="13000.00000" pt_clust_7="13000.00000" pt_clust_8="13000.00000" pt_clust_9="29.10944"></scales>
<clustering>
<clus scale="   29.109">  2  9  1 -1</clus>
<clus scale="   88.370">  7  8 -1 -1</clus>
<clus scale="   89.181">  5  6 -1 -1</clus>
<clus scale="  329.059">  2  7  1 -1</clus>
<clus scale="   29.109">  2  5  1 -1</clus>
</clustering>
</event>
<event>
 9    1  0.1435532E-005  0.9625977E+02  0.7546771E-02  0.1290382E+00
          3   -1    0    0  502    0  0.00000000000E+00  0.00000000000E+00  0.19826021391E+03  0.19826021391E+03  0.00000000000E+00 0. -1.
         -3   -1    0    0    0  501 -0.00000000000E+00 -0.00000000000E+00 -0.96932311055E+02  0.96932311055E+02  0.00000000000E+00 0.  1.
         23    2    1    2    0    0 -0.80528319370E+01 -0.39832427628E+02 -0.20925261562E+02  0.99880993705E+02  0.88808084874E+02 0.  0.
         23    2    1    2    0    0 -0.19308854103E+02 -0.96219811545E+01  0.86071835230E+02  0.12820349156E+03  0.92533021457E+02 0.  0.
        -11    1    4    4    0    0 -0.31175086280E+02 -0.46556748964E+02  0.54811634360E+02  0.78381963103E+02  0.00000000000E+00 0.  1.
         11    1    4    4    0    0  0.11866232178E+02  0.36934767810E+02  0.31260200870E+02  0.49821528456E+02  0.00000000000E+00 0. -1.
        -11    1    3    3    0    0 -0.36446900156E+02 -0.35859767735E+02 -0.40448014175E+02  0.65194641833E+02  0.00000000000E+00 0.  1.
         11    1    3    3    0    0  0.28394068219E+02 -0.39726598927E+01  0.19522752612E+02  0.34686351872E+02  0.00000000000E+00 0. -1.
         21    1    1    2  502  501  0.27361686040E+02  0.49454408782E+02  0.36181329192E+02  0.67108039705E+02  0.00000000000E+00 0.  1.
<scales pt_clust_5="13000.00000" pt_clust_6="13000.00000" pt_clust_7="13000.00000" pt_clust_8="13000.00000" pt_clust_9="56.51903"></scales>
<clustering>
<clus scale="   56.519">  1  9  2 -1</clus>
<clus scale="   88.808">  7  8 -1 -1</clus>
<clus scale="   92.533">  5  6 -1 -1</clus>
<clus scale="   92.685">  2  7  1 -1</clus>
<clus scale="   56.519">  1  5  2 -1</clus>
</clustering>
</event>
<event>
 9    1  0.1435532E-005  0.9281740E+02  0.7546771E-02  0.1296685E+00
         -1   -1    0    0    0  501 -0.00000000000E+00  0.00000000000E+00  0.18195194417E+03  0.18195194417E+03  0.00000000000E+00 0.  1.
          1   -1    0    0  502    0  0.00000000000E+00 -0.00000000000E+00 -0.63835519222E+02  0.63835519222E+02  0.00000000000E+00 0. -1.
         23    2    1    2    0    0 -0.64054451695E+01 -0.37504583907E+01  0.64675383161E+02  0.11171039965E+03  0.90781124346E+02 0.  0.
         23    2    1    2    0    0  0.22708008187E+02 -0.12868484938E+02  0.56168258927E+02  0.11063776870E+03  0.91676556503E+02 0.  0.
        -11    1    4    4    0    0  0.50830486241E+02 -0.32917688114E+01  0.62125772177E+02  0.80337946463E+02  0.00000000000E+00 0.  1.
         11    1    4    4    0    0 -0.28122478053E+02 -0.95767161264E+01 -0.59575132500E+01  0.30299822240E+02  0.00000000000E+00 0. -1.
        -13    1    3    3    0    0  0.37539223934E+02  0.18397397999E+02  0.31872284116E+02  0.52569003049E+02  0.00000000000E+00 0. -1.
         13    1    3    3    0    0 -0.43944669104E+02 -0.22147856390E+02  0.32803099045E+02  0.59141396604E+02  0.00000000000E+00 0.  1.
         21    1    1    2  502  501 -0.16302563018E+02  0.16618943328E+02 -0.27272171435E+01  0.23439295033E+02  0.00000000000E+00 0. -1.
<scales pt_clust_5="13000.00000" pt_clust_6="13000.00000" pt_clust_7="13000.00000" pt_clust_8="13000.00000" pt_clust_9="23.28010"></scales>
<clustering>
<clus scale="   23.280">  2  9  1 -1</clus>
<clus scale="   90.781">  7  8 -1 -1</clus>
<clus scale="   91.677">  5  6 -1 -1</clus>
<clus scale="   91.933">  1  7  2 -1</clus>
<clus scale="   23.280">  2  5  1 -1</clus>
</clustering>
</event>
<event>
 9    1  0.1435532E-005  0.1279769E+03  0.7546771E-02  0.1230671E+00
         -2   -1    0    0    0  501 -0.00000000000E+00  0.00000000000E+00  0.61169009256E+02  0.61169009256E+02  0.00000000000E+00 0.  1.
          2   -1    0    0  502    0  0.00000000000E+00 -0.00000000000E+00 -0.47268214366E+03  0.47268214366E+03  0.00000000000E+00 0. -1.
         23    2    1    2    0    0 -0.67567249175E+02 -0.68835594068E+02 -0.50345023641E+02  0.14157701551E+03  0.90585637628E+02 0.  0.
         23    2    1    2    0    0  0.36601218640E+02  0.67101690288E+02 -0.24350481692E+03  0.27059196045E+03  0.89906213093E+02 0.  0.
        -13    1    4    4    0    0  0.59018145370E+02  0.31210310749E+02 -0.19556696987E+03  0.20664865033E+03  0.00000000000E+00 0.  1.
         13    1    4    4    0    0 -0.22416926730E+02  0.35891379539E+02 -0.47937847046E+02  0.63943310116E+02  0.00000000000E+00 0. -1.
        -13    1    3    3    0    0 -0.28105664524E+02  0.17300437225E+02  0.24872843100E+01  0.33097131141E+02  0.00000000000E+00 0.  1.
         13    1    3    3    0    0 -0.39461584651E+02 -0.86136031293E+02 -0.52832307951E+02  0.10847988437E+03  0.00000000000E+00 0. -1.
         21    1    1    2  502  501  0.30966030535E+02  0.17339037799E+01 -0.11766329384E+03  0.12168217695E+03  0.00000000000E+00 0.  1.
<scales pt_clust_5="13000.00000" pt_clust_6="13000.00000" pt_clust_7="13000.00000" pt_clust_8="13000.00000" pt_clust_9="31.01454"></scales>
<clustering>
<clus scale="   31.015">  2  9  1 -1</clus>
<clus scale="   89.906">  5  6 -1 -1</clus>
<clus scale="   90.586">  7  8 -1 -1</clus>
<clus scale="  127.497">  2  5  1 -1</clus>
<clus scale="   31.015">  2  5  1 -1</clus>
</clustering>
</event>
<event>
 9    1  0.1435532E-005  0.9498477E+02  0.7546771E-02  0.1292049E+00
          2   -1    0    0  502    0  0.00000000000E+00  0.00000000000E+00  0.35334626911E+03  0.35334626911E+03  0.00000000000E+00 0. -1.
         -2   -1    0    0    0  501 -0.00000000000E+00 -0.00000000000E+00 -0.47311914887E+02  0.47311914887E+02  0.00000000000E+00 0.  1.
         23    2    1    2    0    0 -0.17962753065E+02  0.21032488215E+02  0.43507887386E+02  0.10499482068E+03  0.91465567545E+02 0.  0.
         23    2    1    2    0    0  0.11566118764E+02  0.18436763061E+02  0.19653748251E+03  0.21850583110E+03  0.92973796602E+02 0.  0.
        -11    1    3    3    0    0 -0.38664214331E+02  0.47829246355E+02  0.31217172684E+02  0.68971516926E+02  0.00000000000E+00 0. -1.
         11    1    3    3    0    0  0.20701461266E+02 -0.26796758139E+02  0.12290714702E+02  0.36023303752E+02  0.00000000000E+00 0.  1.
        -13    1    4    4    0    0  0.21207700076E+02 -0.27255220257E+02  0.14457784123E+03  0.14864509998E+03  0.00000000000E+00 0.  1.
         13    1    4    4    0    0 -0.96415813121E+01  0.45691983317E+02  0.51959641288E+02  0.69860731119E+02  0.00000000000E+00 0. -1.
         21    1    1    2  502  501  0.63966343007E+01 -0.39469251276E+02  0.65988984318E+02  0.77157532218E+02  0.00000000000E+00 0.  1.
<scales pt_clust_5="13000.00000" pt_clust_6="13000.00000" pt_clust_7="13000.00000" pt_clust_8="13000.00000" pt_clust_9="39.98423"></scales>
<clustering>
<clus scale="   39.984">  1  9  2 -1</clus>
<clus scale="   91.466">  5  6 -1 -1</clus>
<clus scale="   92.974">  7  8 -1 -1</clus>
<clus scale="   93.509">  2  5  1 -1</clus>
<clus scale="   39.984">  1  5  2 -1</clus>
</clustering>
</event>
<event>
 9    1  0.1435532E-005  0.1015569E+03  0.7546771E-02  0.1277934E+00
         -3   -1    0    0    0  501 -0.00000000000E+00  0.00000000000E+00  0.53564696944E+02  0.53564696944E+02  0.00000000000E+00 0.  1.
          3   -1    0    0  502    0  0.00000000000E+00 -0.00000000000E+00 -0.26851441802E+03  0.26851441802E+03  0.00000000000E+00 0. -1.
         23    2    1    2    0    0 -0.36809521493E+02  0.39966656636E+02 -0.54051960811E+02  0.11959775110E+03  0.91813577891E+02 0.  0.
         23    2    1    2    0    0  0.13934584977E+02 -0.21788306010E+02 -0.12636982282E+03  0.15724980833E+03  0.89940353358E+02 0.  0.
        -11    1    3    3    0    0 -0.18168167307E+02 -0.27055354604E+02 -0.18837175440E+01  0.32643880097E+02  0.00000000000E+00 0.  1.
         11    1    3    3    0    0 -0.18641354187E+02  0.67022011240E+02 -0.52168243267E+02  0.86953871001E+02  0.00000000000E+00 0. -1.
        -13    1    4    4    0    0 -0.19998219082E+01 -0.38851848243E+02 -0.12279530525E+02  0.40795248124E+02  0.00000000000E+00 0.  1.
         13    1    4    4    0    0  0.15934406885E+02  0.17063542233E+02 -0.11409029230E+03  0.11645456020E+03  0.00000000000E+00 0. -1.
         21    1    1    2  502  501  0.22874936517E+02 -0.18178350626E+02 -0.34527937444E+02  0.45231555536E+02  0.00000000000E+00 0. -1.
<scales pt_clust_5="13000.00000" pt_clust_6="13000.00000" pt_clust_7="13000.00000" pt_clust_8="13000.00000" pt_clust_9="29.21840"></scales>
<clustering>
<clus scale="   29.218">  2  9  1 -1</clus>
<clus scale="   89.940">  7  8 -1 -1</clus>
<clus scale="   91.814">  5  6 -1 -1</clus>
<clus scale="   99.867">  2  7  1 -1</clus>
<clus scale="   29.218">  2  5  1 -1</clus>
</clustering>
</event>
<event>
 9    1  0.1435532E-005  0.1096392E+03  0.7546771E-02  0.1262668E+00
         -4   -1    0    0    0  501 -0.00000000000E+00  0.00000000000E+00  0.68884883821E+03  0.68884883821E+03  0.00000000000E+00 0.  1.
          4   -1    0    0  502    0  0.00000000000E+00 -0.00000000000E+00 -0.63175417330E+02  0.63175417330E+02  0.00000000000E+00 0. -1.
         23    2    1    2    0    0 -0.42046746031E+02  0.72962762679E+02  0.47271392929E+03  0.48851696671E+03  0.89993745536E+02 0.  0.
         23    2    1    2    0    0  0.50728510762E+02  0.19671109817E+02  0.13424945275E+03  0.16860484984E+03  0.86280620415E+02 0.  0.
        -13    1    3    3    0    0 -0.20410392664E+02  0.87366731652E+02  0.42308649324E+03  0.43249475221E+03  0.00000000000E+00 0.  1.
         13    1    3    3    0    0 -0.21636353367E+02 -0.14403968972E+02  0.49627436047E+02  0.56022214503E+02  0.00000000000E+00 0. -1.
        -13    1    4    4    0    0  0.38770394610E+01 -0.23101156179E+02  0.85352423038E+02  0.88508366668E+02  0.00000000000E+00 0. -1.
         13    1    4    4    0    0  0.46851471301E+02  0.42772265995E+02  0.48897029715E+02  0.80096483171E+02  0.00000000000E+00 0.  1.
         21    1    1    2  502  501 -0.86817647312E+01 -0.92633872496E+02  0.18710038840E+02  0.94902438988E+02  0.00000000000E+00 0. -1.
<scales pt_clust_5="13000.00000" pt_clust_6="13000.00000" pt_clust_7="13000.00000" pt_clust_8="13000.00000" pt_clust_9="93.03982"></scales>
<clustering>
<clus scale="   86.281">  7  8 -1 -1</clus>
<clus scale="   89.994">  5  6 -1 -1</clus>
<clus scale="   93.040">  2  9  1 -1</clus>
<clus scale="  106.613">  2  7  1 -1</clus>
<clus scale="   93.040">  2  5  1 -1</clus>
</clustering>
</event>
<event>
 9    1  0.1435532E-005  0.2526862E+03  0.7546771E-02  0.1112005E+00
         -1   -1    0    0    0  501 -0.00000000000E+00  0.00000000000E+00  0.20767591024E+03  0.20767591024E+03  0.00000000000E+00 0.  1.
          1   -1    0    0  502    0  0.00000000000E+00 -0.00000000000E+00 -0.50378101868E+03  0.50378101868E+03  0.00000000000E+00 0. -1.
         23    2    1    2    0    0  0.18392584365E+03  0.15443841261E+03  0.67012115681E+02  0.26563525235E+03  0.91605264004E+02 0.  0.
         23    2    1    2    0    0 -0.16211760401E+03 -0.14700866626E+03 -0.31824533000E+03  0.39538074746E+03  0.84570561711E+02 0.  0.
        -13    1    3    3    0    0  0.82031179119E+02  0.11883694370E+03  0.13122426982E+02  0.14499493655E+03  0.00000000000E+00 0. -1.
         13    1    3    3    0    0  0.10189466453E+03  0.35601468905E+02  0.53889688698E+02  0.12064031580E+03  0.00000000000E+00 0.  1.
        -13    1    4    4    0    0 -0.44197093994E+02 -0.94186021833E+02 -0.16333882434E+03  0.19365939524E+03  0.00000000000E+00 0.  1.
         13    1    4    4    0    0 -0.11792051002E+03 -0.52822644430E+02 -0.15490650566E+03  0.20172135223E+03  0.00000000000E+00 0. -1.
         21    1    1    2  502  501 -0.21808239641E+02 -0.74297463429E+01 -0.44871894118E+02  0.50440929102E+02  0.00000000000E+00 0. -1.
<scales pt_clust_5="13000.00000" pt_clust_6="13000.00000" pt_clust_7="13000.00000" pt_clust_8="13000.00000" pt_clust_9="23.03911"></scales>
<clustering>
<clus scale="   23.039">  2  9  1 -1</clus>
<clus scale="   84.571">  7  8 -1 -1</clus>
<clus scale="   91.605">  5  6 -1 -1</clus>
<clus scale="  250.222">  2  7  1 -1</clus>
<clus scale="   23.039">  2  5  1 -1</clus>
</clustering>
</event>
<event>
 9    1  0.1435532E-005  0.1210364E+03  0.7546771E-02  0.1242237E+00
         -1   -1    0    0    0  501 -0.00000000000E+00  0.00000000000E+00  0.64803207212E+02  0.64803207212E+02  0.00000000000E+00 0.  1.
          1   -1    0    0  502    0  0.00000000000E+00 -0.00000000000E+00 -0.30407716522E+03  0.30407716522E+03  0.00000000000E+00 0. -1.
         23    2    1    2    0    0  0.39712548482E+02 -0.48854226400E+02 -0.63931365293E+02  0.12832344644E+03  0.91738026435E+02 0.  0.
         23    2    1    2    0    0 -0.71616597610E+02  0.55656368207E+02 -0.16047895581E+03  0.20470912012E+03  0.89026738824E+02 0.  0.
        -11    1    3    3    0    0 -0.36835181162E+01 -0.60911573531E+02 -0.17156010244E+02  0.63388617142E+02  0.00000000000E+00 0.  1.
         11    1    3    3    0    0  0.43396066598E+02  0.12057347131E+02 -0.46775355049E+02  0.64934829299E+02  0.00000000000E+00 0. -1.
        -11    1    4    4    0    0  0.93442874673E+01  0.42985585154E+02 -0.69637903127E+02  0.82368160057E+02  0.00000000000E+00 0. -1.
         11    1    4    4    0    0 -0.80960885077E+02  0.12670783054E+02 -0.90841052684E+02  0.12234096006E+03  0.00000000000E+00 0.  1.
         21    1    1    2  502  501  0.31904049127E+02 -0.68021418074E+01 -0.14863636901E+02  0.35847805872E+02  0.00000000000E+00 0.  1.
<scales pt_clust_5="13000.00000" pt_clust_6="13000.00000" pt_clust_7="13000.00000" pt_clust_8="13000.00000" pt_clust_9="32.62112"></scales>
<clustering>
<clus scale="   32.621">  1  9  2 -1</clus>
<clus scale="   89.027">  7  8 -1 -1</clus>
<clus scale="   91.738">  5  6 -1 -1</clus>
<clus scale="  118.995">  2  7  1 -1</clus>
<clus scale="  118.995">  2  5  1 -1</clus>
</clustering>
</event>
<event>
 9    1  0.1435532E-005  0.3812259E+03  0.7546771E-02  0.1050649E+00
          1   -1    0    0  502    0  0.00000000000E+00  0.00000000000E+00  0.14258512728E+04  0.14258512728E+04  0.00000000000E+00 0. -1.
         -1   -1    0    0    0  501 -0.00000000000E+00 -0.00000000000E+00 -0.16033863386E+03  0.16033863386E+03  0.00000000000E+00 0.  1.
         23    2    1    2    0    0 -0.31765826732E+03 -0.17596506183E+03  0.17507923007E+03  0.41415308576E+03  0.94866031133E+02 0.  0.
         23    2    1    2    0    0  0.34049224120E+03  0.19108089630E+03  0.98615673433E+03  0.10642244669E+04  0.87302555044E+02 0.  0.
        -13    1    3    3    0    0 -0.17469385049E+03 -0.14904894269E+03  0.10036602708E+03  0.25061298471E+03  0.00000000000E+00 0.  1.
         13    1    3    3    0    0 -0.14296441683E+03 -0.26916119138E+02  0.74713202987E+02  0.16354010105E+03  0.00000000000E+00 0. -1.
        -13    1    4    4    0    0  0.22679336117E+03  0.78761581055E+02  0.57616612445E+03  0.62418428231E+03  0.00000000000E+00 0. -1.
         13    1    4    4    0    0  0.11369888004E+03  0.11231931524E+03  0.40999060988E+03  0.44004018463E+03  0.00000000000E+00 0.  1.
         21    1    1    2  502  501 -0.22833973885E+02 -0.15115834467E+02  0.10427667458E+03  0.10781235401E+03  0.00000000000E+00 0.  1.
<scales pt_clust_5="13000.00000" pt_clust_6="13000.00000" pt_clust_7="13000.00000" pt_clust_8="13000.00000" pt_clust_9="27.38392"></scales>
<clustering>
<clus scale="   27.384">  1  9  2 -1</clus>
<clus scale="   87.303">  7  8 -1 -1</clus>
<clus scale="   94.866">  5  6 -1 -1</clus>
<clus scale="  379.415">  1  7  2 -1</clus>
<clus scale="   27.384">  1  5  2 -1</clus>
</clustering>
</event>
<event>
 9    1  0.1435532E-005  0.9748666E+02  0.7546771E-02  0.1291767E+00
         -1   -1    0    0    0  501 -0.00000000000E+00  0.00000000000E+00  0.38643496977E+02  0.38643496977E+02  0.00000000000E+00 0.  1.
          1   -1    0    0  502    0  0.00000000000E+00 -0.00000000000E+00 -0.87917870078E+03  0.87917870078E+03  0.00000000000E+00 0. -1.
         23    2    1    2    0    0 -0.34883202858E+00  0.37971105905E+02 -0.37767897077E+02  0.97561576574E+02  0.81547045357E+02 0.  0.
         23    2    1    2    0    0  0.29188638986E+02  0.23391089371E+02 -0.44008912635E+03  0.45129921942E+03  0.92700736806E+02 0.  0.
        -11    1    4    4    0    0  0.33648288421E+02  0.53558870461E+02 -0.36166818551E+03  0.36715750889E+03  0.00000000000E+00 0.  1.
         11    1    4    4    0    0 -0.44596494348E+01 -0.30167781090E+02 -0.78420940841E+02  0.84141710533E+02  0.00000000000E+00 0. -1.
        -13    1    3    3    0    0 -0.33310195011E+02  0.63370288206E+01 -0.39229750393E+02  0.51852679215E+02  0.00000000000E+00 0. -1.
         13    1    3    3    0    0  0.32961362982E+02  0.31634077084E+02  0.14618533154E+01  0.45708897359E+02  0.00000000000E+00 0.  1.
         21    1    1    2  502  501 -0.28839806958E+02 -0.61362195276E+02 -0.36267818037E+03  0.36896140177E+03  0.00000000000E+00 0. -1.
<scales pt_clust_5="13000.00000" pt_clust_6="13000.00000" pt_clust_7="13000.00000" pt_clust_8="13000.00000" pt_clust_9="67.80157"></scales>
<clustering>
<clus scale="   67.802">  2  9  1 -1</clus>
<clus scale="   81.547">  7  8 -1 -1</clus>
<clus scale="   86.949">  1  7  2 -1</clus>
<clus scale="   92.701">  5  6 -1 -1</clus>
<clus scale="   67.802">  2  5  1 -1</clus>
</clustering>
</event>
<event>
 9    1  0.1435532E-005  0.1045657E+03  0.7546771E-02  0.1272454E+00
         -1   -1    0    0    0  501 -0.00000000000E+00  0.00000000000E+00  0.15605841121E+03  0.15605841121E+03  0.00000000000E+00 0.  1.
          1   -1    0    0  502    0  0.00000000000E+00 -0.00000000000E+00 -0.16263423816E+03  0.16263423816E+03  0.00000000000E+00 0. -1.
         23    2    1    2    0    0 -0.98814881535E+01 -0.41740414020E+02  0.84697236546E+02  0.13583856553E+03  0.97152395937E+02 0.  0.
         23    2    1    2    0    0 -0.18082933482E+02  0.31486752740E+02 -0.16151257122E+02  0.10204299400E+03  0.93986708831E+02 0.  0.
        -13    1    3    3    0    0  0.21444545574E+02 -0.31957781817E+02  0.94128403286E+02  0.10169230383E+03  0.00000000000E+00 0. -1.
         13    1    3    3    0    0 -0.31326033728E+02 -0.97826322033E+01 -0.94311667399E+01  0.34146261699E+02  0.00000000000E+00 0.  1.
        -13    1    4    4    0    0  0.35782039358E+02  0.55446265365E+01 -0.21343466836E+02  0.42031426345E+02  0.00000000000E+00 0. -1.
         13    1    4    4    0    0 -0.53864972840E+02  0.25942126204E+02  0.51922097134E+01  0.60011567657E+02  0.00000000000E+00 0.  1.
         21    1    1    2  502  501  0.27964421635E+02  0.10253661280E+02 -0.75121806376E+02  0.80811089835E+02  0.00000000000E+00 0. -1.
<scales pt_clust_5="13000.00000" pt_clust_6="13000.00000" pt_clust_7="13000.00000" pt_clust_8="13000.00000" pt_clust_9="29.78500"></scales>
<clustering>
<clus scale="   29.785">  2  9  1 -1</clus>
<clus scale="   93.987">  7  8 -1 -1</clus>
<clus scale="   97.152">  5  6 -1 -1</clus>
<clus scale="  101.631">  2  7  1 -1</clus>
<clus scale="   29.785">  2  5  1 -1</clus>
</clustering>
</event>
<event>
 9    1  0.1435532E-005  0.9687600E+02  0.7546771E-02  0.1287298E+00
          1   -1    0    0  502    0  0.00000000000E+00  0.00000000000E+00  0.45377649931E+03  0.45377649931E+03  0.00000000000E+00 0. -1.
         -1   -1    0    0    0  501 -0.00000000000E+00 -0.00000000000E+00 -0.51846858784E+02  0.51846858784E+02  0.00000000000E+00 0.  1.
         23    2    1    2    0    0  0.20248422836E+02  0.13388057221E+02  0.66407680958E+02  0.11504302956E+03  0.90750646591E+02 0.  0.
         23    2    1    2    0    0  0.36124939330E+01 -0.56230989441E+02  0.87368321245E+02  0.13762758907E+03  0.90184008724E+02 0.  0.
        -11    1    3    3    0    0 -0.35851461641E+02  0.83253061930E+00  0.31883358306E+02  0.47985090872E+02  0.00000000000E+00 0. -1.
         11    1    3    3    0    0  0.56099884477E+02  0.12555526602E+02  0.34524322652E+02  0.67057938688E+02  0.00000000000E+00 0.  1.
        -11    1    4    4    0    0 -0.41551505362E+02 -0.40524842095E+02  0.41355411302E+02  0.71267527448E+02  0.00000000000E+00 0. -1.
         11    1    4    4    0    0  0.45163999295E+02 -0.15706147346E+02  0.46012909943E+02  0.66360061620E+02  0.00000000000E+00 0.  1.
         21    1    1    2  502  501 -0.23860916769E+02  0.42842932220E+02  0.24815363832E+03  0.25295273947E+03  0.00000000000E+00 0.  1.
<scales pt_clust_5="13000.00000" pt_clust_6="13000.00000" pt_clust_7="13000.00000" pt_clust_8="13000.00000" pt_clust_9="49.03937"></scales>
<clustering>
<clus scale="   49.039">  1  9  2 -1</clus>
<clus scale="   90.184">  7  8 -1 -1</clus>
<clus scale="   90.751">  5  6 -1 -1</clus>
<clus scale="   96.345">  1  7  2 -1</clus>
<clus scale="   49.039">  1  5  2 -1</clus>
</clustering>
</event>
<event>
 9    1  0.1435532E-005  0.9461430E+02  0.7546771E-02  0.1292325E+00
         -2   -1    0    0    0  501 -0.00000000000E+00  0.00000000000E+00  0.12905493187E+03  0.12905493187E+03  0.00000000000E+00 0.  1.
          2   -1    0    0  502    0  0.00000000000E+00 -0.00000000000E+00 -0.15459448960E+03  0.15459448960E+03  0.00000000000E+00 0. -1.
         23    2    1    2    0    0  0.22300681945E+02  0.25426940736E+02  0.81999535529E+02  0.12523974440E+03  0.88415044077E+02 0.  0.
         23    2    1    2    0    0 -0.29145208493E+02 -0.53599019001E+01 -0.96378520637E+02  0.13444946062E+03  0.88936305832E+02 0.  0.
        -11    1    3    3    0    0  0.50133144591E+02 -0.31343833430E+01  0.64337325031E+02  0.81623819670E+02  0.00000000000E+00 0.  1.
         11    1    3    3    0    0 -0.27832462645E+02  0.28561324079E+02  0.17662210498E+02  0.43615924726E+02  0.00000000000E+00 0. -1.
        -13    1    4    4    0    0 -0.82522369768E+01  0.24517832499E+02 -0.94462810731E+02  0.97941033978E+02  0.00000000000E+00 0. -1.
         13    1    4    4    0    0 -0.20892971516E+02 -0.29877734399E+02 -0.19157099065E+01  0.36508426645E+02  0.00000000000E+00 0.  1.
         21    1    1    2  502  501  0.68445265478E+01 -0.20067038836E+02 -0.11160572616E+02  0.23960216452E+02  0.00000000000E+00 0. -1.
<scales pt_clust_5="13000.00000" pt_clust_6="13000.00000" pt_clust_7="13000.00000" pt_clust_8="13000.00000" pt_clust_9="21.20221"></scales>
<clustering>
<clus scale="   21.202">  2  9  1 -1</clus>
<clus scale="   88.415">  5  6 -1 -1</clus>
<clus scale="   88.936">  7  8 -1 -1</clus>
<clus scale="   94.124">  1  5  2 -1</clus>
<clus scale="   21.202">  2  5  1 -1</clus>
</clustering>
</event>
<event>
 9    1  0.1435532E-005  0.1059667E+03  0.7546771E-02  0.1268382E+00
          2   -1    0    0  502    0  0.00000000000E+00  0.00000000000E+00  0.13526900652E+03  0.13526900652E+03  0.00000000000E+00 0. -1.
         -2   -1    0    0    0  501 -0.00000000000E+00 -0.00000000000E+00 -0.13344305704E+03  0.13344305704E+03  0.00000000000E+00 0.  1.
         23    2    1    2    0    0 -0.46675574831E+02 -0.89351798562E+01 -0.51339490138E+02  0.11607098781E+03  0.92619027409E+02 0.  0.
         23    2    1    2    0    0  0.51809642456E+02  0.37128195922E+02  0.51492165193E+02  0.12393559452E+03  0.92983044314E+02 0.  0.
        -11    1    4    4    0    0 -0.26544997095E+02  0.17189154131E+02  0.10773060719E+02  0.33409021652E+02  0.00000000000E+00 0.  1.
         11    1    4    4    0    0  0.78354639551E+02  0.19939041792E+02  0.40719104474E+02  0.90526572872E+02  0.00000000000E+00 0. -1.
        -11    1    3    3    0    0  0.20210615434E+02  0.22163885107E+02 -0.10648118583E+02  0.31829062327E+02  0.00000000000E+00 0.  1.
         11    1    3    3    0    0 -0.66886190265E+02 -0.31099064963E+02 -0.40691371555E+02  0.84241925481E+02  0.00000000000E+00 0. -1.
         21    1    1    2  502  501 -0.51340676250E+01 -0.28193016066E+02  0.16732744206E+01  0.28705481229E+02  0.00000000000E+00 0. -1.
<scales pt_clust_5="13000.00000" pt_clust_6="13000.00000" pt_clust_7="13000.00000" pt_clust_8="13000.00000" pt_clust_9="28.65667"></scales>
<clustering>
<clus scale="   28.657">  1  9  2 -1</clus>
<clus scale="   92.619">  7  8 -1 -1</clus>
<clus scale="   92.983">  5  6 -1 -1</clus>
<clus scale="  105.647">  2  7  1 -1</clus>
<clus scale="   28.657">  1  5  2 -1</clus>
</clustering>
</event>
<event>
 9    1  0.1435532E-005  0.9357101E+02  0.7546771E-02  0.1294450E+00
         -2   -1    0    0    0  501 -0.00000000000E+00  0.00000000000E+00  0.28302806391E+02  0.28302806391E+02  0.00000000000E+00 0.  1.
          2   -1    0    0  502    0  0.00000000000E+00 -0.00000000000E+00 -0.56225700714E+03  0.56225700714E+03  0.00000000000E+00 0. -1.
         23    2    1    2    0    0  0.16237488536E+02 -0.32660584204E+02 -0.14092754168E+03  0.17195139805E+03  0.91522355155E+02 0.  0.
         23    2    1    2    0    0 -0.48033363428E+01 -0.16316015478E+02 -0.27488976671E+03  0.29021148215E+03  0.91482436168E+02 0.  0.
        -13    1    4    4    0    0 -0.48137101966E+02 -0.60446335045E+01 -0.14283948700E+03  0.15085369477E+03  0.00000000000E+00 0. -1.
         13    1    4    4    0    0  0.43333765623E+02 -0.10271381974E+02 -0.13205027971E+03  0.13935778738E+03  0.00000000000E+00 0.  1.
        -13    1    3    3    0    0 -0.27464800052E+02  0.95234665573E+01 -0.16341743252E+02  0.33347627047E+02  0.00000000000E+00 0.  1.
         13    1    3    3    0    0  0.43702288588E+02 -0.42184050762E+02 -0.12458579843E+03  0.13860377100E+03  0.00000000000E+00 0. -1.
         21    1    1    2  502  501 -0.11434152193E+02  0.48976599683E+02 -0.11813689236E+03  0.12839693333E+03  0.00000000000E+00 0.  1.
<scales pt_clust_5="13000.00000" pt_clust_6="13000.00000" pt_clust_7="13000.00000" pt_clust_8="13000.00000" pt_clust_9="50.29361"></scales>
<clustering>
<clus scale="   50.294">  2  9  1 -1</clus>
<clus scale="   91.482">  5  6 -1 -1</clus>
<clus scale="   91.522">  7  8 -1 -1</clus>
<clus scale="   93.532">  2  5  1 -1</clus>
<clus scale="   50.294">  2  5  1 -1</clus>
</clustering>
</event>
<event>
 9    1  0.1435532E-005  0.1882346E+03  0.7546771E-02  0.1160131E+00
          1   -1    0    0  502    0  0.00000000000E+00  0.00000000000E+00  0.13817491411E+04  0.13817491411E+04  0.00000000000E+00 0. -1.
         -1   -1    0    0    0  501 -0.00000000000E+00 -0.00000000000E+00 -0.33171383954E+02  0.33171383954E+02  0.00000000000E+00 0.  1.
         23    2    1    2    0    0  0.93646183701E+02 -0.13589276728E+03  0.50936082001E+03  0.54327539135E+03  0.91995945355E+02 0.  0.
         23    2    1    2    0    0 -0.12820705810E+03  0.10653656779E+03  0.68717721285E+03  0.71298726832E+03  0.91385080319E+02 0.  0.
        -11    1    4    4    0    0 -0.46680190805E+02  0.16295779100E+02  0.82334766545E+02  0.96039608559E+02  0.00000000000E+00 0.  1.
         11    1    4    4    0    0 -0.81526867294E+02  0.90240788691E+02  0.60484244631E+03  0.61694765977E+03  0.00000000000E+00 0. -1.
        -11    1    3    3    0    0  0.41095141647E+01 -0.71672435066E+02  0.13327490011E+03  0.15138039852E+03  0.00000000000E+00 0.  1.
         11    1    3    3    0    0  0.89536669537E+02 -0.64220332216E+02  0.37608591990E+03  0.39189499283E+03  0.00000000000E+00 0. -1.
         21    1    1    2  502  501  0.34560874397E+02  0.29356199490E+02  0.15203972432E+03  0.15865786542E+03  0.00000000000E+00 0. -1.
<scales pt_clust_5="13000.00000" pt_clust_6="13000.00000" pt_clust_7="13000.00000" pt_clust_8="13000.00000" pt_clust_9="45.34579"></scales>
<clustering>
<clus scale="   45.346">  1  9  2 -1</clus>
<clus scale="   91.385">  5  6 -1 -1</clus>
<clus scale="   91.996">  7  8 -1 -1</clus>
<clus scale="  187.937">  1  5  2 -1</clus>
<clus scale="   45.346">  1  5  2 -1</clus>
</clustering>
</event>
<event>
 9    1  0.1435532E-005  0.1069529E+03  0.7546771E-02  0.1269482E+00
         -1   -1    0    0    0  501 -0.00000000000E+00  0.00000000000E+00  0.18089467280E+03  0.18089467280E+03  0.00000000000E+00 0.  1.
          1   -1    0    0  502    0  0.00000000000E+00 -0.00000000000E+00 -0.92672558733E+02  0.92672558733E+02  0.00000000000E+00 0. -1.
         23    2    1    2    0    0  0.23724520796E+02 -0.52787306542E+02  0.67560485969E+02  0.12704812616E+03  0.90705316698E+02 0.  0.
         23    2    1    2    0    0 -0.50915177246E+01  0.26828898718E+02  0.40120160563E+02  0.10910704547E+03  0.97719019280E+02 0.  0.
        -11    1    3    3    0    0 -0.35190214497E+01 -0.66199178922E+02  0.70216331838E+02  0.96566288418E+02  0.00000000000E+00 0.  1.
         11    1    3    3    0    0  0.27243542245E+02  0.13411872381E+02 -0.26558458691E+01  0.30481837742E+02  0.00000000000E+00 0. -1.
        -11    1    4    4    0    0  0.32119173763E+02  0.47939933537E+02  0.15516958131E+02  0.59754954108E+02  0.00000000000E+00 0. -1.
         11    1    4    4    0    0 -0.37210691488E+02 -0.21111034820E+02  0.24603202432E+02  0.49352091365E+02  0.00000000000E+00 0.  1.
         21    1    1    2  502  501 -0.18633003071E+02  0.25958407824E+02 -0.19458532467E+02  0.37412059900E+02  0.00000000000E+00 0. -1.
<scales pt_clust_5="13000.00000" pt_clust_6="13000.00000" pt_clust_7="13000.00000" pt_clust_8="13000.00000" pt_clust_9="31.95352"></scales>
<clustering>
<clus scale="   31.954">  2  9  1 -1</clus>
<clus scale="   90.705">  5  6 -1 -1</clus>
<clus scale="   97.719">  7  8 -1 -1</clus>
<clus scale="  100.585">  1  5  2 -1</clus>
<clus scale="   31.954">  2  5  1 -1</clus>
</clustering>
</event>
<event>
 9    1  0.1435532E-005  0.2147306E+03  0.7546771E-02  0.1169757E+00
         -2   -1    0    0    0  501 -0.00000000000E+00  0.00000000000E+00  0.44337451871E+03  0.44337451871E+03  0.00000000000E+00 0.  1.
          2   -1    0    0  502    0  0.00000000000E+00 -0.00000000000E+00 -0.16509157259E+03  0.16509157259E+03  0.00000000000E+00 0. -1.
         23    2    1    2    0    0  0.15055786853E+03  0.98286110987E+02  0.16883712707E+03  0.26200867068E+03  0.88400999122E+02 0.  0.
         23    2    1    2    0    0  0.40563321351E+02  0.86522716240E+01 -0.54625621606E+00  0.10138317979E+03  0.92509490889E+02 0.  0.
        -11    1    3    3    0    0  0.29064353369E+02  0.11080619019E+02  0.85108715759E+02  0.90614624938E+02  0.00000000000E+00 0. -1.
         11    1    3    3    0    0  0.12149351516E+03  0.87205491968E+02  0.83728411312E+02  0.17139404574E+03  0.00000000000E+00 0.  1.
        -13    1    4    4    0    0 -0.11493979808E+02 -0.31188268050E+02  0.10601996448E+02  0.34888708266E+02  0.00000000000E+00 0.  1.
         13    1    4    4    0    0  0.52057301158E+02  0.39840539674E+02 -0.11148252664E+02  0.66494471521E+02  0.00000000000E+00 0. -1.
         21    1    1    2  502  501 -0.19112118988E+03 -0.10693838261E+03  0.10999207527E+03  0.24507424083E+03  0.00000000000E+00 0. -1.
<scales pt_clust_5="13000.00000" pt_clust_6="13000.00000" pt_clust_7="13000.00000" pt_clust_8="13000.00000" pt_clust_9="195.68977"></scales>
<clustering>
<clus scale="   88.401">  5  6 -1 -1</clus>
<clus scale="   92.509">  7  8 -1 -1</clus>
<clus scale="  101.382">  2  7  1 -1</clus>
<clus scale="  195.690">  2  9  1 -1</clus>
<clus scale="  101.382">  2  5  1 -1</clus>
</clustering>
</event>
<event>
 9    1  0.1435532E-005  0.1013425E+03  0.7546771E-02  0.1278714E+00
         -2   -1    0    0    0  501 -0.00000000000E+00  0.00000000000E+00  0.82949231372E+02  0.82949231372E+02  0.00000000000E+00 0.  1.
          2   -1    0    0  502    0  0.00000000000E+00 -0.00000000000E+00 -0.15531558631E+03  0.15531558631E+03  0.00000000000E+00 0. -1.
         23    2    1    2    0    0  0.49306517712E+02  0.46143003700E+01 -0.14005948680E+02  0.10666276728E+03  0.93425664935E+02 0.  0.
         23    2    1    2    0    0 -0.26728732131E+02 -0.12142188619E+00 -0.43960757478E+02  0.10444892455E+03  0.90898788640E+02 0.  0.
        -11    1    3    3    0    0  0.75103332321E+02  0.16897164572E+02 -0.13020360468E+02  0.78074032066E+02  0.00000000000E+00 0.  1.
         11    1    3    3    0    0 -0.25796814609E+02 -0.12282864202E+02 -0.98558821266E+00  0.28588735214E+02  0.00000000000E+00 0. -1.
        -11    1    4    4    0    0 -0.56644341223E+02 -0.54793729374E+00 -0.72783943974E+01  0.57112666309E+02  0.00000000000E+00 0. -1.
         11    1    4    4    0    0  0.29915609092E+02  0.42651540756E+00 -0.36682363081E+02  0.47336258238E+02  0.00000000000E+00 0.  1.
         21    1    1    2  502  501 -0.22577785580E+02 -0.44928784838E+01 -0.14399648783E+02  0.27153125858E+02  0.00000000000E+00 0. -1.
<scales pt_clust_5="13000.00000" pt_clust_6="13000.00000" pt_clust_7="13000.00000" pt_clust_8="13000.00000" pt_clust_9="23.02048"></scales>
<clustering>
<clus scale="   23.020">  2  9  1 -1</clus>
<clus scale="   90.899">  7  8 -1 -1</clus>
<clus scale="   93.426">  5  6 -1 -1</clus>
<clus scale="   99.018">  2  7  1 -1</clus>
<clus scale="   23.020">  2  5  1 -1</clus>
</clustering>
</event>
<event>
 9    1  0.1435532E-005  0.9039963E+02  0.7546771E-02  0.1302528E+00
          1   -1    0    0  502    0  0.00000000000E+00  0.00000000000E+00  0.59231301068E+03  0.59231301068E+03  0.00000000000E+00 0.  1.
         -1   -1    0    0    0  501 -0.00000000000E+00 -0.00000000000E+00 -0.22172777884E+02  0.22172777884E+02  0.00000000000E+00 0. -1.
         23    2    1    2    0    0  0.22471905787E+02 -0.60082893587E+01  0.17942011414E+03  0.20093148232E+03  0.87411653340E+02 0.  0.
         23    2    1    2    0    0  0.43738140113E+01  0.26476527743E+02  0.20640010081E+03  0.22616831308E+03  0.88492753697E+02 0.  0.
        -13    1    4    4    0    0 -0.34557491755E+02  0.30080020388E+02  0.65421615026E+02  0.79868739664E+02  0.00000000000E+00 0. -1.
         13    1    4    4    0    0  0.38931305766E+02 -0.36034926454E+01  0.14097848578E+03  0.14629957342E+03  0.00000000000E+00 0.  1.
        -13    1    3    3    0    0 -0.18468946884E+01 -0.37443761225E+02  0.14007975974E+03  0.14500960438E+03  0.00000000000E+00 0.  1.
         13    1    3    3    0    0  0.24318800475E+02  0.31435471866E+02  0.39340354404E+02  0.55921877942E+02  0.00000000000E+00 0. -1.
         21    1    1    2  502  501 -0.26845719798E+02 -0.20468238384E+02  0.18432001785E+03  0.18738599317E+03  0.00000000000E+00 0. -1.
<scales pt_clust_5="13000.00000" pt_clust_6="13000.00000" pt_clust_7="13000.00000" pt_clust_8="13000.00000" pt_clust_9="33.75858"></scales>
<clustering>
<clus scale="   33.759">  1  9  2 -1</clus>
<clus scale="   87.412">  7  8 -1 -1</clus>
<clus scale="   88.493">  5  6 -1 -1</clus>
<clus scale="   89.342">  2  7  1 -1</clus>
<clus scale="   33.759">  1  5  2 -1</clus>
</clustering>
</event>
<event>
 9    1  0.1435532E-005  0.1092473E+03  0.7546771E-02  0.1263493E+00
         -1   -1    0    0    0  501 -0.00000000000E+00  0.00000000000E+00  0.83873924884E+02  0.83873924884E+02  0.00000000000E+00 0.  1.
          1   -1    0    0  502    0  0.00000000000E+00 -0.00000000000E+00 -0.20963600033E+03  0.20963600033E+03  0.00000000000E+00 0. -1.
         23    2    1    2    0    0 -0.44763269668E+02 -0.36700019899E+01 -0.13246162741E+00  0.10620678038E+03  0.96242627904E+02 0.  0.
         23    2    1    2    0    0  0.66185881985E+02  0.12031357006E+02 -0.93449772688E+02  0.14775086612E+03  0.92585819107E+02 0.  0.
        -11    1    4    4    0    0  0.38826069343E+02  0.29758588152E+02 -0.10279135979E+03  0.11383804670E+03  0.00000000000E+00 0. -1.
         11    1    4    4    0    0  0.27359812641E+02 -0.17727231146E+02  0.93415870985E+01  0.33912819426E+02  0.00000000000E+00 0.  1.
        -13    1    3    3    0    0 -0.42487592599E+02  0.33170834445E+02 -0.27255737957E+02  0.60401780058E+02  0.00000000000E+00 0. -1.
         13    1    3    3    0    0 -0.22756770697E+01 -0.36840836435E+02  0.27123276330E+02  0.45805000319E+02  0.00000000000E+00 0.  1.
         21    1    1    2  502  501 -0.21422612316E+02 -0.83613550159E+01 -0.32179841134E+02  0.39552278715E+02  0.00000000000E+00 0. -1.
<scales pt_clust_5="13000.00000" pt_clust_6="13000.00000" pt_clust_7="13000.00000" pt_clust_8="13000.00000" pt_clust_9="22.99653"></scales>
<clustering>
<clus scale="   22.997">  2  9  1 -1</clus>
<clus scale="   92.586">  5  6 -1 -1</clus>
<clus scale="   96.243">  7  8 -1 -1</clus>
<clus scale="  106.040">  2  5  1 -1</clus>
<clus scale="   22.997">  2  5  1 -1</clus>
</clustering>
</event>
<event>
 9    1  0.1435532E-005  0.1173378E+03  0.7546771E-02  0.1248646E+00
          2   -1    0    0  502    0  0.00000000000E+00  0.00000000000E+00  0.45162815227E+03  0.45162815227E+03  0.00000000000E+00 0. -1.
         -2   -1    0    0    0  501 -0.00000000000E+00 -0.00000000000E+00 -0.80450532266E+02  0.80450532266E+02  0.00000000000E+00 0.  1.
         23    2    1    2    0    0 -0.47500416198E+02  0.68206386458E+02  0.28424505390E+02  0.12298036387E+03  0.86068674313E+02 0.  0.
         23    2    1    2    0    0  0.86950805873E+02 -0.11532265439E+01  0.11974370680E+03  0.17290844901E+03  0.89425968528E+02 0.  0.
        -13    1    4    4    0    0  0.69364279333E+02 -0.21179693070E+02  0.12613619945E+03  0.14550025243E+03  0.00000000000E+00 0. -1.
         13    1    4    4    0    0  0.17586526540E+02  0.20026466527E+02 -0.63924926512E+01  0.27408196577E+02  0.00000000000E+00 0.  1.
        -13    1    3    3    0    0  0.83050325210E+01  0.43096261435E+02  0.41501809486E+02  0.60404151393E+02  0.00000000000E+00 0. -1.
         13    1    3    3    0    0 -0.55805448718E+02  0.25110125023E+02 -0.13077304097E+02  0.62576212475E+02  0.00000000000E+00 0.  1.
         21    1    1    2  502  501 -0.39450389675E+02 -0.67053159914E+02  0.22300940781E+03  0.23618987166E+03  0.00000000000E+00 0.  1.
<scales pt_clust_5="13000.00000" pt_clust_6="13000.00000" pt_clust_7="13000.00000" pt_clust_8="13000.00000" pt_clust_9="77.79755"></scales>
<clustering>
<clus scale="   77.798">  1  9  2 -1</clus>
<clus scale="   86.069">  7  8 -1 -1</clus>
<clus scale="   89.426">  5  6 -1 -1</clus>
<clus scale="  114.800">  2  7  1 -1</clus>
<clus scale="   77.798">  1  5  2 -1</clus>
</clustering>
</event>
<event>
 9    1  0.1435532E-005  0.1465149E+03  0.7546771E-02  0.1211131E+00
          1   -1    0    0  502    0  0.00000000000E+00  0.00000000000E+00  0.15061682949E+03  0.15061682949E+03  0.00000000000E+00 0. -1.
         -1   -1    0    0    0  501 -0.00000000000E+00 -0.00000000000E+00 -0.26907292115E+03  0.26907292115E+03  0.00000000000E+00 0.  1.
         23    2    1    2    0    0  0.56818769696E+00 -0.85588389608E+02 -0.17548990787E+03  0.22676332973E+03  0.11532217772E+03 0.  0.
         23    2    1    2    0    0  0.86867303873E+01  0.10378324887E+03  0.62586903060E+01  0.13820147393E+03  0.90631419283E+02 0.  0.
        -11    1    4    4    0    0  0.49387320980E+02  0.66696309712E+02  0.31705803754E+01  0.83051536907E+02  0.00000000000E+00 0. -1.
         11    1    4    4    0    0 -0.40700590592E+02  0.37086939155E+02  0.30881099306E+01  0.55149937021E+02  0.00000000000E+00 0.  1.
        -13    1    3    3    0    0  0.31795063361E+02 -0.65686174339E+00 -0.29556313729E+01  0.31938899140E+02  0.00000000000E+00 0. -1.
         13    1    3    3    0    0 -0.31226875664E+02 -0.84931527865E+02 -0.17253427650E+03  0.19482443059E+03  0.00000000000E+00 0.  1.
         21    1    1    2  502  501 -0.92549180843E+01 -0.18194859259E+02  0.50775125900E+02  0.54724946984E+02  0.00000000000E+00 0.  1.
<scales pt_clust_5="13000.00000" pt_clust_6="13000.00000" pt_clust_7="13000.00000" pt_clust_8="13000.00000" pt_clust_9="20.41339"></scales>
<clustering>
<clus scale="   20.413">  1  9  2 -1</clus>
<clus scale="   90.631">  5  6 -1 -1</clus>
<clus scale="  115.322">  7  8 -1 -1</clus>
<clus scale="  127.990">  1  5  2 -1</clus>
<clus scale="   20.413">  1  5  2 -1</clus>
</clustering>
</event>
<event>
 9    1  0.1435532E-005  0.9466810E+02  0.7546771E-02  0.1294698E+00
         -2   -1    0    0    0  501 -0.00000000000E+00  0.00000000000E+00  0.70680437346E+03  0.70680437346E+03  0.00000000000E+00 0.  1.
          2   -1    0    0  502    0  0.00000000000E+00 -0.00000000000E+00 -0.38128906301E+02  0.38128906301E+02  0.00000000000E+00 0. -1.
         23    2    1    2    0    0 -0.24236210668E+02 -0.22613489977E+02  0.54595656529E+03  0.55444651757E+03  0.90794305058E+02 0.  0.
         23    2    1    2    0    0  0.65144837924E+01  0.50517199146E+01  0.13690499606E+03  0.16178622840E+03  0.85812862553E+02 0.  0.
        -13    1    3    3    0    0  0.29999581534E+02 -0.29391472320E+02  0.23782965206E+03  0.24150937236E+03  0.00000000000E+00 0.  1.
         13    1    3    3    0    0 -0.54235792201E+02  0.67779823427E+01  0.30812691323E+03  0.31293714522E+03  0.00000000000E+00 0. -1.
        -13    1    4    4    0    0 -0.29784930310E+02 -0.17301366511E+02  0.98713982793E+02  0.10455108682E+03  0.00000000000E+00 0.  1.
         13    1    4    4    0    0  0.36299414102E+02  0.22353086426E+02  0.38191013272E+02  0.57235141580E+02  0.00000000000E+00 0. -1.
         21    1    1    2  502  501  0.17721726875E+02  0.17561770063E+02 -0.14186094194E+02  0.28700533787E+02  0.00000000000E+00 0. -1.
<scales pt_clust_5="13000.00000" pt_clust_6="13000.00000" pt_clust_7="13000.00000" pt_clust_8="13000.00000" pt_clust_9="24.94946"></scales>
<clustering>
<clus scale="   24.949">  2  9  1 -1</clus>
<clus scale="   85.813">  7  8 -1 -1</clus>
<clus scale="   89.902">  2  7  1 -1</clus>
<clus scale="   90.794">  5  6 -1 -1</clus>
<clus scale="   24.949">  2  5  1 -1</clus>
</clustering>
</event>
<event>
 9    1  0.1435532E-005  0.9562532E+02  0.7546771E-02  0.1290764E+00
          2   -1    0    0  502    0  0.00000000000E+00  0.00000000000E+00  0.18097372316E+03  0.18097372316E+03  0.00000000000E+00 0. -1.
         -2   -1    0    0    0  501 -0.00000000000E+00 -0.00000000000E+00 -0.84462409850E+02  0.84462409850E+02  0.00000000000E+00 0.  1.
         23    2    1    2    0    0 -0.11880204864E+02  0.95333071715E+01  0.40161123478E+02  0.10148735793E+03  0.91949686063E+02 0.  0.
         23    2    1    2    0    0  0.19397090744E+02  0.25789829524E+02  0.74037785692E+02  0.12373585916E+03  0.93742235387E+02 0.  0.
        -13    1    4    4    0    0  0.48756325174E+02  0.10616654942E+01  0.69755131725E+02  0.85112189374E+02  0.00000000000E+00 0. -1.
         13    1    4    4    0    0 -0.29359234430E+02  0.24728164030E+02  0.42826539671E+01  0.38623669785E+02  0.00000000000E+00 0.  1.
        -13    1    3    3    0    0 -0.48212896083E+02  0.20627224878E+02  0.35240896329E+02  0.63181378023E+02  0.00000000000E+00 0.  1.
         13    1    3    3    0    0  0.36332691219E+02 -0.11093917707E+02  0.49202271488E+01  0.38305979905E+02  0.00000000000E+00 0. -1.
         21    1    1    2  502  501 -0.75168858800E+01 -0.35323136696E+02 -0.17687595863E+02  0.40212915920E+02  0.00000000000E+00 0.  1.
<scales pt_clust_5="13000.00000" pt_clust_6="13000.00000" pt_clust_7="13000.00000" pt_clust_8="13000.00000" pt_clust_9="36.11409"></scales>
<clustering>
<clus scale="   36.114">  2  9  1 -1</clus>
<clus scale="   91.950">  7  8 -1 -1</clus>
<clus scale="   93.742">  5  6 -1 -1</clus>
<clus scale="   93.869">  2  7  1 -1</clus>
<clus scale="   95.625">  1  5  2 -1</clus>
</clustering>
</event>
<event>
 9    1  0.1435532E-005  0.1623500E+03  0.7546771E-02  0.1191135E+00
         -1   -1    0    0    0  501 -0.00000000000E+00  0.00000000000E+00  0.14704751679E+03  0.14704751679E+03  0.00000000000E+00 0.  1.
          1   -1    0    0  502    0  0.00000000000E+00 -0.00000000000E+00 -0.21114189872E+03  0.21114189872E+03  0.00000000000E+00 0. -1.
         23    2    1    2    0    0 -0.20125450278E+01 -0.11649020841E+03 -0.30880516349E+02  0.15217982884E+03  0.92903579166E+02 0.  0.
         23    2    1    2    0    0  0.29876440867E+02  0.10439115997E+03 -0.53980292001E+02  0.16921246545E+03  0.11802063607E+03 0.  0.
        -11    1    3    3    0    0  0.32683859595E+02 -0.10857735345E+03 -0.22062912881E+02  0.11551644249E+03  0.00000000000E+00 0. -1.
         11    1    3    3    0    0 -0.34696404623E+02 -0.79128549552E+01 -0.88176034687E+01  0.36663386344E+02  0.00000000000E+00 0.  1.
        -13    1    4    4    0    0 -0.35843005612E+02  0.52871785262E+02 -0.57058665819E+02  0.85649507139E+02  0.00000000000E+00 0.  1.
         13    1    4    4    0    0  0.65719446479E+02  0.51519374706E+02  0.30783738183E+01  0.83562958307E+02  0.00000000000E+00 0. -1.
         21    1    1    2  502  501 -0.27863895839E+02  0.12099048443E+02  0.20766426425E+02  0.36797121233E+02  0.00000000000E+00 0.  1.
<scales pt_clust_5="13000.00000" pt_clust_6="13000.00000" pt_clust_7="13000.00000" pt_clust_8="13000.00000" pt_clust_9="30.37735"></scales>
<clustering>
<clus scale="   30.377">  1  9  2 -1</clus>
<clus scale="   92.904">  5  6 -1 -1</clus>
<clus scale="  118.021">  7  8 -1 -1</clus>
<clus scale="  145.120">  1  5  2 -1</clus>
<clus scale="  162.350">  2  5  1 -1</clus>
</clustering>
</event>
<event>
 9    1  0.1435532E-005  0.1056398E+03  0.7546771E-02  0.1270770E+00
          2   -1    0    0  502    0  0.00000000000E+00  0.00000000000E+00  0.25071548794E+03  0.25071548794E+03  0.00000000000E+00 0. -1.
         -2   -1    0    0    0  501 -0.00000000000E+00 -0.00000000000E+00 -0.10075068176E+03  0.10075068176E+03  0.00000000000E+00 0.  1.
         23    2    1    2    0    0  0.46627530741E+02 -0.27538692326E+02 -0.37446272214E+02  0.11071305276E+03  0.89009272279E+02 0.  0.
         23    2    1    2    0    0 -0.38614118846E+01  0.45444336642E+02  0.14103296104E+03  0.17517505055E+03  0.93359006001E+02 0.  0.
        -11    1    4    4    0    0  0.33578491638E+02  0.12370242903E+02  0.13568591124E+02  0.38270676441E+02  0.00000000000E+00 0.  1.
         11    1    4    4    0    0 -0.37439903523E+02  0.33074093740E+02  0.12746436992E+03  0.13690437411E+03  0.00000000000E+00 0. -1.
        -13    1    3    3    0    0  0.35156059179E+02  0.11639295318E+02 -0.54975970770E+02  0.66285587081E+02  0.00000000000E+00 0.  1.
         13    1    3    3    0    0  0.11471471561E+02 -0.39177987644E+02  0.17529698556E+02  0.44427465684E+02  0.00000000000E+00 0. -1.
         21    1    1    2  502  501 -0.42766118856E+02 -0.17905644316E+02  0.46378117352E+02  0.65578066375E+02  0.00000000000E+00 0.  1.
<scales pt_clust_5="13000.00000" pt_clust_6="13000.00000" pt_clust_7="13000.00000" pt_clust_8="13000.00000" pt_clust_9="46.36327"></scales>
<clustering>
<clus scale="   46.363">  1  9  2 -1</clus>
<clus scale="   89.009">  7  8 -1 -1</clus>
<clus scale="   93.359">  5  6 -1 -1</clus>
<clus scale="  101.816">  2  7  1 -1</clus>
<clus scale="   46.363">  1  5  2 -1</clus>
</clustering>
</event>
<event>
 9    1  0.1435532E-005  0.9764528E+02  0.7546771E-02  0.1285700E+00
          3   -1    0    0  502    0  0.00000000000E+00  0.00000000000E+00  0.11889661759E+03  0.11889661759E+03  0.00000000000E+00 0. -1.
         -3   -1    0    0    0  501 -0.00000000000E+00 -0.00000000000E+00 -0.12980585777E+03  0.12980585777E+03  0.00000000000E+00 0.  1.
         23    2    1    2    0    0  0.13728088463E+02  0.14816947075E+02 -0.18656535360E+02  0.96137198308E+02  0.92121073883E+02 0.  0.
         23    2    1    2    0    0  0.17248151898E+02 -0.39917074353E+02  0.30112913393E+02  0.10685133242E+03  0.92841521516E+02 0.  0.
        -11    1    4    4    0    0 -0.21307790532E+02 -0.43237709713E+02 -0.11983410913E+02  0.49670148135E+02  0.00000000000E+00 0.  1.
         11    1    4    4    0    0  0.38555942430E+02  0.33206353599E+01  0.42096324306E+02  0.57181184282E+02  0.00000000000E+00 0. -1.
        -13    1    3    3    0    0  0.49272640068E+02 -0.10866828907E+02 -0.99961346776E+01  0.51437376860E+02  0.00000000000E+00 0. -1.
         13    1    3    3    0    0 -0.35544551605E+02  0.25683775982E+02 -0.86604006819E+01  0.44699821447E+02  0.00000000000E+00 0.  1.
         21    1    1    2  502  501 -0.30976240361E+02  0.25100127279E+02 -0.22365618215E+02  0.45713944639E+02  0.00000000000E+00 0.  1.
<scales pt_clust_5="13000.00000" pt_clust_6="13000.00000" pt_clust_7="13000.00000" pt_clust_8="13000.00000" pt_clust_9="39.86908"></scales>
<clustering>
<clus scale="   39.869">  2  9  1 -1</clus>
<clus scale="   92.121">  7  8 -1 -1</clus>
<clus scale="   92.842">  5  6 -1 -1</clus>
<clus scale="   96.961">  2  7  1 -1</clus>
<clus scale="   97.645">  1  5  2 -1</clus>
</clustering>
</event>
<event>
 9    1  0.1435532E-005  0.1195785E+03  0.7546771E-02  0.1243806E+00
          2   -1    0    0  502    0  0.00000000000E+00  0.00000000000E+00  0.24413468465E+03  0.24413468465E+03  0.00000000000E+00 0. -1.
         -2   -1    0    0    0  501 -0.00000000000E+00 -0.00000000000E+00 -0.12216227473E+03  0.12216227473E+03  0.00000000000E+00 0.  1.
         23    2    1    2    0    0  0.38799022690E+02  0.42858569239E+02 -0.60037700759E+02  0.12334648821E+03  0.90926396186E+02 0.  0.
         23    2    1    2    0    0 -0.58977262897E+02 -0.56587529565E+02  0.18114546662E+03  0.21852930537E+03  0.90889554878E+02 0.  0.
        -13    1    4    4    0    0 -0.48516888579E+02 -0.12733157187E+02  0.16192929368E+03  0.16952025814E+03  0.00000000000E+00 0. -1.
         13    1    4    4    0    0 -0.10460374318E+02 -0.43854372378E+02  0.19216172946E+02  0.49009047228E+02  0.00000000000E+00 0.  1.
        -13    1    3    3    0    0 -0.12245540694E+02 -0.17612168752E+02  0.36598409934E+01  0.21760886727E+02  0.00000000000E+00 0. -1.
         13    1    3    3    0    0  0.51044563384E+02  0.60470737991E+02 -0.63697541752E+02  0.10158560149E+03  0.00000000000E+00 0.  1.
         21    1    1    2  502  501  0.20178240206E+02  0.13728960326E+02  0.86464405958E+00  0.24421165795E+02  0.00000000000E+00 0.  1.
<scales pt_clust_5="13000.00000" pt_clust_6="13000.00000" pt_clust_7="13000.00000" pt_clust_8="13000.00000" pt_clust_9="24.40585"></scales>
<clustering>
<clus scale="   24.406">  2  9  1 -1</clus>
<clus scale="   90.890">  5  6 -1 -1</clus>
<clus scale="   90.926">  7  8 -1 -1</clus>
<clus scale="  119.550">  1  5  2 -1</clus>
<clus scale="  119.550">  1  5  2 -1</clus>
</clustering>
</event>
<event>
 9    1  0.1435532E-005  0.9683439E+02  0.7546771E-02  0.1287118E+00
          2   -1    0    0  502    0  0.00000000000E+00  0.00000000000E+00  0.66159069975E+03  0.66159069975E+03  0.00000000000E+00 0. -1.
         -2   -1    0    0    0  501 -0.00000000000E+00 -0.00000000000E+00 -0.31952294665E+02  0.31952294665E+02  0.00000000000E+00 0.  1.
         23    2    1    2    0    0 -0.99555150327E+01 -0.24984401024E+01  0.13089565513E+03  0.16030163129E+03  0.91965134589E+02 0.  0.
         23    2    1    2    0    0  0.55789770430E+02  0.40855790355E+01  0.16917922815E+03  0.20050210652E+03  0.91925475482E+02 0.  0.
        -11    1    3    3    0    0  0.38323874023E+02 -0.15978672518E+02  0.48387534969E+02  0.63760417470E+02  0.00000000000E+00 0.  1.
         11    1    3    3    0    0 -0.48279389055E+02  0.13480232415E+02  0.82508120157E+02  0.96541213818E+02  0.00000000000E+00 0. -1.
        -11    1    4    4    0    0  0.77356737225E+02  0.39606436026E+01  0.15854683561E+03  0.17645637017E+03  0.00000000000E+00 0.  1.
         11    1    4    4    0    0 -0.21566966795E+02  0.12493543287E+00  0.10632392536E+02  0.24045736350E+02  0.00000000000E+00 0. -1.
         21    1    1    2  502  501 -0.45834255397E+02 -0.15871389331E+01  0.32956352181E+03  0.33273925661E+03  0.00000000000E+00 0. -1.
<scales pt_clust_5="13000.00000" pt_clust_6="13000.00000" pt_clust_7="13000.00000" pt_clust_8="13000.00000" pt_clust_9="45.86173"></scales>
<clustering>
<clus scale="   45.862">  1  9  2 -1</clus>
<clus scale="   91.925">  7  8 -1 -1</clus>
<clus scale="   91.965">  5  6 -1 -1</clus>
<clus scale="   96.797">  1  7  2 -1</clus>
<clus scale="   45.862">  1  5  2 -1</clus>
</clustering>
</event>
<event>
 9    1  0.1435532E-005  0.1174948E+03  0.7546771E-02  0.1248455E+00
         -1   -1    0    0    0  501 -0.00000000000E+00  0.00000000000E+00  0.34382434706E+03  0.34382434706E+03  0.00000000000E+00 0.  1.
          1   -1    0    0  502    0  0.00000000000E+00 -0.00000000000E+00 -0.89016037384E+02  0.89016037384E+02  0.00000000000E+00 0. -1.
         23    2    1    2    0    0 -0.34499855300E+02 -0.64554130482E+02  0.25540705084E+03  0.27948971787E+03  0.86742521265E+02 0.  0.
         23    2    1    2    0    0  0.60477980639E+02  0.63134232520E+02  0.80059571842E+01  0.12594774811E+03  0.90306270249E+02 0.  0.
        -11    1    4    4    0    0  0.21246206129E+02 -0.20733928570E+02  0.14678176400E+02  0.33117154637E+02  0.00000000000E+00 0.  1.
         11    1    4    4    0    0  0.39231774510E+02  0.83868161090E+02 -0.66722192161E+01  0.92830593476E+02  0.00000000000E+00 0. -1.
        -11    1    3    3    0    0 -0.35608817949E+02 -0.84887173636E+02  0.22251614949E+03  0.24080543380E+03  0.00000000000E+00 0.  1.
         11    1    3    3    0    0  0.11089626493E+01  0.20333043154E+02  0.32890901353E+02  0.38684284068E+02  0.00000000000E+00 0. -1.
         21    1    1    2  502  501 -0.25978125339E+02  0.14198979624E+01 -0.86046983547E+01  0.27402918460E+02  0.00000000000E+00 0.  1.
<scales pt_clust_5="13000.00000" pt_clust_6="13000.00000" pt_clust_7="13000.00000" pt_clust_8="13000.00000" pt_clust_9="26.01690"></scales>
<clustering>
<clus scale="   26.017">  2  9  1 -1</clus>
<clus scale="   86.743">  7  8 -1 -1</clus>
<clus scale="   90.306">  5  6 -1 -1</clus>
<clus scale="  114.778">  1  7  2 -1</clus>
<clus scale="   26.017">  2  5  1 -1</clus>
</clustering>
</event>
<event>
 9    1  0.1435532E-005  0.9960632E+02  0.7546771E-02  0.1282097E+00
         -1   -1    0    0    0  501 -0.00000000000E+00  0.00000000000E+00  0.33614910062E+03  0.33614910062E+03  0.00000000000E+00 0.  1.
          1   -1    0    0  502    0  0.00000000000E+00 -0.00000000000E+00 -0.70101149829E+02  0.70101149829E+02  0.00000000000E+00 0. -1.
         23    2    1    2    0    0  0.24364994319E+02 -0.27078015248E+02  0.26333053592E+03  0.28125608048E+03  0.91843017176E+02 0.  0.
         23    2    1    2    0    0 -0.22124690157E+02  0.47749614860E+02  0.12502617849E+01  0.10414982945E+03  0.89867102919E+02 0.  0.
        -11    1    4    4    0    0  0.30688834107E+02  0.40286628608E+02  0.34943767098E+01  0.50764432943E+02  0.00000000000E+00 0.  1.
         11    1    4    4    0    0 -0.52813524263E+02  0.74629862528E+01 -0.22441149249E+01  0.53385396512E+02  0.00000000000E+00 0. -1.
        -13    1    3    3    0    0 -0.17049384557E+02 -0.48028563306E+02  0.16142523820E+03  0.16927944924E+03  0.00000000000E+00 0. -1.
         13    1    3    3    0    0  0.41414378876E+02  0.20950548058E+02  0.10190529772E+03  0.11197663124E+03  0.00000000000E+00 0.  1.
         21    1    1    2  502  501 -0.22403041620E+01 -0.20671599613E+02  0.14671530913E+01  0.20844340514E+02  0.00000000000E+00 0. -1.
<scales pt_clust_5="13000.00000" pt_clust_6="13000.00000" pt_clust_7="13000.00000" pt_clust_8="13000.00000" pt_clust_9="20.79264"></scales>
<clustering>
<clus scale="   20.793">  2  9  1 -1</clus>
<clus scale="   89.867">  5  6 -1 -1</clus>
<clus scale="   91.843">  7  8 -1 -1</clus>
<clus scale="   97.787">  2  5  1 -1</clus>
<clus scale="   20.793">  2  5  1 -1</clus>
</clustering>
</event>
<event>
 9    1  0.1435532E-005  0.1155178E+03  0.7546771E-02  0.1251557E+00
         -1   -1    0    0    0  501 -0.00000000000E+00  0.00000000000E+00  0.14560055265E+03  0.14560055265E+03  0.00000000000E+00 0.  1.
          1   -1    0    0  502    0  0.00000000000E+00 -0.00000000000E+00 -0.30043767662E+03  0.30043767662E+03  0.00000000000E+00 0. -1.
         23    2    1    2    0    0  0.22494469027E+02 -0.61934299586E+02  0.94254107180E+02  0.14629195804E+03  0.90419254947E+02 0.  0.
         23    2    1    2    0    0 -0.32702342866E+02  0.79524336069E+02 -0.13990632572E+03  0.18868343475E+03  0.92919832748E+02 0.  0.
        -11    1    3    3    0    0  0.23587623396E+01 -0.82565628730E+02  0.63914754116E+02  0.10444013884E+03  0.00000000000E+00 0.  1.
         11    1    3    3    0    0  0.20135706687E+02  0.20631329144E+02  0.30339353064E+02  0.41851819200E+02  0.00000000000E+00 0. -1.
        -13    1    4    4    0    0  0.67066250335E+01  0.22038746289E+02  0.86364525270E+01  0.24602306184E+02  0.00000000000E+00 0.  1.
         13    1    4    4    0    0 -0.39408967899E+02  0.57485589780E+02 -0.14854277825E+03  0.16408112857E+03  0.00000000000E+00 0. -1.
         21    1    1    2  502  501  0.10207873839E+02 -0.17590036483E+02 -0.10918490543E+03  0.11106283647E+03  0.00000000000E+00 0. -1.
<scales pt_clust_5="13000.00000" pt_clust_6="13000.00000" pt_clust_7="13000.00000" pt_clust_8="13000.00000" pt_clust_9="20.33741"></scales>
<clustering>
<clus scale="   20.337">  2  9  1 -1</clus>
<clus scale="   90.419">  5  6 -1 -1</clus>
<clus scale="   92.920">  7  8 -1 -1</clus>
<clus scale="  113.516">  1  5  2 -1</clus>
<clus scale="   20.337">  2  5  1 -1</clus>
</clustering>
</event>
<event>
 9    1  0.1435532E-005  0.1063807E+03  0.7546771E-02  0.1274649E+00
          1   -1    0    0  502    0  0.00000000000E+00  0.00000000000E+00  0.11843773871E+03  0.11843773871E+03  0.00000000000E+00 0. -1.
         -1   -1    0    0    0  501 -0.00000000000E+00 -0.00000000000E+00 -0.18197580755E+03  0.18197580755E+03  0.00000000000E+00 0.  1.
         23    2    1    2    0    0  0.39584901059E+02 -0.39366836398E+02 -0.56935249311E+02  0.12147457950E+03  0.91639176395E+02 0.  0.
         23    2    1    2    0    0  0.14552109670E+02 -0.20576021246E+01  0.14436910415E+02  0.10759844340E+03  0.10560777915E+03 0.  0.
        -13    1    4    4    0    0 -0.54883111978E+01  0.37292039869E+02 -0.27531404021E+02  0.46677574966E+02  0.00000000000E+00 0.  1.
         13    1    4    4    0    0  0.20040420868E+02 -0.39349641993E+02  0.41968314436E+02  0.60920868429E+02  0.00000000000E+00 0. -1.
        -13    1    3    3    0    0  0.13945851898E+02  0.23321432607E+02 -0.45196457805E+02  0.52736095818E+02  0.00000000000E+00 0.  1.
         13    1    3    3    0    0  0.25639049161E+02 -0.62688269005E+02 -0.11738791506E+02  0.68738483681E+02  0.00000000000E+00 0. -1.
         21    1    1    2  502  501 -0.54137010729E+02  0.41424438522E+02 -0.21039729943E+02  0.71340523363E+02  0.00000000000E+00 0. -1.
<scales pt_clust_5="13000.00000" pt_clust_6="13000.00000" pt_clust_7="13000.00000" pt_clust_8="13000.00000" pt_clust_9="68.16744"></scales>
<clustering>
<clus scale="   68.167">  2  9  1 -1</clus>
<clus scale="   91.639">  7  8 -1 -1</clus>
<clus scale="   92.529">  2  7  1 -1</clus>
<clus scale="  105.608">  5  6 -1 -1</clus>
<clus scale="  106.381">  1  5  2 -1</clus>
</clustering>
</event>
<event>
 9    1  0.1435532E-005  0.9883521E+02  0.7546771E-02  0.1283292E+00
          1   -1    0    0  502    0  0.00000000000E+00  0.00000000000E+00  0.10769543755E+03  0.10769543755E+03  0.00000000000E+00 0. -1.
         -1   -1    0    0    0  501 -0.00000000000E+00 -0.00000000000E+00 -0.14416602375E+03  0.14416602375E+03  0.00000000000E+00 0.  1.
         23    2    1    2    0    0  0.12620851256E+02  0.10599574989E+02 -0.22778617403E+02  0.95456653012E+02  0.91222093361E+02 0.  0.
         23    2    1    2    0    0 -0.54350792898E+02 -0.25968093873E+02 -0.18268829425E+02  0.11169991979E+03  0.92275518774E+02 0.  0.
        -13    1    3    3    0    0  0.37343762383E+02  0.37566720074E+02 -0.12029173344E+01  0.52983601767E+02  0.00000000000E+00 0.  1.
         13    1    3    3    0    0 -0.24722911128E+02 -0.26967145085E+02 -0.21575700068E+02  0.42473051246E+02  0.00000000000E+00 0. -1.
        -13    1    4    4    0    0  0.25641940658E+02 -0.14237063158E+02 -0.39655203479E+01  0.29596088250E+02  0.00000000000E+00 0.  1.
         13    1    4    4    0    0 -0.79992733556E+02 -0.11731030715E+02 -0.14303309077E+02  0.82103831542E+02  0.00000000000E+00 0. -1.
         21    1    1    2  502  501  0.41729941643E+02  0.15368518884E+02  0.45768606343E+01  0.44704888496E+02  0.00000000000E+00 0.  1.
<scales pt_clust_5="13000.00000" pt_clust_6="13000.00000" pt_clust_7="13000.00000" pt_clust_8="13000.00000" pt_clust_9="44.46998"></scales>
<clustering>
<clus scale="   44.470">  1  9  2 -1</clus>
<clus scale="   91.222">  5  6 -1 -1</clus>
<clus scale="   92.276">  7  8 -1 -1</clus>
<clus scale="   97.852">  2  5  1 -1</clus>
<clus scale="   44.470">  1  5  2 -1</clus>
</clustering>
</event>
<event>
 9    1  0.1435532E-005  0.9789680E+02  0.7546771E-02  0.1287801E+00
          1   -1    0    0  502    0  0.00000000000E+00  0.00000000000E+00  0.83795844098E+02  0.83795844098E+02  0.00000000000E+00 0. -1.
         -1   -1    0    0    0  501 -0.00000000000E+00 -0.00000000000E+00 -0.23784972248E+03  0.23784972248E+03  0.00000000000E+00 0.  1.
         23    2    1    2    0    0  0.13542698263E+02  0.69993916676E+00 -0.12804256235E+03  0.15833642278E+03  0.92150042933E+02 0.  0.
         23    2    1    2    0    0  0.64045253462E+01 -0.11693884752E+02 -0.65106825314E+02  0.11806295705E+03  0.97581751567E+02 0.  0.
        -11    1    3    3    0    0  0.14889553143E+02 -0.41518294657E+02 -0.35532997629E+02  0.56639751982E+02  0.00000000000E+00 0. -1.
         11    1    3    3    0    0 -0.13468548801E+01  0.42218233824E+02 -0.92509564725E+02  0.10169667080E+03  0.00000000000E+00 0.  1.
        -13    1    4    4    0    0 -0.26684766807E+02 -0.11854119923E+01  0.15086456706E+02  0.30677078692E+02  0.00000000000E+00 0.  1.
         13    1    4    4    0    0  0.33089292153E+02 -0.10508472760E+02 -0.80193282020E+02  0.87385878356E+02  0.00000000000E+00 0. -1.
         21    1    1    2  502  501 -0.19947223609E+02  0.10993945586E+02  0.39095509287E+02  0.45246186752E+02  0.00000000000E+00 0. -1.
<scales pt_clust_5="13000.00000" pt_clust_6="13000.00000" pt_clust_7="13000.00000" pt_clust_8="13000.00000" pt_clust_9="22.77627"></scales>
<clustering>
<clus scale="   22.776">  1  9  2 -1</clus>
<clus scale="   92.150">  5  6 -1 -1</clus>
<clus scale="   92.484">  2  5  1 -1</clus>
<clus scale="   97.582">  7  8 -1 -1</clus>
<clus scale="   22.776">  1  5  2 -1</clus>
</clustering>
</event>
<event>
 9    1  0.1435532E-005  0.1614268E+03  0.7546771E-02  0.1188996E+00
          1   -1    0    0  502    0  0.00000000000E+00  0.00000000000E+00  0.10464875786E+04  0.10464875786E+04  0.00000000000E+00 0. -1.
         -1   -1    0    0    0  501 -0.00000000000E+00 -0.00000000000E+00 -0.50186481736E+02  0.50186481736E+02  0.00000000000E+00 0.  1.
         23    2    1    2    0    0  0.15100940379E+03 -0.26123670752E+02  0.21196753194E+03  0.28152402097E+03  0.10411173603E+03 0.  0.
         23    2    1    2    0    0 -0.85968884100E+02  0.58149896931E+01  0.29675384688E+03  0.32283236431E+03  0.93452804496E+02 0.  0.
        -11    1    3    3    0    0  0.79390004802E+02 -0.54794966251E+02  0.67454342278E+02  0.11770874853E+03  0.00000000000E+00 0.  1.
         11    1    3    3    0    0  0.71619398990E+02  0.28671295499E+02  0.14451318967E+03  0.16381527244E+03  0.00000000000E+00 0. -1.
        -11    1    4    4    0    0 -0.62658325715E+02  0.47882738895E+02  0.19209170189E+03  0.20764884878E+03  0.00000000000E+00 0. -1.
         11    1    4    4    0    0 -0.23310558385E+02 -0.42067749202E+02  0.10466214500E+03  0.11518351553E+03  0.00000000000E+00 0.  1.
         21    1    1    2  502  501 -0.65040519692E+02  0.20308681059E+02  0.48757971808E+03  0.49231767509E+03  0.00000000000E+00 0.  1.
<scales pt_clust_5="13000.00000" pt_clust_6="13000.00000" pt_clust_7="13000.00000" pt_clust_8="13000.00000" pt_clust_9="68.13745"></scales>
<clustering>
<clus scale="   68.137">  1  9  2 -1</clus>
<clus scale="   93.453">  7  8 -1 -1</clus>
<clus scale="  104.112">  5  6 -1 -1</clus>
<clus scale="  154.767">  1  7  2 -1</clus>
<clus scale="   68.137">  1  5  2 -1</clus>
</clustering>
</event>
<event>
 9    1  0.1435532E-005  0.1024141E+03  0.7546771E-02  0.1276847E+00
          1   -1    0    0  502    0  0.00000000000E+00  0.00000000000E+00  0.51187290299E+02  0.51187290299E+02  0.00000000000E+00 0. -1.
         -1   -1    0    0    0  501 -0.00000000000E+00 -0.00000000000E+00 -0.42847513598E+03  0.42847513598E+03  0.00000000000E+00 0.  1.
         23    2    1    2    0    0 -0.31867184776E+02 -0.35188297483E+02 -0.21748145890E+03  0.23950055235E+03  0.88366259765E+02 0.  0.
         23    2    1    2    0    0 -0.44335025408E+01  0.52433224039E+02 -0.16860726707E+03  0.19902086172E+03  0.91716922992E+02 0.  0.
        -11    1    4    4    0    0  0.21274958527E+02 -0.14961358982E+02 -0.83507174900E+02  0.87463788980E+02  0.00000000000E+00 0. -1.
         11    1    4    4    0    0 -0.25708461068E+02  0.67394583021E+02 -0.85100092170E+02  0.11155707274E+03  0.00000000000E+00 0.  1.
        -13    1    3    3    0    0  0.52728756859E+01 -0.43513169839E+02 -0.18288829068E+03  0.18806734442E+03  0.00000000000E+00 0. -1.
         13    1    3    3    0    0 -0.37140060462E+02  0.83248723561E+01 -0.34593168219E+02  0.51433207933E+02  0.00000000000E+00 0.  1.
         21    1    1    2  502  501  0.36300687316E+02 -0.17244926556E+02  0.88008802922E+01  0.41141012208E+02  0.00000000000E+00 0. -1.
<scales pt_clust_5="13000.00000" pt_clust_6="13000.00000" pt_clust_7="13000.00000" pt_clust_8="13000.00000" pt_clust_9="40.18865"></scales>
<clustering>
<clus scale="   40.189">  1  9  2 -1</clus>
<clus scale="   88.366">  7  8 -1 -1</clus>
<clus scale="   91.717">  5  6 -1 -1</clus>
<clus scale="   99.425">  2  7  1 -1</clus>
<clus scale="   40.189">  1  5  2 -1</clus>
</clustering>
</event>
<event>
 9    1  0.1435532E-005  0.1316502E+03  0.7546771E-02  0.1226126E+00
         -1   -1    0    0    0  501 -0.00000000000E+00  0.00000000000E+00  0.35492556129E+02  0.35492556129E+02  0.00000000000E+00 0.  1.
          1   -1    0    0  502    0  0.00000000000E+00 -0.00000000000E+00 -0.69295405083E+03  0.69295405083E+03  0.00000000000E+00 0. -1.
         23    2    1    2    0    0 -0.51191743686E+02  0.92138546621E+02 -0.19979383469E+03  0.24380235934E+03  0.91716452432E+02 0.  0.
         23    2    1    2    0    0  0.37255726789E+02 -0.71571483365E+02 -0.26611903275E+03  0.29149121693E+03  0.87391781908E+02 0.  0.
        -11    1    4    4    0    0  0.16598358336E+02  0.19449109982E+02 -0.54163008239E+02  0.59894948368E+02  0.00000000000E+00 0. -1.
         11    1    4    4    0    0  0.20657368452E+02 -0.91020593346E+02 -0.21195602452E+03  0.23159626856E+03  0.00000000000E+00 0.  1.
        -13    1    3    3    0    0 -0.30693807006E+02 -0.24988897309E+01 -0.13050042493E+02  0.33446342811E+02  0.00000000000E+00 0.  1.
         13    1    3    3    0    0 -0.20497936680E+02  0.94637436351E+02 -0.18674379220E+03  0.21035601653E+03  0.00000000000E+00 0. -1.
         21    1    1    2  502  501  0.13936016897E+02 -0.20567063256E+02 -0.19154862726E+03  0.19315303068E+03  0.00000000000E+00 0.  1.
<scales pt_clust_5="13000.00000" pt_clust_6="13000.00000" pt_clust_7="13000.00000" pt_clust_8="13000.00000" pt_clust_9="24.84385"></scales>
<clustering>
<clus scale="   24.844">  2  9  1 -1</clus>
<clus scale="   87.392">  5  6 -1 -1</clus>
<clus scale="   91.716">  7  8 -1 -1</clus>
<clus scale="  128.675">  2  5  1 -1</clus>
<clus scale="   24.844">  2  5  1 -1</clus>
</clustering>
</event>
<event>
 9    1  0.1435532E-005  0.9534824E+02  0.7546771E-02  0.1290597E+00
          1   -1    0    0  502    0  0.00000000000E+00  0.00000000000E+00  0.13165200950E+03  0.13165200950E+03  0.00000000000E+00 0. -1.
         -1   -1    0    0    0  501 -0.00000000000E+00 -0.00000000000E+00 -0.19173081999E+03  0.19173081999E+03  0.00000000000E+00 0.  1.
         23    2    1    2    0    0 -0.22073703785E+02  0.23750847815E+02 -0.13795597110E+03  0.16775824716E+03  0.89775432933E+02 0.  0.
         23    2    1    2    0    0  0.44115687165E+02  0.33471439079E+01  0.55528878495E+02  0.11415657177E+03  0.89391662385E+02 0.  0.
        -11    1    3    3    0    0  0.17898121481E+02  0.33507057533E+02 -0.20207484174E+02  0.43027991746E+02  0.00000000000E+00 0. -1.
         11    1    3    3    0    0 -0.39971825266E+02 -0.97562097178E+01 -0.11774848692E+03  0.12473025541E+03  0.00000000000E+00 0.  1.
        -13    1    4    4    0    0  0.42059864273E+02 -0.38411266998E+02  0.39797297382E+02  0.69485843839E+02  0.00000000000E+00 0. -1.
         13    1    4    4    0    0  0.20558228917E+01  0.41758410906E+02  0.15731581112E+02  0.44670727926E+02  0.00000000000E+00 0.  1.
         21    1    1    2  502  501 -0.22041983380E+02 -0.27097991723E+02  0.22348282106E+02  0.41468010561E+02  0.00000000000E+00 0. -1.
<scales pt_clust_5="13000.00000" pt_clust_6="13000.00000" pt_clust_7="13000.00000" pt_clust_8="13000.00000" pt_clust_9="34.93065"></scales>
<clustering>
<clus scale="   34.931">  1  9  2 -1</clus>
<clus scale="   89.392">  7  8 -1 -1</clus>
<clus scale="   89.775">  5  6 -1 -1</clus>
<clus scale="   94.987">  1  7  2 -1</clus>
<clus scale="   34.931">  1  5  2 -1</clus>
</clustering>
</event>
<event>
 9    1  0.2416579E-005  0.9392629E+02  0.7546771E-02  0.1295031E+00
         -1   -1    0    0    0  501 -0.00000000000E+00  0.00000000000E+00  0.38175782239E+03  0.38175782239E+03  0.00000000000E+00 0.  1.
          1   -1    0    0  502    0  0.00000000000E+00 -0.00000000000E+00 -0.74013311866E+02  0.74013311866E+02  0.00000000000E+00 0. -1.
         23    2    1    2    0    0 -0.17964500675E+02 -0.47920192784E+01  0.31731525910E+03  0.33074792538E+03  0.91430464033E+02 0.  0.
         23    2    1    2    0    0  0.67464426538E+01  0.21617261989E+02 -0.29747865876E+02  0.96456625591E+02  0.88916391019E+02 0.  0.
        -11    1    4    4    0    0  0.12223068955E+01 -0.23301729504E+02 -0.43322941893E+02  0.49207132880E+02  0.00000000000E+00 0. -1.
         11    1    4    4    0    0  0.55241357583E+01  0.44918991493E+02  0.13575076017E+02  0.47249492711E+02  0.00000000000E+00 0.  1.
        -13    1    3    3    0    0  0.28002826901E+02  0.24665173212E+02  0.10177281151E+03  0.10839849743E+03  0.00000000000E+00 0. -1.
         13    1    3    3    0    0 -0.45967327576E+02 -0.29457192491E+02  0.21554244759E+03  0.22234942794E+03  0.00000000000E+00 0.  1.
         21    1    1    2  502  501  0.11218058022E+02 -0.16825242711E+02  0.20177117304E+02  0.28566583288E+02  0.00000000000E+00 0. -1.
<scales pt_clust_5="13000.00000" pt_clust_6="13000.00000" pt_clust_7="13000.00000" pt_clust_8="13000.00000" pt_clust_9="20.22211"></scales>
<clustering>
<clus scale="   20.222">  1  9  2 -1</clus>
<clus scale="   88.916">  5  6 -1 -1</clus>
<clus scale="   91.430">  7  8 -1 -1</clus>
<clus scale="   91.481">  2  5  1 -1</clus>
<clus scale="   91.481">  2  5  1 -1</clus>
</clustering>
</event>
<event>
 9    1  0.1435532E-005  0.1015086E+03  0.7546771E-02  0.1277391E+00
          1   -1    0    0  502    0  0.00000000000E+00  0.00000000000E+00  0.13795421790E+03  0.13795421790E+03  0.00000000000E+00 0. -1.
         -1   -1    0    0    0  501 -0.00000000000E+00 -0.00000000000E+00 -0.17557146173E+03  0.17557146173E+03  0.00000000000E+00 0.  1.
         23    2    1    2    0    0 -0.71989265531E-01  0.50070346364E+02 -0.11436885021E+03  0.15463016569E+03  0.91231625409E+02 0.  0.
         23    2    1    2    0    0  0.28598759030E+02 -0.19331381264E+02  0.56651551796E+02  0.11239096832E+03  0.90723426524E+02 0.  0.
        -13    1    4    4    0    0 -0.20278033814E+02 -0.21714184374E+02  0.56067218050E+02  0.63452639018E+02  0.00000000000E+00 0. -1.
         13    1    4    4    0    0  0.48876792844E+02  0.23828031098E+01  0.58433374590E+00  0.48938329307E+02  0.00000000000E+00 0.  1.
        -13    1    3    3    0    0  0.41659453207E+02  0.13467203803E+02 -0.74043960202E+02  0.86019670205E+02  0.00000000000E+00 0.  1.
         13    1    3    3    0    0 -0.41731442473E+02  0.36603142561E+02 -0.40324890007E+02  0.68610495482E+02  0.00000000000E+00 0. -1.
         21    1    1    2  502  501 -0.28526769765E+02 -0.30738965100E+02  0.20100054580E+02  0.46504545614E+02  0.00000000000E+00 0.  1.
<scales pt_clust_5="13000.00000" pt_clust_6="13000.00000" pt_clust_7="13000.00000" pt_clust_8="13000.00000" pt_clust_9="41.93639"></scales>
<clustering>
<clus scale="   41.936">  1  9  2 -1</clus>
<clus scale="   90.723">  5  6 -1 -1</clus>
<clus scale="   91.232">  7  8 -1 -1</clus>
<clus scale="  101.052">  1  5  2 -1</clus>
<clus scale="   41.936">  1  5  2 -1</clus>
</clustering>
</event>
<event>
 9    1  0.1435532E-005  0.1935357E+03  0.7546771E-02  0.1155677E+00
          2   -1    0    0  502    0  0.00000000000E+00  0.00000000000E+00  0.26114841746E+03  0.26114841746E+03  0.00000000000E+00 0. -1.
         -2   -1    0    0    0  501 -0.00000000000E+00 -0.00000000000E+00 -0.24838553040E+03  0.24838553040E+03  0.00000000000E+00 0.  1.
         23    2    1    2    0    0  0.16619715890E+03  0.13518246605E+01 -0.13642088795E+03  0.23217780722E+03  0.87593107279E+02 0.  0.
         23    2    1    2    0    0 -0.18792409254E+03  0.55220647705E+01  0.12226345200E+03  0.24208556093E+03  0.91165285930E+02 0.  0.
        -11    1    4    4    0    0 -0.56303606755E+02  0.30242457507E+02  0.78429543430E+02  0.10117260327E+03  0.00000000000E+00 0.  1.
         11    1    4    4    0    0 -0.13162048579E+03 -0.24720392737E+02  0.43833908569E+02  0.14091295766E+03  0.00000000000E+00 0. -1.
        -13    1    3    3    0    0  0.68715719368E+02  0.33930451468E+02 -0.93242956672E+02  0.12069537934E+03  0.00000000000E+00 0.  1.
         13    1    3    3    0    0  0.97481439529E+02 -0.32578626807E+02 -0.43177931274E+02  0.11148242788E+03  0.00000000000E+00 0. -1.
         21    1    1    2  502  501  0.21726933647E+02 -0.68738894310E+01  0.26920323017E+02  0.35270579708E+02  0.00000000000E+00 0. -1.
<scales pt_clust_5="13000.00000" pt_clust_6="13000.00000" pt_clust_7="13000.00000" pt_clust_8="13000.00000" pt_clust_9="22.78837"></scales>
<clustering>
<clus scale="   22.788">  1  9  2 -1</clus>
<clus scale="   87.593">  7  8 -1 -1</clus>
<clus scale="   91.165">  5  6 -1 -1</clus>
<clus scale="  191.879">  2  7  1 -1</clus>
<clus scale="   22.788">  1  5  2 -1</clus>
</clustering>
</event>
<event>
 9    1  0.1435532E-005  0.2024137E+03  0.7546771E-02  0.1147719E+00
         -1   -1    0    0    0  501 -0.00000000000E+00  0.00000000000E+00  0.45797048239E+03  0.45797048239E+03  0.00000000000E+00 0.  1.
          1   -1    0    0  502    0  0.00000000000E+00 -0.00000000000E+00 -0.13725285890E+03  0.13725285890E+03  0.00000000000E+00 0. -1.
         23    2    1    2    0    0 -0.17308324304E+03  0.36245664624E+02  0.29121416257E+03  0.35251809146E+03  0.90508337198E+02 0.  0.
         23    2    1    2    0    0  0.19314307770E+03 -0.20969206173E+02  0.34242578247E+02  0.21704932689E+03  0.90520163874E+02 0.  0.
        -11    1    3    3    0    0 -0.11880110052E+03  0.13012978761E+02  0.25903058321E+03  0.28527159364E+03  0.00000000000E+00 0.  1.
         11    1    3    3    0    0 -0.54282142516E+02  0.23232685863E+02  0.32183579359E+02  0.67246497819E+02  0.00000000000E+00 0. -1.
        -13    1    4    4    0    0  0.17883471088E+03 -0.37086740893E+02  0.51138100814E+02  0.18966387511E+03  0.00000000000E+00 0. -1.
         13    1    4    4    0    0  0.14308366814E+02  0.16117534720E+02 -0.16895522567E+02  0.27385451779E+02  0.00000000000E+00 0.  1.
         21    1    1    2  502  501 -0.20059834660E+02 -0.15276458451E+02 -0.47391173253E+01  0.25655922950E+02  0.00000000000E+00 0. -1.
<scales pt_clust_5="13000.00000" pt_clust_6="13000.00000" pt_clust_7="13000.00000" pt_clust_8="13000.00000" pt_clust_9="25.21442"></scales>
<clustering>
<clus scale="   25.214">  2  9  1 -1</clus>
<clus scale="   90.508">  5  6 -1 -1</clus>
<clus scale="   90.520">  7  8 -1 -1</clus>
<clus scale="  202.408">  1  5  2 -1</clus>
<clus scale="   25.214">  2  5  1 -1</clus>
</clustering>
</event>
<event>
 9    1  0.1435532E-005  0.1169311E+03  0.7546771E-02  0.1248688E+00
          1   -1    0    0  502    0  0.00000000000E+00  0.00000000000E+00  0.77353753526E+03  0.77353753526E+03  0.00000000000E+00 0. -1.
         -1   -1    0    0    0  501 -0.00000000000E+00 -0.00000000000E+00 -0.25793690904E+02  0.25793690904E+02  0.00000000000E+00 0.  1.
         23    2    1    2    0    0 -0.69538245763E+01 -0.64845322035E+02  0.19839107787E+03  0.22840792188E+03  0.92508851114E+02 0.  0.
         23    2    1    2    0    0  0.34029905064E+02  0.73739695012E+02  0.39722995199E+03  0.41615387999E+03  0.93791470902E+02 0.  0.
        -11    1    4    4    0    0  0.62914669978E+02  0.64769931084E+02  0.33510969784E+03  0.34706182340E+03  0.00000000000E+00 0. -1.
         11    1    4    4    0    0 -0.28884764914E+02  0.89697639273E+01  0.62120254151E+02  0.69092056597E+02  0.00000000000E+00 0.  1.
        -13    1    3    3    0    0  0.21311700060E+02 -0.18876061547E+02  0.15917151706E+03  0.16169745237E+03  0.00000000000E+00 0. -1.
         13    1    3    3    0    0 -0.28265524637E+02 -0.45969260488E+02  0.39219560809E+02  0.66710469515E+02  0.00000000000E+00 0.  1.
         21    1    1    2  502  501 -0.27076080487E+02 -0.88943729767E+01  0.15212281450E+03  0.15476942429E+03  0.00000000000E+00 0.  1.
<scales pt_clust_5="13000.00000" pt_clust_6="13000.00000" pt_clust_7="13000.00000" pt_clust_8="13000.00000" pt_clust_9="28.49954"></scales>
<clustering>
<clus scale="   28.500">  1  9  2 -1</clus>
<clus scale="   92.509">  7  8 -1 -1</clus>
<clus scale="   93.791">  5  6 -1 -1</clus>
<clus scale="  115.905">  2  7  1 -1</clus>
<clus scale="   28.500">  1  5  2 -1</clus>
</clustering>
</event>
<event>
 9    1  0.1435532E-005  0.1040167E+03  0.7546771E-02  0.1272460E+00
         -2   -1    0    0    0  501 -0.00000000000E+00  0.00000000000E+00  0.41761471509E+02  0.41761471509E+02  0.00000000000E+00 0.  1.
          2   -1    0    0  502    0  0.00000000000E+00 -0.00000000000E+00 -0.74555137711E+03  0.74555137711E+03  0.00000000000E+00 0. -1.
         23    2    1    2    0    0  0.18757955557E+02 -0.26146931568E+02 -0.93160401528E+02  0.13245279182E+03  0.88483663587E+02 0.  0.
         23    2    1    2    0    0 -0.24502306399E+02  0.10136881769E+03 -0.23908019851E+03  0.27572918733E+03  0.89393753742E+02 0.  0.
        -11    1    4    4    0    0 -0.46576875218E+02  0.31198287362E+02 -0.15041287963E+03  0.16052031896E+03  0.00000000000E+00 0. -1.
         11    1    4    4    0    0  0.22074568819E+02  0.70170530323E+02 -0.88667318876E+02  0.11520886837E+03  0.00000000000E+00 0.  1.
        -11    1    3    3    0    0  0.16054548426E+02 -0.50520520357E+02 -0.22373143643E+02  0.57538066171E+02  0.00000000000E+00 0.  1.
         11    1    3    3    0    0  0.27034071314E+01  0.24373588789E+02 -0.70787257885E+02  0.74914725652E+02  0.00000000000E+00 0. -1.
         21    1    1    2  502  501  0.57443508422E+01 -0.75221886117E+02 -0.37154930556E+03  0.37913086947E+03  0.00000000000E+00 0.  1.
<scales pt_clust_5="13000.00000" pt_clust_6="13000.00000" pt_clust_7="13000.00000" pt_clust_8="13000.00000" pt_clust_9="75.44090"></scales>
<clustering>
<clus scale="   75.441">  2  9  1 -1</clus>
<clus scale="   88.484">  7  8 -1 -1</clus>
<clus scale="   89.394">  5  6 -1 -1</clus>
<clus scale="  103.236">  1  7  2 -1</clus>
<clus scale="   75.441">  2  5  1 -1</clus>
</clustering>
</event>
<event>
 9    1  0.1435532E-005  0.1094306E+03  0.7546771E-02  0.1261951E+00
         -1   -1    0    0    0  501 -0.00000000000E+00  0.00000000000E+00  0.61902293948E+02  0.61902293948E+02  0.00000000000E+00 0.  1.
          1   -1    0    0  502    0  0.00000000000E+00 -0.00000000000E+00 -0.29830523774E+03  0.29830523774E+03  0.00000000000E+00 0. -1.
         23    2    1    2    0    0  0.46543182075E+02  0.44752111658E+02 -0.30948861425E+02  0.11571513966E+03  0.90901827420E+02 0.  0.
         23    2    1    2    0    0 -0.44831785358E+02 -0.24043812875E+02 -0.13453483713E+03  0.17059177050E+03  0.91727508651E+02 0.  0.
        -13    1    3    3    0    0  0.32984145051E+02  0.72067978308E+02 -0.12963460015E+02  0.80310638259E+02  0.00000000000E+00 0.  1.
         13    1    3    3    0    0  0.13559037024E+02 -0.27315866649E+02 -0.17985401410E+02  0.35404501404E+02  0.00000000000E+00 0. -1.
        -13    1    4    4    0    0 -0.28844304889E+02  0.23537441740E+02 -0.10710449977E+03  0.11339038301E+03  0.00000000000E+00 0.  1.
         13    1    4    4    0    0 -0.15987480468E+02 -0.47581254614E+02 -0.27430337356E+02  0.57201387482E+02  0.00000000000E+00 0. -1.
         21    1    1    2  502  501 -0.17113967175E+01 -0.20708298784E+02 -0.70919245233E+02  0.73900621524E+02  0.00000000000E+00 0. -1.
<scales pt_clust_5="13000.00000" pt_clust_6="13000.00000" pt_clust_7="13000.00000" pt_clust_8="13000.00000" pt_clust_9="20.77890"></scales>
<clustering>
<clus scale="   20.779">  2  9  1 -1</clus>
<clus scale="   90.902">  5  6 -1 -1</clus>
<clus scale="   91.728">  7  8 -1 -1</clus>
<clus scale="  108.739">  1  5  2 -1</clus>
<clus scale="   20.779">  2  5  1 -1</clus>
</clustering>
</event>
<event>
 9    1  0.1435532E-005  0.1024231E+03  0.7546771E-02  0.1275320E+00
         -1   -1    0    0    0  501 -0.00000000000E+00  0.00000000000E+00  0.54246531736E+02  0.54246531736E+02  0.00000000000E+00 0.  1.
          1   -1    0    0  502    0  0.00000000000E+00 -0.00000000000E+00 -0.25522440581E+03  0.25522440581E+03  0.00000000000E+00 0. -1.
         23    2    1    2    0    0  0.76789774531E+01  0.36022046470E+02 -0.68268856773E+02  0.11932828287E+03  0.90675508053E+02 0.  0.
         23    2    1    2    0    0 -0.12802876664E+02 -0.59338255019E+02 -0.91237646616E+02  0.14229106630E+03  0.90760659032E+02 0.  0.
        -13    1    4    4    0    0 -0.44572457274E+02 -0.54554176599E+02 -0.83493818286E+02  0.10924321409E+03  0.00000000000E+00 0.  1.
         13    1    4    4    0    0  0.31769580610E+02 -0.47840784199E+01 -0.77438283301E+01  0.33047852210E+02  0.00000000000E+00 0. -1.
        -13    1    3    3    0    0 -0.19585082071E+02 -0.55647747153E+01 -0.66524541836E+02  0.69570516915E+02  0.00000000000E+00 0. -1.
         13    1    3    3    0    0  0.27264059524E+02  0.41586821185E+02 -0.17443149372E+01  0.49757765953E+02  0.00000000000E+00 0.  1.
         21    1    1    2  502  501  0.51238992111E+01  0.23316208549E+02 -0.41471370686E+02  0.47851588383E+02  0.00000000000E+00 0.  1.
<scales pt_clust_5="13000.00000" pt_clust_6="13000.00000" pt_clust_7="13000.00000" pt_clust_8="13000.00000" pt_clust_9="23.87258"></scales>
<clustering>
<clus scale="   23.873">  2  9  1 -1</clus>
<clus scale="   90.676">  7  8 -1 -1</clus>
<clus scale="   90.761">  5  6 -1 -1</clus>
<clus scale="  102.348">  1  7  2 -1</clus>
<clus scale="   23.873">  2  5  1 -1</clus>
</clustering>
</event>
<event>
 9    1  0.1435532E-005  0.1591449E+03  0.7546771E-02  0.1198073E+00
         -4   -1    0    0    0  501 -0.00000000000E+00  0.00000000000E+00  0.45040545479E+03  0.45040545479E+03  0.00000000000E+00 0.  1.
          4   -1    0    0  502    0  0.00000000000E+00 -0.00000000000E+00 -0.65269663691E+02  0.65269663691E+02  0.00000000000E+00 0. -1.
         23    2    1    2    0    0 -0.72745364345E+02 -0.66553861725E+02  0.22440856000E+03  0.26146324723E+03  0.91008369412E+02 0.  0.
         23    2    1    2    0    0  0.87985062488E+02  0.36367537804E+02  0.15104664841E+03  0.21903835519E+03  0.12688081818E+03 0.  0.
        -13    1    3    3    0    0 -0.52250875370E+02  0.63160957809E+01  0.13136926610E+03  0.14152007320E+03  0.00000000000E+00 0.  1.
         13    1    3    3    0    0 -0.20494488975E+02 -0.72869957506E+02  0.93039293900E+02  0.11994317402E+03  0.00000000000E+00 0. -1.
        -13    1    4    4    0    0 -0.24247932632E+02  0.35743890386E+02  0.23608693988E+02  0.49223555018E+02  0.00000000000E+00 0. -1.
         13    1    4    4    0    0  0.11223299512E+03  0.62364741785E+00  0.12743795442E+03  0.16981480017E+03  0.00000000000E+00 0.  1.
         21    1    1    2  502  501 -0.15239698143E+02  0.30186323922E+02  0.96805826884E+01  0.35173516068E+02  0.00000000000E+00 0. -1.
<scales pt_clust_5="13000.00000" pt_clust_6="13000.00000" pt_clust_7="13000.00000" pt_clust_8="13000.00000" pt_clust_9="33.81512"></scales>
<clustering>
<clus scale="   33.815">  2  9  1 -1</clus>
<clus scale="   91.008">  5  6 -1 -1</clus>
<clus scale="  126.881">  7  8 -1 -1</clus>
<clus scale="  132.329">  1  5  2 -1</clus>
<clus scale="   33.815">  2  5  1 -1</clus>
</clustering>
</event>
<event>
 9    1  0.1435532E-005  0.1104075E+03  0.7546771E-02  0.1260000E+00
         -2   -1    0    0    0  501 -0.00000000000E+00  0.00000000000E+00  0.39552230059E+02  0.39552230059E+02  0.00000000000E+00 0.  1.
          2   -1    0    0  502    0  0.00000000000E+00 -0.00000000000E+00 -0.49126822631E+03  0.49126822631E+03  0.00000000000E+00 0. -1.
         23    2    1    2    0    0 -0.93530854418E+01  0.70011453285E+02 -0.10858111205E+03  0.15831954596E+03  0.91028220578E+02 0.  0.
         23    2    1    2    0    0 -0.23226291926E+02 -0.47109444228E+02 -0.26141071566E+03  0.28159019832E+03  0.90546767775E+02 0.  0.
        -11    1    4    4    0    0 -0.41481317467E+02 -0.14857790210E+02 -0.48697025105E+02  0.65672322045E+02  0.00000000000E+00 0.  1.
         11    1    4    4    0    0  0.18255025541E+02 -0.32251654018E+02 -0.21271369056E+03  0.21591787628E+03  0.00000000000E+00 0. -1.
        -13    1    3    3    0    0 -0.49755939061E+02  0.40749762377E+02 -0.50608282304E+02  0.81837612644E+02  0.00000000000E+00 0.  1.
         13    1    3    3    0    0  0.40402853619E+02  0.29261690909E+02 -0.57972829744E+02  0.76481933317E+02  0.00000000000E+00 0. -1.
         21    1    1    2  502  501  0.32579377368E+02 -0.22902009057E+02 -0.81724168543E+02  0.90910712089E+02  0.00000000000E+00 0.  1.
<scales pt_clust_5="13000.00000" pt_clust_6="13000.00000" pt_clust_7="13000.00000" pt_clust_8="13000.00000" pt_clust_9="39.82358"></scales>
<clustering>
<clus scale="   39.824">  2  9  1 -1</clus>
<clus scale="   90.547">  5  6 -1 -1</clus>
<clus scale="   91.028">  7  8 -1 -1</clus>
<clus scale="  110.011">  2  5  1 -1</clus>
<clus scale="   39.824">  2  5  1 -1</clus>
</clustering>
</event>
<event>
 9    1  0.1435532E-005  0.1096689E+03  0.7546771E-02  0.1261605E+00
         -1   -1    0    0    0  501 -0.00000000000E+00  0.00000000000E+00  0.37728891583E+02  0.37728891583E+02  0.00000000000E+00 0.  1.
          1   -1    0    0  502    0  0.00000000000E+00 -0.00000000000E+00 -0.46171351920E+03  0.46171351920E+03  0.00000000000E+00 0. -1.
         23    2    1    2    0    0 -0.41614773707E+02  0.31917648126E+02 -0.10499059524E+03  0.14886350442E+03  0.91579431129E+02 0.  0.
         23    2    1    2    0    0  0.43790698072E+02 -0.58037309055E+02 -0.23975598880E+03  0.26711850328E+03  0.92646673699E+02 0.  0.
        -13    1    3    3    0    0  0.30530365338E+01 -0.27944704326E+02 -0.45022826038E+02  0.53078078303E+02  0.00000000000E+00 0. -1.
         13    1    3    3    0    0 -0.44667810241E+02  0.59862352452E+02 -0.59967769206E+02  0.95785426117E+02  0.00000000000E+00 0.  1.
        -13    1    4    4    0    0  0.50998569850E+02  0.50554423848E+01 -0.77851020742E+02  0.93205112816E+02  0.00000000000E+00 0.  1.
         13    1    4    4    0    0 -0.72078717780E+01 -0.63092751440E+02 -0.16190496806E+03  0.17391339046E+03  0.00000000000E+00 0. -1.
         21    1    1    2  502  501 -0.21759243648E+01  0.26119660929E+02 -0.79238043575E+02  0.83460403087E+02  0.00000000000E+00 0.  1.
<scales pt_clust_5="13000.00000" pt_clust_6="13000.00000" pt_clust_7="13000.00000" pt_clust_8="13000.00000" pt_clust_9="26.21014"></scales>
<clustering>
<clus scale="   26.210">  2  9  1 -1</clus>
<clus scale="   91.579">  5  6 -1 -1</clus>
<clus scale="   92.647">  7  8 -1 -1</clus>
<clus scale="  108.769">  1  5  2 -1</clus>
<clus scale="   26.210">  2  5  1 -1</clus>
</clustering>
</event>
<event>
 9    1  0.1435532E-005  0.9804087E+02  0.7546771E-02  0.1285219E+00
          2   -1    0    0  502    0  0.00000000000E+00  0.00000000000E+00  0.16694471118E+03  0.16694471118E+03  0.00000000000E+00 0. -1.
         -2   -1    0    0    0  501 -0.00000000000E+00 -0.00000000000E+00 -0.19428718937E+03  0.19428718937E+03  0.00000000000E+00 0.  1.
         23    2    1    2    0    0  0.24886110060E+02  0.28891801548E+02 -0.14142426544E+03  0.17044107286E+03  0.87150913893E+02 0.  0.
         23    2    1    2    0    0 -0.25927179000E+02 -0.65421004993E+02  0.68301953940E+02  0.13221387261E+03  0.88674825596E+02 0.  0.
        -13    1    3    3    0    0 -0.26296191010E-01  0.40410251513E+02 -0.18417362372E+02  0.44409327349E+02  0.00000000000E+00 0. -1.
         13    1    3    3    0    0  0.24912406251E+02 -0.11518449965E+02 -0.12300690306E+03  0.12603174551E+03  0.00000000000E+00 0.  1.
        -13    1    4    4    0    0  0.21995802770E+02 -0.44952518692E+02  0.62068758126E+02  0.79731267465E+02  0.00000000000E+00 0.  1.
         13    1    4    4    0    0 -0.47922981770E+02 -0.20468486301E+02  0.62331958140E+01  0.52482605149E+02  0.00000000000E+00 0. -1.
         21    1    1    2  502  501  0.10410689401E+01  0.36529203445E+02  0.45779833309E+02  0.58576955082E+02  0.00000000000E+00 0. -1.
<scales pt_clust_5="13000.00000" pt_clust_6="13000.00000" pt_clust_7="13000.00000" pt_clust_8="13000.00000" pt_clust_9="36.54404"></scales>
<clustering>
<clus scale="   36.544">  1  9  2 -1</clus>
<clus scale="   87.151">  5  6 -1 -1</clus>
<clus scale="   88.675">  7  8 -1 -1</clus>
<clus scale="   96.665">  2  5  1 -1</clus>
<clus scale="   36.544">  1  5  2 -1</clus>
</clustering>
</event>
<event>
 9    1  0.1435532E-005  0.1112627E+03  0.7546771E-02  0.1259971E+00
         -1   -1    0    0    0  501 -0.00000000000E+00  0.00000000000E+00  0.24929064692E+02  0.24929064692E+02  0.00000000000E+00 0.  1.
          1   -1    0    0  502    0  0.00000000000E+00 -0.00000000000E+00 -0.68999434387E+03  0.68999434387E+03  0.00000000000E+00 0. -1.
         23    2    1    2    0    0  0.83954883038E+01 -0.64586901616E+02 -0.20323763075E+03  0.23159414154E+03  0.89935308754E+02 0.  0.
         23    2    1    2    0    0 -0.27657127292E+02  0.50277181130E+02 -0.42692958628E+03  0.44097771948E+03  0.94338570091E+02 0.  0.
        -13    1    4    4    0    0  0.24548012780E+02  0.50830683347E+01 -0.35231603803E+02  0.43240125135E+02  0.00000000000E+00 0.  1.
         13    1    4    4    0    0 -0.52205140072E+02  0.45194112795E+02 -0.39169798248E+03  0.39773759435E+03  0.00000000000E+00 0. -1.
        -13    1    3    3    0    0  0.16602565922E+02 -0.18628290265E+02 -0.20235317984E+01  0.25035036935E+02  0.00000000000E+00 0.  1.
         13    1    3    3    0    0 -0.82070776179E+01 -0.45958611351E+02 -0.20121409895E+03  0.20655910461E+03  0.00000000000E+00 0. -1.
         21    1    1    2  502  501  0.19261638988E+02  0.14309720486E+02 -0.34898062152E+02  0.42351547538E+02  0.00000000000E+00 0.  1.
<scales pt_clust_5="13000.00000" pt_clust_6="13000.00000" pt_clust_7="13000.00000" pt_clust_8="13000.00000" pt_clust_9="23.99539"></scales>
<clustering>
<clus scale="   23.995">  1  9  2 -1</clus>
<clus scale="   89.935">  7  8 -1 -1</clus>
<clus scale="   94.339">  5  6 -1 -1</clus>
<clus scale="  107.555">  1  7  2 -1</clus>
<clus scale="  111.263">  2  5  1 -1</clus>
</clustering>
</event>
<event>
 9    1  0.1435532E-005  0.9766134E+02  0.7546771E-02  0.1287187E+00
          1   -1    0    0  502    0  0.00000000000E+00  0.00000000000E+00  0.13856140331E+03  0.13856140331E+03  0.00000000000E+00 0. -1.
         -1   -1    0    0    0  501 -0.00000000000E+00 -0.00000000000E+00 -0.34262021841E+03  0.34262021841E+03  0.00000000000E+00 0.  1.
         23    2    1    2    0    0 -0.22771943592E+02 -0.10035079948E+02 -0.30367330017E+03  0.31795672351E+03  0.90883114730E+02 0.  0.
         23    2    1    2    0    0  0.11283995264E+02  0.34487348621E+02  0.69323469005E+02  0.12263632772E+03  0.94431031747E+02 0.  0.
        -11    1    3    3    0    0  0.33497570967E+02 -0.14858923340E+02 -0.14401406809E+03  0.14860325256E+03  0.00000000000E+00 0.  1.
         11    1    3    3    0    0 -0.56269514558E+02  0.48238433924E+01 -0.15965923208E+03  0.16935347095E+03  0.00000000000E+00 0. -1.
        -11    1    4    4    0    0 -0.35298891737E+02  0.19527247609E+02  0.33199294587E+01  0.40476500450E+02  0.00000000000E+00 0.  1.
         11    1    4    4    0    0  0.46582887002E+02  0.14960101012E+02  0.66003539547E+02  0.82159827266E+02  0.00000000000E+00 0. -1.
         21    1    1    2  502  501  0.11487948327E+02 -0.24452268673E+02  0.30291016074E+02  0.40588570495E+02  0.00000000000E+00 0.  1.
<scales pt_clust_5="13000.00000" pt_clust_6="13000.00000" pt_clust_7="13000.00000" pt_clust_8="13000.00000" pt_clust_9="27.01641"></scales>
<clustering>
<clus scale="   27.016">  1  9  2 -1</clus>
<clus scale="   90.883">  5  6 -1 -1</clus>
<clus scale="   94.235">  2  5  1 -1</clus>
<clus scale="   94.431">  7  8 -1 -1</clus>
<clus scale="   27.016">  1  5  2 -1</clus>
</clustering>
</event>
<event>
 9    1  0.1435532E-005  0.9797812E+02  0.7546771E-02  0.1285134E+00
          1   -1    0    0  502    0  0.00000000000E+00  0.00000000000E+00  0.45211936814E+03  0.45211936814E+03  0.00000000000E+00 0. -1.
         -1   -1    0    0    0  501 -0.00000000000E+00 -0.00000000000E+00 -0.99784409442E+02  0.99784409442E+02  0.00000000000E+00 0.  1.
         23    2    1    2    0    0  0.28499506248E+02 -0.20161540975E+02 -0.60843328027E+02  0.11511188282E+03  0.91269520712E+02 0.  0.
         23    2    1    2    0    0 -0.48374780287E+02  0.28139163704E+01  0.23062691735E+03  0.25234415403E+03  0.90226157931E+02 0.  0.
        -13    1    4    4    0    0 -0.40239708378E+02 -0.16914528337E+02  0.22642558229E+03  0.23059462204E+03  0.00000000000E+00 0.  1.
         13    1    4    4    0    0 -0.81350719084E+01  0.19728444707E+02  0.42013350593E+01  0.21749531991E+02  0.00000000000E+00 0. -1.
        -13    1    3    3    0    0  0.51449767824E+02  0.31153306723E+01 -0.64109663125E+02  0.82260761000E+02  0.00000000000E+00 0.  1.
         13    1    3    3    0    0 -0.22950261576E+02 -0.23276871647E+02  0.32663350975E+01  0.32851121824E+02  0.00000000000E+00 0. -1.
         21    1    1    2  502  501  0.19875274039E+02  0.17347624605E+02  0.18255136938E+03  0.18444774073E+03  0.00000000000E+00 0.  1.
<scales pt_clust_5="13000.00000" pt_clust_6="13000.00000" pt_clust_7="13000.00000" pt_clust_8="13000.00000" pt_clust_9="26.38118"></scales>
<clustering>
<clus scale="   26.381">  1  9  2 -1</clus>
<clus scale="   90.226">  5  6 -1 -1</clus>
<clus scale="   91.270">  7  8 -1 -1</clus>
<clus scale="   97.007">  1  5  2 -1</clus>
<clus scale="   26.381">  1  5  2 -1</clus>
</clustering>
</event>
<event>
 9    1  0.1435532E-005  0.1154990E+03  0.7546771E-02  0.1254849E+00
         -1   -1    0    0    0  501 -0.00000000000E+00  0.00000000000E+00  0.57838463913E+02  0.57838463913E+02  0.00000000000E+00 0.  1.
          1   -1    0    0  502    0  0.00000000000E+00 -0.00000000000E+00 -0.43032926104E+03  0.43032926104E+03  0.00000000000E+00 0. -1.
         23    2    1    2    0    0  0.30630705096E+02  0.24118420761E+02 -0.67510569693E+02  0.13353711531E+03  0.10841838326E+03 0.  0.
         23    2    1    2    0    0 -0.52508727952E+02  0.21058906111E+02 -0.13060171205E+03  0.17317123300E+03  0.98644942645E+02 0.  0.
        -11    1    3    3    0    0 -0.34706990963E+02 -0.48654583447E+01 -0.48021310977E+02  0.59449930316E+02  0.00000000000E+00 0.  1.
         11    1    3    3    0    0  0.65337696060E+02  0.28983879106E+02 -0.19489258717E+02  0.74087184990E+02  0.00000000000E+00 0. -1.
        -11    1    4    4    0    0 -0.20335777986E+02 -0.36155026761E+02 -0.80628929285E+02  0.90673888546E+02  0.00000000000E+00 0. -1.
         11    1    4    4    0    0 -0.32172949966E+02  0.57213932872E+02 -0.49972782770E+02  0.82497344454E+02  0.00000000000E+00 0.  1.
         21    1    1    2  502  501  0.21878022856E+02 -0.45177326872E+02 -0.17437851538E+03  0.18145937665E+03  0.00000000000E+00 0. -1.
<scales pt_clust_5="13000.00000" pt_clust_6="13000.00000" pt_clust_7="13000.00000" pt_clust_8="13000.00000" pt_clust_9="50.19600"></scales>
<clustering>
<clus scale="   50.196">  2  9  1 -1</clus>
<clus scale="   98.645">  7  8 -1 -1</clus>
<clus scale="  106.378">  2  7  1 -1</clus>
<clus scale="  108.418">  5  6 -1 -1</clus>
<clus scale="   50.196">  2  5  1 -1</clus>
</clustering>
</event>
<event>
 9    1  0.1435532E-005  0.9347695E+02  0.7546771E-02  0.1295246E+00
          2   -1    0    0  502    0  0.00000000000E+00  0.00000000000E+00  0.23568128536E+03  0.23568128536E+03  0.00000000000E+00 0. -1.
         -2   -1    0    0    0  501 -0.00000000000E+00 -0.00000000000E+00 -0.16982718659E+03  0.16982718659E+03  0.00000000000E+00 0.  1.
         23    2    1    2    0    0 -0.87851811087E+01  0.75423339449E+01 -0.99885094029E+02  0.13694583836E+03  0.92968082844E+02 0.  0.
         23    2    1    2    0    0  0.48123264125E+01  0.47019555747E+02  0.10413457117E+02  0.10388456113E+03  0.91921514581E+02 0.  0.
        -11    1    3    3    0    0 -0.38577053766E+02  0.21953348855E+02 -0.93133717655E+02  0.10316989855E+03  0.00000000000E+00 0.  1.
         11    1    3    3    0    0  0.29791872658E+02 -0.14411014910E+02 -0.67513763744E+01  0.33775939811E+02  0.00000000000E+00 0. -1.
        -11    1    4    4    0    0 -0.22328227845E+02  0.29346267186E+01 -0.30490514127E+02  0.37905583288E+02  0.00000000000E+00 0. -1.
         11    1    4    4    0    0  0.27140554258E+02  0.44084929028E+02  0.40903971245E+02  0.65978977837E+02  0.00000000000E+00 0.  1.
         21    1    1    2  502  501  0.39728546961E+01 -0.54561889692E+02  0.15532573569E+03  0.16467807246E+03  0.00000000000E+00 0. -1.
<scales pt_clust_5="13000.00000" pt_clust_6="13000.00000" pt_clust_7="13000.00000" pt_clust_8="13000.00000" pt_clust_9="54.70634"></scales>
<clustering>
<clus scale="   54.706">  1  9  2 -1</clus>
<clus scale="   91.922">  7  8 -1 -1</clus>
<clus scale="   92.436">  1  7  2 -1</clus>
<clus scale="   92.968">  5  6 -1 -1</clus>
<clus scale="   54.706">  1  5  2 -1</clus>
</clustering>
</event>
<event>
 9    1  0.1435532E-005  0.2614989E+03  0.7546771E-02  0.1106530E+00
         -3   -1    0    0    0  501 -0.00000000000E+00  0.00000000000E+00  0.10708945446E+04  0.10708945446E+04  0.00000000000E+00 0.  1.
          3   -1    0    0  502    0  0.00000000000E+00 -0.00000000000E+00 -0.11438913888E+03  0.11438913888E+03  0.00000000000E+00 0. -1.
         23    2    1    2    0    0 -0.20301436421E+03  0.14776334051E+03  0.77921014624E+03  0.82388786876E+03  0.92595525928E+02 0.  0.
         23    2    1    2    0    0  0.13846265746E+03 -0.17475308868E+03  0.15190600575E+03  0.28696474893E+03  0.97789483244E+02 0.  0.
        -13    1    4    4    0    0  0.15255352312E+03 -0.15252200898E+03  0.14441749880E+03  0.25959960439E+03  0.00000000000E+00 0. -1.
         13    1    4    4    0    0 -0.14090865657E+02 -0.22231079698E+02  0.74885069467E+01  0.27365144542E+02  0.00000000000E+00 0.  1.
        -13    1    3    3    0    0 -0.19049992593E+03  0.10145846366E+03  0.68453916205E+03  0.71775894701E+03  0.00000000000E+00 0.  1.
         13    1    3    3    0    0 -0.12514438274E+02  0.46304876859E+02  0.94670984184E+02  0.10612892175E+03  0.00000000000E+00 0. -1.
         21    1    1    2  502  501  0.64551706740E+02  0.26989748164E+02  0.25389253745E+02  0.74431065791E+02  0.00000000000E+00 0.  1.
<scales pt_clust_5="13000.00000" pt_clust_6="13000.00000" pt_clust_7="13000.00000" pt_clust_8="13000.00000" pt_clust_9="69.96692"></scales>
<clustering>
<clus scale="   69.967">  2  9  1 -1</clus>
<clus scale="   92.596">  7  8 -1 -1</clus>
<clus scale="   97.789">  5  6 -1 -1</clus>
<clus scale="  259.601">  1  7  2 -1</clus>
<clus scale="   69.967">  2  5  1 -1</clus>
</clustering>
</event>
<event>
 9    1  0.1435532E-005  0.1074600E+03  0.7546771E-02  0.1267128E+00
         -3   -1    0    0    0  501 -0.00000000000E+00  0.00000000000E+00  0.27311185225E+03  0.27311185225E+03  0.00000000000E+00 0.  1.
          3   -1    0    0  502    0  0.00000000000E+00 -0.00000000000E+00 -0.67762732794E+02  0.67762732794E+02  0.00000000000E+00 0. -1.
         23    2    1    2    0    0 -0.15508842743E+02 -0.34507859056E+02  0.10531233635E+03  0.14687900297E+03  0.95139039229E+02 0.  0.
         23    2    1    2    0    0  0.32223124569E+02  0.53926022619E+02  0.11876143287E+03  0.16226161287E+03  0.90984654759E+02 0.  0.
        -11    1    4    4    0    0 -0.98643193877E+01  0.65803706710E+02  0.77386469834E+02  0.10205928829E+03  0.00000000000E+00 0.  1.
         11    1    4    4    0    0  0.42087443957E+02 -0.11877684091E+02  0.41374963033E+02  0.60202324574E+02  0.00000000000E+00 0. -1.
        -13    1    3    3    0    0  0.35410812982E+02  0.16914482234E+01  0.18687205088E+02  0.40074908698E+02  0.00000000000E+00 0.  1.
         13    1    3    3    0    0 -0.50919655725E+02 -0.36199307280E+02  0.86625131258E+02  0.10680409427E+03  0.00000000000E+00 0. -1.
         21    1    1    2  502  501 -0.16714281826E+02 -0.19418163563E+02 -0.18724649760E+02  0.31733969208E+02  0.00000000000E+00 0. -1.
<scales pt_clust_5="13000.00000" pt_clust_6="13000.00000" pt_clust_7="13000.00000" pt_clust_8="13000.00000" pt_clust_9="25.62093"></scales>
<clustering>
<clus scale="   25.621">  2  9  1 -1</clus>
<clus scale="   90.985">  5  6 -1 -1</clus>
<clus scale="   95.139">  7  8 -1 -1</clus>
<clus scale="  103.800">  2  5  1 -1</clus>
<clus scale="   25.621">  2  5  1 -1</clus>
</clustering>
</event>
<event>
 9    1  0.1435532E-005  0.2069102E+03  0.7546771E-02  0.1145097E+00
         -1   -1    0    0    0  501 -0.00000000000E+00  0.00000000000E+00  0.92018408073E+03  0.92018408073E+03  0.00000000000E+00 0.  1.
          1   -1    0    0  502    0  0.00000000000E+00 -0.00000000000E+00 -0.21499100833E+03  0.21499100833E+03  0.00000000000E+00 0. -1.
         23    2    1    2    0    0  0.17411195506E+03 -0.31580579516E+02  0.73956984064E+03  0.76728023039E+03  0.10219147157E+03 0.  0.
         23    2    1    2    0    0 -0.19618491176E+03  0.99995826031E+01  0.93814174977E+02  0.23603935909E+03  0.91241264563E+02 0.  0.
        -11    1    4    4    0    0 -0.17003563437E+03  0.34116129478E+02  0.51813816894E+02  0.18099916814E+03  0.00000000000E+00 0. -1.
         11    1    4    4    0    0 -0.26149277397E+02 -0.24116546875E+02  0.42000358083E+02  0.55040190958E+02  0.00000000000E+00 0.  1.
        -13    1    3    3    0    0  0.17400842287E+02 -0.43741975501E+02  0.16139703624E+03  0.16812243467E+03  0.00000000000E+00 0. -1.
         13    1    3    3    0    0  0.15671111277E+03  0.12161395985E+02  0.57817280440E+03  0.59915779572E+03  0.00000000000E+00 0.  1.
         21    1    1    2  502  501  0.22072956707E+02  0.21580996913E+02 -0.12819094322E+03  0.13185549958E+03  0.00000000000E+00 0. -1.
<scales pt_clust_5="13000.00000" pt_clust_6="13000.00000" pt_clust_7="13000.00000" pt_clust_8="13000.00000" pt_clust_9="30.86997"></scales>
<clustering>
<clus scale="   30.870">  2  9  1 -1</clus>
<clus scale="   91.241">  5  6 -1 -1</clus>
<clus scale="  102.191">  7  8 -1 -1</clus>
<clus scale="  201.727">  2  5  1 -1</clus>
<clus scale="   30.870">  2  5  1 -1</clus>
</clustering>
</event>
<event>
 9    1  0.1435532E-005  0.2164166E+03  0.7546771E-02  0.1136644E+00
         -1   -1    0    0    0  501 -0.00000000000E+00  0.00000000000E+00  0.10536490195E+03  0.10536490195E+03  0.00000000000E+00 0.  1.
          1   -1    0    0  502    0  0.00000000000E+00 -0.00000000000E+00 -0.73502842360E+03  0.73502842360E+03  0.00000000000E+00 0. -1.
         23    2    1    2    0    0  0.16926018040E+03  0.73907674672E+02 -0.11062560693E+03  0.23378451855E+03  0.91136288926E+02 0.  0.
         23    2    1    2    0    0 -0.20787648824E+03 -0.69834634794E+02 -0.29161852452E+03  0.37589819188E+03  0.90380176135E+02 0.  0.
        -11    1    4    4    0    0 -0.26967159717E+02 -0.35939082618E+02 -0.23562510163E+02  0.50734970659E+02  0.00000000000E+00 0.  1.
         11    1    4    4    0    0 -0.18090932852E+03 -0.33895552176E+02 -0.26805601436E+03  0.32516322122E+03  0.00000000000E+00 0. -1.
        -13    1    3    3    0    0  0.87000721461E+02 -0.80932384432E+01 -0.29955099222E+02  0.92368468714E+02  0.00000000000E+00 0.  1.
         13    1    3    3    0    0  0.82259458942E+02  0.82000913115E+02 -0.80670507704E+02  0.14141604983E+03  0.00000000000E+00 0. -1.
         21    1    1    2  502  501  0.38616307839E+02 -0.40730398781E+01 -0.22741939021E+03  0.23071061511E+03  0.00000000000E+00 0. -1.
<scales pt_clust_5="13000.00000" pt_clust_6="13000.00000" pt_clust_7="13000.00000" pt_clust_8="13000.00000" pt_clust_9="38.83051"></scales>
<clustering>
<clus scale="   38.831">  2  9  1 -1</clus>
<clus scale="   90.380">  5  6 -1 -1</clus>
<clus scale="   91.136">  7  8 -1 -1</clus>
<clus scale="  216.099">  2  5  1 -1</clus>
<clus scale="   38.831">  2  5  1 -1</clus>
</clustering>
</event>
<event>
 9    1  0.1435532E-005  0.2434464E+03  0.7546771E-02  0.1156677E+00
          4   -1    0    0  502    0  0.00000000000E+00  0.00000000000E+00  0.38030309934E+03  0.38030309934E+03  0.00000000000E+00 0. -1.
         -4   -1    0    0    0  501 -0.00000000000E+00 -0.00000000000E+00 -0.88294935546E+03  0.88294935546E+03  0.00000000000E+00 0.  1.
         23    2    1    2    0    0 -0.22987065413E+01 -0.18808272542E+02 -0.40378067707E+03  0.41461707129E+03  0.92246655570E+02 0.  0.
         23    2    1    2    0    0 -0.33455657947E+02  0.22567086209E+03  0.30635442988E+03  0.39226518162E+03  0.89287832112E+02 0.  0.
        -13    1    3    3    0    0  0.38940465017E+02 -0.30929216066E+02 -0.25239688367E+03  0.25724922373E+03  0.00000000000E+00 0. -1.
         13    1    3    3    0    0 -0.41239171559E+02  0.12120943525E+02 -0.15138379339E+03  0.15736784756E+03  0.00000000000E+00 0.  1.
        -13    1    4    4    0    0  0.14522612603E+02  0.17305575925E+03  0.22273185536E+03  0.28243349921E+03  0.00000000000E+00 0. -1.
         13    1    4    4    0    0 -0.47978270550E+02  0.52615102840E+02  0.83622574521E+02  0.10983168241E+03  0.00000000000E+00 0.  1.
         21    1    1    2  502  501  0.35754364488E+02 -0.20686258955E+03 -0.40522000892E+03  0.45637020188E+03  0.00000000000E+00 0.  1.
<scales pt_clust_5="13000.00000" pt_clust_6="13000.00000" pt_clust_7="13000.00000" pt_clust_8="13000.00000" pt_clust_9="226.48138"></scales>
<clustering>
<clus scale="   89.288">  7  8 -1 -1</clus>
<clus scale="   92.247">  5  6 -1 -1</clus>
<clus scale="   94.173">  2  5  1 -1</clus>
<clus scale="  226.481">  2  9  1 -1</clus>
<clus scale="  243.446">  1  5  2 -1</clus>
</clustering>
</event>
<event>
 9    1  0.1435532E-005  0.1132000E+03  0.7546771E-02  0.1255074E+00
          3   -1    0    0  502    0  0.00000000000E+00  0.00000000000E+00  0.36756409820E+02  0.36756409820E+02  0.00000000000E+00 0. -1.
         -3   -1    0    0    0  501 -0.00000000000E+00 -0.00000000000E+00 -0.75682024821E+03  0.75682024821E+03  0.00000000000E+00 0.  1.
         23    2    1    2    0    0 -0.32256712707E+02 -0.48315548073E+02 -0.47553569007E+03  0.48783597934E+03  0.92059016454E+02 0.  0.
         23    2    1    2    0    0  0.17963424315E+02  0.94651772344E+02 -0.19945118462E+03  0.23953436155E+03  0.91182743410E+02 0.  0.
        -13    1    3    3    0    0 -0.30587196794E+02  0.19458669794E+02 -0.10328862073E+03  0.10946577369E+03  0.00000000000E+00 0. -1.
         13    1    3    3    0    0 -0.16695159131E+01 -0.67774217867E+02 -0.37224706934E+03  0.37837020565E+03  0.00000000000E+00 0.  1.
        -13    1    4    4    0    0  0.32317677748E+02  0.39701348135E+02 -0.16579132492E+03  0.17351481999E+03  0.00000000000E+00 0.  1.
         13    1    4    4    0    0 -0.14354253433E+02  0.54950424209E+02 -0.33659859701E+02  0.66019541558E+02  0.00000000000E+00 0. -1.
         21    1    1    2  502  501  0.14293288392E+02 -0.46336224271E+02 -0.45076963710E+02  0.66206317147E+02  0.00000000000E+00 0. -1.
<scales pt_clust_5="13000.00000" pt_clust_6="13000.00000" pt_clust_7="13000.00000" pt_clust_8="13000.00000" pt_clust_9="48.49066"></scales>
<clustering>
<clus scale="   48.491">  1  9  2 -1</clus>
<clus scale="   91.183">  7  8 -1 -1</clus>
<clus scale="   92.059">  5  6 -1 -1</clus>
<clus scale="  112.489">  1  7  2 -1</clus>
<clus scale="   48.491">  1  5  2 -1</clus>
</clustering>
</event>
<event>
 9    1  0.1435532E-005  0.1023121E+03  0.7546771E-02  0.1276516E+00
          1   -1    0    0  502    0  0.00000000000E+00  0.00000000000E+00  0.90121529767E+02  0.90121529767E+02  0.00000000000E+00 0. -1.
         -1   -1    0    0    0  501 -0.00000000000E+00 -0.00000000000E+00 -0.33932153627E+03  0.33932153627E+03  0.00000000000E+00 0.  1.
         23    2    1    2    0    0  0.37057878790E+02  0.23323469577E+02 -0.26701623581E+03  0.28557451205E+03  0.91311889339E+02 0.  0.
         23    2    1    2    0    0 -0.35068218893E+01 -0.41187217909E+02  0.24954156786E+02  0.10519379566E+03  0.93457690881E+02 0.  0.
        -11    1    4    4    0    0 -0.43416839176E+02 -0.43564203691E+02  0.90560318656E+01  0.62168106618E+02  0.00000000000E+00 0.  1.
         11    1    4    4    0    0  0.39910017287E+02  0.23769857826E+01  0.15898124920E+02  0.43025689038E+02  0.00000000000E+00 0. -1.
        -13    1    3    3    0    0 -0.23003575038E+02  0.20833628608E+02 -0.39406700754E+02  0.50160667956E+02  0.00000000000E+00 0.  1.
         13    1    3    3    0    0  0.60061453828E+02  0.24898409691E+01 -0.22760953505E+03  0.23541384409E+03  0.00000000000E+00 0. -1.
         21    1    1    2  502  501 -0.33551056901E+02  0.17863748331E+02 -0.71379274866E+01  0.38674758337E+02  0.00000000000E+00 0.  1.
<scales pt_clust_5="13000.00000" pt_clust_6="13000.00000" pt_clust_7="13000.00000" pt_clust_8="13000.00000" pt_clust_9="38.01035"></scales>
<clustering>
<clus scale="   38.010">  1  9  2 -1</clus>
<clus scale="   91.312">  7  8 -1 -1</clus>
<clus scale="   93.458">  5  6 -1 -1</clus>
<clus scale="  100.356">  2  7  1 -1</clus>
<clus scale="   38.010">  1  5  2 -1</clus>
</clustering>
</event>
<event>
 9    1  0.1435532E-005  0.9975674E+02  0.7546771E-02  0.1280935E+00
         -1   -1    0    0    0  501 -0.00000000000E+00  0.00000000000E+00  0.27969994671E+03  0.27969994671E+03  0.00000000000E+00 0.  1.
          1   -1    0    0  502    0  0.00000000000E+00 -0.00000000000E+00 -0.83320949255E+02  0.83320949255E+02  0.00000000000E+00 0. -1.
         23    2    1    2    0    0  0.26205266326E+02 -0.28329892181E+02  0.13049463740E+03  0.16238234942E+03  0.88599538584E+02 0.  0.
         23    2    1    2    0    0 -0.52126935654E+02  0.24543392413E+02  0.10805840470E+03  0.15099058020E+03  0.88328596445E+02 0.  0.
        -11    1    3    3    0    0 -0.32576968421E+02 -0.13862845955E+02  0.38988226556E+02  0.52664211562E+02  0.00000000000E+00 0. -1.
         11    1    3    3    0    0  0.58782234747E+02 -0.14467046226E+02  0.91506410845E+02  0.10971813785E+03  0.00000000000E+00 0.  1.
        -13    1    4    4    0    0 -0.29337517603E+02 -0.27021723961E+02  0.15862975516E+02  0.42924322909E+02  0.00000000000E+00 0. -1.
         13    1    4    4    0    0 -0.22789418051E+02  0.51565116374E+02  0.92195429184E+02  0.10806625729E+03  0.00000000000E+00 0.  1.
         21    1    1    2  502  501  0.25921669328E+02  0.37864997678E+01 -0.42174044646E+02  0.49647966353E+02  0.00000000000E+00 0. -1.
<scales pt_clust_5="13000.00000" pt_clust_6="13000.00000" pt_clust_7="13000.00000" pt_clust_8="13000.00000" pt_clust_9="26.19677"></scales>
<clustering>
<clus scale="   26.197">  2  9  1 -1</clus>
<clus scale="   88.329">  7  8 -1 -1</clus>
<clus scale="   88.600">  5  6 -1 -1</clus>
<clus scale="   99.516">  2  7  1 -1</clus>
<clus scale="   26.197">  2  5  1 -1</clus>
</clustering>
</event>
<event>
 9    1  0.1435532E-005  0.1074001E+03  0.7546771E-02  0.1266265E+00
          1   -1    0    0  502    0  0.00000000000E+00  0.00000000000E+00  0.88700185993E+02  0.88700185993E+02  0.00000000000E+00 0. -1.
         -1   -1    0    0    0  501 -0.00000000000E+00 -0.00000000000E+00 -0.42744713330E+03  0.42744713330E+03  0.00000000000E+00 0.  1.
         23    2    1    2    0    0 -0.48422103176E+02 -0.21065868940E+02 -0.21720959519E+03  0.24098706765E+03  0.90034924445E+02 0.  0.
         23    2    1    2    0    0  0.68159580191E+02  0.43697664482E+01 -0.17973895884E+03  0.21147544291E+03  0.88039459311E+02 0.  0.
        -13    1    3    3    0    0  0.41431193050E+00 -0.21325772669E+02 -0.33124253382E+01  0.21585467239E+02  0.00000000000E+00 0.  1.
         13    1    3    3    0    0 -0.48836415106E+02  0.25990372933E+00 -0.21389716986E+03  0.21940160041E+03  0.00000000000E+00 0. -1.
        -13    1    4    4    0    0  0.39727082421E+02 -0.15104406490E+02 -0.17061042170E+03  0.17582462901E+03  0.00000000000E+00 0.  1.
         13    1    4    4    0    0  0.28432497770E+02  0.19474172938E+02 -0.91285371392E+01  0.35650813895E+02  0.00000000000E+00 0. -1.
         21    1    1    2  502  501 -0.19737477016E+02  0.16696102492E+02  0.58201606732E+02  0.63684808734E+02  0.00000000000E+00 0. -1.
<scales pt_clust_5="13000.00000" pt_clust_6="13000.00000" pt_clust_7="13000.00000" pt_clust_8="13000.00000" pt_clust_9="25.85204"></scales>
<clustering>
<clus scale="   25.852">  1  9  2 -1</clus>
<clus scale="   88.039">  7  8 -1 -1</clus>
<clus scale="   90.035">  5  6 -1 -1</clus>
<clus scale="  105.733">  1  7  2 -1</clus>
<clus scale="   25.852">  1  5  2 -1</clus>
</clustering>
</event>
<event>
 9    1  0.1435532E-005  0.1068050E+03  0.7546771E-02  0.1266745E+00
          1   -1    0    0  502    0  0.00000000000E+00  0.00000000000E+00  0.80893969315E+03  0.80893969315E+03  0.00000000000E+00 0. -1.
         -1   -1    0    0    0  501 -0.00000000000E+00 -0.00000000000E+00 -0.30291279694E+02  0.30291279694E+02  0.00000000000E+00 0.  1.
         23    2    1    2    0    0  0.51407110633E+02 -0.21636708604E+02  0.15533124305E+03  0.18863399125E+03  0.91346315767E+02 0.  0.
         23    2    1    2    0    0 -0.61466725369E+02 -0.28653492395E+02  0.26018022395E+03  0.28385628022E+03  0.91002516064E+02 0.  0.
        -11    1    3    3    0    0  0.66273162471E+02 -0.35922283918E+02  0.14913746847E+03  0.16710633455E+03  0.00000000000E+00 0. -1.
         11    1    3    3    0    0 -0.14866051838E+02  0.14285575314E+02  0.61937745796E+01  0.21527656697E+02  0.00000000000E+00 0.  1.
        -13    1    4    4    0    0 -0.85454493785E+02 -0.23973230213E+02  0.19512715355E+03  0.21436369172E+03  0.00000000000E+00 0.  1.
         13    1    4    4    0    0  0.23987768416E+02 -0.46802621823E+01  0.65053070406E+02  0.69492588503E+02  0.00000000000E+00 0. -1.
         21    1    1    2  502  501  0.10059614735E+02  0.50290201000E+02  0.36313694646E+03  0.36674070138E+03  0.00000000000E+00 0. -1.
<scales pt_clust_5="13000.00000" pt_clust_6="13000.00000" pt_clust_7="13000.00000" pt_clust_8="13000.00000" pt_clust_9="51.28645"></scales>
<clustering>
<clus scale="   51.286">  1  9  2 -1</clus>
<clus scale="   91.003">  7  8 -1 -1</clus>
<clus scale="   91.346">  5  6 -1 -1</clus>
<clus scale="  106.511">  1  7  2 -1</clus>
<clus scale="   51.286">  1  5  2 -1</clus>
</clustering>
</event>
<event>
 9    1  0.1435532E-005  0.1295732E+03  0.7546771E-02  0.1231805E+00
         -2   -1    0    0    0  501 -0.00000000000E+00  0.00000000000E+00  0.73711034543E+02  0.73711034543E+02  0.00000000000E+00 0.  1.
          2   -1    0    0  502    0  0.00000000000E+00 -0.00000000000E+00 -0.53943850813E+03  0.53943850813E+03  0.00000000000E+00 0. -1.
         23    2    1    2    0    0  0.65686610519E+02  0.70567108732E+02 -0.49095556000E+02  0.14926075563E+03  0.10282972292E+03 0.  0.
         23    2    1    2    0    0 -0.49175527989E+02  0.16891273713E+02 -0.29686406433E+03  0.31467108307E+03  0.90476903944E+02 0.  0.
        -11    1    4    4    0    0  0.24966614804E+02 -0.38450986110E+01 -0.49033004763E+02  0.55157521647E+02  0.00000000000E+00 0. -1.
         11    1    4    4    0    0 -0.74142142793E+02  0.20736372324E+02 -0.24783105957E+03  0.25951356142E+03  0.00000000000E+00 0.  1.
        -13    1    3    3    0    0  0.52444122921E+02  0.21096749759E+02 -0.73342185038E+02  0.92598785011E+02  0.00000000000E+00 0. -1.
         13    1    3    3    0    0  0.13242487598E+02  0.49470358973E+02  0.24246629038E+02  0.56661970619E+02  0.00000000000E+00 0.  1.
         21    1    1    2  502  501 -0.16511082530E+02 -0.87458382444E+02 -0.11976785326E+03  0.14921770398E+03  0.00000000000E+00 0. -1.
<scales pt_clust_5="13000.00000" pt_clust_6="13000.00000" pt_clust_7="13000.00000" pt_clust_8="13000.00000" pt_clust_9="89.00328"></scales>
<clustering>
<clus scale="   89.003">  2  9  1 -1</clus>
<clus scale="   90.477">  5  6 -1 -1</clus>
<clus scale="  102.830">  7  8 -1 -1</clus>
<clus scale="  120.006">  2  5  1 -1</clus>
<clus scale="   89.003">  2  5  1 -1</clus>
</clustering>
</event>
<event>
 9    1  0.1435532E-005  0.1283552E+03  0.7546771E-02  0.1231229E+00
          2   -1    0    0  502    0  0.00000000000E+00  0.00000000000E+00  0.60565313376E+03  0.60565313376E+03  0.00000000000E+00 0. -1.
         -2   -1    0    0    0  501 -0.00000000000E+00 -0.00000000000E+00 -0.63559163145E+02  0.63559163145E+02  0.00000000000E+00 0.  1.
         23    2    1    2    0    0  0.81920284558E+02 -0.80376127408E+02  0.11925635128E+03  0.18856100595E+03  0.90343349319E+02 0.  0.
         23    2    1    2    0    0 -0.85617862018E+02 -0.16954264484E+02  0.16686237342E+03  0.20677138336E+03  0.85401919939E+02 0.  0.
        -13    1    4    4    0    0 -0.81298737074E+02  0.12453438314E+02  0.79095880068E+02  0.11410841783E+03  0.00000000000E+00 0. -1.
         13    1    4    4    0    0 -0.43191249439E+01 -0.29407702799E+02  0.87766493356E+02  0.92662965527E+02  0.00000000000E+00 0.  1.
        -13    1    3    3    0    0  0.54280726052E+02 -0.98266879323E+02  0.83186233428E+02  0.13972374968E+03  0.00000000000E+00 0.  1.
         13    1    3    3    0    0  0.27639558505E+02  0.17890751915E+02  0.36070117847E+02  0.48837256270E+02  0.00000000000E+00 0. -1.
         21    1    1    2  502  501  0.36975774605E+01  0.97330391892E+02  0.25597524591E+03  0.27387990760E+03  0.00000000000E+00 0. -1.
<scales pt_clust_5="13000.00000" pt_clust_6="13000.00000" pt_clust_7="13000.00000" pt_clust_8="13000.00000" pt_clust_9="97.40060"></scales>
<clustering>
<clus scale="   85.402">  5  6 -1 -1</clus>
<clus scale="   90.343">  7  8 -1 -1</clus>
<clus scale="   97.401">  1  9  2 -1</clus>
<clus scale="  124.927">  1  5  2 -1</clus>
<clus scale="   97.401">  1  5  2 -1</clus>
</clustering>
</event>
<event>
 9    1  0.1435532E-005  0.1009712E+03  0.7546771E-02  0.1278475E+00
          2   -1    0    0  502    0  0.00000000000E+00  0.00000000000E+00  0.48811074818E+03  0.48811074818E+03  0.00000000000E+00 0. -1.
         -2   -1    0    0    0  501 -0.00000000000E+00 -0.00000000000E+00 -0.33045139960E+02  0.33045139960E+02  0.00000000000E+00 0.  1.
         23    2    1    2    0    0 -0.16380262549E+01  0.48548216938E+02  0.10120001034E+03  0.14474194474E+03  0.91373825447E+02 0.  0.
         23    2    1    2    0    0 -0.85996223788E+01 -0.29959220121E+02  0.21392130483E+03  0.23486972625E+03  0.91814787870E+02 0.  0.
        -11    1    4    4    0    0 -0.80930983618E+01  0.32607198663E+02  0.60931353392E+02  0.69579863983E+02  0.00000000000E+00 0.  1.
         11    1    4    4    0    0 -0.50652401696E+00 -0.62566418783E+02  0.15298995144E+03  0.16528986227E+03  0.00000000000E+00 0. -1.
        -11    1    3    3    0    0  0.20665928313E+02  0.69715466058E+02  0.69815565154E+02  0.10080446388E+03  0.00000000000E+00 0.  1.
         11    1    3    3    0    0 -0.22303954568E+02 -0.21167249119E+02  0.31384445187E+02  0.43937480861E+02  0.00000000000E+00 0. -1.
         21    1    1    2  502  501  0.10237648634E+02 -0.18588996818E+02  0.13994429305E+03  0.14154421715E+03  0.00000000000E+00 0.  1.
<scales pt_clust_5="13000.00000" pt_clust_6="13000.00000" pt_clust_7="13000.00000" pt_clust_8="13000.00000" pt_clust_9="21.22169"></scales>
<clustering>
<clus scale="   21.222">  1  9  2 -1</clus>
<clus scale="   91.374">  7  8 -1 -1</clus>
<clus scale="   91.815">  5  6 -1 -1</clus>
<clus scale="  100.570">  2  7  1 -1</clus>
<clus scale="   21.222">  1  5  2 -1</clus>
</clustering>
</event>
<event>
 9    1  0.1435532E-005  0.9880019E+02  0.7546771E-02  0.1283075E+00
          1   -1    0    0  502    0  0.00000000000E+00  0.00000000000E+00  0.37176098966E+02  0.37176098966E+02  0.00000000000E+00 0. -1.
         -1   -1    0    0    0  501 -0.00000000000E+00 -0.00000000000E+00 -0.41344507316E+03  0.41344507316E+03  0.00000000000E+00 0.  1.
         23    2    1    2    0    0  0.10871665541E+02 -0.43161893296E+02 -0.25700433921E+03  0.27638855855E+03  0.91423535169E+02 0.  0.
         23    2    1    2    0    0  0.59364762989E+00  0.22738511597E+02 -0.11728848867E+03  0.15072786766E+03  0.91896181570E+02 0.  0.
        -11    1    3    3    0    0  0.33179501067E+02 -0.25603777917E+02 -0.23927660554E+03  0.24291917728E+03  0.00000000000E+00 0.  1.
         11    1    3    3    0    0 -0.22307835526E+02 -0.17558115379E+02 -0.17727733672E+02  0.33469381271E+02  0.00000000000E+00 0. -1.
        -11    1    4    4    0    0  0.34151884514E+02  0.20103952103E+02 -0.10911427744E+03  0.11608809434E+03  0.00000000000E+00 0.  1.
         11    1    4    4    0    0 -0.33558236884E+02  0.26345594943E+01 -0.81742112334E+01  0.34639773322E+02  0.00000000000E+00 0. -1.
         21    1    1    2  502  501 -0.11465313171E+02  0.20423381699E+02 -0.19761463126E+01  0.23504745912E+02  0.00000000000E+00 0.  1.
<scales pt_clust_5="13000.00000" pt_clust_6="13000.00000" pt_clust_7="13000.00000" pt_clust_8="13000.00000" pt_clust_9="23.42153"></scales>
<clustering>
<clus scale="   23.422">  1  9  2 -1</clus>
<clus scale="   91.424">  5  6 -1 -1</clus>
<clus scale="   91.896">  7  8 -1 -1</clus>
<clus scale="   98.361">  2  5  1 -1</clus>
<clus scale="   23.422">  1  5  2 -1</clus>
</clustering>
</event>
<event>
 9    1  0.1435532E-005  0.1378396E+03  0.7546771E-02  0.1216482E+00
         -1   -1    0    0    0  501 -0.00000000000E+00  0.00000000000E+00  0.10547315624E+03  0.10547315624E+03  0.00000000000E+00 0.  1.
          1   -1    0    0  502    0  0.00000000000E+00 -0.00000000000E+00 -0.29985934891E+03  0.29985934891E+03  0.00000000000E+00 0. -1.
         23    2    1    2    0    0 -0.82981821869E+02 -0.56277664478E+02  0.49708922189E+01  0.13695272764E+03  0.93156757994E+02 0.  0.
         23    2    1    2    0    0  0.97989398749E+02  0.40642730944E+02 -0.11599655034E+03  0.18224815014E+03  0.92224913632E+02 0.  0.
        -11    1    3    3    0    0  0.98868249411E+01 -0.37793098639E+02 -0.11757830720E+02  0.40796007101E+02  0.00000000000E+00 0. -1.
         11    1    3    3    0    0 -0.92868646810E+02 -0.18484565839E+02  0.16728722939E+02  0.96156720543E+02  0.00000000000E+00 0.  1.
        -13    1    4    4    0    0  0.38239680837E+02  0.43913484250E+02 -0.79929431944E+01  0.58775457722E+02  0.00000000000E+00 0.  1.
         13    1    4    4    0    0  0.59749717911E+02 -0.32707533057E+01 -0.10800360714E+03  0.12347269242E+03  0.00000000000E+00 0. -1.
         21    1    1    2  502  501 -0.15007576880E+02  0.15634933534E+02 -0.83360534558E+02  0.86131627363E+02  0.00000000000E+00 0. -1.
<scales pt_clust_5="13000.00000" pt_clust_6="13000.00000" pt_clust_7="13000.00000" pt_clust_8="13000.00000" pt_clust_9="21.67207"></scales>
<clustering>
<clus scale="   21.672">  2  9  1 -1</clus>
<clus scale="   92.225">  7  8 -1 -1</clus>
<clus scale="   93.157">  5  6 -1 -1</clus>
<clus scale="  137.212">  2  7  1 -1</clus>
<clus scale="   21.672">  2  5  1 -1</clus>
</clustering>
</event>
<event>
 9    1  0.1435532E-005  0.1614861E+03  0.7546771E-02  0.1188131E+00
          1   -1    0    0  502    0  0.00000000000E+00  0.00000000000E+00  0.14937669476E+03  0.14937669476E+03  0.00000000000E+00 0. -1.
         -1   -1    0    0    0  501 -0.00000000000E+00 -0.00000000000E+00 -0.34821648064E+03  0.34821648064E+03  0.00000000000E+00 0.  1.
         23    2    1    2    0    0 -0.11471023882E+03 -0.57055045997E+02 -0.23010388566E+03  0.28042485993E+03  0.96315038847E+02 0.  0.
         23    2    1    2    0    0  0.12838100832E+03  0.41754414487E+02 -0.18737016528E+02  0.16312101308E+03  0.89622958513E+02 0.  0.
        -13    1    4    4    0    0  0.11899004119E+03  0.19695359898E+02 -0.43914148538E+02  0.12835493580E+03  0.00000000000E+00 0. -1.
         13    1    4    4    0    0  0.93909671387E+01  0.22059054589E+02  0.25177132009E+02  0.34766077279E+02  0.00000000000E+00 0.  1.
        -13    1    3    3    0    0 -0.10590815092E+03 -0.80154625111E+02 -0.21038591479E+03  0.24880420715E+03  0.00000000000E+00 0.  1.
         13    1    3    3    0    0 -0.88020879032E+01  0.23099579114E+02 -0.19717970876E+02  0.31620652779E+02  0.00000000000E+00 0. -1.
         21    1    1    2  502  501 -0.13670769503E+02  0.15300631510E+02  0.50001116310E+02  0.54047302390E+02  0.00000000000E+00 0. -1.
<scales pt_clust_5="13000.00000" pt_clust_6="13000.00000" pt_clust_7="13000.00000" pt_clust_8="13000.00000" pt_clust_9="20.51827"></scales>
<clustering>
<clus scale="   20.518">  1  9  2 -1</clus>
<clus scale="   89.623">  5  6 -1 -1</clus>
<clus scale="   96.315">  7  8 -1 -1</clus>
<clus scale="  157.586">  1  5  2 -1</clus>
<clus scale="   20.518">  1  5  2 -1</clus>
</clustering>
</event>
<event>
 9    1  0.1435532E-005  0.1093379E+03  0.7546771E-02  0.1261979E+00
         -2   -1    0    0    0  501 -0.00000000000E+00  0.00000000000E+00  0.13174360744E+03  0.13174360744E+03  0.00000000000E+00 0.  1.
          2   -1    0    0  502    0  0.00000000000E+00 -0.00000000000E+00 -0.46269881643E+03  0.46269881643E+03  0.00000000000E+00 0. -1.
         23    2    1    2    0    0  0.46292932135E+02  0.35343556236E+02  0.92973255874E+02  0.14370924527E+03  0.92823048509E+02 0.  0.
         23    2    1    2    0    0 -0.20742334857E+02 -0.48162332620E+02 -0.21814651869E+03  0.24297523431E+03  0.93269534842E+02 0.  0.
        -13    1    4    4    0    0  0.12364527953E+02 -0.62623319706E+02 -0.93593892159E+02  0.11328891549E+03  0.00000000000E+00 0.  1.
         13    1    4    4    0    0 -0.33106862810E+02  0.14460987086E+02 -0.12455262654E+03  0.12968631882E+03  0.00000000000E+00 0. -1.
        -13    1    3    3    0    0  0.35895386117E+02  0.13718149923E+02  0.10851667018E+03  0.11511965119E+03  0.00000000000E+00 0.  1.
         13    1    3    3    0    0  0.10397546019E+02  0.21625406313E+02 -0.15543414308E+02  0.28589594082E+02  0.00000000000E+00 0. -1.
         21    1    1    2  502  501 -0.25550597278E+02  0.12818776384E+02 -0.20578194616E+03  0.20775794429E+03  0.00000000000E+00 0. -1.
<scales pt_clust_5="13000.00000" pt_clust_6="13000.00000" pt_clust_7="13000.00000" pt_clust_8="13000.00000" pt_clust_9="28.58591"></scales>
<clustering>
<clus scale="   28.586">  2  9  1 -1</clus>
<clus scale="   92.823">  7  8 -1 -1</clus>
<clus scale="   93.270">  5  6 -1 -1</clus>
<clus scale="  108.957">  1  7  2 -1</clus>
<clus scale="   28.586">  2  5  1 -1</clus>
</clustering>
</event>
<event>
 9    1  0.1435532E-005  0.1097670E+03  0.7546771E-02  0.1264131E+00
          1   -1    0    0  502    0  0.00000000000E+00  0.00000000000E+00  0.36482750373E+03  0.36482750373E+03  0.00000000000E+00 0. -1.
         -1   -1    0    0    0  501 -0.00000000000E+00 -0.00000000000E+00 -0.55725876574E+02  0.55725876574E+02  0.00000000000E+00 0.  1.
         23    2    1    2    0    0 -0.11744695121E+02  0.28816338494E+02  0.78609437175E+02  0.12633209170E+03  0.93872437663E+02 0.  0.
         23    2    1    2    0    0  0.42438350774E+02 -0.39604394212E+02  0.82631844971E+02  0.14282391653E+03  0.10100063204E+03 0.  0.
        -11    1    4    4    0    0  0.21704766874E+02 -0.45021321138E+02 -0.71778589867E+01  0.50492949228E+02  0.00000000000E+00 0.  1.
         11    1    4    4    0    0  0.20733583899E+02  0.54169269260E+01  0.89809703958E+02  0.92330967306E+02  0.00000000000E+00 0. -1.
        -13    1    3    3    0    0  0.33177126756E+02  0.39529501887E+02  0.50846728823E+02  0.72447864642E+02  0.00000000000E+00 0. -1.
         13    1    3    3    0    0 -0.44921821877E+02 -0.10713163393E+02  0.27762708351E+02  0.53884227058E+02  0.00000000000E+00 0.  1.
         21    1    1    2  502  501 -0.30693655652E+02  0.10788055718E+02  0.14786034501E+03  0.15139737208E+03  0.00000000000E+00 0. -1.
<scales pt_clust_5="13000.00000" pt_clust_6="13000.00000" pt_clust_7="13000.00000" pt_clust_8="13000.00000" pt_clust_9="32.53433"></scales>
<clustering>
<clus scale="   32.534">  1  9  2 -1</clus>
<clus scale="   93.872">  7  8 -1 -1</clus>
<clus scale="  101.001">  5  6 -1 -1</clus>
<clus scale="  103.246">  2  7  1 -1</clus>
<clus scale="   32.534">  1  5  2 -1</clus>
</clustering>
</event>
<event>
 9    1  0.1435532E-005  0.1404199E+03  0.7546771E-02  0.1213905E+00
          1   -1    0    0  502    0  0.00000000000E+00  0.00000000000E+00  0.62192603566E+03  0.62192603566E+03  0.00000000000E+00 0. -1.
         -1   -1    0    0    0  501 -0.00000000000E+00 -0.00000000000E+00 -0.53653387827E+02  0.53653387827E+02  0.00000000000E+00 0.  1.
         23    2    1    2    0    0  0.84680233505E+02 -0.54851126436E+02  0.81937473739E+02  0.15972022673E+03  0.92830023192E+02 0.  0.
         23    2    1    2    0    0 -0.10344241846E+03  0.64750582358E+02  0.43851207657E+03  0.46354220651E+03  0.87667348922E+02 0.  0.
        -11    1    3    3    0    0  0.25409199500E+00 -0.26120681676E+02 -0.13243900793E+02  0.29287462884E+02  0.00000000000E+00 0. -1.
         11    1    3    3    0    0  0.84426141510E+02 -0.28730444759E+02  0.95181374532E+02  0.13043276385E+03  0.00000000000E+00 0.  1.
        -11    1    4    4    0    0 -0.97547709760E+02  0.28113354971E+02  0.22516954355E+03  0.24699643672E+03  0.00000000000E+00 0. -1.
         11    1    4    4    0    0 -0.58947086967E+01  0.36637227386E+02  0.21334253302E+03  0.21654576979E+03  0.00000000000E+00 0.  1.
         21    1    1    2  502  501  0.18762184952E+02 -0.98994559222E+01  0.47823097527E+02  0.52316990250E+02  0.00000000000E+00 0. -1.
<scales pt_clust_5="13000.00000" pt_clust_6="13000.00000" pt_clust_7="13000.00000" pt_clust_8="13000.00000" pt_clust_9="21.21365"></scales>
<clustering>
<clus scale="   21.214">  1  9  2 -1</clus>
<clus scale="   87.667">  7  8 -1 -1</clus>
<clus scale="   92.830">  5  6 -1 -1</clus>
<clus scale="  137.062">  1  7  2 -1</clus>
<clus scale="   21.214">  1  5  2 -1</clus>
</clustering>
</event>
<event>
 9    1  0.1435532E-005  0.1074308E+03  0.7546771E-02  0.1265892E+00
          1   -1    0    0  502    0  0.00000000000E+00  0.00000000000E+00  0.48036916710E+02  0.48036916710E+02  0.00000000000E+00 0. -1.
         -1   -1    0    0    0  501 -0.00000000000E+00 -0.00000000000E+00 -0.42008330470E+03  0.42008330470E+03  0.00000000000E+00 0.  1.
         23    2    1    2    0    0 -0.20726462607E+02 -0.29322590313E+02 -0.23011795963E+03  0.25263070315E+03  0.97870303331E+02 0.  0.
         23    2    1    2    0    0  0.39114643391E+02  0.43379260485E+02 -0.15268918060E+03  0.18996484475E+03  0.96751955032E+02 0.  0.
        -11    1    3    3    0    0 -0.25242581188E+02  0.32859496496E+02 -0.80373076306E+02  0.90425471024E+02  0.00000000000E+00 0.  1.
         11    1    3    3    0    0  0.45161185807E+01 -0.62182086809E+02 -0.14974488332E+03  0.16220523213E+03  0.00000000000E+00 0. -1.
        -13    1    4    4    0    0  0.58471481838E+02 -0.70716807033E+01 -0.83234019036E+02  0.10196482129E+03  0.00000000000E+00 0. -1.
         13    1    4    4    0    0 -0.19356838447E+02  0.50450941189E+02 -0.69455161561E+02  0.88000023460E+02  0.00000000000E+00 0.  1.
         21    1    1    2  502  501 -0.18388180783E+02 -0.14056670172E+02  0.10760752240E+02  0.25524673506E+02  0.00000000000E+00 0.  1.
<scales pt_clust_5="13000.00000" pt_clust_6="13000.00000" pt_clust_7="13000.00000" pt_clust_8="13000.00000" pt_clust_9="23.14552"></scales>
<clustering>
<clus scale="   23.146">  1  9  2 -1</clus>
<clus scale="   96.752">  7  8 -1 -1</clus>
<clus scale="   97.870">  5  6 -1 -1</clus>
<clus scale="  106.413">  1  7  2 -1</clus>
<clus scale="   23.146">  1  5  2 -1</clus>
</clustering>
</event>
<event>
 9    1  0.1435532E-005  0.1552278E+03  0.7546771E-02  0.1194275E+00
         -3   -1    0    0    0  501 -0.00000000000E+00  0.00000000000E+00  0.31715537869E+03  0.31715537869E+03  0.00000000000E+00 0.  1.
          3   -1    0    0  502    0  0.00000000000E+00 -0.00000000000E+00 -0.12010956362E+03  0.12010956362E+03  0.00000000000E+00 0. -1.
         23    2    1    2    0    0 -0.97453983348E+02  0.85448779648E+02  0.11271150326E+03  0.19451879932E+03  0.91295714623E+02 0.  0.
         23    2    1    2    0    0  0.40826831707E+02 -0.12404406756E+03  0.57055421163E+02  0.16898728977E+03  0.90816419969E+02 0.  0.
        -13    1    4    4    0    0  0.44539642763E+01 -0.50984591417E+02 -0.21683917099E+02  0.55582898633E+02  0.00000000000E+00 0.  1.
         13    1    4    4    0    0  0.36372867431E+02 -0.73059476145E+02  0.78739338262E+02  0.11340439114E+03  0.00000000000E+00 0. -1.
        -13    1    3    3    0    0 -0.37632570786E+02  0.20331543629E+02 -0.93604708261E+01  0.43785847764E+02  0.00000000000E+00 0. -1.
         13    1    3    3    0    0 -0.59821412562E+02  0.65117236019E+02  0.12207197409E+03  0.15073295156E+03  0.00000000000E+00 0.  1.
         21    1    1    2  502  501  0.56627151641E+02  0.38595287914E+02  0.27278890652E+02  0.73758853213E+02  0.00000000000E+00 0. -1.
<scales pt_clust_5="13000.00000" pt_clust_6="13000.00000" pt_clust_7="13000.00000" pt_clust_8="13000.00000" pt_clust_9="68.52905"></scales>
<clustering>
<clus scale="   68.529">  2  9  1 -1</clus>
<clus scale="   90.816">  5  6 -1 -1</clus>
<clus scale="   91.296">  7  8 -1 -1</clus>
<clus scale="  154.946">  2  5  1 -1</clus>
<clus scale="   68.529">  2  5  1 -1</clus>
</clustering>
</event>
<event>
 9    1  0.1435532E-005  0.1496269E+03  0.7546771E-02  0.1201155E+00
          3   -1    0    0  502    0  0.00000000000E+00  0.00000000000E+00  0.41368002620E+03  0.41368002620E+03  0.00000000000E+00 0. -1.
         -3   -1    0    0    0  501 -0.00000000000E+00 -0.00000000000E+00 -0.74465997817E+02  0.74465997817E+02  0.00000000000E+00 0.  1.
         23    2    1    2    0    0  0.23252928666E+02  0.11831835640E+03  0.10826414324E+03  0.18711490369E+03  0.93546407296E+02 0.  0.
         23    2    1    2    0    0 -0.61351318511E+02 -0.99964063173E+02  0.19451742346E+03  0.24521273937E+03  0.92387560372E+02 0.  0.
        -11    1    3    3    0    0 -0.27603537120E+02  0.87731749966E+01  0.36616973549E+02  0.46687542375E+02  0.00000000000E+00 0.  1.
         11    1    3    3    0    0  0.50856465786E+02  0.10954518140E+03  0.71647169691E+02  0.14042736131E+03  0.00000000000E+00 0. -1.
        -13    1    4    4    0    0 -0.32413589700E+01 -0.80002270303E+02  0.69965051955E+02  0.10632957329E+03  0.00000000000E+00 0.  1.
         13    1    4    4    0    0 -0.58109959541E+02 -0.19961792870E+02  0.12455237151E+03  0.13888316608E+03  0.00000000000E+00 0. -1.
         21    1    1    2  502  501  0.38098389844E+02 -0.18354293224E+02  0.36432461678E+02  0.55818380955E+02  0.00000000000E+00 0. -1.
<scales pt_clust_5="13000.00000" pt_clust_6="13000.00000" pt_clust_7="13000.00000" pt_clust_8="13000.00000" pt_clust_9="42.28909"></scales>
<clustering>
<clus scale="   42.289">  2  9  1 -1</clus>
<clus scale="   92.388">  7  8 -1 -1</clus>
<clus scale="   93.546">  5  6 -1 -1</clus>
<clus scale="  148.905">  1  7  2 -1</clus>
<clus scale="  148.905">  1  5  2 -1</clus>
</clustering>
</event>
<event>
 9    1  0.1435532E-005  0.1399701E+03  0.7546771E-02  0.1215173E+00
         -4   -1    0    0    0  501 -0.00000000000E+00  0.00000000000E+00  0.84446045500E+02  0.84446045500E+02  0.00000000000E+00 0.  1.
          4   -1    0    0  502    0  0.00000000000E+00 -0.00000000000E+00 -0.70891654353E+03  0.70891654353E+03  0.00000000000E+00 0. -1.
         23    2    1    2    0    0  0.55945574017E+02 -0.86827822998E+02  0.43355553885E+01  0.13742032186E+03  0.90534908852E+02 0.  0.
         23    2    1    2    0    0 -0.75785941521E+02  0.64935637159E+02 -0.59405975965E+03  0.61033291600E+03  0.98179042641E+02 0.  0.
        -11    1    3    3    0    0  0.16709112393E+02 -0.83980203070E+02  0.29678942798E+02  0.90623995665E+02  0.00000000000E+00 0.  1.
         11    1    3    3    0    0  0.39236461624E+02 -0.28476199285E+01 -0.25343387409E+02  0.46796326195E+02  0.00000000000E+00 0. -1.
        -11    1    4    4    0    0 -0.59063922648E+02  0.77573779267E+02 -0.57061321311E+03  0.57888312910E+03  0.00000000000E+00 0. -1.
         11    1    4    4    0    0 -0.16722018873E+02 -0.12638142108E+02 -0.23446546543E+02  0.31449786897E+02  0.00000000000E+00 0.  1.
         21    1    1    2  502  501  0.19840367504E+02  0.21892185839E+02 -0.34746293771E+02  0.45609351172E+02  0.00000000000E+00 0. -1.
<scales pt_clust_5="13000.00000" pt_clust_6="13000.00000" pt_clust_7="13000.00000" pt_clust_8="13000.00000" pt_clust_9="29.54502"></scales>
<clustering>
<clus scale="   29.545">  1  9  2 -1</clus>
<clus scale="   90.535">  5  6 -1 -1</clus>
<clus scale="   98.179">  7  8 -1 -1</clus>
<clus scale="  134.719">  1  5  2 -1</clus>
<clus scale="  139.970">  2  5  1 -1</clus>
</clustering>
</event>
<event>
 9    1  0.1435532E-005  0.9301958E+02  0.7546771E-02  0.1296199E+00
         -1   -1    0    0    0  501 -0.00000000000E+00  0.00000000000E+00  0.94588776649E+02  0.94588776649E+02  0.00000000000E+00 0.  1.
          1   -1    0    0  502    0  0.00000000000E+00 -0.00000000000E+00 -0.12872060227E+03  0.12872060227E+03  0.00000000000E+00 0. -1.
         23    2    1    2    0    0  0.30179656560E+02  0.12414659840E+01  0.94485489123E+01  0.95733026412E+02  0.90350342343E+02 0.  0.
         23    2    1    2    0    0 -0.96541957716E+01 -0.10196485619E+02 -0.49052224100E+02  0.10452362914E+03  0.91224429537E+02 0.  0.
        -13    1    3    3    0    0  0.27101843577E+02 -0.42949739668E+02  0.79928947431E+01  0.51410859060E+02  0.00000000000E+00 0. -1.
         13    1    3    3    0    0  0.30778129823E+01  0.44191205652E+02  0.14556541693E+01  0.44322167352E+02  0.00000000000E+00 0.  1.
        -13    1    4    4    0    0  0.38558323884E+01 -0.48937691105E+02 -0.37866020447E+02  0.61996778614E+02  0.00000000000E+00 0. -1.
         13    1    4    4    0    0 -0.13510028160E+02  0.38741205486E+02 -0.11186203653E+02  0.42526850525E+02  0.00000000000E+00 0.  1.
         21    1    1    2  502  501 -0.20525460788E+02  0.89550196346E+01  0.54718495631E+01  0.23052723372E+02  0.00000000000E+00 0.  1.
<scales pt_clust_5="13000.00000" pt_clust_6="13000.00000" pt_clust_7="13000.00000" pt_clust_8="13000.00000" pt_clust_9="22.39390"></scales>
<clustering>
<clus scale="   22.394">  1  9  2 -1</clus>
<clus scale="   90.350">  5  6 -1 -1</clus>
<clus scale="   91.224">  7  8 -1 -1</clus>
<clus scale="   92.163">  1  5  2 -1</clus>
<clus scale="   93.020">  2  5  1 -1</clus>
</clustering>
</event>
<event>
 9    1  0.1435532E-005  0.3765304E+03  0.7546771E-02  0.1096375E+00
          1   -1    0    0  502    0  0.00000000000E+00  0.00000000000E+00  0.30493161681E+04  0.30493161681E+04  0.00000000000E+00 0. -1.
         -1   -1    0    0    0  501 -0.00000000000E+00 -0.00000000000E+00 -0.94726125682E+02  0.94726125682E+02  0.00000000000E+00 0.  1.
         23    2    1    2    0    0 -0.26743040893E+01  0.68322018734E+02  0.50115542260E+02  0.12370064114E+03  0.90084576349E+02 0.  0.
         23    2    1    2    0    0  0.19320449990E+03 -0.33015608086E+03  0.23115359826E+04  0.23447419803E+04  0.91023837674E+02 0.  0.
        -11    1    4    4    0    0 -0.44290229437E+01 -0.50802863603E+02  0.29145499268E+03  0.29588267938E+03  0.00000000000E+00 0.  1.
         11    1    4    4    0    0  0.19763352285E+03 -0.27935321725E+03  0.20200809899E+04  0.20488593009E+04  0.00000000000E+00 0. -1.
        -11    1    3    3    0    0 -0.22298306517E+02  0.53655429799E+02 -0.98409780478E+01  0.58931862938E+02  0.00000000000E+00 0.  1.
         11    1    3    3    0    0  0.19624002427E+02  0.14666588935E+02  0.59956520308E+02  0.64768778202E+02  0.00000000000E+00 0. -1.
         21    1    1    2  502  501 -0.19053019582E+03  0.26183406212E+03  0.59293851755E+03  0.67559967229E+03  0.00000000000E+00 0.  1.
<scales pt_clust_5="13000.00000" pt_clust_6="13000.00000" pt_clust_7="13000.00000" pt_clust_8="13000.00000" pt_clust_9="365.36256"></scales>
<clustering>
<clus scale="   90.085">  7  8 -1 -1</clus>
<clus scale="   91.024">  5  6 -1 -1</clus>
<clus scale="  113.094">  2  7  1 -1</clus>
<clus scale="  365.363">  2  9  1 -1</clus>
<clus scale="  376.530">  1  5  2 -1</clus>
</clustering>
</event>
<event>
 9    1  0.1435532E-005  0.1047735E+03  0.7546771E-02  0.1270884E+00
         -2   -1    0    0    0  501 -0.00000000000E+00  0.00000000000E+00  0.20667408426E+03  0.20667408426E+03  0.00000000000E+00 0.  1.
          2   -1    0    0  502    0  0.00000000000E+00 -0.00000000000E+00 -0.24499060543E+03  0.24499060543E+03  0.00000000000E+00 0. -1.
         23    2    1    2    0    0  0.21498911739E+02  0.46875691379E+02  0.17445990162E+03  0.20395849832E+03  0.92213220938E+02 0.  0.
         23    2    1    2    0    0  0.27578562397E+01 -0.30194049252E+02 -0.17533005043E+03  0.20007323240E+03  0.91484344887E+02 0.  0.
        -11    1    4    4    0    0 -0.38295285759E+02 -0.31527080655E+01 -0.37303594229E+02  0.53553959909E+02  0.00000000000E+00 0.  1.
         11    1    4    4    0    0  0.41053141999E+02 -0.27041341187E+02 -0.13802645620E+03  0.14651927249E+03  0.00000000000E+00 0. -1.
        -13    1    3    3    0    0 -0.27987440005E+02  0.18522088634E+02  0.19451906048E+02  0.38790993984E+02  0.00000000000E+00 0. -1.
         13    1    3    3    0    0  0.49486351743E+02  0.28353602745E+02  0.15500799558E+03  0.16516750434E+03  0.00000000000E+00 0.  1.
         21    1    1    2  502  501 -0.24256767978E+02 -0.16681642127E+02 -0.37446372370E+02  0.47632958973E+02  0.00000000000E+00 0. -1.
<scales pt_clust_5="13000.00000" pt_clust_6="13000.00000" pt_clust_7="13000.00000" pt_clust_8="13000.00000" pt_clust_9="29.43923"></scales>
<clustering>
<clus scale="   29.439">  2  9  1 -1</clus>
<clus scale="   91.484">  5  6 -1 -1</clus>
<clus scale="   92.213">  7  8 -1 -1</clus>
<clus scale="  104.133">  2  5  1 -1</clus>
<clus scale="   29.439">  2  5  1 -1</clus>
</clustering>
</event>
<event>
 9    1  0.1435532E-005  0.9545605E+02  0.7546771E-02  0.1290329E+00
          1   -1    0    0  502    0  0.00000000000E+00  0.00000000000E+00  0.42877566430E+03  0.42877566430E+03  0.00000000000E+00 0. -1.
         -1   -1    0    0    0  501 -0.00000000000E+00 -0.00000000000E+00 -0.10531118113E+03  0.10531118113E+03  0.00000000000E+00 0.  1.
         23    2    1    2    0    0 -0.11234671591E+02 -0.24171844164E+02 -0.35115775746E+02  0.10273522677E+03  0.92795006429E+02 0.  0.
         23    2    1    2    0    0 -0.82519216485E+02  0.54025281295E+01  0.11144339402E+03  0.16636348922E+03  0.91752776931E+02 0.  0.
        -11    1    3    3    0    0 -0.35428611298E+02  0.23756405154E+02 -0.18860356225E+02  0.46639750442E+02  0.00000000000E+00 0.  1.
         11    1    3    3    0    0  0.24193939707E+02 -0.47928249318E+02 -0.16255419520E+02  0.56095476333E+02  0.00000000000E+00 0. -1.
        -13    1    4    4    0    0 -0.17653658041E+02  0.26557459876E+02 -0.41276417083E+01  0.32155679799E+02  0.00000000000E+00 0.  1.
         13    1    4    4    0    0 -0.64865558443E+02 -0.21154931746E+02  0.11557103573E+03  0.13420780942E+03  0.00000000000E+00 0. -1.
         21    1    1    2  502  501  0.93753888076E+02  0.18769316034E+02  0.24713686489E+03  0.26498812944E+03  0.00000000000E+00 0. -1.
<scales pt_clust_5="13000.00000" pt_clust_6="13000.00000" pt_clust_7="13000.00000" pt_clust_8="13000.00000" pt_clust_9="95.61422"></scales>
<clustering>
<clus scale="   91.753">  7  8 -1 -1</clus>
<clus scale="   92.795">  5  6 -1 -1</clus>
<clus scale="   95.614">  1  9  2 -1</clus>
<clus scale="   95.614">  1  7  2 -1</clus>
<clus scale="   95.456">  1  5  2 -1</clus>
</clustering>
</event>
<event>
 9    1  0.1435532E-005  0.1005316E+03  0.7546771E-02  0.1282432E+00
         -2   -1    0    0    0  501 -0.00000000000E+00  0.00000000000E+00  0.12439942129E+03  0.12439942129E+03  0.00000000000E+00 0.  1.
          2   -1    0    0  502    0  0.00000000000E+00 -0.00000000000E+00 -0.14351139036E+03  0.14351139036E+03  0.00000000000E+00 0. -1.
         23    2    1    2    0    0  0.19218860602E+02  0.17043571381E+02  0.48126451620E+02  0.10295265457E+03  0.87311200939E+02 0.  0.
         23    2    1    2    0    0  0.61761435310E+01 -0.42823814890E+02 -0.75369441005E+02  0.12786852670E+03  0.93796501066E+02 0.  0.
        -11    1    3    3    0    0  0.36072484142E+02  0.44085681978E+02  0.41315913405E+02  0.70368857943E+02  0.00000000000E+00 0.  1.
         11    1    3    3    0    0 -0.16853623540E+02 -0.27042110597E+02  0.68105382150E+01  0.32583796629E+02  0.00000000000E+00 0. -1.
        -11    1    4    4    0    0 -0.19717011086E+02  0.24237547807E+02 -0.19573459993E+02  0.36869222747E+02  0.00000000000E+00 0.  1.
         11    1    4    4    0    0  0.25893154617E+02 -0.67061362697E+02 -0.55795981011E+02  0.90999303952E+02  0.00000000000E+00 0. -1.
         21    1    1    2  502  501 -0.25395004133E+02  0.25780243508E+02  0.81310203093E+01  0.37089630378E+02  0.00000000000E+00 0.  1.
<scales pt_clust_5="13000.00000" pt_clust_6="13000.00000" pt_clust_7="13000.00000" pt_clust_8="13000.00000" pt_clust_9="36.18739"></scales>
<clustering>
<clus scale="   36.187">  1  9  2 -1</clus>
<clus scale="   87.311">  5  6 -1 -1</clus>
<clus scale="   93.797">  7  8 -1 -1</clus>
<clus scale="   94.510">  1  5  2 -1</clus>
<clus scale="  100.532">  2  5  1 -1</clus>
</clustering>
</event>
<event>
 9    1  0.1435532E-005  0.1146746E+03  0.7546771E-02  0.1253143E+00
         -2   -1    0    0    0  501 -0.00000000000E+00  0.00000000000E+00  0.12718945324E+03  0.12718945324E+03  0.00000000000E+00 0.  1.
          2   -1    0    0  502    0  0.00000000000E+00 -0.00000000000E+00 -0.39431544850E+03  0.39431544850E+03  0.00000000000E+00 0. -1.
         23    2    1    2    0    0 -0.51311242215E+02 -0.23246704028E+02  0.53814270589E+02  0.12024623878E+03  0.91596557774E+02 0.  0.
         23    2    1    2    0    0  0.88673738369E+02  0.39274441953E+02 -0.80555847415E+02  0.15746056385E+03  0.94334887225E+02 0.  0.
        -11    1    3    3    0    0 -0.37299711972E+02 -0.46271524526E+02  0.67567431368E+02  0.89987111726E+02  0.00000000000E+00 0.  1.
         11    1    3    3    0    0 -0.14011530243E+02  0.23024820498E+02 -0.13753160778E+02  0.30259127055E+02  0.00000000000E+00 0. -1.
        -11    1    4    4    0    0  0.48893116762E+02  0.21720271511E+02  0.12328416687E+02  0.54902613045E+02  0.00000000000E+00 0.  1.
         11    1    4    4    0    0  0.39780621606E+02  0.17554170443E+02 -0.92884264101E+02  0.10255795080E+03  0.00000000000E+00 0. -1.
         21    1    1    2  502  501 -0.37362496154E+02 -0.16027737925E+02 -0.24038441844E+03  0.24379809911E+03  0.00000000000E+00 0. -1.
<scales pt_clust_5="13000.00000" pt_clust_6="13000.00000" pt_clust_7="13000.00000" pt_clust_8="13000.00000" pt_clust_9="40.65519"></scales>
<clustering>
<clus scale="   40.655">  2  9  1 -1</clus>
<clus scale="   91.597">  5  6 -1 -1</clus>
<clus scale="   94.335">  7  8 -1 -1</clus>
<clus scale="  112.433">  1  5  2 -1</clus>
<clus scale="   40.655">  2  5  1 -1</clus>
</clustering>
</event>
<event>
 9    1  0.1435532E-005  0.1068997E+03  0.7546771E-02  0.1271002E+00
          1   -1    0    0  502    0  0.00000000000E+00  0.00000000000E+00  0.43104342685E+03  0.43104342685E+03  0.00000000000E+00 0. -1.
         -1   -1    0    0    0  501 -0.00000000000E+00 -0.00000000000E+00 -0.68629978461E+02  0.68629978461E+02  0.00000000000E+00 0.  1.
         23    2    1    2    0    0 -0.50811859908E+02  0.44825097305E+02  0.34442865429E+01  0.11338505442E+03  0.90846975739E+02 0.  0.
         23    2    1    2    0    0  0.44005720167E+00 -0.12515175667E+02  0.23677942293E+03  0.25023107677E+03  0.79964200655E+02 0.  0.
        -11    1    4    4    0    0  0.36017185714E+02  0.11031132626E+02  0.12640246556E+03  0.13189581818E+03  0.00000000000E+00 0. -1.
         11    1    4    4    0    0 -0.35577128512E+02 -0.23546308293E+02  0.11037695737E+03  0.11833525859E+03  0.00000000000E+00 0.  1.
        -13    1    3    3    0    0 -0.34973656528E+02 -0.18850958326E+01  0.39123546019E+02  0.52510590268E+02  0.00000000000E+00 0. -1.
         13    1    3    3    0    0 -0.15838203380E+02  0.46710193137E+02 -0.35679259476E+02  0.60874464154E+02  0.00000000000E+00 0.  1.
         21    1    1    2  502  501  0.50371802706E+02 -0.32309921638E+02  0.12218973891E+03  0.13605727412E+03  0.00000000000E+00 0. -1.
<scales pt_clust_5="13000.00000" pt_clust_6="13000.00000" pt_clust_7="13000.00000" pt_clust_8="13000.00000" pt_clust_9="59.84354"></scales>
<clustering>
<clus scale="   59.844">  1  9  2 -1</clus>
<clus scale="   79.964">  5  6 -1 -1</clus>
<clus scale="   90.847">  7  8 -1 -1</clus>
<clus scale="   97.819">  1  5  2 -1</clus>
<clus scale="   59.844">  1  5  2 -1</clus>
</clustering>
</event>
<event>
 9    1  0.1435532E-005  0.1086261E+03  0.7546771E-02  0.1263768E+00
          1   -1    0    0  502    0  0.00000000000E+00  0.00000000000E+00  0.92459222058E+02  0.92459222058E+02  0.00000000000E+00 0. -1.
         -1   -1    0    0    0  501 -0.00000000000E+00 -0.00000000000E+00 -0.34455352596E+03  0.34455352596E+03  0.00000000000E+00 0.  1.
         23    2    1    2    0    0  0.48927398232E+02  0.18047170760E+02 -0.22906846702E+03  0.25173602901E+03  0.90438238844E+02 0.  0.
         23    2    1    2    0    0 -0.94322296797E+02 -0.12682365992E-01 -0.12021516138E+01  0.13177706643E+03  0.92016597610E+02 0.  0.
        -11    1    3    3    0    0  0.42438330296E+01 -0.23180876838E+02 -0.12260224923E+02  0.26564568224E+02  0.00000000000E+00 0. -1.
         11    1    3    3    0    0  0.44683565202E+02  0.41228047598E+02 -0.21680824210E+03  0.22517146078E+03  0.00000000000E+00 0.  1.
        -13    1    4    4    0    0 -0.76757494157E+02 -0.12845487956E+02  0.38256432379E+02  0.86719513885E+02  0.00000000000E+00 0. -1.
         13    1    4    4    0    0 -0.17564802640E+02  0.12832805590E+02 -0.39458583993E+02  0.45057552550E+02  0.00000000000E+00 0.  1.
         21    1    1    2  502  501  0.45394898565E+02 -0.18034488394E+02 -0.21823685267E+02  0.53499652578E+02  0.00000000000E+00 0.  1.
<scales pt_clust_5="13000.00000" pt_clust_6="13000.00000" pt_clust_7="13000.00000" pt_clust_8="13000.00000" pt_clust_9="48.84608"></scales>
<clustering>
<clus scale="   48.846">  1  9  2 -1</clus>
<clus scale="   90.438">  5  6 -1 -1</clus>
<clus scale="   92.017">  7  8 -1 -1</clus>
<clus scale="  107.292">  2  5  1 -1</clus>
<clus scale="   48.846">  1  5  2 -1</clus>
</clustering>
</event>
<event>
 9    1  0.1435532E-005  0.1005344E+03  0.7546771E-02  0.1279190E+00
         -1   -1    0    0    0  501 -0.00000000000E+00  0.00000000000E+00  0.18202305533E+02  0.18202305533E+02  0.00000000000E+00 0.  1.
          1   -1    0    0  502    0  0.00000000000E+00 -0.00000000000E+00 -0.80531121211E+03  0.80531121211E+03  0.00000000000E+00 0. -1.
         23    2    1    2    0    0 -0.19356591662E+02  0.33291515025E+02 -0.27527962422E+03  0.29244372169E+03  0.90892553224E+02 0.  0.
         23    2    1    2    0    0  0.44283325216E+02 -0.25201328863E+02 -0.29889487182E+03  0.31652875944E+03  0.90863586121E+02 0.  0.
        -11    1    3    3    0    0 -0.14398720645E+02 -0.24081567595E+02 -0.32537731154E+02  0.42964508640E+02  0.00000000000E+00 0.  1.
         11    1    3    3    0    0 -0.49578710168E+01  0.57373082621E+02 -0.24274189307E+03  0.24947921305E+03  0.00000000000E+00 0. -1.
        -11    1    4    4    0    0  0.66038478624E+02 -0.38622477372E+02 -0.24868596415E+03  0.26018740396E+03  0.00000000000E+00 0.  1.
         11    1    4    4    0    0 -0.21755153408E+02  0.13421148509E+02 -0.50208907668E+02  0.56341355471E+02  0.00000000000E+00 0. -1.
         21    1    1    2  502  501 -0.24926733554E+02 -0.80901861624E+01 -0.21293441054E+03  0.21454103652E+03  0.00000000000E+00 0.  1.
<scales pt_clust_5="13000.00000" pt_clust_6="13000.00000" pt_clust_7="13000.00000" pt_clust_8="13000.00000" pt_clust_9="26.20674"></scales>
<clustering>
<clus scale="   26.207">  2  9  1 -1</clus>
<clus scale="   90.864">  7  8 -1 -1</clus>
<clus scale="   90.893">  5  6 -1 -1</clus>
<clus scale="  100.508">  2  7  1 -1</clus>
<clus scale="   26.207">  2  5  1 -1</clus>
</clustering>
</event>
<event>
 9    1  0.1435532E-005  0.1589797E+03  0.7546771E-02  0.1190302E+00
          2   -1    0    0  502    0  0.00000000000E+00  0.00000000000E+00  0.84908518045E+03  0.84908518045E+03  0.00000000000E+00 0. -1.
         -2   -1    0    0    0  501 -0.00000000000E+00 -0.00000000000E+00 -0.55231989674E+02  0.55231989674E+02  0.00000000000E+00 0.  1.
         23    2    1    2    0    0 -0.55689623055E+02  0.16552070828E+03  0.26668136479E+03  0.33051775936E+03  0.87318955235E+02 0.  0.
         23    2    1    2    0    0 -0.82510031476E+01 -0.90192521054E+02  0.29880300835E+03  0.32497204824E+03  0.90115617025E+02 0.  0.
        -11    1    3    3    0    0 -0.15341684229E+02  0.93922689346E+02  0.21036341097E+03  0.23088872542E+03  0.00000000000E+00 0. -1.
         11    1    3    3    0    0 -0.40347938826E+02  0.71598018932E+02  0.56317953812E+02  0.99629033941E+02  0.00000000000E+00 0.  1.
        -11    1    4    4    0    0  0.20554059697E+02 -0.94205761540E+02  0.20090317549E+03  0.22284362410E+03  0.00000000000E+00 0.  1.
         11    1    4    4    0    0 -0.28805062845E+02  0.40132404859E+01  0.97899832858E+02  0.10212842415E+03  0.00000000000E+00 0. -1.
         21    1    1    2  502  501  0.63940626202E+02 -0.75328187224E+02  0.22836881764E+03  0.24882736252E+03  0.00000000000E+00 0.  1.
<scales pt_clust_5="13000.00000" pt_clust_6="13000.00000" pt_clust_7="13000.00000" pt_clust_8="13000.00000" pt_clust_9="98.80658"></scales>
<clustering>
<clus scale="   87.319">  5  6 -1 -1</clus>
<clus scale="   90.116">  7  8 -1 -1</clus>
<clus scale="   98.807">  1  9  2 -1</clus>
<clus scale="  157.411">  2  5  1 -1</clus>
<clus scale="   98.807">  1  5  2 -1</clus>
</clustering>
</event>
<event>
 9    1  0.1435532E-005  0.1083810E+03  0.7546771E-02  0.1267571E+00
          2   -1    0    0  502    0  0.00000000000E+00  0.00000000000E+00  0.34056505090E+03  0.34056505090E+03  0.00000000000E+00 0. -1.
         -2   -1    0    0    0  501 -0.00000000000E+00 -0.00000000000E+00 -0.55732307455E+02  0.55732307455E+02  0.00000000000E+00 0.  1.
         23    2    1    2    0    0  0.16708298390E+02  0.67038657690E+02  0.55157837343E+02  0.11804975911E+03  0.78230491153E+02 0.  0.
         23    2    1    2    0    0 -0.46379072960E+02 -0.38676098555E+02  0.11814399342E+03  0.15940344033E+03  0.88343616631E+02 0.  0.
        -11    1    4    4    0    0  0.17230544350E+02 -0.20136950001E+02  0.76948203153E+02  0.81384362027E+02  0.00000000000E+00 0.  1.
         11    1    4    4    0    0 -0.63609617311E+02 -0.18539148554E+02  0.41195790267E+02  0.78019078303E+02  0.00000000000E+00 0. -1.
        -11    1    3    3    0    0 -0.14097805292E+02  0.39653991596E+02  0.63320885141E+02  0.76031057198E+02  0.00000000000E+00 0. -1.
         11    1    3    3    0    0  0.30806103682E+02  0.27384666094E+02 -0.81630477987E+01  0.42018701913E+02  0.00000000000E+00 0.  1.
         21    1    1    2  502  501  0.29670774570E+02 -0.28362559134E+02  0.11153091268E+03  0.11884415891E+03  0.00000000000E+00 0.  1.
<scales pt_clust_5="13000.00000" pt_clust_6="13000.00000" pt_clust_7="13000.00000" pt_clust_8="13000.00000" pt_clust_9="41.04619"></scales>
<clustering>
<clus scale="   41.046">  1  9  2 -1</clus>
<clus scale="   78.230">  7  8 -1 -1</clus>
<clus scale="   88.344">  5  6 -1 -1</clus>
<clus scale="  100.309">  2  7  1 -1</clus>
<clus scale="   41.046">  1  5  2 -1</clus>
</clustering>
</event>
<event>
 9    1  0.1435532E-005  0.1160127E+03  0.7546771E-02  0.1262721E+00
         -1   -1    0    0    0  501 -0.00000000000E+00  0.00000000000E+00  0.41499199675E+03  0.41499199675E+03  0.00000000000E+00 0.  1.
          1   -1    0    0  502    0  0.00000000000E+00 -0.00000000000E+00 -0.14931178479E+03  0.14931178479E+03  0.00000000000E+00 0. -1.
         23    2    1    2    0    0 -0.10621659474E+01 -0.28913990368E+02  0.30387447037E+03  0.32632197117E+03  0.11536545448E+03 0.  0.
         23    2    1    2    0    0 -0.15223617326E+01 -0.20585480603E+02  0.72511509659E+02  0.11668612003E+03  0.89059822469E+02 0.  0.
        -11    1    3    3    0    0  0.10915244183E+02  0.34242816911E+02  0.20675499846E+03  0.20985552757E+03  0.00000000000E+00 0.  1.
         11    1    3    3    0    0 -0.11977410131E+02 -0.63156807279E+02  0.97119471916E+02  0.11646644360E+03  0.00000000000E+00 0. -1.
        -13    1    4    4    0    0  0.38570035297E+02  0.11295616688E+02  0.31138166048E+02  0.50841164070E+02  0.00000000000E+00 0.  1.
         13    1    4    4    0    0 -0.40092397030E+02 -0.31881097291E+02  0.41373343611E+02  0.65844955962E+02  0.00000000000E+00 0. -1.
         21    1    1    2  502  501  0.25845276800E+01  0.49499470971E+02 -0.11070576807E+03  0.12129569034E+03  0.00000000000E+00 0. -1.
<scales pt_clust_5="13000.00000" pt_clust_6="13000.00000" pt_clust_7="13000.00000" pt_clust_8="13000.00000" pt_clust_9="49.56690"></scales>
<clustering>
<clus scale="   49.567">  2  9  1 -1</clus>
<clus scale="   89.060">  7  8 -1 -1</clus>
<clus scale="   89.897">  2  7  1 -1</clus>
<clus scale="  115.365">  5  6 -1 -1</clus>
<clus scale="   49.567">  2  5  1 -1</clus>
</clustering>
</event>
<event>
 9    1  0.1435532E-005  0.9524854E+02  0.7546771E-02  0.1304485E+00
          1   -1    0    0  502    0  0.00000000000E+00  0.00000000000E+00  0.25652571082E+03  0.25652571082E+03  0.00000000000E+00 0. -1.
         -1   -1    0    0    0  501 -0.00000000000E+00 -0.00000000000E+00 -0.81496813692E+02  0.81496813692E+02  0.00000000000E+00 0.  1.
         23    2    1    2    0    0  0.17977605896E+02 -0.14260891247E+02 -0.44331829617E+02  0.85657970690E+02  0.69608975661E+02 0.  0.
         23    2    1    2    0    0 -0.38409725720E+02  0.54600402489E+01  0.15668970561E+03  0.18586204719E+03  0.92129895642E+02 0.  0.
        -11    1    3    3    0    0 -0.22909440056E+02 -0.16005337065E+02 -0.40567055695E+01  0.28239513422E+02  0.00000000000E+00 0.  1.
         11    1    3    3    0    0  0.40887045952E+02  0.17444458181E+01 -0.40275124048E+02  0.57418457267E+02  0.00000000000E+00 0. -1.
        -11    1    4    4    0    0  0.21097017317E+02  0.19377608445E+02  0.94189154357E+02  0.98448832635E+02  0.00000000000E+00 0. -1.
         11    1    4    4    0    0 -0.59506743037E+02 -0.13917568196E+02  0.62500551255E+02  0.87413214553E+02  0.00000000000E+00 0.  1.
         21    1    1    2  502  501  0.20432119824E+02  0.88008509977E+01  0.62671021131E+02  0.66502506633E+02  0.00000000000E+00 0. -1.
<scales pt_clust_5="13000.00000" pt_clust_6="13000.00000" pt_clust_7="13000.00000" pt_clust_8="13000.00000" pt_clust_9="22.24694"></scales>
<clustering>
<clus scale="   22.247">  1  9  2 -1</clus>
<clus scale="   69.609">  5  6 -1 -1</clus>
<clus scale="   73.687">  2  5  1 -1</clus>
<clus scale="   92.130">  7  8 -1 -1</clus>
<clus scale="   22.247">  1  5  2 -1</clus>
</clustering>
</event>
<event>
 9    1  0.1435532E-005  0.2707592E+03  0.7546771E-02  0.1135696E+00
         -1   -1    0    0    0  501 -0.00000000000E+00  0.00000000000E+00  0.38516765241E+03  0.38516765241E+03  0.00000000000E+00 0.  1.
          1   -1    0    0  502    0  0.00000000000E+00 -0.00000000000E+00 -0.61182313589E+03  0.61182313589E+03  0.00000000000E+00 0. -1.
         23    2    1    2    0    0  0.70603381911E+02  0.24074005388E+01  0.12996543636E+03  0.17216807359E+03  0.88091984889E+02 0.  0.
         23    2    1    2    0    0 -0.14682465210E+03 -0.21641112245E+03 -0.48901638679E+03  0.56188577419E+03  0.90483944969E+02 0.  0.
        -11    1    4    4    0    0 -0.63328149061E+02 -0.26944421855E+02 -0.10360905907E+03  0.12438365429E+03  0.00000000000E+00 0.  1.
         11    1    4    4    0    0 -0.83496503044E+02 -0.18946670060E+03 -0.38540732771E+03  0.43750211989E+03  0.00000000000E+00 0. -1.
        -13    1    3    3    0    0  0.70372377639E+02  0.33573720080E+02  0.70911174918E+02  0.10539383731E+03  0.00000000000E+00 0.  1.
         13    1    3    3    0    0  0.23100427208E+00 -0.31166319541E+02  0.59054261442E+02  0.66774236283E+02  0.00000000000E+00 0. -1.
         21    1    1    2  502  501  0.76221270193E+02  0.21400372192E+03  0.13239546695E+03  0.26293694052E+03  0.00000000000E+00 0.  1.
<scales pt_clust_5="13000.00000" pt_clust_6="13000.00000" pt_clust_7="13000.00000" pt_clust_8="13000.00000" pt_clust_9="255.19250"></scales>
<clustering>
<clus scale="   88.092">  7  8 -1 -1</clus>
<clus scale="   90.484">  5  6 -1 -1</clus>
<clus scale="  112.920">  1  7  2 -1</clus>
<clus scale="  255.192">  1  9  2 -1</clus>
<clus scale="  270.759">  2  5  1 -1</clus>
</clustering>
</event>
<event>
 9    1  0.1435532E-005  0.9567491E+02  0.7546771E-02  0.1289972E+00
         -2   -1    0    0    0  501 -0.00000000000E+00  0.00000000000E+00  0.31966223846E+02  0.31966223846E+02  0.00000000000E+00 0.  1.
          2   -1    0    0  502    0  0.00000000000E+00 -0.00000000000E+00 -0.59131001428E+03  0.59131001428E+03  0.00000000000E+00 0. -1.
         23    2    1    2    0    0  0.28730157756E+01  0.28785825035E+02 -0.77827144698E+02  0.12340472539E+03  0.91295037396E+02 0.  0.
         23    2    1    2    0    0 -0.31042320809E+02 -0.12783996617E+02 -0.30168111888E+03  0.31714115133E+03  0.91869233872E+02 0.  0.
        -11    1    4    4    0    0  0.24682423776E+02 -0.30449333426E+02 -0.11239070871E+03  0.11902964065E+03  0.00000000000E+00 0.  1.
         11    1    4    4    0    0 -0.55724744585E+02  0.17665336809E+02 -0.18929041017E+03  0.19811151068E+03  0.00000000000E+00 0. -1.
        -11    1    3    3    0    0  0.24391027178E+02  0.45181287078E+02 -0.12713831728E+02  0.52895296823E+02  0.00000000000E+00 0.  1.
         11    1    3    3    0    0 -0.21518011403E+02 -0.16395462043E+02 -0.65113312970E+02  0.70509428563E+02  0.00000000000E+00 0. -1.
         21    1    1    2  502  501  0.28169305034E+02 -0.16001828418E+02 -0.17983552686E+03  0.18273036141E+03  0.00000000000E+00 0. -1.
<scales pt_clust_5="13000.00000" pt_clust_6="13000.00000" pt_clust_7="13000.00000" pt_clust_8="13000.00000" pt_clust_9="32.39704"></scales>
<clustering>
<clus scale="   32.397">  2  9  1 -1</clus>
<clus scale="   91.295">  7  8 -1 -1</clus>
<clus scale="   91.869">  5  6 -1 -1</clus>
<clus scale="   95.124">  1  7  2 -1</clus>
<clus scale="   32.397">  2  5  1 -1</clus>
</clustering>
</event>
<event>
 9    1  0.1435532E-005  0.1007036E+03  0.7546771E-02  0.1280004E+00
         -4   -1    0    0    0  501 -0.00000000000E+00  0.00000000000E+00  0.40667363423E+02  0.40667363423E+02  0.00000000000E+00 0.  1.
          4   -1    0    0  502    0  0.00000000000E+00 -0.00000000000E+00 -0.30419535904E+03  0.30419535904E+03  0.00000000000E+00 0. -1.
         23    2    1    2    0    0 -0.15434927640E+02 -0.44011880761E+02 -0.11506014780E+03  0.15595409868E+03  0.94379874153E+02 0.  0.
         23    2    1    2    0    0  0.53841557105E+01  0.25629136843E+02 -0.12600332165E+03  0.15819057979E+03  0.91986850587E+02 0.  0.
        -11    1    3    3    0    0  0.37757206042E+02 -0.34029042383E+02 -0.49614077948E+02  0.71029142359E+02  0.00000000000E+00 0. -1.
         11    1    3    3    0    0 -0.53192133682E+02 -0.99828383782E+01 -0.65446069848E+02  0.84924956322E+02  0.00000000000E+00 0.  1.
        -11    1    4    4    0    0  0.10821531891E+02 -0.30526347702E+02 -0.76728063809E+02  0.83283607225E+02  0.00000000000E+00 0. -1.
         11    1    4    4    0    0 -0.54373761801E+01  0.56155484545E+02 -0.49275257838E+02  0.74906972568E+02  0.00000000000E+00 0.  1.
         21    1    1    2  502  501  0.10050771929E+02  0.18382743918E+02 -0.22464526177E+02  0.30718043992E+02  0.00000000000E+00 0.  1.
<scales pt_clust_5="13000.00000" pt_clust_6="13000.00000" pt_clust_7="13000.00000" pt_clust_8="13000.00000" pt_clust_9="20.95097"></scales>
<clustering>
<clus scale="   20.951">  1  9  2 -1</clus>
<clus scale="   91.987">  7  8 -1 -1</clus>
<clus scale="   94.380">  5  6 -1 -1</clus>
<clus scale="   98.464">  2  7  1 -1</clus>
<clus scale="   98.464">  2  5  1 -1</clus>
</clustering>
</event>
<event>
 9    1  0.1435532E-005  0.1066843E+03  0.7546771E-02  0.1269776E+00
          1   -1    0    0  502    0  0.00000000000E+00  0.00000000000E+00  0.22860675097E+03  0.22860675097E+03  0.00000000000E+00 0. -1.
         -1   -1    0    0    0  501 -0.00000000000E+00 -0.00000000000E+00 -0.96890515006E+02  0.96890515006E+02  0.00000000000E+00 0.  1.
         23    2    1    2    0    0  0.85258821993E+01  0.47112857173E+02 -0.41320036633E+02  0.11613131509E+03  0.97400333362E+02 0.  0.
         23    2    1    2    0    0  0.20403437680E+01 -0.26892184786E+02  0.13388145861E+03  0.16404906461E+03  0.90887282036E+02 0.  0.
        -11    1    4    4    0    0  0.29767781126E+02 -0.24311329599E+02  0.13044661348E+03  0.13599073685E+03  0.00000000000E+00 0. -1.
         11    1    4    4    0    0 -0.27727437358E+02 -0.25808551868E+01  0.34348451291E+01  0.28058327766E+02  0.00000000000E+00 0.  1.
        -11    1    3    3    0    0  0.30715694631E+02 -0.10996333402E+02  0.11434850711E+02  0.34570638637E+02  0.00000000000E+00 0. -1.
         11    1    3    3    0    0 -0.22189812432E+02  0.58109190575E+02 -0.52754887343E+02  0.81560676454E+02  0.00000000000E+00 0.  1.
         21    1    1    2  502  501 -0.10566225967E+02 -0.20220672387E+02  0.39154813990E+02  0.45316886274E+02  0.00000000000E+00 0.  1.
<scales pt_clust_5="13000.00000" pt_clust_6="13000.00000" pt_clust_7="13000.00000" pt_clust_8="13000.00000" pt_clust_9="22.81492"></scales>
<clustering>
<clus scale="   22.815">  1  9  2 -1</clus>
<clus scale="   90.887">  5  6 -1 -1</clus>
<clus scale="   97.400">  7  8 -1 -1</clus>
<clus scale="  100.773">  1  5  2 -1</clus>
<clus scale="   22.815">  1  5  2 -1</clus>
</clustering>
</event>
<event>
 9    1  0.1435532E-005  0.1235478E+03  0.7546771E-02  0.1237588E+00
         -1   -1    0    0    0  501 -0.00000000000E+00  0.00000000000E+00  0.16551041425E+03  0.16551041425E+03  0.00000000000E+00 0.  1.
          1   -1    0    0  502    0  0.00000000000E+00 -0.00000000000E+00 -0.35280689670E+03  0.35280689670E+03  0.00000000000E+00 0. -1.
         23    2    1    2    0    0  0.55416439403E+02  0.52840304913E+02  0.66554778022E+02  0.13697960464E+03  0.92036916674E+02 0.  0.
         23    2    1    2    0    0 -0.36147500512E+01 -0.14923456209E+03 -0.16261049810E+03  0.23885913054E+03  0.91255077712E+02 0.  0.
        -11    1    4    4    0    0 -0.26765751154E+02 -0.14942843213E+03 -0.14156312242E+03  0.20757017944E+03  0.00000000000E+00 0. -1.
         11    1    4    4    0    0  0.23151001103E+02  0.19387004036E+00 -0.21047375675E+02  0.31288951092E+02  0.00000000000E+00 0.  1.
        -11    1    3    3    0    0  0.42208543941E+02  0.24386582267E+02 -0.13846472371E+02  0.50675352721E+02  0.00000000000E+00 0. -1.
         11    1    3    3    0    0  0.13207895462E+02  0.28453722645E+02  0.80401250393E+02  0.86304251921E+02  0.00000000000E+00 0.  1.
         21    1    1    2  502  501 -0.51801689352E+02  0.96394257180E+02 -0.91240762376E+02  0.14247857578E+03  0.00000000000E+00 0. -1.
<scales pt_clust_5="13000.00000" pt_clust_6="13000.00000" pt_clust_7="13000.00000" pt_clust_8="13000.00000" pt_clust_9="109.43157"></scales>
<clustering>
<clus scale="   91.255">  5  6 -1 -1</clus>
<clus scale="   92.037">  7  8 -1 -1</clus>
<clus scale="  109.432">  2  9  1 -1</clus>
<clus scale="  122.966">  2  5  1 -1</clus>
<clus scale="  109.432">  2  5  1 -1</clus>
</clustering>
</event>
<event>
 9    1  0.1435532E-005  0.9652962E+02  0.7546771E-02  0.1291809E+00
          1   -1    0    0  502    0  0.00000000000E+00  0.00000000000E+00  0.14744127593E+03  0.14744127593E+03  0.00000000000E+00 0. -1.
         -1   -1    0    0    0  501 -0.00000000000E+00 -0.00000000000E+00 -0.11818249374E+03  0.11818249374E+03  0.00000000000E+00 0.  1.
         23    2    1    2    0    0  0.23510121487E+02 -0.17307498713E+02 -0.62669757957E+02  0.11472468555E+03  0.91553151711E+02 0.  0.
         23    2    1    2    0    0 -0.41979268806E+02  0.60476659459E-01  0.77327709643E+02  0.12171426916E+03  0.84098311355E+02 0.  0.
        -11    1    3    3    0    0  0.32435893403E+02  0.22173161564E+02  0.97086445409E+00  0.39302402629E+02  0.00000000000E+00 0. -1.
         11    1    3    3    0    0 -0.89257719164E+01 -0.39480660277E+02 -0.63640622411E+02  0.75422282921E+02  0.00000000000E+00 0.  1.
        -13    1    4    4    0    0 -0.15967091276E+02  0.26034987990E+02  0.79222141113E+02  0.84905336970E+02  0.00000000000E+00 0.  1.
         13    1    4    4    0    0 -0.26012177530E+02 -0.25974511331E+02 -0.18944314695E+01  0.36808932195E+02  0.00000000000E+00 0. -1.
         21    1    1    2  502  501  0.18469147319E+02  0.17247022053E+02  0.14600830509E+02  0.29184814955E+02  0.00000000000E+00 0. -1.
<scales pt_clust_5="13000.00000" pt_clust_6="13000.00000" pt_clust_7="13000.00000" pt_clust_8="13000.00000" pt_clust_9="25.26993"></scales>
<clustering>
<clus scale="   25.270">  1  9  2 -1</clus>
<clus scale="   84.098">  7  8 -1 -1</clus>
<clus scale="   89.490">  1  7  2 -1</clus>
<clus scale="   91.553">  5  6 -1 -1</clus>
<clus scale="   25.270">  1  5  2 -1</clus>
</clustering>
</event>
<event>
 9    1  0.1435532E-005  0.1028245E+03  0.7546771E-02  0.1275389E+00
         -2   -1    0    0    0  501 -0.00000000000E+00  0.00000000000E+00  0.17590983614E+03  0.17590983614E+03  0.00000000000E+00 0.  1.
          2   -1    0    0  502    0  0.00000000000E+00 -0.00000000000E+00 -0.16954389478E+03  0.16954389478E+03  0.00000000000E+00 0. -1.
         23    2    1    2    0    0 -0.58847076556E+01  0.60932601306E+02  0.92597478035E+02  0.14310505240E+03  0.90318056876E+02 0.  0.
         23    2    1    2    0    0  0.53727002458E+01 -0.18574367190E+02  0.12265008865E+02  0.95129036517E+02  0.92332172734E+02 0.  0.
        -11    1    3    3    0    0  0.32728655153E+02  0.51668177826E+02  0.27972027500E+02  0.67254738052E+02  0.00000000000E+00 0. -1.
         11    1    3    3    0    0 -0.38613362809E+02  0.92644234799E+01  0.64625450536E+02  0.75850314348E+02  0.00000000000E+00 0.  1.
        -13    1    4    4    0    0 -0.14795321123E+02 -0.50001687383E+02  0.21911248259E+02  0.56561232913E+02  0.00000000000E+00 0.  1.
         13    1    4    4    0    0  0.20168021369E+02  0.31427320193E+02 -0.96462393943E+01  0.38567803605E+02  0.00000000000E+00 0. -1.
         21    1    1    2  502  501  0.51200740979E+00 -0.42358234116E+02 -0.98496545536E+02  0.10721964200E+03  0.00000000000E+00 0.  1.
<scales pt_clust_5="13000.00000" pt_clust_6="13000.00000" pt_clust_7="13000.00000" pt_clust_8="13000.00000" pt_clust_9="42.36133"></scales>
<clustering>
<clus scale="   42.361">  2  9  1 -1</clus>
<clus scale="   90.318">  5  6 -1 -1</clus>
<clus scale="   92.332">  7  8 -1 -1</clus>
<clus scale="  101.020">  1  5  2 -1</clus>
<clus scale="   42.361">  2  5  1 -1</clus>
</clustering>
</event>
<event>
 9    1  0.1435532E-005  0.1080781E+03  0.7546771E-02  0.1265257E+00
          3   -1    0    0  502    0  0.00000000000E+00  0.00000000000E+00  0.62987986937E+02  0.62987986937E+02  0.00000000000E+00 0. -1.
         -3   -1    0    0    0  501 -0.00000000000E+00 -0.00000000000E+00 -0.25370499272E+03  0.25370499272E+03  0.00000000000E+00 0.  1.
         23    2    1    2    0    0  0.20484012048E+02 -0.61375584910E+02 -0.13681713818E+03  0.17785918225E+03  0.93425918438E+02 0.  0.
         23    2    1    2    0    0 -0.43407969912E+01  0.39467905976E+02 -0.51044906227E+02  0.11147140364E+03  0.90795006780E+02 0.  0.
        -13    1    3    3    0    0 -0.63592783444E+01 -0.62248171636E+02 -0.33233090967E+02  0.70849937391E+02  0.00000000000E+00 0. -1.
         13    1    3    3    0    0  0.26843290392E+02  0.87258672583E+00 -0.10358404722E+03  0.10700924485E+03  0.00000000000E+00 0.  1.
        -13    1    4    4    0    0  0.29608711699E+02 -0.91727245975E+01  0.31089572418E+01  0.31152532805E+02  0.00000000000E+00 0.  1.
         13    1    4    4    0    0 -0.33949508690E+02  0.48640630574E+02 -0.54153863469E+02  0.80318870831E+02  0.00000000000E+00 0. -1.
         21    1    1    2  502  501 -0.16143215057E+02  0.21907678934E+02 -0.28549613719E+01  0.27362393775E+02  0.00000000000E+00 0. -1.
<scales pt_clust_5="13000.00000" pt_clust_6="13000.00000" pt_clust_7="13000.00000" pt_clust_8="13000.00000" pt_clust_9="27.21304"></scales>
<clustering>
<clus scale="   27.213">  1  9  2 -1</clus>
<clus scale="   90.795">  7  8 -1 -1</clus>
<clus scale="   93.426">  5  6 -1 -1</clus>
<clus scale="  105.812">  1  7  2 -1</clus>
<clus scale="   27.213">  1  5  2 -1</clus>
</clustering>
</event>
<event>
 9    1  0.1435532E-005  0.9298927E+02  0.7546771E-02  0.1296859E+00
         -1   -1    0    0    0  501 -0.00000000000E+00  0.00000000000E+00  0.89356141931E+02  0.89356141931E+02  0.00000000000E+00 0.  1.
          1   -1    0    0  502    0  0.00000000000E+00 -0.00000000000E+00 -0.16198990282E+03  0.16198990282E+03  0.00000000000E+00 0. -1.
         23    2    1    2    0    0 -0.33559265455E+02 -0.58926125350E+00  0.21758603951E+02  0.94943255652E+02  0.86105826872E+02 0.  0.
         23    2    1    2    0    0  0.16246428261E+02  0.26186663691E+02 -0.76760741561E+02  0.12082420730E+03  0.88071504121E+02 0.  0.
        -11    1    3    3    0    0  0.28886978149E+02 -0.67499644363E+01  0.67048974850E+01  0.30413404557E+02  0.00000000000E+00 0. -1.
         11    1    3    3    0    0 -0.62446243604E+02  0.61607031828E+01  0.15053706466E+02  0.64529851095E+02  0.00000000000E+00 0.  1.
        -13    1    4    4    0    0 -0.15419748470E+02 -0.22130713869E+02 -0.50742513428E+02  0.57465988273E+02  0.00000000000E+00 0.  1.
         13    1    4    4    0    0  0.31666176730E+02  0.48317377560E+02 -0.26018228133E+02  0.63358219026E+02  0.00000000000E+00 0. -1.
         21    1    1    2  502  501  0.17312837195E+02 -0.25597402437E+02 -0.17631623276E+02  0.35578581796E+02  0.00000000000E+00 0.  1.
<scales pt_clust_5="13000.00000" pt_clust_6="13000.00000" pt_clust_7="13000.00000" pt_clust_8="13000.00000" pt_clust_9="30.90245"></scales>
<clustering>
<clus scale="   30.902">  2  9  1 -1</clus>
<clus scale="   86.106">  5  6 -1 -1</clus>
<clus scale="   88.072">  7  8 -1 -1</clus>
<clus scale="   91.130">  1  5  2 -1</clus>
<clus scale="   30.902">  2  5  1 -1</clus>
</clustering>
</event>
<event>
 9    1  0.1435532E-005  0.1016597E+03  0.7546771E-02  0.1280510E+00
          2   -1    0    0  502    0  0.00000000000E+00  0.00000000000E+00  0.21086549061E+03  0.21086549061E+03  0.00000000000E+00 0. -1.
         -2   -1    0    0    0  501 -0.00000000000E+00 -0.00000000000E+00 -0.18692764670E+03  0.18692764670E+03  0.00000000000E+00 0.  1.
         23    2    1    2    0    0  0.23850847146E+02 -0.17143409842E+02 -0.77765785763E+02  0.12334947503E+03  0.91130763988E+02 0.  0.
         23    2    1    2    0    0 -0.86268265491E+02 -0.11295334470E+02 -0.31539297124E+02  0.12458248041E+03  0.83404250199E+02 0.  0.
        -11    1    4    4    0    0 -0.74787381166E+02 -0.33042607873E+02  0.34281504168E+01  0.81833480508E+02  0.00000000000E+00 0.  1.
         11    1    4    4    0    0 -0.11480884324E+02  0.21747273404E+02 -0.34967447541E+02  0.42748999905E+02  0.00000000000E+00 0. -1.
        -11    1    3    3    0    0 -0.24697194269E+02 -0.33274096734E+02 -0.19453148917E+02  0.45777089477E+02  0.00000000000E+00 0.  1.
         11    1    3    3    0    0  0.48548041416E+02  0.16130686892E+02 -0.58312636846E+02  0.77572385556E+02  0.00000000000E+00 0. -1.
         21    1    1    2  502  501  0.62417418344E+02  0.28438744311E+02  0.13324292679E+03  0.14986118187E+03  0.00000000000E+00 0. -1.
<scales pt_clust_5="13000.00000" pt_clust_6="13000.00000" pt_clust_7="13000.00000" pt_clust_8="13000.00000" pt_clust_9="68.59079"></scales>
<clustering>
<clus scale="   68.591">  1  9  2 -1</clus>
<clus scale="   83.404">  5  6 -1 -1</clus>
<clus scale="   91.131">  7  8 -1 -1</clus>
<clus scale="   94.795">  1  5  2 -1</clus>
<clus scale="   68.591">  1  5  2 -1</clus>
</clustering>
</event>
<event>
 9    1  0.1435532E-005  0.9448895E+02  0.7546771E-02  0.1292348E+00
          1   -1    0    0  502    0  0.00000000000E+00  0.00000000000E+00  0.59139768519E+02  0.59139768519E+02  0.00000000000E+00 0. -1.
         -1   -1    0    0    0  501 -0.00000000000E+00 -0.00000000000E+00 -0.30200048128E+03  0.30200048128E+03  0.00000000000E+00 0.  1.
         23    2    1    2    0    0 -0.12143875823E+02 -0.26434122061E+01 -0.13094491472E+03  0.16088700047E+03  0.92647692259E+02 0.  0.
         23    2    1    2    0    0 -0.27224973271E+02  0.42833610024E+02 -0.93393623389E+02  0.14102294262E+03  0.92677851389E+02 0.  0.
        -11    1    4    4    0    0 -0.98648185032E+01 -0.29218134183E+02 -0.35160911634E+02  0.46768618925E+02  0.00000000000E+00 0.  1.
         11    1    4    4    0    0 -0.17360154768E+02  0.72051744207E+02 -0.58232711755E+02  0.94254323695E+02  0.00000000000E+00 0. -1.
        -13    1    3    3    0    0  0.29233479296E+02  0.23317113942E+02 -0.27270027982E+02  0.46281081885E+02  0.00000000000E+00 0. -1.
         13    1    3    3    0    0 -0.41377355119E+02 -0.25960526148E+02 -0.10367488673E+03  0.11460591858E+03  0.00000000000E+00 0.  1.
         21    1    1    2  502  501  0.39368849094E+02 -0.40190197818E+02 -0.18522174661E+02  0.59230306717E+02  0.00000000000E+00 0. -1.
<scales pt_clust_5="13000.00000" pt_clust_6="13000.00000" pt_clust_7="13000.00000" pt_clust_8="13000.00000" pt_clust_9="56.25974"></scales>
<clustering>
<clus scale="   56.260">  1  9  2 -1</clus>
<clus scale="   92.648">  7  8 -1 -1</clus>
<clus scale="   92.678">  5  6 -1 -1</clus>
<clus scale="   94.459">  2  7  1 -1</clus>
<clus scale="   56.260">  1  5  2 -1</clus>
</clustering>
</event>
<event>
 9    1  0.1435532E-005  0.9587735E+02  0.7546771E-02  0.1289807E+00
          1   -1    0    0  502    0  0.00000000000E+00  0.00000000000E+00  0.26589345885E+03  0.26589345885E+03  0.00000000000E+00 0. -1.
         -1   -1    0    0    0  501 -0.00000000000E+00 -0.00000000000E+00 -0.86083863974E+02  0.86083863974E+02  0.00000000000E+00 0.  1.
         23    2    1    2    0    0 -0.97374582912E+01  0.17261920156E+02 -0.25768828282E+02  0.97592325620E+02  0.92018680318E+02 0.  0.
         23    2    1    2    0    0  0.31025047080E+02 -0.41626152812E+02  0.10315295287E+03  0.14697105848E+03  0.90910231546E+02 0.  0.
        -11    1    4    4    0    0 -0.98809921090E+01  0.24616872334E+02  0.21448756168E+02  0.34112659670E+02  0.00000000000E+00 0.  1.
         11    1    4    4    0    0  0.40906039189E+02 -0.66243025146E+02  0.81704196705E+02  0.11285839881E+03  0.00000000000E+00 0. -1.
        -13    1    3    3    0    0 -0.27708201652E+02 -0.31604660958E+02 -0.12769343003E+02  0.43927840304E+02  0.00000000000E+00 0.  1.
         13    1    3    3    0    0  0.17970743361E+02  0.48866581114E+02 -0.12999485280E+02  0.53664485316E+02  0.00000000000E+00 0. -1.
         21    1    1    2  502  501 -0.21287588789E+02  0.24364232656E+02  0.10242547028E+03  0.10741393872E+03  0.00000000000E+00 0.  1.
<scales pt_clust_5="13000.00000" pt_clust_6="13000.00000" pt_clust_7="13000.00000" pt_clust_8="13000.00000" pt_clust_9="32.35394"></scales>
<clustering>
<clus scale="   32.354">  1  9  2 -1</clus>
<clus scale="   90.910">  5  6 -1 -1</clus>
<clus scale="   92.019">  7  8 -1 -1</clus>
<clus scale="   94.814">  1  5  2 -1</clus>
<clus scale="   32.354">  1  5  2 -1</clus>
</clustering>
</event>
<event>
 9    1  0.1435532E-005  0.1664579E+03  0.7546771E-02  0.1181717E+00
          3   -1    0    0  502    0  0.00000000000E+00  0.00000000000E+00  0.20052187930E+03  0.20052187930E+03  0.00000000000E+00 0. -1.
         -3   -1    0    0    0  501 -0.00000000000E+00 -0.00000000000E+00 -0.19998428746E+03  0.19998428746E+03  0.00000000000E+00 0.  1.
         23    2    1    2    0    0 -0.14177239966E+03  0.42231458285E+02 -0.61920409093E+02  0.18437916305E+03  0.90986973403E+02 0.  0.
         23    2    1    2    0    0  0.13710761962E+03 -0.29052033268E+01  0.64841517166E+02  0.17645338966E+03  0.90135657823E+02 0.  0.
        -11    1    4    4    0    0  0.59749466371E+02  0.43775328076E+00  0.77642338567E+02  0.97972052636E+02  0.00000000000E+00 0. -1.
         11    1    4    4    0    0  0.77358153250E+02 -0.33429566076E+01 -0.12800821402E+02  0.78481337028E+02  0.00000000000E+00 0.  1.
        -13    1    3    3    0    0 -0.80621146365E+02  0.68959592695E+02 -0.29105465446E+02  0.11001055761E+03  0.00000000000E+00 0.  1.
         13    1    3    3    0    0 -0.61151253296E+02 -0.26728134410E+02 -0.32814943647E+02  0.74368605441E+02  0.00000000000E+00 0. -1.
         21    1    1    2  502  501  0.46647800403E+01 -0.39326254958E+02 -0.23835162391E+01  0.39673614046E+02  0.00000000000E+00 0.  1.
<scales pt_clust_5="13000.00000" pt_clust_6="13000.00000" pt_clust_7="13000.00000" pt_clust_8="13000.00000" pt_clust_9="39.60195"></scales>
<clustering>
<clus scale="   39.602">  2  9  1 -1</clus>
<clus scale="   90.136">  5  6 -1 -1</clus>
<clus scale="   90.987">  7  8 -1 -1</clus>
<clus scale="  165.994">  1  5  2 -1</clus>
<clus scale="  165.994">  1  5  2 -1</clus>
</clustering>
</event>
<event>
 9    1  0.1435532E-005  0.9314704E+02  0.7546771E-02  0.1295776E+00
          3   -1    0    0  502    0  0.00000000000E+00  0.00000000000E+00  0.15813194218E+03  0.15813194218E+03  0.00000000000E+00 0. -1.
         -3   -1    0    0    0  501 -0.00000000000E+00 -0.00000000000E+00 -0.12930635496E+03  0.12930635496E+03  0.00000000000E+00 0.  1.
         23    2    1    2    0    0 -0.18337429356E+02 -0.16439296625E+02 -0.70835365040E+02  0.11652464454E+03  0.89184259008E+02 0.  0.
         23    2    1    2    0    0  0.32396900529E+02 -0.43569028478E+01  0.35449113865E+02  0.10196939373E+03  0.89847514258E+02 0.  0.
        -13    1    4    4    0    0  0.41403254594E+02 -0.35859574994E+02  0.15086163120E+01  0.54794292886E+02  0.00000000000E+00 0.  1.
         13    1    4    4    0    0 -0.90063540644E+01  0.31502672146E+02  0.33940497553E+02  0.47175100848E+02  0.00000000000E+00 0. -1.
        -13    1    3    3    0    0 -0.29708026762E+02 -0.46439729403E+02 -0.24892664936E+02  0.60488512039E+02  0.00000000000E+00 0.  1.
         13    1    3    3    0    0  0.11370597406E+02  0.30000432778E+02 -0.45942700104E+02  0.56036132496E+02  0.00000000000E+00 0. -1.
         21    1    1    2  502  501 -0.14059471173E+02  0.20796199472E+02  0.64211838389E+02  0.68944258872E+02  0.00000000000E+00 0. -1.
<scales pt_clust_5="13000.00000" pt_clust_6="13000.00000" pt_clust_7="13000.00000" pt_clust_8="13000.00000" pt_clust_9="25.10280"></scales>
<clustering>
<clus scale="   25.103">  1  9  2 -1</clus>
<clus scale="   89.184">  7  8 -1 -1</clus>
<clus scale="   89.848">  5  6 -1 -1</clus>
<clus scale="   92.507">  2  7  1 -1</clus>
<clus scale="   25.103">  1  5  2 -1</clus>
</clustering>
</event>
<event>
 9    1  0.1435532E-005  0.9589345E+02  0.7546771E-02  0.1289297E+00
          2   -1    0    0  502    0  0.00000000000E+00  0.00000000000E+00  0.26840155511E+03  0.26840155511E+03  0.00000000000E+00 0. -1.
         -2   -1    0    0    0  501 -0.00000000000E+00 -0.00000000000E+00 -0.52984349570E+02  0.52984349570E+02  0.00000000000E+00 0.  1.
         23    2    1    2    0    0 -0.12337468995E+02  0.13957620718E+02  0.56312604976E+02  0.10855443817E+03  0.90917150475E+02 0.  0.
         23    2    1    2    0    0  0.34247247886E+02 -0.27593163846E+02  0.78151077542E+02  0.12786418259E+03  0.91144948233E+02 0.  0.
        -11    1    3    3    0    0 -0.21478306138E+02  0.50230400517E+02  0.26484597859E+02  0.60711157907E+02  0.00000000000E+00 0. -1.
         11    1    3    3    0    0  0.91408371432E+01 -0.36272779799E+02  0.29828007117E+02  0.47843280265E+02  0.00000000000E+00 0.  1.
        -11    1    4    4    0    0 -0.22828379378E+01 -0.50841782706E+02  0.18494008908E+02  0.54149114335E+02  0.00000000000E+00 0.  1.
         11    1    4    4    0    0  0.36530085823E+02  0.23248618859E+02  0.59657068634E+02  0.73715068250E+02  0.00000000000E+00 0. -1.
         21    1    1    2  502  501 -0.21909778891E+02  0.13635543128E+02  0.80953523019E+02  0.84967283919E+02  0.00000000000E+00 0.  1.
<scales pt_clust_5="13000.00000" pt_clust_6="13000.00000" pt_clust_7="13000.00000" pt_clust_8="13000.00000" pt_clust_9="25.80633"></scales>
<clustering>
<clus scale="   25.806">  1  9  2 -1</clus>
<clus scale="   90.917">  5  6 -1 -1</clus>
<clus scale="   91.145">  7  8 -1 -1</clus>
<clus scale="   95.677">  2  5  1 -1</clus>
<clus scale="   25.806">  1  5  2 -1</clus>
</clustering>
</event>
<event>
 9    1  0.1435532E-005  0.1043369E+03  0.7546771E-02  0.1272004E+00
          2   -1    0    0  502    0  0.00000000000E+00  0.00000000000E+00  0.32237347043E+03  0.32237347043E+03  0.00000000000E+00 0. -1.
         -2   -1    0    0    0  501 -0.00000000000E+00 -0.00000000000E+00 -0.10715539911E+03  0.10715539911E+03  0.00000000000E+00 0.  1.
         23    2    1    2    0    0 -0.27982055860E+02  0.40642939966E+02 -0.53450708312E+02  0.11541949499E+03  0.89609361042E+02 0.  0.
         23    2    1    2    0    0  0.48512683669E+02 -0.37785551689E+02  0.11473062878E+03  0.15878189587E+03  0.90924940925E+02 0.  0.
        -11    1    3    3    0    0  0.20567006889E+02  0.48226904663E+02 -0.34456846233E+02  0.62738428082E+02  0.00000000000E+00 0. -1.
         11    1    3    3    0    0 -0.48549062749E+02 -0.75839646971E+01 -0.18993862079E+02  0.52681066912E+02  0.00000000000E+00 0.  1.
        -13    1    4    4    0    0  0.36286251900E+02 -0.67669915167E+02  0.88612116620E+02  0.11725193690E+03  0.00000000000E+00 0. -1.
         13    1    4    4    0    0  0.12226431769E+02  0.29884363478E+02  0.26118512162E+02  0.41529958967E+02  0.00000000000E+00 0.  1.
         21    1    1    2  502  501 -0.20530627809E+02 -0.28573882773E+01  0.15393815085E+03  0.15532747868E+03  0.00000000000E+00 0. -1.
<scales pt_clust_5="13000.00000" pt_clust_6="13000.00000" pt_clust_7="13000.00000" pt_clust_8="13000.00000" pt_clust_9="20.72852"></scales>
<clustering>
<clus scale="   20.729">  1  9  2 -1</clus>
<clus scale="   89.609">  5  6 -1 -1</clus>
<clus scale="   90.925">  7  8 -1 -1</clus>
<clus scale="  103.192">  2  5  1 -1</clus>
<clus scale="   20.729">  1  5  2 -1</clus>
</clustering>
</event>
<event>
 9    1  0.1435532E-005  0.9327772E+02  0.7546771E-02  0.1299037E+00
         -1   -1    0    0    0  501 -0.00000000000E+00  0.00000000000E+00  0.16672240266E+03  0.16672240266E+03  0.00000000000E+00 0.  1.
          1   -1    0    0  502    0  0.00000000000E+00 -0.00000000000E+00 -0.16189723365E+03  0.16189723365E+03  0.00000000000E+00 0. -1.
         23    2    1    2    0    0  0.14536748833E+02 -0.92539124581E+01  0.12620706052E+03  0.15654649803E+03  0.91003472231E+02 0.  0.
         23    2    1    2    0    0 -0.35688718561E+02  0.21999091538E+02 -0.78382921429E+02  0.12248728505E+03  0.84271038709E+02 0.  0.
        -13    1    4    4    0    0 -0.25900088873E+02  0.25069509112E-01  0.12296829124E+02  0.28671017397E+02  0.00000000000E+00 0.  1.
         13    1    4    4    0    0 -0.97886296887E+01  0.21974022029E+02 -0.90679750553E+02  0.93816267649E+02  0.00000000000E+00 0. -1.
        -13    1    3    3    0    0  0.51853009943E+02 -0.15431184216E+02  0.64679927200E+02  0.84322885796E+02  0.00000000000E+00 0.  1.
         13    1    3    3    0    0 -0.37316261110E+02  0.61772717579E+01  0.61527133320E+02  0.72223612234E+02  0.00000000000E+00 0. -1.
         21    1    1    2  502  501  0.21151969728E+02 -0.12745179080E+02 -0.42998970082E+02  0.49585853238E+02  0.00000000000E+00 0. -1.
<scales pt_clust_5="13000.00000" pt_clust_6="13000.00000" pt_clust_7="13000.00000" pt_clust_8="13000.00000" pt_clust_9="24.69505"></scales>
<clustering>
<clus scale="   24.695">  2  9  1 -1</clus>
<clus scale="   84.271">  5  6 -1 -1</clus>
<clus scale="   86.722">  2  5  1 -1</clus>
<clus scale="   91.003">  7  8 -1 -1</clus>
<clus scale="   24.695">  2  5  1 -1</clus>
</clustering>
</event>
<event>
 9    1  0.1944512E-005  0.9197746E+02  0.7546771E-02  0.1301078E+00
         -2   -1    0    0    0  501 -0.00000000000E+00  0.00000000000E+00  0.11556524294E+03  0.11556524294E+03  0.00000000000E+00 0.  1.
          2   -1    0    0  502    0  0.00000000000E+00 -0.00000000000E+00 -0.21720895152E+03  0.21720895152E+03  0.00000000000E+00 0. -1.
         23    2    1    2    0    0 -0.75286800797E+01 -0.18669962791E+01  0.78239634432E+02  0.12059576943E+03  0.91442509312E+02 0.  0.
         23    2    1    2    0    0  0.27801038404E+02 -0.41242359206E+01 -0.15248489506E+03  0.17757295834E+03  0.86548282786E+02 0.  0.
        -11    1    4    4    0    0  0.46397284627E+02  0.27735249923E+02 -0.93579725378E+02  0.10806996396E+03  0.00000000000E+00 0. -1.
         11    1    4    4    0    0 -0.18596246224E+02 -0.31859485844E+02 -0.58905169682E+02  0.69502994375E+02  0.00000000000E+00 0.  1.
        -11    1    3    3    0    0  0.37079155949E+02 -0.27598596758E+01  0.90487748339E+01  0.38266969534E+02  0.00000000000E+00 0. -1.
         11    1    3    3    0    0 -0.44607836029E+02  0.89286339672E+00  0.69190859598E+02  0.82328799895E+02  0.00000000000E+00 0.  1.
         21    1    1    2  502  501 -0.20272358324E+02  0.59912321997E+01 -0.27398447949E+02  0.34605466696E+02  0.00000000000E+00 0.  1.
<scales pt_clust_5="13000.00000" pt_clust_6="13000.00000" pt_clust_7="13000.00000" pt_clust_8="13000.00000" pt_clust_9="21.13914"></scales>
<clustering>
<clus scale="   21.139">  2  9  1 -1</clus>
<clus scale="   86.548">  5  6 -1 -1</clus>
<clus scale="   87.113">  2  5  1 -1</clus>
<clus scale="   91.443">  7  8 -1 -1</clus>
<clus scale="   21.139">  2  5  1 -1</clus>
</clustering>
</event>
<event>
 9    1  0.1435532E-005  0.1022062E+03  0.7546771E-02  0.1276563E+00
          3   -1    0    0  502    0  0.00000000000E+00  0.00000000000E+00  0.25062171803E+03  0.25062171803E+03  0.00000000000E+00 0. -1.
         -3   -1    0    0    0  501 -0.00000000000E+00 -0.00000000000E+00 -0.84356484731E+02  0.84356484731E+02  0.00000000000E+00 0.  1.
         23    2    1    2    0    0  0.41972271362E+02 -0.19578843372E+02 -0.17223372993E+02  0.10293440979E+03  0.90298646009E+02 0.  0.
         23    2    1    2    0    0 -0.25190654903E+02  0.34946141328E+02  0.89894762590E+02  0.13572357662E+03  0.92108734777E+02 0.  0.
        -11    1    3    3    0    0  0.43632179185E+02  0.50550688368E+01 -0.46948974693E+02  0.64292511275E+02  0.00000000000E+00 0.  1.
         11    1    3    3    0    0 -0.16599078221E+01 -0.24633912209E+02  0.29725601700E+02  0.38641898518E+02  0.00000000000E+00 0. -1.
        -13    1    4    4    0    0 -0.38591816814E+02 -0.20222476133E+02  0.50086832963E+02  0.66384996062E+02  0.00000000000E+00 0. -1.
         13    1    4    4    0    0  0.13401161911E+02  0.55168617460E+02  0.39807929627E+02  0.69338580561E+02  0.00000000000E+00 0.  1.
         21    1    1    2  502  501 -0.16781616460E+02 -0.15367297956E+02  0.93593843707E+02  0.96320216348E+02  0.00000000000E+00 0. -1.
<scales pt_clust_5="13000.00000" pt_clust_6="13000.00000" pt_clust_7="13000.00000" pt_clust_8="13000.00000" pt_clust_9="22.75470"></scales>
<clustering>
<clus scale="   22.755">  1  9  2 -1</clus>
<clus scale="   90.299">  5  6 -1 -1</clus>
<clus scale="   92.109">  7  8 -1 -1</clus>
<clus scale="  100.578">  2  5  1 -1</clus>
<clus scale="   22.755">  1  5  2 -1</clus>
</clustering>
</event>
<event>
 9    1  0.1435532E-005  0.1056983E+03  0.7546771E-02  0.1268996E+00
         -1   -1    0    0    0  501 -0.00000000000E+00  0.00000000000E+00  0.12385982087E+03  0.12385982087E+03  0.00000000000E+00 0.  1.
          1   -1    0    0  502    0  0.00000000000E+00 -0.00000000000E+00 -0.12516388997E+03  0.12516388997E+03  0.00000000000E+00 0. -1.
         23    2    1    2    0    0 -0.65168214412E+02  0.76133182945E+01  0.34017829047E+02  0.11614442478E+03  0.89596070945E+02 0.  0.
         23    2    1    2    0    0  0.42861705790E+02  0.79739288735E+01 -0.18300155370E+02  0.10078127478E+03  0.89001462317E+02 0.  0.
        -13    1    4    4    0    0 -0.11142319046E+02 -0.24944065559E+02  0.12953232265E+02  0.30234812823E+02  0.00000000000E+00 0. -1.
         13    1    4    4    0    0  0.54004024835E+02  0.32917994432E+02 -0.31253387635E+02  0.70546461956E+02  0.00000000000E+00 0.  1.
        -13    1    3    3    0    0 -0.14942962245E+02  0.36997984499E+02  0.41387777710E+02  0.57489921912E+02  0.00000000000E+00 0.  1.
         13    1    3    3    0    0 -0.50225252167E+02 -0.29384666204E+02 -0.73699486634E+01  0.58654502866E+02  0.00000000000E+00 0. -1.
         21    1    1    2  502  501  0.22306508622E+02 -0.15587247168E+02 -0.17021742779E+02  0.32098011285E+02  0.00000000000E+00 0.  1.
<scales pt_clust_5="13000.00000" pt_clust_6="13000.00000" pt_clust_7="13000.00000" pt_clust_8="13000.00000" pt_clust_9="27.21291"></scales>
<clustering>
<clus scale="   27.213">  2  9  1 -1</clus>
<clus scale="   89.001">  5  6 -1 -1</clus>
<clus scale="   89.596">  7  8 -1 -1</clus>
<clus scale="  105.195">  2  5  1 -1</clus>
<clus scale="   27.213">  2  5  1 -1</clus>
</clustering>
</event>
<event>
 9    1  0.1435532E-005  0.1537109E+03  0.7546771E-02  0.1197071E+00
          1   -1    0    0  502    0  0.00000000000E+00  0.00000000000E+00  0.29256511655E+03  0.29256511655E+03  0.00000000000E+00 0. -1.
         -1   -1    0    0    0  501 -0.00000000000E+00 -0.00000000000E+00 -0.13736513695E+03  0.13736513695E+03  0.00000000000E+00 0.  1.
         23    2    1    2    0    0 -0.21025894040E+02 -0.11183368519E+03 -0.41268307660E+02  0.15634615441E+03  0.98955471893E+02 0.  0.
         23    2    1    2    0    0  0.10665432136E+02  0.12917134497E+03  0.13570863555E+03  0.20955544229E+03  0.93261255758E+02 0.  0.
        -13    1    3    3    0    0 -0.42685304570E+02 -0.11800275269E+03 -0.23516927510E+02  0.12767039887E+03  0.00000000000E+00 0.  1.
         13    1    3    3    0    0  0.21659410530E+02  0.61690675002E+01 -0.17751380149E+02  0.28675755536E+02  0.00000000000E+00 0. -1.
        -13    1    4    4    0    0 -0.23714354766E+02  0.11800732236E+03  0.85303324503E+02  0.14752883082E+03  0.00000000000E+00 0. -1.
         13    1    4    4    0    0  0.34379786902E+02  0.11164022612E+02  0.50405311049E+02  0.62026611468E+02  0.00000000000E+00 0.  1.
         21    1    1    2  502  501  0.10360461904E+02 -0.17337659780E+02  0.60759651705E+02  0.64028656809E+02  0.00000000000E+00 0.  1.
<scales pt_clust_5="13000.00000" pt_clust_6="13000.00000" pt_clust_7="13000.00000" pt_clust_8="13000.00000" pt_clust_9="20.19737"></scales>
<clustering>
<clus scale="   20.197">  1  9  2 -1</clus>
<clus scale="   93.261">  7  8 -1 -1</clus>
<clus scale="   98.955">  5  6 -1 -1</clus>
<clus scale="  150.108">  1  7  2 -1</clus>
<clus scale="   20.197">  1  5  2 -1</clus>
</clustering>
</event>
<event>
 9    1  0.1435532E-005  0.1498815E+03  0.7546771E-02  0.1204997E+00
          2   -1    0    0  502    0  0.00000000000E+00  0.00000000000E+00  0.66098845644E+03  0.66098845644E+03  0.00000000000E+00 0. -1.
         -2   -1    0    0    0  501 -0.00000000000E+00 -0.00000000000E+00 -0.44929698355E+02  0.44929698355E+02  0.00000000000E+00 0.  1.
         23    2    1    2    0    0 -0.39118215632E+02  0.91886749139E+02  0.15757444136E+03  0.20733957167E+03  0.90479743312E+02 0.  0.
         23    2    1    2    0    0  0.76573247159E+02 -0.80743694158E+02  0.37995603534E+03  0.41086462735E+03  0.10981870007E+03 0.  0.
        -11    1    3    3    0    0  0.29510068323E+02  0.23951670566E+02  0.39694113998E+02  0.54955885412E+02  0.00000000000E+00 0. -1.
         11    1    3    3    0    0 -0.68628283955E+02  0.67935078573E+02  0.11788032736E+03  0.15238368626E+03  0.00000000000E+00 0.  1.
        -11    1    4    4    0    0  0.10115451659E+02 -0.57154582678E+02  0.60985020202E+02  0.84191100316E+02  0.00000000000E+00 0.  1.
         11    1    4    4    0    0  0.66457795500E+02 -0.23589111480E+02  0.31897101514E+03  0.32667352703E+03  0.00000000000E+00 0. -1.
         21    1    1    2  502  501 -0.37455031527E+02 -0.11143054981E+02  0.78528281386E+02  0.87713955780E+02  0.00000000000E+00 0.  1.
<scales pt_clust_5="13000.00000" pt_clust_6="13000.00000" pt_clust_7="13000.00000" pt_clust_8="13000.00000" pt_clust_9="39.07745"></scales>
<clustering>
<clus scale="   39.077">  1  9  2 -1</clus>
<clus scale="   90.480">  5  6 -1 -1</clus>
<clus scale="  109.819">  7  8 -1 -1</clus>
<clus scale="  136.348">  2  5  1 -1</clus>
<clus scale="   39.077">  1  5  2 -1</clus>
</clustering>
</event>
<event>
 9    1  0.1445837E-005  0.1669429E+03  0.7546771E-02  0.1181137E+00
         -1   -1    0    0    0  501 -0.00000000000E+00  0.00000000000E+00  0.52383981329E+03  0.52383981329E+03  0.00000000000E+00 0.  1.
          1   -1    0    0  502    0  0.00000000000E+00 -0.00000000000E+00 -0.54908890486E+03  0.54908890486E+03  0.00000000000E+00 0. -1.
         23    2    1    2    0    0 -0.13481406070E+03  0.49098637114E+02  0.47928875461E+03  0.50891174793E+03  0.93209172033E+02 0.  0.
         23    2    1    2    0    0  0.85376032038E+02 -0.24395359799E+02 -0.12077789478E+03  0.17629790841E+03  0.92787133897E+02 0.  0.
        -11    1    4    4    0    0 -0.18205132542E+02 -0.11005191871E+02 -0.35835920959E+02  0.41674384578E+02  0.00000000000E+00 0.  1.
         11    1    4    4    0    0  0.10358116458E+03 -0.13390167928E+02 -0.84941973818E+02  0.13462352383E+03  0.00000000000E+00 0. -1.
        -13    1    3    3    0    0 -0.13065051997E+03  0.97824731544E+01  0.35025790288E+03  0.37395969526E+03  0.00000000000E+00 0.  1.
         13    1    3    3    0    0 -0.41635407281E+01  0.39316163959E+02  0.12903085173E+03  0.13495205267E+03  0.00000000000E+00 0. -1.
         21    1    1    2  502  501  0.49438028660E+02 -0.24703277315E+02 -0.38375995141E+03  0.38771906182E+03  0.00000000000E+00 0. -1.
<scales pt_clust_5="13000.00000" pt_clust_6="13000.00000" pt_clust_7="13000.00000" pt_clust_8="13000.00000" pt_clust_9="55.26636"></scales>
<clustering>
<clus scale="   55.266">  2  9  1 -1</clus>
<clus scale="   92.787">  5  6 -1 -1</clus>
<clus scale="   93.209">  7  8 -1 -1</clus>
<clus scale="  166.708">  2  5  1 -1</clus>
<clus scale="   55.266">  2  5  1 -1</clus>
</clustering>
</event>
<event>
 9    1  0.1435532E-005  0.1142869E+03  0.7546771E-02  0.1262897E+00
         -3   -1    0    0    0  501 -0.00000000000E+00  0.00000000000E+00  0.11858513463E+03  0.11858513463E+03  0.00000000000E+00 0.  1.
          3   -1    0    0  502    0  0.00000000000E+00 -0.00000000000E+00 -0.25306197730E+03  0.25306197730E+03  0.00000000000E+00 0. -1.
         23    2    1    2    0    0 -0.68527347856E+01  0.12468219425E+02  0.51769544924E+02  0.10586285399E+03  0.91238377904E+02 0.  0.
         23    2    1    2    0    0  0.26396726027E+02 -0.63307235015E+02 -0.15376059419E+03  0.20236580738E+03  0.11227202020E+03 0.  0.
        -13    1    4    4    0    0  0.47237463017E+01 -0.93906315409E+02 -0.11226267411E+03  0.14643639524E+03  0.00000000000E+00 0. -1.
         13    1    4    4    0    0  0.21672979725E+02  0.30599080394E+02 -0.41497920080E+02  0.55929412138E+02  0.00000000000E+00 0.  1.
        -13    1    3    3    0    0  0.37837063616E+01 -0.38921806654E+02  0.28856682195E+02  0.48599707554E+02  0.00000000000E+00 0. -1.
         13    1    3    3    0    0 -0.10636441147E+02  0.51390026080E+02  0.22912862728E+02  0.57263146431E+02  0.00000000000E+00 0.  1.
         21    1    1    2  502  501 -0.19543991241E+02  0.50839015590E+02 -0.32485793401E+02  0.63418450570E+02  0.00000000000E+00 0.  1.
<scales pt_clust_5="13000.00000" pt_clust_6="13000.00000" pt_clust_7="13000.00000" pt_clust_8="13000.00000" pt_clust_9="54.46626"></scales>
<clustering>
<clus scale="   54.466">  2  9  1 -1</clus>
<clus scale="   91.238">  7  8 -1 -1</clus>
<clus scale="   93.707">  1  7  2 -1</clus>
<clus scale="  112.272">  5  6 -1 -1</clus>
<clus scale="   54.466">  2  5  1 -1</clus>
</clustering>
</event>
<event>
 9    1  0.1435532E-005  0.1189606E+03  0.7546771E-02  0.1245173E+00
         -2   -1    0    0    0  501 -0.00000000000E+00  0.00000000000E+00  0.58693942681E+02  0.58693942681E+02  0.00000000000E+00 0.  1.
          2   -1    0    0  502    0  0.00000000000E+00 -0.00000000000E+00 -0.29546667094E+03  0.29546667094E+03  0.00000000000E+00 0. -1.
         23    2    1    2    0    0  0.46520162843E+02 -0.59350028249E+02 -0.94854045277E+02  0.15196653478E+03  0.91705977899E+02 0.  0.
         23    2    1    2    0    0 -0.26716558228E+02  0.73074661002E+02 -0.12401991414E+03  0.17217884561E+03  0.90614210853E+02 0.  0.
        -13    1    3    3    0    0  0.17143853749E+02 -0.56727851688E+02 -0.10517328155E+03  0.12072025527E+03  0.00000000000E+00 0. -1.
         13    1    3    3    0    0  0.29376309094E+02 -0.26221765611E+01  0.10319236277E+02  0.31246279510E+02  0.00000000000E+00 0.  1.
        -13    1    4    4    0    0 -0.46881496346E+02  0.81083630151E+02 -0.80301646696E+02  0.12337254249E+03  0.00000000000E+00 0.  1.
         13    1    4    4    0    0  0.20164938118E+02 -0.80089691490E+01 -0.43718267440E+02  0.48806303119E+02  0.00000000000E+00 0. -1.
         21    1    1    2  502  501 -0.19803604615E+02 -0.13724632753E+02 -0.17898768840E+02  0.30015233231E+02  0.00000000000E+00 0.  1.
<scales pt_clust_5="13000.00000" pt_clust_6="13000.00000" pt_clust_7="13000.00000" pt_clust_8="13000.00000" pt_clust_9="24.09457"></scales>
<clustering>
<clus scale="   24.095">  1  9  2 -1</clus>
<clus scale="   90.614">  7  8 -1 -1</clus>
<clus scale="   91.706">  5  6 -1 -1</clus>
<clus scale="  118.121">  2  7  1 -1</clus>
<clus scale="  118.121">  2  5  1 -1</clus>
</clustering>
</event>
<event>
 9    1  0.1435532E-005  0.9483780E+02  0.7546771E-02  0.1291635E+00
          1   -1    0    0  502    0  0.00000000000E+00  0.00000000000E+00  0.31054520239E+03  0.31054520239E+03  0.00000000000E+00 0. -1.
         -1   -1    0    0    0  501 -0.00000000000E+00 -0.00000000000E+00 -0.46145112325E+02  0.46145112325E+02  0.00000000000E+00 0.  1.
         23    2    1    2    0    0  0.61823180585E+01  0.33966779633E+02  0.46703587981E+02  0.10790919414E+03  0.90946170197E+02 0.  0.
         23    2    1    2    0    0  0.84672617704E+01 -0.12039312987E+02  0.14776841050E+03  0.17404584125E+03  0.90773410967E+02 0.  0.
        -11    1    3    3    0    0  0.18269513670E+02 -0.26068585786E+02  0.31556620752E+02  0.44823728179E+02  0.00000000000E+00 0.  1.
         11    1    3    3    0    0 -0.12087195611E+02  0.60035365418E+02  0.15146967230E+02  0.63085465956E+02  0.00000000000E+00 0. -1.
        -13    1    4    4    0    0 -0.18316838269E+02 -0.13233094697E+02 -0.12532059158E+01  0.22631656689E+02  0.00000000000E+00 0.  1.
         13    1    4    4    0    0  0.26784100040E+02  0.11937817097E+01  0.14902161641E+03  0.15141418457E+03  0.00000000000E+00 0. -1.
         21    1    1    2  502  501 -0.14649579829E+02 -0.21927466645E+02  0.69928091591E+02  0.74735279328E+02  0.00000000000E+00 0. -1.
<scales pt_clust_5="13000.00000" pt_clust_6="13000.00000" pt_clust_7="13000.00000" pt_clust_8="13000.00000" pt_clust_9="26.37089"></scales>
<clustering>
<clus scale="   26.371">  1  9  2 -1</clus>
<clus scale="   90.773">  7  8 -1 -1</clus>
<clus scale="   90.946">  5  6 -1 -1</clus>
<clus scale="   94.672">  1  7  2 -1</clus>
<clus scale="   26.371">  1  5  2 -1</clus>
</clustering>
</event>
<event>
 9    1  0.1435532E-005  0.1011141E+03  0.7546771E-02  0.1279447E+00
         -1   -1    0    0    0  501 -0.00000000000E+00  0.00000000000E+00  0.11978504956E+03  0.11978504956E+03  0.00000000000E+00 0.  1.
          1   -1    0    0  502    0  0.00000000000E+00 -0.00000000000E+00 -0.18641688875E+03  0.18641688875E+03  0.00000000000E+00 0. -1.
         23    2    1    2    0    0  0.76087558227E+01  0.41544457733E+02  0.40543606245E+02  0.11167968617E+03  0.95103802035E+02 0.  0.
         23    2    1    2    0    0 -0.18572333256E+02 -0.17862418143E+02 -0.12677247921E+02  0.96486807728E+02  0.92114026653E+02 0.  0.
        -11    1    4    4    0    0 -0.13351740314E+01  0.27329339795E+02  0.23514445007E+02  0.36077758069E+02  0.00000000000E+00 0.  1.
         11    1    4    4    0    0 -0.17237159225E+02 -0.45191757938E+02 -0.36191692928E+02  0.60409049659E+02  0.00000000000E+00 0. -1.
        -11    1    3    3    0    0  0.34014642574E+02 -0.12306505085E+02 -0.48028923541E+01  0.36489913014E+02  0.00000000000E+00 0. -1.
         11    1    3    3    0    0 -0.26405886751E+02  0.53850962818E+02  0.45346498599E+02  0.75189773153E+02  0.00000000000E+00 0.  1.
         21    1    1    2  502  501  0.10963577434E+02 -0.23682039590E+02 -0.94498197506E+02  0.98035444413E+02  0.00000000000E+00 0. -1.
<scales pt_clust_5="13000.00000" pt_clust_6="13000.00000" pt_clust_7="13000.00000" pt_clust_8="13000.00000" pt_clust_9="26.09672"></scales>
<clustering>
<clus scale="   26.097">  2  9  1 -1</clus>
<clus scale="   92.114">  5  6 -1 -1</clus>
<clus scale="   95.104">  7  8 -1 -1</clus>
<clus scale="   98.307">  2  5  1 -1</clus>
<clus scale="   26.097">  2  5  1 -1</clus>
</clustering>
</event>
<event>
 9    1  0.1435532E-005  0.1671381E+03  0.7546771E-02  0.1180943E+00
          2   -1    0    0  502    0  0.00000000000E+00  0.00000000000E+00  0.10471838500E+04  0.10471838500E+04  0.00000000000E+00 0. -1.
         -2   -1    0    0    0  501 -0.00000000000E+00 -0.00000000000E+00 -0.33999889260E+02  0.33999889260E+02  0.00000000000E+00 0.  1.
         23    2    1    2    0    0  0.12216302620E+03  0.83179928452E+02  0.31387542644E+03  0.35852963172E+03  0.90459980246E+02 0.  0.
         23    2    1    2    0    0 -0.11235936536E+03 -0.59097467726E+02  0.60092720645E+03  0.62089477210E+03  0.90992707914E+02 0.  0.
        -13    1    4    4    0    0 -0.39948896800E+02  0.18377116691E+02  0.26509965198E+03  0.26872189760E+03  0.00000000000E+00 0.  1.
         13    1    4    4    0    0 -0.72410468557E+02 -0.77474584417E+02  0.33582755447E+03  0.35217287449E+03  0.00000000000E+00 0. -1.
        -13    1    3    3    0    0  0.95205312051E+02  0.40179226773E+02  0.27742116151E+03  0.29604209593E+03  0.00000000000E+00 0. -1.
         13    1    3    3    0    0  0.26957714153E+02  0.43000701679E+02  0.36454264928E+02  0.62487535787E+02  0.00000000000E+00 0.  1.
         21    1    1    2  502  501 -0.98036608468E+01 -0.24082460727E+02  0.98381327809E+02  0.10175933541E+03  0.00000000000E+00 0. -1.
<scales pt_clust_5="13000.00000" pt_clust_6="13000.00000" pt_clust_7="13000.00000" pt_clust_8="13000.00000" pt_clust_9="26.00147"></scales>
<clustering>
<clus scale="   26.001">  1  9  2 -1</clus>
<clus scale="   90.460">  7  8 -1 -1</clus>
<clus scale="   90.993">  5  6 -1 -1</clus>
<clus scale="  166.849">  2  7  1 -1</clus>
<clus scale="   26.001">  1  5  2 -1</clus>
</clustering>
</event>
<event>
 9    1  0.1435532E-005  0.1657853E+03  0.7546771E-02  0.1182451E+00
          1   -1    0    0  502    0  0.00000000000E+00  0.00000000000E+00  0.49673694382E+03  0.49673694382E+03  0.00000000000E+00 0. -1.
         -1   -1    0    0    0  501 -0.00000000000E+00 -0.00000000000E+00 -0.13200708534E+03  0.13200708534E+03  0.00000000000E+00 0.  1.
         23    2    1    2    0    0  0.70114910246E+02  0.11239085387E+03 -0.45531426067E+02  0.16896167766E+03  0.94483506957E+02 0.  0.
         23    2    1    2    0    0 -0.87810689104E+02 -0.12878013597E+03  0.37372401912E+03  0.41600198008E+03  0.95357036578E+02 0.  0.
        -13    1    4    4    0    0  0.18654565924E+02 -0.21885130751E+02  0.92475333890E+02  0.96843374352E+02  0.00000000000E+00 0. -1.
         13    1    4    4    0    0 -0.10646525503E+03 -0.10689500521E+03  0.28124868523E+03  0.31915860573E+03  0.00000000000E+00 0.  1.
        -13    1    3    3    0    0  0.22205496382E+02  0.80487449962E+02 -0.67485247762E+02  0.10735721837E+03  0.00000000000E+00 0.  1.
         13    1    3    3    0    0  0.47909413864E+02  0.31903403904E+02  0.21953821694E+02  0.61604459290E+02  0.00000000000E+00 0. -1.
         21    1    1    2  502  501  0.17695778858E+02  0.16389282099E+02  0.36537265428E+02  0.43780371425E+02  0.00000000000E+00 0.  1.
<scales pt_clust_5="13000.00000" pt_clust_6="13000.00000" pt_clust_7="13000.00000" pt_clust_8="13000.00000" pt_clust_9="24.11948"></scales>
<clustering>
<clus scale="   24.119">  1  9  2 -1</clus>
<clus scale="   94.484">  7  8 -1 -1</clus>
<clus scale="   95.357">  5  6 -1 -1</clus>
<clus scale="  165.284">  2  7  1 -1</clus>
<clus scale="   24.119">  1  5  2 -1</clus>
</clustering>
</event>
<event>
 9    1  0.1435532E-005  0.1091264E+03  0.7546771E-02  0.1262550E+00
         -1   -1    0    0    0  501 -0.00000000000E+00  0.00000000000E+00  0.14906901707E+03  0.14906901707E+03  0.00000000000E+00 0.  1.
          1   -1    0    0  502    0  0.00000000000E+00 -0.00000000000E+00 -0.12778555756E+03  0.12778555756E+03  0.00000000000E+00 0. -1.
         23    2    1    2    0    0 -0.59300808429E+02  0.61932567377E+00  0.65346493547E+02  0.12754772048E+03  0.92093904983E+02 0.  0.
         23    2    1    2    0    0  0.55356714820E+02  0.25371764595E+02 -0.15945857408E+02  0.11081440985E+03  0.91200168572E+02 0.  0.
        -11    1    4    4    0    0  0.72698811685E+02 -0.68282222757E+01 -0.87634064952E+01  0.73542770775E+02  0.00000000000E+00 0. -1.
         11    1    4    4    0    0 -0.17342096866E+02  0.32199986870E+02 -0.71824509130E+01  0.37271639074E+02  0.00000000000E+00 0.  1.
        -13    1    3    3    0    0 -0.54209805354E+02 -0.25672044125E+02  0.34198256471E+01  0.60078715478E+02  0.00000000000E+00 0. -1.
         13    1    3    3    0    0 -0.50910030747E+01  0.26291369798E+02  0.61926667899E+02  0.67469004997E+02  0.00000000000E+00 0.  1.
         21    1    1    2  502  501  0.39440936090E+01 -0.25991090268E+02 -0.28117176625E+02  0.38492444312E+02  0.00000000000E+00 0.  1.
<scales pt_clust_5="13000.00000" pt_clust_6="13000.00000" pt_clust_7="13000.00000" pt_clust_8="13000.00000" pt_clust_9="26.28864"></scales>
<clustering>
<clus scale="   26.289">  2  9  1 -1</clus>
<clus scale="   91.200">  5  6 -1 -1</clus>
<clus scale="   92.094">  7  8 -1 -1</clus>
<clus scale="  108.373">  2  5  1 -1</clus>
<clus scale="   26.289">  2  5  1 -1</clus>
</clustering>
</event>
<event>
 9    1  0.1435532E-005  0.3250938E+03  0.7546771E-02  0.1073398E+00
          1   -1    0    0  502    0  0.00000000000E+00  0.00000000000E+00  0.87657005431E+03  0.87657005431E+03  0.00000000000E+00 0. -1.
         -1   -1    0    0    0  501 -0.00000000000E+00 -0.00000000000E+00 -0.30005337821E+03  0.30005337821E+03  0.00000000000E+00 0.  1.
         23    2    1    2    0    0 -0.28177112923E+03  0.10906030062E+03 -0.10127583978E+03  0.33221546241E+03  0.93921239903E+02 0.  0.
         23    2    1    2    0    0  0.36990194206E+03 -0.25457169753E+02  0.52348650226E+03  0.64802347608E+03  0.91764880344E+02 0.  0.
        -13    1    4    4    0    0  0.46252513323E+02  0.13035051303E+02  0.30102248104E+02  0.56704081794E+02  0.00000000000E+00 0.  1.
         13    1    4    4    0    0  0.32364942873E+03 -0.38492221057E+02  0.49338425416E+03  0.59131939428E+03  0.00000000000E+00 0. -1.
        -13    1    3    3    0    0 -0.22637760404E+02  0.12695966221E+01  0.16300095068E+02  0.27924418900E+02  0.00000000000E+00 0. -1.
         13    1    3    3    0    0 -0.25913336882E+03  0.10779070400E+03 -0.11757593484E+03  0.30429104351E+03  0.00000000000E+00 0.  1.
         21    1    1    2  502  501 -0.88130812828E+02 -0.83603130865E+02  0.15430601361E+03  0.19638449403E+03  0.00000000000E+00 0. -1.
<scales pt_clust_5="13000.00000" pt_clust_6="13000.00000" pt_clust_7="13000.00000" pt_clust_8="13000.00000" pt_clust_9="121.47643"></scales>
<clustering>
<clus scale="   91.765">  5  6 -1 -1</clus>
<clus scale="   93.921">  7  8 -1 -1</clus>
<clus scale="  121.476">  1  9  2 -1</clus>
<clus scale="  324.477">  1  5  2 -1</clus>
<clus scale="  121.476">  1  5  2 -1</clus>
</clustering>
</event>
<event>
 9    1  0.1435532E-005  0.1259724E+03  0.7546771E-02  0.1236215E+00
          3   -1    0    0  502    0  0.00000000000E+00  0.00000000000E+00  0.45265273924E+03  0.45265273924E+03  0.00000000000E+00 0. -1.
         -3   -1    0    0    0  501 -0.00000000000E+00 -0.00000000000E+00 -0.80249511575E+02  0.80249511575E+02  0.00000000000E+00 0.  1.
         23    2    1    2    0    0  0.80075653164E+02 -0.37770642086E+02  0.12089806384E+02  0.11980027327E+03  0.79794801980E+02 0.  0.
         23    2    1    2    0    0 -0.10372829750E+03 -0.21066155592E+02  0.25162530595E+03  0.28726747211E+03  0.89464872010E+02 0.  0.
        -11    1    3    3    0    0  0.41461153235E+02 -0.49218192260E+02 -0.20979871110E+02  0.67687610895E+02  0.00000000000E+00 0. -1.
         11    1    3    3    0    0  0.38614499929E+02  0.11447550174E+02  0.33069677494E+02  0.52112662371E+02  0.00000000000E+00 0.  1.
        -11    1    4    4    0    0 -0.47752741091E+02 -0.17464385810E+02  0.21343834039E+03  0.21941115332E+03  0.00000000000E+00 0. -1.
         11    1    4    4    0    0 -0.55975556412E+02 -0.36017697813E+01  0.38186965566E+02  0.67856318794E+02  0.00000000000E+00 0.  1.
         21    1    1    2  502  501  0.23652644338E+02  0.58836797677E+02  0.10868811533E+03  0.12583450544E+03  0.00000000000E+00 0.  1.
<scales pt_clust_5="13000.00000" pt_clust_6="13000.00000" pt_clust_7="13000.00000" pt_clust_8="13000.00000" pt_clust_9="63.41306"></scales>
<clustering>
<clus scale="   63.413">  1  9  2 -1</clus>
<clus scale="   79.795">  5  6 -1 -1</clus>
<clus scale="   89.465">  7  8 -1 -1</clus>
<clus scale="  119.299">  2  5  1 -1</clus>
<clus scale="   63.413">  1  5  2 -1</clus>
</clustering>
</event>
<event>
 9    1  0.1435532E-005  0.1020284E+03  0.7546771E-02  0.1276134E+00
         -1   -1    0    0    0  501 -0.00000000000E+00  0.00000000000E+00  0.90460501638E+02  0.90460501638E+02  0.00000000000E+00 0.  1.
          1   -1    0    0  502    0  0.00000000000E+00 -0.00000000000E+00 -0.49863355590E+03  0.49863355590E+03  0.00000000000E+00 0. -1.
         23    2    1    2    0    0  0.70157357618E+01  0.35815762440E+02  0.17368783808E+02  0.10004996566E+03  0.91522301050E+02 0.  0.
         23    2    1    2    0    0  0.50755804099E+02 -0.10671435680E+03 -0.26194053770E+03  0.30161531346E+03  0.91623394514E+02 0.  0.
        -11    1    4    4    0    0  0.56183948361E+02 -0.70460523840E+02 -0.24535164222E+03  0.26137855653E+03  0.00000000000E+00 0. -1.
         11    1    4    4    0    0 -0.54281442619E+01 -0.36253832962E+02 -0.16588895478E+02  0.40236756924E+02  0.00000000000E+00 0.  1.
        -13    1    3    3    0    0  0.49286112952E+02  0.15839492847E+02  0.98042541809E+01  0.52689029822E+02  0.00000000000E+00 0. -1.
         13    1    3    3    0    0 -0.42270377190E+02  0.19976269593E+02  0.75645296270E+01  0.47360935835E+02  0.00000000000E+00 0.  1.
         21    1    1    2  502  501 -0.57771539861E+02  0.70898594362E+02 -0.16360130037E+03  0.18742877843E+03  0.00000000000E+00 0.  1.
<scales pt_clust_5="13000.00000" pt_clust_6="13000.00000" pt_clust_7="13000.00000" pt_clust_8="13000.00000" pt_clust_9="91.45579"></scales>
<clustering>
<clus scale="   91.456">  2  9  1 -1</clus>
<clus scale="   91.522">  7  8 -1 -1</clus>
<clus scale="   91.623">  5  6 -1 -1</clus>
<clus scale="  101.938">  1  7  2 -1</clus>
<clus scale="   91.456">  2  5  1 -1</clus>
</clustering>
</event>
<event>
 9    1  0.1435532E-005  0.9943311E+02  0.7546771E-02  0.1281850E+00
          1   -1    0    0  502    0  0.00000000000E+00  0.00000000000E+00  0.61841947896E+03  0.61841947896E+03  0.00000000000E+00 0. -1.
         -1   -1    0    0    0  501 -0.00000000000E+00 -0.00000000000E+00 -0.29090981721E+02  0.29090981721E+02  0.00000000000E+00 0.  1.
         23    2    1    2    0    0 -0.33237233255E+02 -0.28636502737E+02  0.95336389901E+02  0.13841552271E+03  0.90250023404E+02 0.  0.
         23    2    1    2    0    0  0.12031874962E+02  0.29687416828E+02  0.33236871955E+03  0.34608300246E+03  0.90985548958E+02 0.  0.
        -13    1    4    4    0    0 -0.23531863502E+02  0.46312149247E+02  0.13101368283E+03  0.14093668386E+03  0.00000000000E+00 0. -1.
         13    1    4    4    0    0  0.35563738464E+02 -0.16624732419E+02  0.20135503672E+03  0.20514631860E+03  0.00000000000E+00 0.  1.
        -13    1    3    3    0    0 -0.24737009977E+02  0.14040966593E+02  0.90222831459E+02  0.94600357938E+02  0.00000000000E+00 0. -1.
         13    1    3    3    0    0 -0.85002232778E+01 -0.42677469329E+02  0.51135584419E+01  0.43815164773E+02  0.00000000000E+00 0.  1.
         21    1    1    2  502  501  0.21205358293E+02 -0.10509140914E+01  0.16162338778E+03  0.16301193551E+03  0.00000000000E+00 0. -1.
<scales pt_clust_5="13000.00000" pt_clust_6="13000.00000" pt_clust_7="13000.00000" pt_clust_8="13000.00000" pt_clust_9="21.23138"></scales>
<clustering>
<clus scale="   21.231">  1  9  2 -1</clus>
<clus scale="   90.250">  7  8 -1 -1</clus>
<clus scale="   90.986">  5  6 -1 -1</clus>
<clus scale="   98.761">  2  7  1 -1</clus>
<clus scale="   21.231">  1  5  2 -1</clus>
</clustering>
</event>
<event>
 9    1  0.1435532E-005  0.1226574E+03  0.7546771E-02  0.1243138E+00
         -1   -1    0    0    0  501 -0.00000000000E+00  0.00000000000E+00  0.98464603345E+02  0.98464603345E+02  0.00000000000E+00 0.  1.
          1   -1    0    0  502    0  0.00000000000E+00 -0.00000000000E+00 -0.27704603796E+03  0.27704603796E+03  0.00000000000E+00 0. -1.
         23    2    1    2    0    0 -0.35061479465E+02  0.60576586797E+02  0.32885085794E+02  0.12907740813E+03  0.10334756026E+03 0.  0.
         23    2    1    2    0    0  0.17927008447E+02 -0.48969045090E+02 -0.16291660932E+03  0.19365616440E+03  0.90782946686E+02 0.  0.
        -11    1    3    3    0    0 -0.62669641334E+02  0.60794517323E+01  0.23811689658E+02  0.67315973162E+02  0.00000000000E+00 0.  1.
         11    1    3    3    0    0  0.27608161869E+02  0.54497135064E+02  0.90733961363E+01  0.61761434969E+02  0.00000000000E+00 0. -1.
        -13    1    4    4    0    0  0.19880555134E+02 -0.23447669054E+02 -0.16512766954E+03  0.16796480853E+03  0.00000000000E+00 0. -1.
         13    1    4    4    0    0 -0.19535466877E+01 -0.25521376036E+02  0.22110602156E+01  0.25691355875E+02  0.00000000000E+00 0.  1.
         21    1    1    2  502  501  0.17134471019E+02 -0.11607541707E+02 -0.48549911088E+02  0.52777068773E+02  0.00000000000E+00 0. -1.
<scales pt_clust_5="13000.00000" pt_clust_6="13000.00000" pt_clust_7="13000.00000" pt_clust_8="13000.00000" pt_clust_9="20.69602"></scales>
<clustering>
<clus scale="   20.696">  2  9  1 -1</clus>
<clus scale="   90.783">  7  8 -1 -1</clus>
<clus scale="  103.348">  5  6 -1 -1</clus>
<clus scale="  112.275">  2  7  1 -1</clus>
<clus scale="   20.696">  2  5  1 -1</clus>
</clustering>
</event>
<event>
 9    1  0.1435532E-005  0.1126648E+03  0.7546771E-02  0.1256481E+00
         -1   -1    0    0    0  501 -0.00000000000E+00  0.00000000000E+00  0.35264699941E+03  0.35264699941E+03  0.00000000000E+00 0.  1.
          1   -1    0    0  502    0  0.00000000000E+00 -0.00000000000E+00 -0.49641624320E+02  0.49641624320E+02  0.00000000000E+00 0. -1.
         23    2    1    2    0    0 -0.10553751129E+02  0.61831144752E+02  0.16879434131E+03  0.20219210971E+03  0.91954594473E+02 0.  0.
         23    2    1    2    0    0 -0.22359594896E+02 -0.62365282500E+02  0.11089431225E+03  0.15975741199E+03  0.93997352373E+02 0.  0.
        -11    1    4    4    0    0 -0.56522601952E+02 -0.36804143468E+02  0.44398896617E+02  0.80750303583E+02  0.00000000000E+00 0. -1.
         11    1    4    4    0    0  0.34163007056E+02 -0.25561139032E+02  0.66495415629E+02  0.79007108411E+02  0.00000000000E+00 0.  1.
        -13    1    3    3    0    0  0.21118687305E+02  0.46662932490E+02  0.15700561664E+03  0.16514899903E+03  0.00000000000E+00 0.  1.
         13    1    3    3    0    0 -0.31672438434E+02  0.15168212262E+02  0.11788724669E+02  0.37043110680E+02  0.00000000000E+00 0. -1.
         21    1    1    2  502  501  0.32913346024E+02  0.53413774817E+00  0.23316721537E+02  0.40339102034E+02  0.00000000000E+00 0.  1.
<scales pt_clust_5="13000.00000" pt_clust_6="13000.00000" pt_clust_7="13000.00000" pt_clust_8="13000.00000" pt_clust_9="32.91768"></scales>
<clustering>
<clus scale="   32.918">  2  9  1 -1</clus>
<clus scale="   91.955">  7  8 -1 -1</clus>
<clus scale="   93.997">  5  6 -1 -1</clus>
<clus scale="  110.966">  1  7  2 -1</clus>
<clus scale="   32.918">  2  5  1 -1</clus>
</clustering>
</event>
<event>
 9    1  0.1435532E-005  0.1114019E+03  0.7546771E-02  0.1262006E+00
          2   -1    0    0  502    0  0.00000000000E+00  0.00000000000E+00  0.10724869110E+03  0.10724869110E+03  0.00000000000E+00 0. -1.
         -2   -1    0    0    0  501 -0.00000000000E+00 -0.00000000000E+00 -0.19087729201E+03  0.19087729201E+03  0.00000000000E+00 0.  1.
         23    2    1    2    0    0 -0.58365777086E+02 -0.91730605366E+01 -0.86672335499E+02  0.14484521440E+03  0.99886602804E+02 0.  0.
         23    2    1    2    0    0  0.19396424611E+02  0.42549423754E+02  0.56013992697E+01  0.10190826923E+03  0.90372810707E+02 0.  0.
        -11    1    3    3    0    0 -0.16490720515E+02  0.17236386320E+02  0.17447770553E+02  0.29554383325E+02  0.00000000000E+00 0. -1.
         11    1    3    3    0    0 -0.41875056571E+02 -0.26409446856E+02 -0.10412010605E+03  0.11529083108E+03  0.00000000000E+00 0.  1.
        -13    1    4    4    0    0  0.47832814138E+02  0.47275231906E+02 -0.11737125238E+02  0.68269215382E+02  0.00000000000E+00 0. -1.
         13    1    4    4    0    0 -0.28436389527E+02 -0.47258081515E+01  0.17338524508E+02  0.33639053852E+02  0.00000000000E+00 0.  1.
         21    1    1    2  502  501  0.38969352475E+02 -0.33376363218E+02 -0.25576646821E+01  0.51372499478E+02  0.00000000000E+00 0. -1.
<scales pt_clust_5="13000.00000" pt_clust_6="13000.00000" pt_clust_7="13000.00000" pt_clust_8="13000.00000" pt_clust_9="51.30879"></scales>
<clustering>
<clus scale="   51.309">  1  9  2 -1</clus>
<clus scale="   90.373">  7  8 -1 -1</clus>
<clus scale="   99.887">  5  6 -1 -1</clus>
<clus scale="  102.958">  1  7  2 -1</clus>
<clus scale="   51.309">  1  5  2 -1</clus>
</clustering>
</event>
<event>
 9    1  0.1435532E-005  0.1047805E+03  0.7546771E-02  0.1271046E+00
         -2   -1    0    0    0  501 -0.00000000000E+00  0.00000000000E+00  0.33638904620E+03  0.33638904620E+03  0.00000000000E+00 0.  1.
          2   -1    0    0  502    0  0.00000000000E+00 -0.00000000000E+00 -0.93716422581E+02  0.93716422581E+02  0.00000000000E+00 0. -1.
         23    2    1    2    0    0 -0.30054796917E+02  0.42367728366E+02  0.28002150958E+03  0.29931055154E+03  0.92067612181E+02 0.  0.
         23    2    1    2    0    0  0.32284516586E+02 -0.19777139677E+02 -0.42880465596E+02  0.10743031323E+03  0.90934661194E+02 0.  0.
        -11    1    3    3    0    0  0.23008931623E+02  0.52607077758E+00  0.19492524900E+02  0.30160341707E+02  0.00000000000E+00 0. -1.
         11    1    3    3    0    0 -0.53063728540E+02  0.41841657589E+02  0.26052898468E+03  0.26915020983E+03  0.00000000000E+00 0.  1.
        -13    1    4    4    0    0  0.15184419417E+02 -0.33820545519E+02  0.19038967408E+02  0.41675870383E+02  0.00000000000E+00 0.  1.
         13    1    4    4    0    0  0.17100097169E+02  0.14043405842E+02 -0.61919433005E+02  0.65754442849E+02  0.00000000000E+00 0. -1.
         21    1    1    2  502  501 -0.22297196687E+01 -0.22590588689E+02  0.55315796372E+01  0.23364604007E+02  0.00000000000E+00 0.  1.
<scales pt_clust_5="13000.00000" pt_clust_6="13000.00000" pt_clust_7="13000.00000" pt_clust_8="13000.00000" pt_clust_9="22.70036"></scales>
<clustering>
<clus scale="   22.700">  2  9  1 -1</clus>
<clus scale="   90.935">  7  8 -1 -1</clus>
<clus scale="   92.068">  5  6 -1 -1</clus>
<clus scale="  103.786">  2  7  1 -1</clus>
<clus scale="   22.700">  2  5  1 -1</clus>
</clustering>
</event>
<event>
 9    1  0.1435532E-005  0.1296767E+03  0.7546771E-02  0.1228272E+00
          1   -1    0    0  502    0  0.00000000000E+00  0.00000000000E+00  0.38397067665E+03  0.38397067665E+03  0.00000000000E+00 0. -1.
         -1   -1    0    0    0  501 -0.00000000000E+00 -0.00000000000E+00 -0.14203643444E+03  0.14203643444E+03  0.00000000000E+00 0.  1.
         23    2    1    2    0    0 -0.42843574655E+02  0.78350518679E+02 -0.86276334938E+02  0.15451732574E+03  0.91965332154E+02 0.  0.
         23    2    1    2    0    0  0.32671590573E+02 -0.10673603356E+03  0.27437266925E+03  0.30978300255E+03  0.90692520901E+02 0.  0.
        -11    1    3    3    0    0 -0.47994222794E+01  0.81800144912E+02 -0.31609942471E+02  0.87826457431E+02  0.00000000000E+00 0.  1.
         11    1    3    3    0    0 -0.38044152375E+02 -0.34496262323E+01 -0.54666392466E+02  0.66690868313E+02  0.00000000000E+00 0. -1.
        -13    1    4    4    0    0  0.27454785800E+02 -0.27447621917E+02  0.20781130767E+02  0.44033993779E+02  0.00000000000E+00 0.  1.
         13    1    4    4    0    0  0.52168047726E+01 -0.79288411646E+02  0.25359153848E+03  0.26574900877E+03  0.00000000000E+00 0. -1.
         21    1    1    2  502  501  0.10171984082E+02  0.28385514883E+02  0.53837907901E+02  0.61706782792E+02  0.00000000000E+00 0. -1.
<scales pt_clust_5="13000.00000" pt_clust_6="13000.00000" pt_clust_7="13000.00000" pt_clust_8="13000.00000" pt_clust_9="30.15305"></scales>
<clustering>
<clus scale="   30.153">  1  9  2 -1</clus>
<clus scale="   90.693">  7  8 -1 -1</clus>
<clus scale="   91.965">  5  6 -1 -1</clus>
<clus scale="  128.777">  1  7  2 -1</clus>
<clus scale="   30.153">  1  5  2 -1</clus>
</clustering>
</event>
<event>
 9    1  0.1435532E-005  0.1073000E+03  0.7546771E-02  0.1266001E+00
          2   -1    0    0  502    0  0.00000000000E+00  0.00000000000E+00  0.49798786227E+03  0.49798786227E+03  0.00000000000E+00 0. -1.
         -2   -1    0    0    0  501 -0.00000000000E+00 -0.00000000000E+00 -0.88207887125E+02  0.88207887125E+02  0.00000000000E+00 0.  1.
         23    2    1    2    0    0 -0.47561065900E+02 -0.18116475879E+02 -0.37523674460E+02  0.11275345194E+03  0.93354448703E+02 0.  0.
         23    2    1    2    0    0  0.75662546633E+02  0.10974127328E+02  0.40300980834E+03  0.42050223005E+03  0.92520092010E+02 0.  0.
        -11    1    3    3    0    0 -0.70728610665E+02  0.90779083017E+00 -0.88772626651E+01  0.71289313668E+02  0.00000000000E+00 0.  1.
         11    1    3    3    0    0  0.23167544765E+02 -0.19024266710E+02 -0.28646411795E+02  0.41464138276E+02  0.00000000000E+00 0. -1.
        -11    1    4    4    0    0  0.62886322655E+02  0.49011453039E+02  0.27835307328E+03  0.28954662062E+03  0.00000000000E+00 0.  1.
         11    1    4    4    0    0  0.12776223978E+02 -0.38037325711E+02  0.12465673506E+03  0.13095560943E+03  0.00000000000E+00 0. -1.
         21    1    1    2  502  501 -0.28101480733E+02  0.71423485515E+01  0.44293841259E+02  0.52940067394E+02  0.00000000000E+00 0. -1.
<scales pt_clust_5="13000.00000" pt_clust_6="13000.00000" pt_clust_7="13000.00000" pt_clust_8="13000.00000" pt_clust_9="28.99494"></scales>
<clustering>
<clus scale="   28.995">  1  9  2 -1</clus>
<clus scale="   92.520">  7  8 -1 -1</clus>
<clus scale="   93.354">  5  6 -1 -1</clus>
<clus scale="  106.575">  1  7  2 -1</clus>
<clus scale="   28.995">  1  5  2 -1</clus>
</clustering>
</event>
<event>
 9    1  0.1435532E-005  0.1195940E+03  0.7546771E-02  0.1244593E+00
         -4   -1    0    0    0  501 -0.00000000000E+00  0.00000000000E+00  0.14813323090E+03  0.14813323090E+03  0.00000000000E+00 0.  1.
          4   -1    0    0  502    0  0.00000000000E+00 -0.00000000000E+00 -0.13484258778E+03  0.13484258778E+03  0.00000000000E+00 0. -1.
         23    2    1    2    0    0  0.18167873604E+02 -0.96056124577E+02 -0.71255494601E+01  0.13156568345E+03  0.87760497420E+02 0.  0.
         23    2    1    2    0    0  0.84339652513E+00  0.60906408600E+02  0.68565360450E+01  0.10921066591E+03  0.90386146811E+02 0.  0.
        -13    1    4    4    0    0 -0.21748179680E+02  0.64560497473E+02 -0.22720159463E+02  0.71813973567E+02  0.00000000000E+00 0.  1.
         13    1    4    4    0    0  0.22591576205E+02 -0.36540888732E+01  0.29576695508E+02  0.37396692342E+02  0.00000000000E+00 0. -1.
        -13    1    3    3    0    0 -0.63280253607E+01 -0.10490342393E+03 -0.88361262095E+01  0.10546492016E+03  0.00000000000E+00 0. -1.
         13    1    3    3    0    0  0.24495898964E+02  0.88472993522E+01  0.17105767494E+01  0.26100763298E+02  0.00000000000E+00 0.  1.
         21    1    1    2  502  501 -0.19011270129E+02  0.35149715977E+02  0.13559656539E+02  0.42199469317E+02  0.00000000000E+00 0.  1.
<scales pt_clust_5="13000.00000" pt_clust_6="13000.00000" pt_clust_7="13000.00000" pt_clust_8="13000.00000" pt_clust_9="39.96162"></scales>
<clustering>
<clus scale="   39.962">  1  9  2 -1</clus>
<clus scale="   87.760">  7  8 -1 -1</clus>
<clus scale="   90.386">  5  6 -1 -1</clus>
<clus scale="  117.622">  1  7  2 -1</clus>
<clus scale="  119.594">  2  5  1 -1</clus>
</clustering>
</event>
<event>
 9    1  0.1435532E-005  0.1508716E+03  0.7546771E-02  0.1200138E+00
         -3   -1    0    0    0  501 -0.00000000000E+00  0.00000000000E+00  0.68559527035E+02  0.68559527035E+02  0.00000000000E+00 0.  1.
          3   -1    0    0  502    0  0.00000000000E+00 -0.00000000000E+00 -0.11632719671E+04  0.11632719671E+04  0.00000000000E+00 0. -1.
         23    2    1    2    0    0  0.10211458716E+03  0.22765356634E+01 -0.70029222431E+02  0.15345717157E+03  0.90622513688E+02 0.  0.
         23    2    1    2    0    0 -0.20242850276E+03  0.25910927098E+02 -0.59077193745E+03  0.63212729032E+03  0.94470917286E+02 0.  0.
        -11    1    4    4    0    0 -0.11159996121E+03  0.80849212896E+01 -0.44961639210E+03  0.46333013860E+03  0.00000000000E+00 0. -1.
         11    1    4    4    0    0 -0.90828541552E+02  0.17826005808E+02 -0.14115554535E+03  0.16879715172E+03  0.00000000000E+00 0.  1.
        -13    1    3    3    0    0  0.42348241428E+02 -0.38646030241E+02 -0.55067554917E+02  0.79494180982E+02  0.00000000000E+00 0.  1.
         13    1    3    3    0    0  0.59766345727E+02  0.40922565904E+02 -0.14961667514E+02  0.73962990587E+02  0.00000000000E+00 0. -1.
         21    1    1    2  502  501  0.10031391560E+03 -0.28187462761E+02 -0.43391128018E+03  0.44624703224E+03  0.00000000000E+00 0. -1.
<scales pt_clust_5="13000.00000" pt_clust_6="13000.00000" pt_clust_7="13000.00000" pt_clust_8="13000.00000" pt_clust_9="104.19892"></scales>
<clustering>
<clus scale="   90.623">  7  8 -1 -1</clus>
<clus scale="   94.471">  5  6 -1 -1</clus>
<clus scale="  104.199">  2  9  1 -1</clus>
<clus scale="  148.492">  1  7  2 -1</clus>
<clus scale="  104.199">  2  5  1 -1</clus>
</clustering>
</event>
<event>
 9    1  0.1435532E-005  0.1101393E+03  0.7546771E-02  0.1269992E+00
         -1   -1    0    0    0  501 -0.00000000000E+00  0.00000000000E+00  0.23991422129E+03  0.23991422129E+03  0.00000000000E+00 0.  1.
          1   -1    0    0  502    0  0.00000000000E+00 -0.00000000000E+00 -0.70390087834E+02  0.70390087834E+02  0.00000000000E+00 0. -1.
         23    2    1    2    0    0 -0.17333985859E+02  0.13817550448E+02  0.12788513346E+03  0.15811813798E+03  0.90306956721E+02 0.  0.
         23    2    1    2    0    0 -0.10957699071E+02  0.84252492432E+01  0.28703867989E+02  0.11394379656E+03  0.10939936354E+03 0.  0.
        -13    1    4    4    0    0 -0.41145524197E+02  0.45878210670E+02  0.10520823246E+02  0.62517614298E+02  0.00000000000E+00 0.  1.
         13    1    4    4    0    0  0.30187825127E+02 -0.37452961427E+02  0.18183044743E+02  0.51426182258E+02  0.00000000000E+00 0. -1.
        -13    1    3    3    0    0 -0.69020406105E+01 -0.38256252479E+02  0.42801776630E+02  0.57820161717E+02  0.00000000000E+00 0.  1.
         13    1    3    3    0    0 -0.10431945249E+02  0.52073802927E+02  0.85083356830E+02  0.10029797626E+03  0.00000000000E+00 0. -1.
         21    1    1    2  502  501  0.28291684930E+02 -0.22242799691E+02  0.12935132012E+02  0.38242374592E+02  0.00000000000E+00 0. -1.
<scales pt_clust_5="13000.00000" pt_clust_6="13000.00000" pt_clust_7="13000.00000" pt_clust_8="13000.00000" pt_clust_9="35.98835"></scales>
<clustering>
<clus scale="   35.988">  2  9  1 -1</clus>
<clus scale="   90.307">  7  8 -1 -1</clus>
<clus scale="   91.202">  1  7  2 -1</clus>
<clus scale="  109.399">  5  6 -1 -1</clus>
<clus scale="   35.988">  2  5  1 -1</clus>
</clustering>
</event>
<event>
 9    1  0.1435532E-005  0.1168689E+03  0.7546771E-02  0.1250222E+00
          1   -1    0    0  502    0  0.00000000000E+00  0.00000000000E+00  0.14220965514E+03  0.14220965514E+03  0.00000000000E+00 0. -1.
         -1   -1    0    0    0  501 -0.00000000000E+00 -0.00000000000E+00 -0.18156969510E+03  0.18156969510E+03  0.00000000000E+00 0.  1.
         23    2    1    2    0    0 -0.54741995243E+02  0.96935687126E+02 -0.78882220304E+01  0.14059996776E+03  0.85515574045E+02 0.  0.
         23    2    1    2    0    0  0.50116749253E+01 -0.50729655603E+02  0.79451013388E+01  0.10468227660E+03  0.91085891095E+02 0.  0.
        -13    1    3    3    0    0 -0.48958264785E+02  0.65169165271E+01 -0.77620759648E+01  0.49996317015E+02  0.00000000000E+00 0. -1.
         13    1    3    3    0    0 -0.57837304578E+01  0.90418770599E+02 -0.12614606558E+00  0.90603650740E+02  0.00000000000E+00 0.  1.
        -13    1    4    4    0    0 -0.14353733539E+02  0.23566310062E+02  0.15105479753E+01  0.27634803991E+02  0.00000000000E+00 0. -1.
         13    1    4    4    0    0  0.19365408464E+02 -0.74295965665E+02  0.64345533635E+01  0.77047472613E+02  0.00000000000E+00 0.  1.
         21    1    1    2  502  501  0.49730320318E+02 -0.46206031523E+02 -0.39416919266E+02  0.78497105886E+02  0.00000000000E+00 0.  1.
<scales pt_clust_5="13000.00000" pt_clust_6="13000.00000" pt_clust_7="13000.00000" pt_clust_8="13000.00000" pt_clust_9="67.88300"></scales>
<clustering>
<clus scale="   67.883">  2  9  1 -1</clus>
<clus scale="   85.516">  5  6 -1 -1</clus>
<clus scale="   91.086">  7  8 -1 -1</clus>
<clus scale="  112.582">  2  5  1 -1</clus>
<clus scale="  116.869">  1  5  2 -1</clus>
</clustering>
</event>
<event>
 9    1  0.1435532E-005  0.9878659E+02  0.7546771E-02  0.1284581E+00
         -3   -1    0    0    0  501 -0.00000000000E+00  0.00000000000E+00  0.18100646826E+03  0.18100646826E+03  0.00000000000E+00 0.  1.
          3   -1    0    0  502    0  0.00000000000E+00 -0.00000000000E+00 -0.11997863103E+03  0.11997863103E+03  0.00000000000E+00 0. -1.
         23    2    1    2    0    0  0.22314188321E+02  0.12392572937E+02  0.11656189356E+03  0.15169732899E+03  0.93669129008E+02 0.  0.
         23    2    1    2    0    0 -0.52051216621E+02 -0.19947183305E+02 -0.32817357185E+02  0.11111171222E+03  0.90341653661E+02 0.  0.
        -11    1    4    4    0    0  0.12233461588E+02  0.24625315124E+02 -0.13000912891E+02  0.30415250506E+02  0.00000000000E+00 0.  1.
         11    1    4    4    0    0 -0.64284678209E+02 -0.44572498429E+02 -0.19816444294E+02  0.80696461713E+02  0.00000000000E+00 0. -1.
        -13    1    3    3    0    0  0.17662511499E+02  0.48919841159E+02  0.96847283214E+02  0.10992957490E+03  0.00000000000E+00 0.  1.
         13    1    3    3    0    0  0.46516768221E+01 -0.36527268222E+02  0.19714610347E+02  0.41767754096E+02  0.00000000000E+00 0. -1.
         21    1    1    2  502  501  0.29737028299E+02  0.75546103685E+01 -0.22716699143E+02  0.38176058071E+02  0.00000000000E+00 0.  1.
<scales pt_clust_5="13000.00000" pt_clust_6="13000.00000" pt_clust_7="13000.00000" pt_clust_8="13000.00000" pt_clust_9="30.68164"></scales>
<clustering>
<clus scale="   30.682">  2  9  1 -1</clus>
<clus scale="   90.342">  5  6 -1 -1</clus>
<clus scale="   93.669">  7  8 -1 -1</clus>
<clus scale="   95.637">  2  5  1 -1</clus>
<clus scale="   30.682">  2  5  1 -1</clus>
</clustering>
</event>
<event>
 9    1  0.1435532E-005  0.1036738E+03  0.7546771E-02  0.1273189E+00
          4   -1    0    0  502    0  0.00000000000E+00  0.00000000000E+00  0.16312081468E+03  0.16312081468E+03  0.00000000000E+00 0. -1.
         -4   -1    0    0    0  501 -0.00000000000E+00 -0.00000000000E+00 -0.11836753811E+03  0.11836753811E+03  0.00000000000E+00 0.  1.
         23    2    1    2    0    0 -0.21423796662E+02  0.37549670827E+02 -0.23342424497E+02  0.10360434029E+03  0.91214218759E+02 0.  0.
         23    2    1    2    0    0  0.23787003560E+01 -0.61560553542E+02  0.69374957647E+01  0.10947667183E+03  0.90231108043E+02 0.  0.
        -11    1    3    3    0    0 -0.17857296498E+02 -0.17913346193E+02  0.20705935598E+02  0.32688021950E+02  0.00000000000E+00 0. -1.
         11    1    3    3    0    0 -0.35665001634E+01  0.55463017020E+02 -0.44048360094E+02  0.70916318344E+02  0.00000000000E+00 0.  1.
        -11    1    4    4    0    0 -0.16069115535E+02  0.19928156481E+02 -0.41388227110E+00  0.25603109057E+02  0.00000000000E+00 0.  1.
         11    1    4    4    0    0  0.18447815891E+02 -0.81488710023E+02  0.73513780358E+01  0.83873562768E+02  0.00000000000E+00 0. -1.
         21    1    1    2  502  501  0.19045096306E+02  0.24010882715E+02  0.61158205300E+02  0.68407340670E+02  0.00000000000E+00 0. -1.
<scales pt_clust_5="13000.00000" pt_clust_6="13000.00000" pt_clust_7="13000.00000" pt_clust_8="13000.00000" pt_clust_9="30.64699"></scales>
<clustering>
<clus scale="   30.647">  1  9  2 -1</clus>
<clus scale="   90.231">  7  8 -1 -1</clus>
<clus scale="   91.214">  5  6 -1 -1</clus>
<clus scale="  102.810">  1  7  2 -1</clus>
<clus scale="   30.647">  1  5  2 -1</clus>
</clustering>
</event>
<event>
 9    1  0.1435532E-005  0.3226365E+03  0.7546771E-02  0.1074491E+00
         -1   -1    0    0    0  501 -0.00000000000E+00  0.00000000000E+00  0.20323167204E+03  0.20323167204E+03  0.00000000000E+00 0.  1.
          1   -1    0    0  502    0  0.00000000000E+00 -0.00000000000E+00 -0.77745085031E+03  0.77745085031E+03  0.00000000000E+00 0. -1.
         23    2    1    2    0    0 -0.18677826600E+03 -0.26095750182E+03 -0.33160765708E+02  0.33483863901E+03  0.89623319433E+02 0.  0.
         23    2    1    2    0    0  0.14916193523E+03  0.23953920787E+03 -0.39766278626E+03  0.49605724409E+03  0.91152524994E+02 0.  0.
        -11    1    4    4    0    0  0.32866483286E+02  0.67875122668E+01 -0.70213300995E+02  0.77821485998E+02  0.00000000000E+00 0.  1.
         11    1    4    4    0    0  0.11629545195E+03  0.23275169560E+03 -0.32744948527E+03  0.41823575810E+03  0.00000000000E+00 0. -1.
        -11    1    3    3    0    0 -0.34929756351E+02 -0.72010855829E+01 -0.14599180424E+02  0.38536730289E+02  0.00000000000E+00 0. -1.
         11    1    3    3    0    0 -0.15184850965E+03 -0.25375641623E+03 -0.18561585285E+02  0.29630190872E+03  0.00000000000E+00 0.  1.
         21    1    1    2  502  501  0.37616330764E+02  0.21418293946E+02 -0.14339562630E+03  0.14978663925E+03  0.00000000000E+00 0. -1.
<scales pt_clust_5="13000.00000" pt_clust_6="13000.00000" pt_clust_7="13000.00000" pt_clust_8="13000.00000" pt_clust_9="43.28662"></scales>
<clustering>
<clus scale="   43.287">  2  9  1 -1</clus>
<clus scale="   89.623">  7  8 -1 -1</clus>
<clus scale="   91.153">  5  6 -1 -1</clus>
<clus scale="  322.208">  1  7  2 -1</clus>
<clus scale="   43.287">  2  5  1 -1</clus>
</clustering>
</event>
<event>
 9    1  0.1435532E-005  0.1068437E+03  0.7546771E-02  0.1267166E+00
          1   -1    0    0  502    0  0.00000000000E+00  0.00000000000E+00  0.27190211492E+03  0.27190211492E+03  0.00000000000E+00 0. -1.
         -1   -1    0    0    0  501 -0.00000000000E+00 -0.00000000000E+00 -0.88705565652E+02  0.88705565652E+02  0.00000000000E+00 0.  1.
         23    2    1    2    0    0  0.50410827292E+02 -0.71758611774E+01 -0.19429596475E+02  0.10482291378E+03  0.89540993636E+02 0.  0.
         23    2    1    2    0    0 -0.70877977023E+02  0.50403741211E+01  0.10532437108E+03  0.15633075795E+03  0.91087813343E+02 0.  0.
        -13    1    4    4    0    0 -0.40547209451E+02  0.37932222125E+02  0.95584534705E+02  0.11054109166E+03  0.00000000000E+00 0. -1.
         13    1    4    4    0    0 -0.30330767573E+02 -0.32891848004E+02  0.97398363739E+01  0.45789666294E+02  0.00000000000E+00 0.  1.
        -13    1    3    3    0    0  0.11868491926E+02  0.38486134560E+02  0.43549092340E+01  0.40509367909E+02  0.00000000000E+00 0. -1.
         13    1    3    3    0    0  0.38542335366E+02 -0.45661995737E+02 -0.23784505709E+02  0.64313545867E+02  0.00000000000E+00 0.  1.
         21    1    1    2  502  501  0.20467149732E+02  0.21354870563E+01  0.97301774660E+02  0.99454008844E+02  0.00000000000E+00 0. -1.
<scales pt_clust_5="13000.00000" pt_clust_6="13000.00000" pt_clust_7="13000.00000" pt_clust_8="13000.00000" pt_clust_9="20.57825"></scales>
<clustering>
<clus scale="   20.578">  1  9  2 -1</clus>
<clus scale="   89.541">  7  8 -1 -1</clus>
<clus scale="   91.088">  5  6 -1 -1</clus>
<clus scale="  105.528">  2  7  1 -1</clus>
<clus scale="   20.578">  1  5  2 -1</clus>
</clustering>
</event>
<event>
 9    1  0.1435532E-005  0.1057098E+03  0.7546771E-02  0.1270250E+00
         -2   -1    0    0    0  501 -0.00000000000E+00  0.00000000000E+00  0.63104038113E+02  0.63104038113E+02  0.00000000000E+00 0.  1.
          2   -1    0    0  502    0  0.00000000000E+00 -0.00000000000E+00 -0.34791099798E+03  0.34791099798E+03  0.00000000000E+00 0. -1.
         23    2    1    2    0    0  0.12747287218E+02 -0.67054746402E+01 -0.79945618880E+02  0.12415380464E+03  0.93890406895E+02 0.  0.
         23    2    1    2    0    0 -0.34858032619E+02  0.72374112617E+02 -0.17175280207E+03  0.21006650230E+03  0.90420217632E+02 0.  0.
        -11    1    3    3    0    0  0.37010903328E+02 -0.37100749567E+02 -0.28474318031E+02  0.59641087942E+02  0.00000000000E+00 0.  1.
         11    1    3    3    0    0 -0.24263616110E+02  0.30395274927E+02 -0.51471300849E+02  0.64512716698E+02  0.00000000000E+00 0. -1.
        -11    1    4    4    0    0 -0.30571615771E+02  0.70522277878E+01 -0.61188024413E+01  0.31965565081E+02  0.00000000000E+00 0.  1.
         11    1    4    4    0    0 -0.42864168478E+01  0.65321884829E+02 -0.16563399963E+03  0.17810093722E+03  0.00000000000E+00 0. -1.
         21    1    1    2  502  501  0.22110745401E+02 -0.65668637977E+02 -0.33108538921E+02  0.76794729151E+02  0.00000000000E+00 0.  1.
<scales pt_clust_5="13000.00000" pt_clust_6="13000.00000" pt_clust_7="13000.00000" pt_clust_8="13000.00000" pt_clust_9="69.29109"></scales>
<clustering>
<clus scale="   69.291">  1  9  2 -1</clus>
<clus scale="   90.420">  7  8 -1 -1</clus>
<clus scale="   93.890">  5  6 -1 -1</clus>
<clus scale="  102.640">  2  7  1 -1</clus>
<clus scale="  102.640">  2  5  1 -1</clus>
</clustering>
</event>
<event>
 9    1  0.1435532E-005  0.1723194E+03  0.7546771E-02  0.1176035E+00
         -1   -1    0    0    0  501 -0.00000000000E+00  0.00000000000E+00  0.25796220998E+02  0.25796220998E+02  0.00000000000E+00 0.  1.
          1   -1    0    0  502    0  0.00000000000E+00 -0.00000000000E+00 -0.16404156304E+04  0.16404156304E+04  0.00000000000E+00 0. -1.
         23    2    1    2    0    0 -0.12795034199E+03 -0.72446445459E+02 -0.57897061018E+03  0.60405347615E+03  0.89743284564E+02 0.  0.
         23    2    1    2    0    0  0.15123744056E+03  0.21700923394E+02 -0.68010029863E+03  0.70225264698E+03  0.85315124580E+02 0.  0.
        -13    1    4    4    0    0  0.25111386848E+02 -0.27535494206E+02 -0.19918909464E+03  0.20264520871E+03  0.00000000000E+00 0.  1.
         13    1    4    4    0    0  0.12612605371E+03  0.49236417600E+02 -0.48091120399E+03  0.49960743826E+03  0.00000000000E+00 0. -1.
        -13    1    3    3    0    0 -0.99907082074E+02 -0.11968369812E+02 -0.27425253683E+03  0.29212860333E+03  0.00000000000E+00 0.  1.
         13    1    3    3    0    0 -0.28043259918E+02 -0.60478075647E+02 -0.30471807334E+03  0.31192487282E+03  0.00000000000E+00 0. -1.
         21    1    1    2  502  501 -0.23287098570E+02  0.50745522066E+02 -0.35554850059E+03  0.35990572827E+03  0.00000000000E+00 0. -1.
<scales pt_clust_5="13000.00000" pt_clust_6="13000.00000" pt_clust_7="13000.00000" pt_clust_8="13000.00000" pt_clust_9="55.83365"></scales>
<clustering>
<clus scale="   55.834">  2  9  1 -1</clus>
<clus scale="   85.315">  5  6 -1 -1</clus>
<clus scale="   89.743">  7  8 -1 -1</clus>
<clus scale="  170.055">  2  5  1 -1</clus>
<clus scale="   55.834">  2  5  1 -1</clus>
</clustering>
</event>
<event>
 9    1  0.1435532E-005  0.1430708E+03  0.7546771E-02  0.1209617E+00
          2   -1    0    0  502    0  0.00000000000E+00  0.00000000000E+00  0.14185267563E+03  0.14185267563E+03  0.00000000000E+00 0. -1.
         -2   -1    0    0    0  501 -0.00000000000E+00 -0.00000000000E+00 -0.40603313858E+03  0.40603313858E+03  0.00000000000E+00 0.  1.
         23    2    1    2    0    0  0.72269681098E+02  0.67046509998E+02 -0.22476716228E+03  0.26199149782E+03  0.91657658599E+02 0.  0.
         23    2    1    2    0    0 -0.83652879005E+02 -0.10838895084E+03 -0.11419949012E+03  0.19968672541E+03  0.89929394136E+02 0.  0.
        -11    1    4    4    0    0 -0.44648238945E+02 -0.11571629857E+03 -0.83638444185E+02  0.14959651180E+03  0.00000000000E+00 0.  1.
         11    1    4    4    0    0 -0.39004640059E+02  0.73273477290E+01 -0.30561045933E+02  0.50090213609E+02  0.00000000000E+00 0. -1.
        -13    1    3    3    0    0 -0.35318500393E+00  0.60115872162E+02 -0.82133110487E+02  0.10178354810E+03  0.00000000000E+00 0.  1.
         13    1    3    3    0    0  0.72622866102E+02  0.69306378361E+01 -0.14263405180E+03  0.16020794972E+03  0.00000000000E+00 0. -1.
         21    1    1    2  502  501  0.11383197907E+02  0.41342440846E+02  0.74786189450E+02  0.86207590977E+02  0.00000000000E+00 0. -1.
<scales pt_clust_5="13000.00000" pt_clust_6="13000.00000" pt_clust_7="13000.00000" pt_clust_8="13000.00000" pt_clust_9="42.88094"></scales>
<clustering>
<clus scale="   42.881">  1  9  2 -1</clus>
<clus scale="   89.929">  5  6 -1 -1</clus>
<clus scale="   91.658">  7  8 -1 -1</clus>
<clus scale="  141.970">  1  5  2 -1</clus>
<clus scale="   42.881">  1  5  2 -1</clus>
</clustering>
</event>
<event>
 9    1  0.1435532E-005  0.1214482E+03  0.7546771E-02  0.1241107E+00
          1   -1    0    0  502    0  0.00000000000E+00  0.00000000000E+00  0.14081132040E+03  0.14081132040E+03  0.00000000000E+00 0. -1.
         -1   -1    0    0    0  501 -0.00000000000E+00 -0.00000000000E+00 -0.39203833915E+03  0.39203833915E+03  0.00000000000E+00 0.  1.
         23    2    1    2    0    0  0.60242526500E+02 -0.50584646242E+02 -0.29741279092E+03  0.32049740016E+03  0.89867941300E+02 0.  0.
         23    2    1    2    0    0 -0.89713715392E+02  0.27820910932E+02 -0.23865804536E+02  0.13301776488E+03  0.91113090899E+02 0.  0.
        -11    1    4    4    0    0 -0.13674877702E+01  0.25076687570E+02  0.22044706004E+02  0.33416752462E+02  0.00000000000E+00 0. -1.
         11    1    4    4    0    0 -0.88346227621E+02  0.27442233616E+01 -0.45910510540E+02  0.99601012419E+02  0.00000000000E+00 0.  1.
        -13    1    3    3    0    0  0.75194355609E+02 -0.96790223181E+01 -0.18374207525E+03  0.19876877221E+03  0.00000000000E+00 0.  1.
         13    1    3    3    0    0 -0.14951829109E+02 -0.40905623924E+02 -0.11367071567E+03  0.12172862795E+03  0.00000000000E+00 0. -1.
         21    1    1    2  502  501  0.29471188891E+02  0.22763735310E+02  0.70051576701E+02  0.79334494504E+02  0.00000000000E+00 0. -1.
<scales pt_clust_5="13000.00000" pt_clust_6="13000.00000" pt_clust_7="13000.00000" pt_clust_8="13000.00000" pt_clust_9="37.23894"></scales>
<clustering>
<clus scale="   37.239">  1  9  2 -1</clus>
<clus scale="   89.868">  7  8 -1 -1</clus>
<clus scale="   91.113">  5  6 -1 -1</clus>
<clus scale="  120.517">  2  7  1 -1</clus>
<clus scale="   37.239">  1  5  2 -1</clus>
</clustering>
</event>
<event>
 9    1  0.1435532E-005  0.9623033E+02  0.7546771E-02  0.1288824E+00
          1   -1    0    0  502    0  0.00000000000E+00  0.00000000000E+00  0.34463725867E+03  0.34463725867E+03  0.00000000000E+00 0. -1.
         -1   -1    0    0    0  501 -0.00000000000E+00 -0.00000000000E+00 -0.43848047888E+02  0.43848047888E+02  0.00000000000E+00 0.  1.
         23    2    1    2    0    0 -0.33306446029E+02 -0.88283058813E+01  0.51909264403E+02  0.11116179791E+03  0.92060389157E+02 0.  0.
         23    2    1    2    0    0  0.12928137588E+02  0.95497977675E+01  0.14984911673E+03  0.17621514486E+03  0.91316395663E+02 0.  0.
        -11    1    3    3    0    0 -0.20126452799E+02 -0.29778512194E+02  0.71215510412E+02  0.79771441093E+02  0.00000000000E+00 0. -1.
         11    1    3    3    0    0 -0.13179993230E+02  0.20950206313E+02 -0.19306246009E+02  0.31390356817E+02  0.00000000000E+00 0.  1.
        -11    1    4    4    0    0 -0.27468474151E+02  0.25842364180E+02  0.11311021381E+03  0.11923198114E+03  0.00000000000E+00 0.  1.
         11    1    4    4    0    0  0.40396611740E+02 -0.16292566413E+02  0.36738902915E+02  0.56983163722E+02  0.00000000000E+00 0. -1.
         21    1    1    2  502  501  0.20378308441E+02 -0.72149188623E+00  0.99030829658E+02  0.10110836379E+03  0.00000000000E+00 0. -1.
<scales pt_clust_5="13000.00000" pt_clust_6="13000.00000" pt_clust_7="13000.00000" pt_clust_8="13000.00000" pt_clust_9="20.39108"></scales>
<clustering>
<clus scale="   20.391">  1  9  2 -1</clus>
<clus scale="   91.316">  7  8 -1 -1</clus>
<clus scale="   92.060">  5  6 -1 -1</clus>
<clus scale="   95.519">  1  7  2 -1</clus>
<clus scale="   20.391">  1  5  2 -1</clus>
</clustering>
</event>
<event>
 9    1  0.1435532E-005  0.1714218E+03  0.7546771E-02  0.1176740E+00
          2   -1    0    0  502    0  0.00000000000E+00  0.00000000000E+00  0.13122261700E+04  0.13122261700E+04  0.00000000000E+00 0. -1.
         -2   -1    0    0    0  501 -0.00000000000E+00 -0.00000000000E+00 -0.31610408293E+02  0.31610408293E+02  0.00000000000E+00 0.  1.
         23    2    1    2    0    0 -0.12825412484E+03 -0.25261303322E+02  0.37756036626E+03  0.41006926466E+03  0.92291482095E+02 0.  0.
         23    2    1    2    0    0  0.16525505862E+03  0.16151424561E+01  0.66815354720E+03  0.69479641930E+03  0.94873908740E+02 0.  0.
        -11    1    3    3    0    0 -0.55808871613E+02 -0.25523025339E+02  0.65692415616E+02  0.89897432904E+02  0.00000000000E+00 0.  1.
         11    1    3    3    0    0 -0.72445253222E+02  0.26172201716E+00  0.31186795064E+03  0.32017183176E+03  0.00000000000E+00 0. -1.
        -13    1    4    4    0    0 -0.23600809060E+01  0.20800250831E+02  0.97733587574E+02  0.99950360462E+02  0.00000000000E+00 0.  1.
         13    1    4    4    0    0  0.16761513953E+03 -0.19185108375E+02  0.57041995962E+03  0.59484605884E+03  0.00000000000E+00 0. -1.
         21    1    1    2  502  501 -0.37000933784E+02  0.23646160866E+02  0.23490184830E+03  0.23897089437E+03  0.00000000000E+00 0.  1.
<scales pt_clust_5="13000.00000" pt_clust_6="13000.00000" pt_clust_7="13000.00000" pt_clust_8="13000.00000" pt_clust_9="43.91139"></scales>
<clustering>
<clus scale="   43.911">  1  9  2 -1</clus>
<clus scale="   92.291">  5  6 -1 -1</clus>
<clus scale="   94.874">  7  8 -1 -1</clus>
<clus scale="  170.006">  2  5  1 -1</clus>
<clus scale="   43.911">  1  5  2 -1</clus>
</clustering>
</event>
<event>
 9    1  0.1435532E-005  0.1055890E+03  0.7546771E-02  0.1274771E+00
         -3   -1    0    0    0  501 -0.00000000000E+00  0.00000000000E+00  0.32861624505E+03  0.32861624505E+03  0.00000000000E+00 0.  1.
          3   -1    0    0  502    0  0.00000000000E+00 -0.00000000000E+00 -0.21178812297E+03  0.21178812297E+03  0.00000000000E+00 0. -1.
         23    2    1    2    0    0  0.25656247642E+02 -0.13309504403E+02  0.27058754250E+03  0.28703978526E+03  0.91317217532E+02 0.  0.
         23    2    1    2    0    0  0.49015526176E+02 -0.24056561376E+02 -0.10428894038E+03  0.15631086016E+03  0.10283803754E+03 0.  0.
        -13    1    3    3    0    0  0.32782773289E+02 -0.46826539963E+02  0.20770455991E+03  0.21542659835E+03  0.00000000000E+00 0. -1.
         13    1    3    3    0    0 -0.71265256470E+01  0.33517035560E+02  0.62882982587E+02  0.71613186911E+02  0.00000000000E+00 0.  1.
        -13    1    4    4    0    0 -0.73069798328E+01 -0.29689014532E+02  0.70790267793E+01  0.31383788145E+02  0.00000000000E+00 0.  1.
         13    1    4    4    0    0  0.56322506009E+02  0.56324531563E+01 -0.11136796716E+03  0.12492707201E+03  0.00000000000E+00 0. -1.
         21    1    1    2  502  501 -0.74671773818E+02  0.37366065779E+02 -0.49470480027E+02  0.97053722602E+02  0.00000000000E+00 0.  1.
<scales pt_clust_5="13000.00000" pt_clust_6="13000.00000" pt_clust_7="13000.00000" pt_clust_8="13000.00000" pt_clust_9="83.49908"></scales>
<clustering>
<clus scale="   83.499">  2  9  1 -1</clus>
<clus scale="   91.317">  5  6 -1 -1</clus>
<clus scale="   94.404">  1  5  2 -1</clus>
<clus scale="  102.838">  7  8 -1 -1</clus>
<clus scale="   83.499">  2  5  1 -1</clus>
</clustering>
</event>
<event>
 9    1  0.1435532E-005  0.1070646E+03  0.7546771E-02  0.1267300E+00
         -3   -1    0    0    0  501 -0.00000000000E+00  0.00000000000E+00  0.50528112994E+02  0.50528112994E+02  0.00000000000E+00 0.  1.
          3   -1    0    0  502    0  0.00000000000E+00 -0.00000000000E+00 -0.31626426152E+03  0.31626426152E+03  0.00000000000E+00 0. -1.
         23    2    1    2    0    0 -0.27456289873E+02  0.54524589301E+02 -0.49366077521E+02  0.11874164034E+03  0.89083044681E+02 0.  0.
         23    2    1    2    0    0  0.18802006641E+02 -0.35656952848E+02 -0.18353713686E+03  0.20920635378E+03  0.91959143720E+02 0.  0.
        -11    1    3    3    0    0  0.17489255557E+02  0.55509731384E+02 -0.10136890814E+02  0.59075890967E+02  0.00000000000E+00 0. -1.
         11    1    3    3    0    0 -0.44945545430E+02 -0.98514208264E+00 -0.39229186707E+02  0.59665749376E+02  0.00000000000E+00 0.  1.
        -11    1    4    4    0    0  0.39304057379E+02 -0.31269140310E+02 -0.18129149393E+03  0.18812010481E+03  0.00000000000E+00 0. -1.
         11    1    4    4    0    0 -0.20502050738E+02 -0.43878125383E+01 -0.22456429297E+01  0.21086248967E+02  0.00000000000E+00 0.  1.
         21    1    1    2  502  501  0.86542832323E+01 -0.18867636453E+02 -0.32832934142E+02  0.38844380391E+02  0.00000000000E+00 0.  1.
<scales pt_clust_5="13000.00000" pt_clust_6="13000.00000" pt_clust_7="13000.00000" pt_clust_8="13000.00000" pt_clust_9="20.75775"></scales>
<clustering>
<clus scale="   20.758">  2  9  1 -1</clus>
<clus scale="   89.083">  5  6 -1 -1</clus>
<clus scale="   91.959">  7  8 -1 -1</clus>
<clus scale="  104.605">  1  5  2 -1</clus>
<clus scale="   20.758">  2  5  1 -1</clus>
</clustering>
</event>
<event>
 9    1  0.1435532E-005  0.1190688E+03  0.7546771E-02  0.1245248E+00
         -2   -1    0    0    0  501 -0.00000000000E+00  0.00000000000E+00  0.45308325752E+02  0.45308325752E+02  0.00000000000E+00 0.  1.
          2   -1    0    0  502    0  0.00000000000E+00 -0.00000000000E+00 -0.52562894946E+03  0.52562894946E+03  0.00000000000E+00 0. -1.
         23    2    1    2    0    0 -0.77490847502E+02  0.20066282687E+02 -0.79564896466E+02  0.14477136097E+03  0.90668004617E+02 0.  0.
         23    2    1    2    0    0  0.64246506358E+02  0.74196357145E+01 -0.28748400663E+03  0.30885704427E+03  0.92536236972E+02 0.  0.
        -13    1    4    4    0    0 -0.11475836440E+02  0.30357629179E+02 -0.10647718821E+03  0.11131339578E+03  0.00000000000E+00 0.  1.
         13    1    4    4    0    0  0.75722342798E+02 -0.22937993465E+02 -0.18100681842E+03  0.19754364849E+03  0.00000000000E+00 0. -1.
        -13    1    3    3    0    0 -0.11270849187E+02 -0.19167183506E+02  0.11908344274E+02  0.25223434109E+02  0.00000000000E+00 0. -1.
         13    1    3    3    0    0 -0.66219998315E+02  0.39233466193E+02 -0.91473240740E+02  0.11954792687E+03  0.00000000000E+00 0.  1.
         21    1    1    2  502  501  0.13244341144E+02 -0.27485918402E+02 -0.11327172062E+03  0.11730886997E+03  0.00000000000E+00 0. -1.
<scales pt_clust_5="13000.00000" pt_clust_6="13000.00000" pt_clust_7="13000.00000" pt_clust_8="13000.00000" pt_clust_9="30.51046"></scales>
<clustering>
<clus scale="   30.510">  2  9  1 -1</clus>
<clus scale="   90.668">  7  8 -1 -1</clus>
<clus scale="   92.536">  5  6 -1 -1</clus>
<clus scale="  117.623">  1  7  2 -1</clus>
<clus scale="   30.510">  2  5  1 -1</clus>
</clustering>
</event>
<event>
 9    1  0.1435532E-005  0.9316798E+02  0.7546771E-02  0.1297194E+00
          1   -1    0    0  502    0  0.00000000000E+00  0.00000000000E+00  0.23071445127E+03  0.23071445127E+03  0.00000000000E+00 0. -1.
         -1   -1    0    0    0  501 -0.00000000000E+00 -0.00000000000E+00 -0.79247194456E+02  0.79247194456E+02  0.00000000000E+00 0.  1.
         23    2    1    2    0    0 -0.39274420790E+02  0.20639680990E+02  0.13931289767E+02  0.99692689883E+02  0.88182056122E+02 0.  0.
         23    2    1    2    0    0  0.19740618206E+02  0.94491609203E+01  0.23536930724E+02  0.90758754882E+02  0.84877475402E+02 0.  0.
        -13    1    3    3    0    0 -0.53755509506E+02  0.37576838462E+02  0.30096687377E+02  0.72162900317E+02  0.00000000000E+00 0. -1.
         13    1    3    3    0    0  0.14481088716E+02 -0.16937157473E+02 -0.16165397611E+02  0.27529789566E+02  0.00000000000E+00 0.  1.
        -13    1    4    4    0    0 -0.16199265883E+02  0.34468902257E+02 -0.51142723055E+01  0.38427558069E+02  0.00000000000E+00 0. -1.
         13    1    4    4    0    0  0.35939884089E+02 -0.25019741337E+02  0.28651203029E+02  0.52331196813E+02  0.00000000000E+00 0.  1.
         21    1    1    2  502  501  0.19533802584E+02 -0.30088841910E+02  0.11399903632E+03  0.11951020096E+03  0.00000000000E+00 0.  1.
<scales pt_clust_5="13000.00000" pt_clust_6="13000.00000" pt_clust_7="13000.00000" pt_clust_8="13000.00000" pt_clust_9="35.87350"></scales>
<clustering>
<clus scale="   35.873">  1  9  2 -1</clus>
<clus scale="   84.877">  7  8 -1 -1</clus>
<clus scale="   88.182">  5  6 -1 -1</clus>
<clus scale="   90.047">  1  7  2 -1</clus>
<clus scale="   35.873">  1  5  2 -1</clus>
</clustering>
</event>
<event>
 9    1  0.1435532E-005  0.1082212E+03  0.7546771E-02  0.1264317E+00
         -2   -1    0    0    0  501 -0.00000000000E+00  0.00000000000E+00  0.11593490986E+03  0.11593490986E+03  0.00000000000E+00 0.  1.
          2   -1    0    0  502    0  0.00000000000E+00 -0.00000000000E+00 -0.37230612713E+03  0.37230612713E+03  0.00000000000E+00 0. -1.
         23    2    1    2    0    0  0.24893583803E+02  0.49768380381E+02  0.57450814534E+02  0.12221221679E+03  0.92404803127E+02 0.  0.
         23    2    1    2    0    0 -0.62770514640E+02 -0.20459919520E+02 -0.11766060192E+03  0.16410568051E+03  0.93423291086E+02 0.  0.
        -11    1    3    3    0    0 -0.28019284138E+02  0.37344893621E+02  0.54731209531E+01  0.47007195365E+02  0.00000000000E+00 0.  1.
         11    1    3    3    0    0  0.52912867940E+02  0.12423486760E+02  0.51977693581E+02  0.75205021421E+02  0.00000000000E+00 0. -1.
        -13    1    4    4    0    0  0.19262017446E+02  0.15263068796E+02 -0.30820255293E+02  0.39419217667E+02  0.00000000000E+00 0.  1.
         13    1    4    4    0    0 -0.82032532086E+02 -0.35722988316E+02 -0.86840346629E+02  0.12468646285E+03  0.00000000000E+00 0. -1.
         21    1    1    2  502  501  0.37876930838E+02 -0.29308460861E+02 -0.19616142988E+03  0.20192313969E+03  0.00000000000E+00 0. -1.
<scales pt_clust_5="13000.00000" pt_clust_6="13000.00000" pt_clust_7="13000.00000" pt_clust_8="13000.00000" pt_clust_9="47.89204"></scales>
<clustering>
<clus scale="   47.892">  2  9  1 -1</clus>
<clus scale="   92.405">  5  6 -1 -1</clus>
<clus scale="   93.423">  7  8 -1 -1</clus>
<clus scale="  107.343">  1  5  2 -1</clus>
<clus scale="   47.892">  2  5  1 -1</clus>
</clustering>
</event>
<event>
 9    1  0.1435532E-005  0.1196851E+03  0.7546771E-02  0.1243698E+00
         -2   -1    0    0    0  501 -0.00000000000E+00  0.00000000000E+00  0.15753576763E+03  0.15753576763E+03  0.00000000000E+00 0.  1.
          2   -1    0    0  502    0  0.00000000000E+00 -0.00000000000E+00 -0.25128767685E+03  0.25128767685E+03  0.00000000000E+00 0. -1.
         23    2    1    2    0    0 -0.70065576262E+02 -0.41021072660E+02  0.11095174339E+03  0.16471066255E+03  0.90705014287E+02 0.  0.
         23    2    1    2    0    0  0.53508883153E+02  0.21302853805E+02 -0.16666274115E+03  0.19817757555E+03  0.90448161983E+02 0.  0.
        -13    1    3    3    0    0 -0.14062405112E+02  0.22962111283E+02  0.27064757169E+01  0.27061685146E+02  0.00000000000E+00 0. -1.
         13    1    3    3    0    0 -0.56003171150E+02 -0.63983183943E+02  0.10824526767E+03  0.13764897740E+03  0.00000000000E+00 0.  1.
        -13    1    4    4    0    0 -0.33866102525E+01 -0.28466011070E+02 -0.27049516325E+02  0.39413947387E+02  0.00000000000E+00 0.  1.
         13    1    4    4    0    0  0.56895493405E+02  0.49768864875E+02 -0.13961322483E+03  0.15876362816E+03  0.00000000000E+00 0. -1.
         21    1    1    2  502  501  0.16556693109E+02  0.19718218855E+02 -0.38040911456E+02  0.45935206388E+02  0.00000000000E+00 0. -1.
<scales pt_clust_5="13000.00000" pt_clust_6="13000.00000" pt_clust_7="13000.00000" pt_clust_8="13000.00000" pt_clust_9="25.74747"></scales>
<clustering>
<clus scale="   25.747">  2  9  1 -1</clus>
<clus scale="   90.448">  7  8 -1 -1</clus>
<clus scale="   90.705">  5  6 -1 -1</clus>
<clus scale="  119.491">  2  7  1 -1</clus>
<clus scale="   25.747">  2  5  1 -1</clus>
</clustering>
</event>
<event>
 9    1  0.1435532E-005  0.1042005E+03  0.7546771E-02  0.1273585E+00
         -1   -1    0    0    0  501 -0.00000000000E+00  0.00000000000E+00  0.22815733014E+03  0.22815733014E+03  0.00000000000E+00 0.  1.
          1   -1    0    0  502    0  0.00000000000E+00 -0.00000000000E+00 -0.33266886996E+03  0.33266886996E+03  0.00000000000E+00 0. -1.
         23    2    1    2    0    0 -0.71779261279E+01  0.53860863910E+02  0.19227354037E+03  0.21790237038E+03  0.86947187450E+02 0.  0.
         23    2    1    2    0    0 -0.28476226524E+01 -0.19841762285E+02 -0.79141005197E+02  0.12240908127E+03  0.91207894333E+02 0.  0.
        -11    1    4    4    0    0 -0.31294994231E+02  0.73041359183E+01 -0.76527567432E+02  0.83001178561E+02  0.00000000000E+00 0.  1.
         11    1    4    4    0    0  0.28447371579E+02 -0.27145898204E+02 -0.26134377642E+01  0.39407902710E+02  0.00000000000E+00 0. -1.
        -11    1    3    3    0    0  0.45221786322E+01  0.31214461485E+02  0.18967561997E+03  0.19228009131E+03  0.00000000000E+00 0.  1.
         11    1    3    3    0    0 -0.11700104760E+02  0.22646402424E+02  0.25979204046E+01  0.25622279067E+02  0.00000000000E+00 0. -1.
         21    1    1    2  502  501  0.10025548780E+02 -0.34019101624E+02 -0.21764407499E+03  0.22051474845E+03  0.00000000000E+00 0. -1.
<scales pt_clust_5="13000.00000" pt_clust_6="13000.00000" pt_clust_7="13000.00000" pt_clust_8="13000.00000" pt_clust_9="35.46563"></scales>
<clustering>
<clus scale="   35.466">  2  9  1 -1</clus>
<clus scale="   86.947">  7  8 -1 -1</clus>
<clus scale="   91.208">  5  6 -1 -1</clus>
<clus scale="  100.492">  1  7  2 -1</clus>
<clus scale="   35.466">  2  5  1 -1</clus>
</clustering>
</event>
<event>
 9    1  0.1435532E-005  0.9703532E+02  0.7546771E-02  0.1293540E+00
         -1   -1    0    0    0  501 -0.00000000000E+00  0.00000000000E+00  0.25091721198E+03  0.25091721198E+03  0.00000000000E+00 0.  1.
          1   -1    0    0  502    0  0.00000000000E+00 -0.00000000000E+00 -0.95807667256E+02  0.95807667256E+02  0.00000000000E+00 0. -1.
         23    2    1    2    0    0 -0.68267689766E+01 -0.41694317148E+01  0.18305292786E+03  0.20192023866E+03  0.84849392736E+02 0.  0.
         23    2    1    2    0    0 -0.11302743133E+02  0.26643954960E+02  0.49915426085E+01  0.10100403854E+03  0.96639784593E+02 0.  0.
        -11    1    3    3    0    0  0.35772105461E+02 -0.18086492880E+02  0.77650045573E+02  0.87385893205E+02  0.00000000000E+00 0. -1.
         11    1    3    3    0    0 -0.42598874437E+02  0.13917061165E+02  0.10540288229E+03  0.11453434546E+03  0.00000000000E+00 0.  1.
        -13    1    4    4    0    0  0.28802838381E+02 -0.19076164526E+02 -0.14020854691E+02  0.37283882820E+02  0.00000000000E+00 0.  1.
         13    1    4    4    0    0 -0.40105581515E+02  0.45720119486E+02  0.19012397299E+02  0.63720155724E+02  0.00000000000E+00 0. -1.
         21    1    1    2  502  501  0.18129512110E+02 -0.22474523245E+02 -0.32934925744E+02  0.43800602030E+02  0.00000000000E+00 0.  1.
<scales pt_clust_5="13000.00000" pt_clust_6="13000.00000" pt_clust_7="13000.00000" pt_clust_8="13000.00000" pt_clust_9="28.87531"></scales>
<clustering>
<clus scale="   28.875">  2  9  1 -1</clus>
<clus scale="   84.849">  5  6 -1 -1</clus>
<clus scale="   85.300">  1  5  2 -1</clus>
<clus scale="   96.640">  7  8 -1 -1</clus>
<clus scale="   28.875">  2  5  1 -1</clus>
</clustering>
</event>
<event>
 9    1  0.1435532E-005  0.1285258E+03  0.7546771E-02  0.1230065E+00
         -1   -1    0    0    0  501 -0.00000000000E+00  0.00000000000E+00  0.41675903274E+02  0.41675903274E+02  0.00000000000E+00 0.  1.
          1   -1    0    0  502    0  0.00000000000E+00 -0.00000000000E+00 -0.66080298928E+03  0.66080298928E+03  0.00000000000E+00 0. -1.
         23    2    1    2    0    0 -0.43930157588E+02  0.54105639377E+02 -0.18387253595E+03  0.21645207154E+03  0.90471602391E+02 0.  0.
         23    2    1    2    0    0  0.74992108884E+02 -0.83742072252E+02 -0.20166507094E+03  0.24852480476E+03  0.91974054400E+02 0.  0.
        -13    1    3    3    0    0 -0.60798134121E+02  0.21017626878E+02 -0.63145918872E+02  0.90141892716E+02  0.00000000000E+00 0. -1.
         13    1    3    3    0    0  0.16867976534E+02  0.33088012498E+02 -0.12072661708E+03  0.12631017882E+03  0.00000000000E+00 0.  1.
        -13    1    4    4    0    0 -0.18597043324E+02 -0.26050681373E+02 -0.70161806080E+02  0.77117877647E+02  0.00000000000E+00 0. -1.
         13    1    4    4    0    0  0.93589152208E+02 -0.57691390880E+02 -0.13150326486E+03  0.17140692711E+03  0.00000000000E+00 0.  1.
         21    1    1    2  502  501 -0.31061951296E+02  0.29636432876E+02 -0.23358947912E+03  0.23750201626E+03  0.00000000000E+00 0. -1.
<scales pt_clust_5="13000.00000" pt_clust_6="13000.00000" pt_clust_7="13000.00000" pt_clust_8="13000.00000" pt_clust_9="42.93207"></scales>
<clustering>
<clus scale="   42.932">  2  9  1 -1</clus>
<clus scale="   90.472">  5  6 -1 -1</clus>
<clus scale="   91.974">  7  8 -1 -1</clus>
<clus scale="  127.455">  1  5  2 -1</clus>
<clus scale="   42.932">  2  5  1 -1</clus>
</clustering>
</event>
<event>
 9    1  0.1435532E-005  0.9598071E+02  0.7546771E-02  0.1289145E+00
          1   -1    0    0  502    0  0.00000000000E+00  0.00000000000E+00  0.50653193891E+03  0.50653193891E+03  0.00000000000E+00 0. -1.
         -1   -1    0    0    0  501 -0.00000000000E+00 -0.00000000000E+00 -0.25772754146E+02  0.25772754146E+02  0.00000000000E+00 0.  1.
         23    2    1    2    0    0  0.14221253566E+02  0.29943551808E+02  0.13068385954E+03  0.16326279338E+03  0.92073927957E+02 0.  0.
         23    2    1    2    0    0  0.53253573104E+01 -0.18761953562E+02  0.26869332259E+03  0.28460181152E+03  0.91769925256E+02 0.  0.
        -11    1    3    3    0    0  0.33829266071E+02  0.10753213536E+02  0.65039249844E+01  0.36088112787E+02  0.00000000000E+00 0. -1.
         11    1    3    3    0    0 -0.19608012506E+02  0.19190338272E+02  0.12417993455E+03  0.12717468059E+03  0.00000000000E+00 0.  1.
        -13    1    4    4    0    0 -0.11997948104E+02 -0.51083289671E+02  0.19957363931E+03  0.20635670754E+03  0.00000000000E+00 0.  1.
         13    1    4    4    0    0  0.17323305414E+02  0.32321336109E+02  0.69119683286E+02  0.78245103974E+02  0.00000000000E+00 0. -1.
         21    1    1    2  502  501 -0.19546610876E+02 -0.11181598246E+02  0.81382002633E+02  0.84440088161E+02  0.00000000000E+00 0.  1.
<scales pt_clust_5="13000.00000" pt_clust_6="13000.00000" pt_clust_7="13000.00000" pt_clust_8="13000.00000" pt_clust_9="22.51884"></scales>
<clustering>
<clus scale="   22.519">  1  9  2 -1</clus>
<clus scale="   91.770">  7  8 -1 -1</clus>
<clus scale="   92.074">  5  6 -1 -1</clus>
<clus scale="   95.689">  1  7  2 -1</clus>
<clus scale="   22.519">  1  5  2 -1</clus>
</clustering>
</event>
<event>
 9    1  0.1435532E-005  0.3433806E+03  0.7546771E-02  0.1065485E+00
          1   -1    0    0  502    0  0.00000000000E+00  0.00000000000E+00  0.11650493404E+04  0.11650493404E+04  0.00000000000E+00 0. -1.
         -1   -1    0    0    0  501 -0.00000000000E+00 -0.00000000000E+00 -0.29615927827E+03  0.29615927827E+03  0.00000000000E+00 0.  1.
         23    2    1    2    0    0  0.20146548819E+03  0.26356826829E+03 -0.14075331393E+03  0.37198184879E+03  0.92208597553E+02 0.  0.
         23    2    1    2    0    0 -0.24293297429E+03 -0.20655332070E+03  0.89081512485E+03  0.95105872025E+03  0.96334824476E+02 0.  0.
        -11    1    3    3    0    0  0.16345409465E+03  0.18470954971E+03 -0.14166368699E+03  0.28443533364E+03  0.00000000000E+00 0.  1.
         11    1    3    3    0    0  0.38011393547E+02  0.78858718576E+02  0.91037306146E+00  0.87546515145E+02  0.00000000000E+00 0. -1.
        -13    1    4    4    0    0 -0.11398278498E+03 -0.15806668678E+03  0.49688749123E+03  0.53373620046E+03  0.00000000000E+00 0.  1.
         13    1    4    4    0    0 -0.12895018930E+03 -0.48486633923E+02  0.39392763363E+03  0.41732251979E+03  0.00000000000E+00 0. -1.
         21    1    1    2  502  501  0.41467486095E+02 -0.57014947582E+02  0.11882825116E+03  0.13816804958E+03  0.00000000000E+00 0.  1.
<scales pt_clust_5="13000.00000" pt_clust_6="13000.00000" pt_clust_7="13000.00000" pt_clust_8="13000.00000" pt_clust_9="70.50005"></scales>
<clustering>
<clus scale="   70.500">  1  9  2 -1</clus>
<clus scale="   92.209">  5  6 -1 -1</clus>
<clus scale="   96.335">  7  8 -1 -1</clus>
<clus scale="  342.246">  2  5  1 -1</clus>
<clus scale="   70.500">  1  5  2 -1</clus>
</clustering>
</event>
<event>
 9    1  0.1435532E-005  0.1042919E+03  0.7546771E-02  0.1278719E+00
         -1   -1    0    0    0  501 -0.00000000000E+00  0.00000000000E+00  0.10731606265E+03  0.10731606265E+03  0.00000000000E+00 0.  1.
          1   -1    0    0  502    0  0.00000000000E+00 -0.00000000000E+00 -0.24541854533E+03  0.24541854533E+03  0.00000000000E+00 0. -1.
         23    2    1    2    0    0 -0.28554408455E+02 -0.53046162669E+02  0.55353038576E+02  0.12180271686E+03  0.90236873496E+02 0.  0.
         23    2    1    2    0    0 -0.99189288311E+01  0.28894952252E+02 -0.11497069501E+03  0.14024922134E+03  0.74285126108E+02 0.  0.
        -11    1    4    4    0    0  0.28257962868E+02  0.20175380237E+02 -0.27091752742E+02  0.44039998862E+02  0.00000000000E+00 0.  1.
         11    1    4    4    0    0 -0.38176891699E+02  0.87195720148E+01 -0.87878942266E+02  0.96209222478E+02  0.00000000000E+00 0. -1.
        -13    1    3    3    0    0  0.29638544742E+02 -0.21440045813E+01  0.67250927300E+01  0.30467473841E+02  0.00000000000E+00 0.  1.
         13    1    3    3    0    0 -0.58192953197E+02 -0.50902158088E+02  0.48627945846E+02  0.91335243017E+02  0.00000000000E+00 0. -1.
         21    1    1    2  502  501  0.38473337286E+02  0.24151210417E+02 -0.78484826251E+02  0.90682669779E+02  0.00000000000E+00 0.  1.
<scales pt_clust_5="13000.00000" pt_clust_6="13000.00000" pt_clust_7="13000.00000" pt_clust_8="13000.00000" pt_clust_9="45.42553"></scales>
<clustering>
<clus scale="   45.426">  2  9  1 -1</clus>
<clus scale="   74.285">  5  6 -1 -1</clus>
<clus scale="   90.237">  7  8 -1 -1</clus>
<clus scale="   90.843">  2  5  1 -1</clus>
<clus scale="   45.426">  2  5  1 -1</clus>
</clustering>
</event>
<event>
 9    1  0.1435532E-005  0.9676582E+02  0.7546771E-02  0.1287306E+00
          3   -1    0    0  502    0  0.00000000000E+00  0.00000000000E+00  0.82253573232E+02  0.82253573232E+02  0.00000000000E+00 0. -1.
         -3   -1    0    0    0  501 -0.00000000000E+00 -0.00000000000E+00 -0.26553125907E+03  0.26553125907E+03  0.00000000000E+00 0.  1.
         23    2    1    2    0    0 -0.35389880446E+02  0.99595265703E+01 -0.20304095479E+03  0.22552570999E+03  0.91019672273E+02 0.  0.
         23    2    1    2    0    0  0.15579320784E+02 -0.73839490176E+00 -0.49922498529E+00  0.92458850432E+02  0.91132482324E+02 0.  0.
        -11    1    3    3    0    0 -0.29985967866E+02 -0.24897389742E+02 -0.17812702776E+03  0.18234109878E+03  0.00000000000E+00 0.  1.
         11    1    3    3    0    0 -0.54039125800E+01  0.34856916313E+02 -0.24913927023E+02  0.43184611214E+02  0.00000000000E+00 0. -1.
        -11    1    4    4    0    0  0.46840715918E+02  0.19877304511E+02  0.13227913850E+02  0.52575066401E+02  0.00000000000E+00 0. -1.
         11    1    4    4    0    0 -0.31261395134E+02 -0.20615699412E+02 -0.13727138835E+02  0.39883784030E+02  0.00000000000E+00 0.  1.
         21    1    1    2  502  501  0.19810559662E+02 -0.92211316685E+01  0.20262493935E+02  0.29800271875E+02  0.00000000000E+00 0. -1.
<scales pt_clust_5="13000.00000" pt_clust_6="13000.00000" pt_clust_7="13000.00000" pt_clust_8="13000.00000" pt_clust_9="21.85149"></scales>
<clustering>
<clus scale="   21.851">  1  9  2 -1</clus>
<clus scale="   91.020">  5  6 -1 -1</clus>
<clus scale="   91.132">  7  8 -1 -1</clus>
<clus scale="   96.660">  2  5  1 -1</clus>
<clus scale="   21.851">  1  5  2 -1</clus>
</clustering>
</event>
<event>
 9    1  0.1435532E-005  0.1469392E+03  0.7546771E-02  0.1204811E+00
         -2   -1    0    0    0  501 -0.00000000000E+00  0.00000000000E+00  0.83015404935E+03  0.83015404935E+03  0.00000000000E+00 0.  1.
          2   -1    0    0  502    0  0.00000000000E+00 -0.00000000000E+00 -0.13649593664E+03  0.13649593664E+03  0.00000000000E+00 0. -1.
         23    2    1    2    0    0 -0.10262871875E+03 -0.54783918035E+02  0.67588963592E+03  0.69175840992E+03  0.90382333246E+02 0.  0.
         23    2    1    2    0    0  0.11836885964E+03  0.16652139116E+02  0.10279210423E+03  0.18038865641E+03  0.87666242075E+02 0.  0.
        -11    1    4    4    0    0  0.10002524011E+03 -0.12745736008E+02  0.10511501475E+03  0.14565942733E+03  0.00000000000E+00 0.  1.
         11    1    4    4    0    0  0.18343619529E+02  0.29397875124E+02 -0.23229105113E+01  0.34729229080E+02  0.00000000000E+00 0. -1.
        -11    1    3    3    0    0 -0.26425445166E+01  0.21408161104E+02  0.10486162195E+03  0.10705723779E+03  0.00000000000E+00 0. -1.
         11    1    3    3    0    0 -0.99986174230E+02 -0.76192079139E+02  0.57102801397E+03  0.58470117213E+03  0.00000000000E+00 0.  1.
         21    1    1    2  502  501 -0.15740140896E+02  0.38131778919E+02 -0.85023627442E+02  0.94502919650E+02  0.00000000000E+00 0. -1.
<scales pt_clust_5="13000.00000" pt_clust_6="13000.00000" pt_clust_7="13000.00000" pt_clust_8="13000.00000" pt_clust_9="41.25269"></scales>
<clustering>
<clus scale="   41.253">  2  9  1 -1</clus>
<clus scale="   87.666">  5  6 -1 -1</clus>
<clus scale="   90.382">  7  8 -1 -1</clus>
<clus scale="  145.284">  2  5  1 -1</clus>
<clus scale="   41.253">  2  5  1 -1</clus>
</clustering>
</event>
<event>
 9    1  0.1435532E-005  0.1218246E+03  0.7546771E-02  0.1240531E+00
          2   -1    0    0  502    0  0.00000000000E+00  0.00000000000E+00  0.56472570129E+02  0.56472570129E+02  0.00000000000E+00 0. -1.
         -2   -1    0    0    0  501 -0.00000000000E+00 -0.00000000000E+00 -0.50644351438E+03  0.50644351438E+03  0.00000000000E+00 0.  1.
         23    2    1    2    0    0  0.31933210982E+02 -0.68702176209E+02 -0.36229753809E+03  0.38137170056E+03  0.91897491283E+02 0.  0.
         23    2    1    2    0    0 -0.40187082026E+02  0.90141191508E+02 -0.63595531400E+02  0.14826523406E+03  0.90541438296E+02 0.  0.
        -13    1    4    4    0    0 -0.68418065668E+02  0.72462076377E+02 -0.55154488784E+02  0.11390259811E+03  0.00000000000E+00 0. -1.
         13    1    4    4    0    0  0.28230983642E+02  0.17679115132E+02 -0.84410426157E+01  0.34362635953E+02  0.00000000000E+00 0.  1.
        -13    1    3    3    0    0  0.56354043256E+02 -0.63241376443E+02 -0.32893846276E+03  0.33967007841E+03  0.00000000000E+00 0.  1.
         13    1    3    3    0    0 -0.24420832274E+02 -0.54607997661E+01 -0.33359075330E+02  0.41701622150E+02  0.00000000000E+00 0. -1.
         21    1    1    2  502  501  0.82538710447E+01 -0.21439015299E+02 -0.24077874766E+02  0.33279149891E+02  0.00000000000E+00 0.  1.
<scales pt_clust_5="13000.00000" pt_clust_6="13000.00000" pt_clust_7="13000.00000" pt_clust_8="13000.00000" pt_clust_9="22.97298"></scales>
<clustering>
<clus scale="   22.973">  1  9  2 -1</clus>
<clus scale="   90.541">  5  6 -1 -1</clus>
<clus scale="   91.897">  7  8 -1 -1</clus>
<clus scale="  120.805">  1  5  2 -1</clus>
<clus scale="   22.973">  1  5  2 -1</clus>
</clustering>
</event>
<event>
 9    1  0.1435532E-005  0.1011687E+03  0.7546771E-02  0.1278125E+00
         -1   -1    0    0    0  501 -0.00000000000E+00  0.00000000000E+00  0.14068791002E+03  0.14068791002E+03  0.00000000000E+00 0.  1.
          1   -1    0    0  502    0  0.00000000000E+00 -0.00000000000E+00 -0.11758238805E+03  0.11758238805E+03  0.00000000000E+00 0. -1.
         23    2    1    2    0    0 -0.19068677269E+02 -0.16812360437E+02  0.15433205043E+02  0.97226874685E+02  0.92566794408E+02 0.  0.
         23    2    1    2    0    0  0.10176624093E+02  0.63221683099E+02  0.15450818199E+02  0.11315397861E+03  0.92002990168E+02 0.  0.
        -11    1    3    3    0    0 -0.38984885003E+02 -0.23611762241E+02 -0.24751550491E+02  0.51864976878E+02  0.00000000000E+00 0. -1.
         11    1    3    3    0    0  0.19916207734E+02  0.67994018038E+01  0.40184755534E+02  0.45361897808E+02  0.00000000000E+00 0.  1.
        -11    1    4    4    0    0 -0.64577226118E+01  0.84475149482E+02  0.15698351946E+02  0.86163747105E+02  0.00000000000E+00 0. -1.
         11    1    4    4    0    0  0.16634346705E+02 -0.21253466383E+02 -0.24753374768E+00  0.26990231502E+02  0.00000000000E+00 0.  1.
         21    1    1    2  502  501  0.88920531760E+01 -0.46409322662E+02 -0.77785012692E+01  0.47889444783E+02  0.00000000000E+00 0.  1.
<scales pt_clust_5="13000.00000" pt_clust_6="13000.00000" pt_clust_7="13000.00000" pt_clust_8="13000.00000" pt_clust_9="47.25351"></scales>
<clustering>
<clus scale="   47.254">  2  9  1 -1</clus>
<clus scale="   92.003">  7  8 -1 -1</clus>
<clus scale="   92.567">  5  6 -1 -1</clus>
<clus scale="  100.653">  2  7  1 -1</clus>
<clus scale="   47.254">  2  5  1 -1</clus>
</clustering>
</event>
<event>
 9    1  0.1435532E-005  0.1232456E+03  0.7546771E-02  0.1239443E+00
          1   -1    0    0  502    0  0.00000000000E+00  0.00000000000E+00  0.11600126870E+03  0.11600126870E+03  0.00000000000E+00 0. -1.
         -1   -1    0    0    0  501 -0.00000000000E+00 -0.00000000000E+00 -0.20329001357E+03  0.20329001357E+03  0.00000000000E+00 0.  1.
         23    2    1    2    0    0 -0.78885178725E+02  0.29051723603E+02 -0.10991089558E+03  0.16229686625E+03  0.84811519028E+02 0.  0.
         23    2    1    2    0    0  0.85659053121E+02 -0.58489121584E+01  0.10665578790E+01  0.12460769937E+03  0.90300930458E+02 0.  0.
        -11    1    4    4    0    0 -0.75124468068E+01 -0.24546336329E+02  0.13100303347E+02  0.28819740318E+02  0.00000000000E+00 0.  1.
         11    1    4    4    0    0  0.93171499928E+02  0.18697424170E+02 -0.12033745468E+02  0.95787959053E+02  0.00000000000E+00 0. -1.
        -13    1    3    3    0    0 -0.28955025125E+02  0.34872593960E+02 -0.10172505811E+03  0.11136641656E+03  0.00000000000E+00 0.  1.
         13    1    3    3    0    0 -0.49930153600E+02 -0.58208703574E+01 -0.81858374665E+01  0.50930449686E+02  0.00000000000E+00 0. -1.
         21    1    1    2  502  501 -0.67738743968E+01 -0.23202811445E+02  0.21555592825E+02  0.32386716649E+02  0.00000000000E+00 0. -1.
<scales pt_clust_5="13000.00000" pt_clust_6="13000.00000" pt_clust_7="13000.00000" pt_clust_8="13000.00000" pt_clust_9="24.17138"></scales>
<clustering>
<clus scale="   24.171">  1  9  2 -1</clus>
<clus scale="   84.812">  7  8 -1 -1</clus>
<clus scale="   90.301">  5  6 -1 -1</clus>
<clus scale="  119.282">  2  7  1 -1</clus>
<clus scale="   24.171">  1  5  2 -1</clus>
</clustering>
</event>
<event>
 9    1  0.1435532E-005  0.3257001E+03  0.7546771E-02  0.1073066E+00
          2   -1    0    0  502    0  0.00000000000E+00  0.00000000000E+00  0.10534945663E+04  0.10534945663E+04  0.00000000000E+00 0. -1.
         -2   -1    0    0    0  501 -0.00000000000E+00 -0.00000000000E+00 -0.22876795625E+03  0.22876795625E+03  0.00000000000E+00 0.  1.
         23    2    1    2    0    0  0.25242269906E+03  0.18565651244E+03 -0.51377093230E+02  0.33067341765E+03  0.92302458366E+02 0.  0.
         23    2    1    2    0    0 -0.22014164076E+03 -0.21785219400E+03  0.72438663984E+03  0.79316973748E+03  0.91979932823E+02 0.  0.
        -11    1    3    3    0    0  0.96965578697E+02  0.69968943338E+02 -0.65574459315E+02  0.13637443381E+03  0.00000000000E+00 0.  1.
         11    1    3    3    0    0  0.15545712036E+03  0.11568756910E+03  0.14197366084E+02  0.19429898384E+03  0.00000000000E+00 0. -1.
        -11    1    4    4    0    0 -0.20254243478E+03 -0.20786165167E+03  0.71332775803E+03  0.77010804079E+03  0.00000000000E+00 0. -1.
         11    1    4    4    0    0 -0.17599205974E+02 -0.99905423257E+01  0.11058881815E+02  0.23061696683E+02  0.00000000000E+00 0.  1.
         21    1    1    2  502  501 -0.32281058303E+02  0.32195681563E+02  0.15171706339E+03  0.15841936738E+03  0.00000000000E+00 0. -1.
<scales pt_clust_5="13000.00000" pt_clust_6="13000.00000" pt_clust_7="13000.00000" pt_clust_8="13000.00000" pt_clust_9="45.59198"></scales>
<clustering>
<clus scale="   45.592">  1  9  2 -1</clus>
<clus scale="   91.980">  7  8 -1 -1</clus>
<clus scale="   92.302">  5  6 -1 -1</clus>
<clus scale="  325.609">  1  7  2 -1</clus>
<clus scale="   45.592">  1  5  2 -1</clus>
</clustering>
</event>
<event>
 9    1  0.1435532E-005  0.1037696E+03  0.7546771E-02  0.1273899E+00
         -3   -1    0    0    0  501 -0.00000000000E+00  0.00000000000E+00  0.13499565176E+03  0.13499565176E+03  0.00000000000E+00 0.  1.
          3   -1    0    0  502    0  0.00000000000E+00 -0.00000000000E+00 -0.18891584537E+03  0.18891584537E+03  0.00000000000E+00 0. -1.
         23    2    1    2    0    0 -0.70950932254E+02 -0.63644867903E+02 -0.25795926948E+02  0.13558610087E+03  0.92916397390E+02 0.  0.
         23    2    1    2    0    0 -0.10739218917E+02  0.26694674715E+02 -0.28518908899E+02  0.98666301257E+02  0.89965406451E+02 0.  0.
        -11    1    3    3    0    0 -0.53733248748E+02  0.23995530457E+01  0.15295291759E+02  0.55919279554E+02  0.00000000000E+00 0.  1.
         11    1    3    3    0    0 -0.17217683507E+02 -0.66044420949E+02 -0.41091218708E+02  0.79666821316E+02  0.00000000000E+00 0. -1.
        -13    1    4    4    0    0  0.67954958486E+01 -0.31862074234E+02 -0.15899847415E+02  0.36251561155E+02  0.00000000000E+00 0.  1.
         13    1    4    4    0    0 -0.17534714766E+02  0.58556748949E+02 -0.12619061484E+02  0.62414740103E+02  0.00000000000E+00 0. -1.
         21    1    1    2  502  501  0.81690151172E+02  0.36950193188E+02  0.39464224070E+00  0.89659095008E+02  0.00000000000E+00 0. -1.
<scales pt_clust_5="13000.00000" pt_clust_6="13000.00000" pt_clust_7="13000.00000" pt_clust_8="13000.00000" pt_clust_9="89.65823"></scales>
<clustering>
<clus scale="   89.658">  1  9  2 -1</clus>
<clus scale="   89.965">  7  8 -1 -1</clus>
<clus scale="   92.916">  5  6 -1 -1</clus>
<clus scale="  101.136">  2  7  1 -1</clus>
<clus scale="  101.136">  2  5  1 -1</clus>
</clustering>
</event>
<event>
 9    1  0.1435532E-005  0.1721216E+03  0.7546771E-02  0.1176113E+00
          1   -1    0    0  502    0  0.00000000000E+00  0.00000000000E+00  0.43581904749E+03  0.43581904749E+03  0.00000000000E+00 0. -1.
         -1   -1    0    0    0  501 -0.00000000000E+00 -0.00000000000E+00 -0.82179819991E+02  0.82179819991E+02  0.00000000000E+00 0.  1.
         23    2    1    2    0    0 -0.43224677906E+02 -0.14448622087E+03  0.12165183499E+03  0.21292507272E+03  0.88279538025E+02 0.  0.
         23    2    1    2    0    0  0.65683059694E+02  0.12407995852E+03  0.19276878431E+03  0.25548656169E+03  0.91670489044E+02 0.  0.
        -11    1    4    4    0    0 -0.20150546520E+02  0.86121507013E+01  0.40157907710E+02  0.45747909421E+02  0.00000000000E+00 0.  1.
         11    1    4    4    0    0  0.85833606214E+02  0.11546780782E+03  0.15261087660E+03  0.20973865227E+03  0.00000000000E+00 0. -1.
        -13    1    3    3    0    0 -0.62448080770E+01 -0.11437581953E+03  0.11898686913E+03  0.16516264937E+03  0.00000000000E+00 0.  1.
         13    1    3    3    0    0 -0.36979869830E+02 -0.30110401336E+02  0.26649658661E+01  0.47762423351E+02  0.00000000000E+00 0. -1.
         21    1    1    2  502  501 -0.22458381788E+02  0.20406262347E+02  0.39218608192E+02  0.49587233075E+02  0.00000000000E+00 0. -1.
<scales pt_clust_5="13000.00000" pt_clust_6="13000.00000" pt_clust_7="13000.00000" pt_clust_8="13000.00000" pt_clust_9="30.34460"></scales>
<clustering>
<clus scale="   30.345">  1  9  2 -1</clus>
<clus scale="   88.280">  7  8 -1 -1</clus>
<clus scale="   91.670">  5  6 -1 -1</clus>
<clus scale="  170.340">  2  7  1 -1</clus>
<clus scale="   30.345">  1  5  2 -1</clus>
</clustering>
</event>
<event>
 9    1  0.1435532E-005  0.1278400E+03  0.7546771E-02  0.1238610E+00
          1   -1    0    0  502    0  0.00000000000E+00  0.00000000000E+00  0.25111783066E+03  0.25111783066E+03  0.00000000000E+00 0. -1.
         -1   -1    0    0    0  501 -0.00000000000E+00 -0.00000000000E+00 -0.80003310436E+02  0.80003310436E+02  0.00000000000E+00 0.  1.
         23    2    1    2    0    0 -0.56580415067E+02  0.53195602993E+02  0.47087213457E+02  0.14397129350E+03  0.11171128919E+03 0.  0.
         23    2    1    2    0    0  0.26049141371E+02 -0.50331582817E+02  0.11262730579E+03  0.15443408217E+03  0.89180433570E+02 0.  0.
        -11    1    3    3    0    0 -0.26589084668E+01  0.20924691494E+02 -0.34834858974E+02  0.40723210926E+02  0.00000000000E+00 0.  1.
         11    1    3    3    0    0 -0.53921506601E+02  0.32270911499E+02  0.81922072431E+02  0.10324808257E+03  0.00000000000E+00 0. -1.
        -11    1    4    4    0    0  0.16562270355E+02 -0.75951714033E+02  0.90296099573E+02  0.11914846731E+03  0.00000000000E+00 0.  1.
         11    1    4    4    0    0  0.94868710156E+01  0.25620131216E+02  0.22331206218E+02  0.35285614864E+02  0.00000000000E+00 0. -1.
         21    1    1    2  502  501  0.30531273697E+02 -0.28640201758E+01  0.11400000974E+02  0.32715765425E+02  0.00000000000E+00 0. -1.
<scales pt_clust_5="13000.00000" pt_clust_6="13000.00000" pt_clust_7="13000.00000" pt_clust_8="13000.00000" pt_clust_9="30.66531"></scales>
<clustering>
<clus scale="   30.665">  2  9  1 -1</clus>
<clus scale="   89.180">  7  8 -1 -1</clus>
<clus scale="  108.705">  1  7  2 -1</clus>
<clus scale="  111.711">  5  6 -1 -1</clus>
<clus scale="  108.705">  1  5  2 -1</clus>
</clustering>
</event>
<event>
 9    1  0.1435532E-005  0.1023797E+03  0.7546771E-02  0.1277448E+00
          3   -1    0    0  502    0  0.00000000000E+00  0.00000000000E+00  0.19751491773E+03  0.19751491773E+03  0.00000000000E+00 0. -1.
         -3   -1    0    0    0  501 -0.00000000000E+00 -0.00000000000E+00 -0.73463494886E+02  0.73463494886E+02  0.00000000000E+00 0.  1.
         23    2    1    2    0    0  0.74466176431E+01  0.42101394704E+02  0.26366407515E+02  0.10350242303E+03  0.90496323556E+02 0.  0.
         23    2    1    2    0    0 -0.26739657140E+02 -0.26380513956E+02  0.49777492077E+02  0.11348989648E+03  0.94822028588E+02 0.  0.
        -11    1    3    3    0    0  0.30140004069E+02  0.19898842073E+02 -0.24428461988E+02  0.43601989819E+02  0.00000000000E+00 0. -1.
         11    1    3    3    0    0 -0.22693386426E+02  0.22202552631E+02  0.50794869502E+02  0.59900433209E+02  0.00000000000E+00 0.  1.
        -11    1    4    4    0    0  0.13279305910E+02 -0.20891995003E+02 -0.20692139030E+02  0.32264222264E+02  0.00000000000E+00 0.  1.
         11    1    4    4    0    0 -0.40018963050E+02 -0.54885189527E+01  0.70469631107E+02  0.81225674219E+02  0.00000000000E+00 0. -1.
         21    1    1    2  502  501  0.19293039497E+02 -0.15720880748E+02  0.47907523251E+02  0.53986093104E+02  0.00000000000E+00 0.  1.
<scales pt_clust_5="13000.00000" pt_clust_6="13000.00000" pt_clust_7="13000.00000" pt_clust_8="13000.00000" pt_clust_9="24.88709"></scales>
<clustering>
<clus scale="   24.887">  1  9  2 -1</clus>
<clus scale="   90.496">  5  6 -1 -1</clus>
<clus scale="   94.822">  7  8 -1 -1</clus>
<clus scale="   98.387">  2  5  1 -1</clus>
<clus scale="   24.887">  1  5  2 -1</clus>
</clustering>
</event>
<event>
 9    1  0.1435532E-005  0.2007266E+03  0.7546771E-02  0.1150123E+00
         -1   -1    0    0    0  501 -0.00000000000E+00  0.00000000000E+00  0.23584055907E+03  0.23584055907E+03  0.00000000000E+00 0.  1.
          1   -1    0    0  502    0  0.00000000000E+00 -0.00000000000E+00 -0.74512069057E+03  0.74512069057E+03  0.00000000000E+00 0. -1.
         23    2    1    2    0    0  0.16927610218E+03 -0.51086438006E+02  0.17207103127E+03  0.26303494044E+03  0.91185070995E+02 0.  0.
         23    2    1    2    0    0 -0.13983053750E+03  0.23729991425E+02 -0.43854768099E+03  0.47181871645E+03  0.10086198976E+03 0.  0.
        -11    1    4    4    0    0 -0.26393454937E+02  0.47767122274E+02 -0.99402468135E+02  0.11339825001E+03  0.00000000000E+00 0.  1.
         11    1    4    4    0    0 -0.11343708257E+03 -0.24037130849E+02 -0.33914521286E+03  0.35842046644E+03  0.00000000000E+00 0. -1.
        -13    1    3    3    0    0  0.89958181888E+02 -0.67351801095E+02  0.12982842443E+03  0.17170952038E+03  0.00000000000E+00 0.  1.
         13    1    3    3    0    0  0.79317920296E+02  0.16265363090E+02  0.42242606836E+02  0.91325420058E+02  0.00000000000E+00 0. -1.
         21    1    1    2  502  501 -0.29445564680E+02  0.27356446581E+02 -0.24280348177E+03  0.24610759275E+03  0.00000000000E+00 0. -1.
<scales pt_clust_5="13000.00000" pt_clust_6="13000.00000" pt_clust_7="13000.00000" pt_clust_8="13000.00000" pt_clust_9="40.19224"></scales>
<clustering>
<clus scale="   40.192">  2  9  1 -1</clus>
<clus scale="   91.185">  7  8 -1 -1</clus>
<clus scale="  100.862">  5  6 -1 -1</clus>
<clus scale="  196.043">  1  7  2 -1</clus>
<clus scale="   40.192">  2  5  1 -1</clus>
</clustering>
</event>
<event>
 9    1  0.1435532E-005  0.1057223E+03  0.7546771E-02  0.1271012E+00
          1   -1    0    0  502    0  0.00000000000E+00  0.00000000000E+00  0.16161565447E+03  0.16161565447E+03  0.00000000000E+00 0. -1.
         -1   -1    0    0    0  501 -0.00000000000E+00 -0.00000000000E+00 -0.12903472571E+03  0.12903472571E+03  0.00000000000E+00 0.  1.
         23    2    1    2    0    0 -0.42765827449E+02 -0.62257796438E+01 -0.45065877441E+02  0.10824449398E+03  0.88420929861E+02 0.  0.
         23    2    1    2    0    0  0.61937730655E+02 -0.14980177074E+02  0.15945808319E+02  0.11440391849E+03  0.93665893362E+02 0.  0.
        -11    1    4    4    0    0  0.73340958213E+02  0.20225381382E+01  0.39394137126E+02  0.83275956026E+02  0.00000000000E+00 0. -1.
         11    1    4    4    0    0 -0.11403227558E+02 -0.17002715212E+02 -0.23448328808E+02  0.31127962465E+02  0.00000000000E+00 0.  1.
        -13    1    3    3    0    0 -0.62999334673E+02  0.54638653487E+01 -0.70588165113E+01  0.63628585434E+02  0.00000000000E+00 0.  1.
         13    1    3    3    0    0  0.20233507225E+02 -0.11689644993E+02 -0.38007060930E+02  0.44615908544E+02  0.00000000000E+00 0. -1.
         21    1    1    2  502  501 -0.19171903206E+02  0.21205956718E+02  0.61700997881E+02  0.68001967709E+02  0.00000000000E+00 0. -1.
<scales pt_clust_5="13000.00000" pt_clust_6="13000.00000" pt_clust_7="13000.00000" pt_clust_8="13000.00000" pt_clust_9="28.58766"></scales>
<clustering>
<clus scale="   28.588">  1  9  2 -1</clus>
<clus scale="   88.421">  7  8 -1 -1</clus>
<clus scale="   93.666">  5  6 -1 -1</clus>
<clus scale="  101.105">  2  7  1 -1</clus>
<clus scale="   28.588">  1  5  2 -1</clus>
</clustering>
</event>
<event>
 9    1  0.1435532E-005  0.9690956E+02  0.7546771E-02  0.1287305E+00
          1   -1    0    0  502    0  0.00000000000E+00  0.00000000000E+00  0.56341974822E+02  0.56341974822E+02  0.00000000000E+00 0. -1.
         -1   -1    0    0    0  501 -0.00000000000E+00 -0.00000000000E+00 -0.31893003970E+03  0.31893003970E+03  0.00000000000E+00 0.  1.
         23    2    1    2    0    0  0.24975271756E+02 -0.44395681352E+02 -0.15171120544E+03  0.18407840445E+03  0.90960587094E+02 0.  0.
         23    2    1    2    0    0  0.14992198856E+02  0.25902757010E+02 -0.33368694168E+02  0.10204820840E+03  0.91676868614E+02 0.  0.
        -13    1    3    3    0    0  0.43470844358E+02 -0.63672761746E+02 -0.11975876366E+03  0.14242926795E+03  0.00000000000E+00 0.  1.
         13    1    3    3    0    0 -0.18495572603E+02  0.19277080393E+02 -0.31952441787E+02  0.41649136492E+02  0.00000000000E+00 0. -1.
        -13    1    4    4    0    0 -0.12932072427E+02 -0.15438450932E+02 -0.46317727828E+02  0.50506595367E+02  0.00000000000E+00 0. -1.
         13    1    4    4    0    0  0.27924271283E+02  0.41341207943E+02  0.12949033659E+02  0.51541613028E+02  0.00000000000E+00 0.  1.
         21    1    1    2  502  501 -0.39967470612E+02  0.18492924342E+02 -0.77508165266E+02  0.89145401680E+02  0.00000000000E+00 0.  1.
<scales pt_clust_5="13000.00000" pt_clust_6="13000.00000" pt_clust_7="13000.00000" pt_clust_8="13000.00000" pt_clust_9="44.03847"></scales>
<clustering>
<clus scale="   44.038">  2  9  1 -1</clus>
<clus scale="   90.961">  5  6 -1 -1</clus>
<clus scale="   91.677">  7  8 -1 -1</clus>
<clus scale="   96.232">  2  5  1 -1</clus>
<clus scale="   96.910">  1  5  2 -1</clus>
</clustering>
</event>
<event>
 9    1  0.1435532E-005  0.2150310E+03  0.7546771E-02  0.1137840E+00
         -2   -1    0    0    0  501 -0.00000000000E+00  0.00000000000E+00  0.13515868328E+03  0.13515868328E+03  0.00000000000E+00 0.  1.
          2   -1    0    0  502    0  0.00000000000E+00 -0.00000000000E+00 -0.41148675529E+03  0.41148675529E+03  0.00000000000E+00 0. -1.
         23    2    1    2    0    0 -0.16656781207E+03 -0.66299156485E+02 -0.96375759518E+02  0.22226773010E+03  0.89298615075E+02 0.  0.
         23    2    1    2    0    0  0.20072524395E+03  0.76047672690E+02 -0.14654083913E+03  0.27561204151E+03  0.91727355850E+02 0.  0.
        -11    1    3    3    0    0 -0.50051393851E+02 -0.66157801762E+02 -0.30290021819E+02  0.88314677049E+02  0.00000000000E+00 0.  1.
         11    1    3    3    0    0 -0.11651641821E+03 -0.14135472362E+00 -0.66085737699E+02  0.13395305305E+03  0.00000000000E+00 0. -1.
        -11    1    4    4    0    0  0.68158777716E+02 -0.90393602804E+01 -0.14963076155E+02  0.70364924942E+02  0.00000000000E+00 0.  1.
         11    1    4    4    0    0  0.13256646624E+03  0.85087032970E+02 -0.13157776298E+03  0.20524711657E+03  0.00000000000E+00 0. -1.
         21    1    1    2  502  501 -0.34157431887E+02 -0.97485162041E+01 -0.33411473368E+02  0.48765666958E+02  0.00000000000E+00 0.  1.
<scales pt_clust_5="13000.00000" pt_clust_6="13000.00000" pt_clust_7="13000.00000" pt_clust_8="13000.00000" pt_clust_9="35.52131"></scales>
<clustering>
<clus scale="   35.521">  2  9  1 -1</clus>
<clus scale="   89.299">  5  6 -1 -1</clus>
<clus scale="   91.727">  7  8 -1 -1</clus>
<clus scale="  214.006">  1  5  2 -1</clus>
<clus scale="   35.521">  2  5  1 -1</clus>
</clustering>
</event>
<event>
 9    1  0.1435532E-005  0.1553936E+03  0.7546771E-02  0.1194193E+00
         -1   -1    0    0    0  501 -0.00000000000E+00  0.00000000000E+00  0.27365568728E+03  0.27365568728E+03  0.00000000000E+00 0.  1.
          1   -1    0    0  502    0  0.00000000000E+00 -0.00000000000E+00 -0.41886704559E+03  0.41886704559E+03  0.00000000000E+00 0. -1.
         23    2    1    2    0    0 -0.12518946757E+03  0.14418280609E+02  0.22888893257E+03  0.27757233053E+03  0.93680123904E+02 0.  0.
         23    2    1    2    0    0  0.10254404133E+03 -0.13227010806E+02 -0.22663231340E+03  0.26574906576E+03  0.92574976383E+02 0.  0.
        -11    1    3    3    0    0 -0.99368440723E+02  0.51423332105E+02  0.16141681232E+03  0.19640222350E+03  0.00000000000E+00 0.  1.
         11    1    3    3    0    0 -0.25821026851E+02 -0.37005051496E+02  0.67472120252E+02  0.81170107030E+02  0.00000000000E+00 0. -1.
        -11    1    4    4    0    0  0.38885214269E+02 -0.28226069420E+02 -0.25804902358E+02  0.54540479181E+02  0.00000000000E+00 0.  1.
         11    1    4    4    0    0  0.63658827056E+02  0.14999058614E+02 -0.20082741104E+03  0.21120858658E+03  0.00000000000E+00 0. -1.
         21    1    1    2  502  501  0.22645426248E+02 -0.11912698030E+01 -0.14746797749E+03  0.14920133658E+03  0.00000000000E+00 0. -1.
<scales pt_clust_5="13000.00000" pt_clust_6="13000.00000" pt_clust_7="13000.00000" pt_clust_8="13000.00000" pt_clust_9="22.67674"></scales>
<clustering>
<clus scale="   22.677">  2  9  1 -1</clus>
<clus scale="   92.575">  7  8 -1 -1</clus>
<clus scale="   93.680">  5  6 -1 -1</clus>
<clus scale="  154.730">  2  7  1 -1</clus>
<clus scale="   22.677">  2  5  1 -1</clus>
</clustering>
</event>
<event>
 9    1  0.1435532E-005  0.1013260E+03  0.7546771E-02  0.1280572E+00
          2   -1    0    0  502    0  0.00000000000E+00  0.00000000000E+00  0.15640485152E+03  0.15640485152E+03  0.00000000000E+00 0. -1.
         -2   -1    0    0    0  501 -0.00000000000E+00 -0.00000000000E+00 -0.25313549284E+03  0.25313549284E+03  0.00000000000E+00 0.  1.
         23    2    1    2    0    0  0.12194848410E+02  0.30318724633E+02 -0.17363158419E+03  0.19799348725E+03  0.89361930234E+02 0.  0.
         23    2    1    2    0    0  0.69403442511E+01 -0.42621148480E+02 -0.24535511563E+02  0.10759081102E+03  0.95441398843E+02 0.  0.
        -13    1    4    4    0    0 -0.43543356146E+02 -0.29218186382E+02 -0.10119468773E+02  0.53405336139E+02  0.00000000000E+00 0.  1.
         13    1    4    4    0    0  0.50483700397E+02 -0.13402962098E+02 -0.14416042790E+02  0.54185474885E+02  0.00000000000E+00 0. -1.
        -13    1    3    3    0    0  0.25461240539E+02  0.58115687572E+02 -0.12908787614E+03  0.14383806060E+03  0.00000000000E+00 0.  1.
         13    1    3    3    0    0 -0.13266392129E+02 -0.27796962940E+02 -0.44543708055E+02  0.54155426655E+02  0.00000000000E+00 0. -1.
         21    1    1    2  502  501 -0.19135192661E+02  0.12302423848E+02  0.10143645443E+03  0.10395604609E+03  0.00000000000E+00 0. -1.
<scales pt_clust_5="13000.00000" pt_clust_6="13000.00000" pt_clust_7="13000.00000" pt_clust_8="13000.00000" pt_clust_9="22.74874"></scales>
<clustering>
<clus scale="   22.749">  1  9  2 -1</clus>
<clus scale="   89.362">  7  8 -1 -1</clus>
<clus scale="   95.441">  5  6 -1 -1</clus>
<clus scale="   95.621">  2  7  1 -1</clus>
<clus scale="   22.749">  1  5  2 -1</clus>
</clustering>
</event>
<event>
 9    1  0.1435532E-005  0.1051072E+03  0.7546771E-02  0.1270380E+00
          1   -1    0    0  502    0  0.00000000000E+00  0.00000000000E+00  0.12849217404E+03  0.12849217404E+03  0.00000000000E+00 0. -1.
         -1   -1    0    0    0  501 -0.00000000000E+00 -0.00000000000E+00 -0.19843239066E+03  0.19843239066E+03  0.00000000000E+00 0.  1.
         23    2    1    2    0    0 -0.74174551020E+02 -0.50114508732E+01 -0.10240631028E+03  0.15570232854E+03  0.90714850314E+02 0.  0.
         23    2    1    2    0    0  0.24423332210E+02 -0.53092215832E+00 -0.23832144591E+02  0.95887029906E+02  0.89607869932E+02 0.  0.
        -11    1    4    4    0    0  0.17965291164E+02  0.33769990388E+02  0.17265917105E+02  0.41967556885E+02  0.00000000000E+00 0.  1.
         11    1    4    4    0    0  0.64580410463E+01 -0.34300912547E+02 -0.41098061696E+02  0.53919473021E+02  0.00000000000E+00 0. -1.
        -11    1    3    3    0    0 -0.47328901250E+02 -0.75762210517E+01 -0.11599230795E+03  0.12550553582E+03  0.00000000000E+00 0.  1.
         11    1    3    3    0    0 -0.26845649770E+02  0.25647701785E+01  0.13585997666E+02  0.30196792714E+02  0.00000000000E+00 0. -1.
         21    1    1    2  502  501  0.49751218810E+02  0.55423730315E+01  0.56298238255E+02  0.75335206262E+02  0.00000000000E+00 0. -1.
<scales pt_clust_5="13000.00000" pt_clust_6="13000.00000" pt_clust_7="13000.00000" pt_clust_8="13000.00000" pt_clust_9="50.05898"></scales>
<clustering>
<clus scale="   50.059">  1  9  2 -1</clus>
<clus scale="   89.608">  5  6 -1 -1</clus>
<clus scale="   90.715">  7  8 -1 -1</clus>
<clus scale="  104.153">  1  5  2 -1</clus>
<clus scale="   50.059">  1  5  2 -1</clus>
</clustering>
</event>
<event>
 9    1  0.1435532E-005  0.1021410E+03  0.7546771E-02  0.1279768E+00
          1   -1    0    0  502    0  0.00000000000E+00  0.00000000000E+00  0.31660162705E+03  0.31660162705E+03  0.00000000000E+00 0. -1.
         -1   -1    0    0    0  501 -0.00000000000E+00 -0.00000000000E+00 -0.73725318306E+02  0.73725318306E+02  0.00000000000E+00 0.  1.
         23    2    1    2    0    0  0.34632187704E+02  0.34809757862E+02  0.22797050698E+02  0.11272508199E+03  0.98874318815E+02 0.  0.
         23    2    1    2    0    0  0.84444295625E+01 -0.15002697830E+01  0.62664429740E+02  0.11103492451E+03  0.91259873469E+02 0.  0.
        -11    1    4    4    0    0 -0.10037507761E+02 -0.23663408267E+02  0.75274408165E+02  0.79542095632E+02  0.00000000000E+00 0. -1.
         11    1    4    4    0    0  0.18481937323E+02  0.22163138484E+02 -0.12609978425E+02  0.31492828875E+02  0.00000000000E+00 0.  1.
        -13    1    3    3    0    0  0.66858496993E+01 -0.34651085149E+02  0.38986118815E+01  0.35504893505E+02  0.00000000000E+00 0. -1.
         13    1    3    3    0    0  0.27946338005E+02  0.69460843010E+02  0.18898438817E+02  0.77220188483E+02  0.00000000000E+00 0.  1.
         21    1    1    2  502  501 -0.43076617266E+02 -0.33309488079E+02  0.15741482830E+03  0.16656693886E+03  0.00000000000E+00 0.  1.
<scales pt_clust_5="13000.00000" pt_clust_6="13000.00000" pt_clust_7="13000.00000" pt_clust_8="13000.00000" pt_clust_9="54.45289"></scales>
<clustering>
<clus scale="   54.453">  1  9  2 -1</clus>
<clus scale="   91.260">  5  6 -1 -1</clus>
<clus scale="   94.789">  1  5  2 -1</clus>
<clus scale="   98.874">  7  8 -1 -1</clus>
<clus scale="   54.453">  1  5  2 -1</clus>
</clustering>
</event>
<event>
 9    1  0.1435532E-005  0.1546957E+03  0.7546771E-02  0.1199882E+00
          1   -1    0    0  502    0  0.00000000000E+00  0.00000000000E+00  0.10100817702E+04  0.10100817702E+04  0.00000000000E+00 0. -1.
         -1   -1    0    0    0  501 -0.00000000000E+00 -0.00000000000E+00 -0.55731043455E+02  0.55731043455E+02  0.00000000000E+00 0.  1.
         23    2    1    2    0    0 -0.10381737255E+03 -0.27319374921E+02  0.84740669385E+02  0.18081590578E+03  0.11827516919E+03 0.  0.
         23    2    1    2    0    0  0.62848789588E+02  0.28918399819E+02  0.53953879040E+03  0.55238899615E+03  0.96152236175E+02 0.  0.
        -11    1    4    4    0    0  0.20052466203E+02  0.60636983679E+02  0.25269942630E+03  0.26064524788E+03  0.00000000000E+00 0.  1.
         11    1    4    4    0    0  0.42796323385E+02 -0.31718583860E+02  0.28683936410E+03  0.29174374827E+03  0.00000000000E+00 0. -1.
        -11    1    3    3    0    0 -0.82689823738E+02 -0.45716832881E+02  0.31380219021E+01  0.94538261778E+02  0.00000000000E+00 0.  1.
         11    1    3    3    0    0 -0.21127548810E+02  0.18397457960E+02  0.81602647483E+02  0.86277644001E+02  0.00000000000E+00 0. -1.
         21    1    1    2  502  501  0.40968582961E+02 -0.15990248981E+01  0.33007126694E+03  0.33260791171E+03  0.00000000000E+00 0. -1.
<scales pt_clust_5="13000.00000" pt_clust_6="13000.00000" pt_clust_7="13000.00000" pt_clust_8="13000.00000" pt_clust_9="40.99978"></scales>
<clustering>
<clus scale="   41.000">  1  9  2 -1</clus>
<clus scale="   96.152">  5  6 -1 -1</clus>
<clus scale="  118.275">  7  8 -1 -1</clus>
<clus scale="  138.517">  1  5  2 -1</clus>
<clus scale="   41.000">  1  5  2 -1</clus>
</clustering>
</event>
<event>
 9    1  0.1435532E-005  0.1011165E+03  0.7546771E-02  0.1278607E+00
          1   -1    0    0  502    0  0.00000000000E+00  0.00000000000E+00  0.24733282015E+03  0.24733282015E+03  0.00000000000E+00 0. -1.
         -1   -1    0    0    0  501 -0.00000000000E+00 -0.00000000000E+00 -0.71620521476E+02  0.71620521476E+02  0.00000000000E+00 0.  1.
         23    2    1    2    0    0  0.27297569149E+02  0.22586195441E+02  0.83697422182E+01  0.99981755037E+02  0.93118232637E+02 0.  0.
         23    2    1    2    0    0 -0.51862448839E+02 -0.88804380581E+01  0.98277412842E+02  0.14439762892E+03  0.91780442273E+02 0.  0.
        -11    1    3    3    0    0  0.42205582831E+02 -0.21365248664E+02  0.21187447051E+02  0.51833319257E+02  0.00000000000E+00 0. -1.
         11    1    3    3    0    0 -0.14908013682E+02  0.43951444105E+02 -0.12817704833E+02  0.48148435780E+02  0.00000000000E+00 0.  1.
        -11    1    4    4    0    0  0.10106236678E+02 -0.36445794574E+02  0.31547283972E+02  0.49251021187E+02  0.00000000000E+00 0. -1.
         11    1    4    4    0    0 -0.61968685517E+02  0.27565356516E+02  0.66730128870E+02  0.95146607736E+02  0.00000000000E+00 0.  1.
         21    1    1    2  502  501  0.24564879690E+02 -0.13705757383E+02  0.69065143615E+02  0.74573957667E+02  0.00000000000E+00 0. -1.
<scales pt_clust_5="13000.00000" pt_clust_6="13000.00000" pt_clust_7="13000.00000" pt_clust_8="13000.00000" pt_clust_9="28.12972"></scales>
<clustering>
<clus scale="   28.130">  1  9  2 -1</clus>
<clus scale="   91.780">  7  8 -1 -1</clus>
<clus scale="   93.118">  5  6 -1 -1</clus>
<clus scale="   99.886">  1  7  2 -1</clus>
<clus scale="   28.130">  1  5  2 -1</clus>
</clustering>
</event>
<event>
 9    1  0.1435532E-005  0.9569627E+02  0.7546771E-02  0.1292440E+00
         -1   -1    0    0    0  501 -0.00000000000E+00  0.00000000000E+00  0.36704204597E+02  0.36704204597E+02  0.00000000000E+00 0.  1.
          1   -1    0    0  502    0  0.00000000000E+00 -0.00000000000E+00 -0.45295980048E+03  0.45295980048E+03  0.00000000000E+00 0. -1.
         23    2    1    2    0    0 -0.17898514708E+02  0.26776116753E+02 -0.12575892671E+03  0.15994907498E+03  0.93440257296E+02 0.  0.
         23    2    1    2    0    0  0.23346293500E+02  0.24377570101E+02 -0.12736436054E+03  0.15866368604E+03  0.88392135326E+02 0.  0.
        -11    1    3    3    0    0 -0.53322652400E+02  0.15542763910E+02 -0.46601856624E+02  0.72502522782E+02  0.00000000000E+00 0.  1.
         11    1    3    3    0    0  0.35424137692E+02  0.11233352843E+02 -0.79157070084E+02  0.87446552200E+02  0.00000000000E+00 0. -1.
        -11    1    4    4    0    0 -0.20021199274E+02 -0.16879927563E+02 -0.73910372933E+02  0.78412521972E+02  0.00000000000E+00 0.  1.
         11    1    4    4    0    0  0.43367492774E+02  0.41257497664E+02 -0.53453987604E+02  0.80251164065E+02  0.00000000000E+00 0. -1.
         21    1    1    2  502  501 -0.54477787917E+01 -0.51153686854E+02 -0.16313230864E+03  0.17105124406E+03  0.00000000000E+00 0. -1.
<scales pt_clust_5="13000.00000" pt_clust_6="13000.00000" pt_clust_7="13000.00000" pt_clust_8="13000.00000" pt_clust_9="51.44296"></scales>
<clustering>
<clus scale="   51.443">  2  9  1 -1</clus>
<clus scale="   88.392">  7  8 -1 -1</clus>
<clus scale="   90.774">  2  7  1 -1</clus>
<clus scale="   93.440">  5  6 -1 -1</clus>
<clus scale="   51.443">  2  5  1 -1</clus>
</clustering>
</event>
<event>
 9    1  0.1435532E-005  0.1237624E+03  0.7546771E-02  0.1237034E+00
         -1   -1    0    0    0  501 -0.00000000000E+00  0.00000000000E+00  0.16787415260E+03  0.16787415260E+03  0.00000000000E+00 0.  1.
          1   -1    0    0  502    0  0.00000000000E+00 -0.00000000000E+00 -0.21697194579E+03  0.21697194579E+03  0.00000000000E+00 0. -1.
         23    2    1    2    0    0 -0.84485124963E+02  0.42433841121E+02  0.10445973087E+03  0.16766087378E+03  0.90884355157E+02 0.  0.
         23    2    1    2    0    0  0.44504896265E+02 -0.19316581946E+02 -0.80643886507E+02  0.13087633224E+03  0.90947027333E+02 0.  0.
        -11    1    4    4    0    0  0.17152441117E+02  0.20105483313E+02 -0.78519226955E+02  0.82847484555E+02  0.00000000000E+00 0.  1.
         11    1    4    4    0    0  0.27352455149E+02 -0.39422065259E+02 -0.21246595519E+01  0.48028847687E+02  0.00000000000E+00 0. -1.
        -13    1    3    3    0    0 -0.82035741573E+01 -0.19331527656E+02 -0.40052053152E+01  0.21378687052E+02  0.00000000000E+00 0. -1.
         13    1    3    3    0    0 -0.76281550806E+02  0.61765368777E+02  0.10846493618E+03  0.14628218673E+03  0.00000000000E+00 0.  1.
         21    1    1    2  502  501  0.39980228698E+02 -0.23117259176E+02 -0.72913637553E+02  0.86308892356E+02  0.00000000000E+00 0. -1.
<scales pt_clust_5="13000.00000" pt_clust_6="13000.00000" pt_clust_7="13000.00000" pt_clust_8="13000.00000" pt_clust_9="46.18253"></scales>
<clustering>
<clus scale="   46.183">  2  9  1 -1</clus>
<clus scale="   90.884">  7  8 -1 -1</clus>
<clus scale="   90.947">  5  6 -1 -1</clus>
<clus scale="  123.716">  1  7  2 -1</clus>
<clus scale="   46.183">  2  5  1 -1</clus>
</clustering>
</event>
<event>
 9    1  0.1435532E-005  0.1111106E+03  0.7546771E-02  0.1258819E+00
          1   -1    0    0  502    0  0.00000000000E+00  0.00000000000E+00  0.10232909400E+03  0.10232909400E+03  0.00000000000E+00 0. -1.
         -1   -1    0    0    0  501 -0.00000000000E+00 -0.00000000000E+00 -0.34418944920E+03  0.34418944920E+03  0.00000000000E+00 0.  1.
         23    2    1    2    0    0 -0.50780313623E+02 -0.19210851671E+02 -0.22529730960E+03  0.24904724718E+03  0.91202831878E+02 0.  0.
         23    2    1    2    0    0  0.82425167591E+02  0.38041004587E+02 -0.58335738311E+02  0.14178530767E+03  0.91972761325E+02 0.  0.
        -11    1    4    4    0    0 -0.95291983260E+00 -0.24597493420E+02 -0.72630631857E+01  0.25665089627E+02  0.00000000000E+00 0.  1.
         11    1    4    4    0    0  0.83378087424E+02  0.62638498006E+02 -0.51072675126E+02  0.11612021805E+03  0.00000000000E+00 0. -1.
        -11    1    3    3    0    0 -0.64838306554E+01  0.23090923082E+02 -0.11404512572E+02  0.26557366129E+02  0.00000000000E+00 0. -1.
         11    1    3    3    0    0 -0.44296482967E+02 -0.42301774752E+02 -0.21389279703E+03  0.22248988105E+03  0.00000000000E+00 0.  1.
         21    1    1    2  502  501 -0.31644853968E+02 -0.18830152916E+02  0.41772692712E+02  0.55685988345E+02  0.00000000000E+00 0. -1.
<scales pt_clust_5="13000.00000" pt_clust_6="13000.00000" pt_clust_7="13000.00000" pt_clust_8="13000.00000" pt_clust_9="36.82352"></scales>
<clustering>
<clus scale="   36.824">  1  9  2 -1</clus>
<clus scale="   91.203">  7  8 -1 -1</clus>
<clus scale="   91.973">  5  6 -1 -1</clus>
<clus scale="  110.474">  2  7  1 -1</clus>
<clus scale="   36.824">  1  5  2 -1</clus>
</clustering>
</event>
<event>
 9    1  0.1435532E-005  0.1465259E+03  0.7546771E-02  0.1205094E+00
         -2   -1    0    0    0  501 -0.00000000000E+00  0.00000000000E+00  0.18004656362E+03  0.18004656362E+03  0.00000000000E+00 0.  1.
          2   -1    0    0  502    0  0.00000000000E+00 -0.00000000000E+00 -0.57205000269E+03  0.57205000269E+03  0.00000000000E+00 0. -1.
         23    2    1    2    0    0  0.98634576824E+01 -0.10783950819E+03  0.11482891076E+03  0.18230080569E+03  0.91220927898E+02 0.  0.
         23    2    1    2    0    0 -0.76965856599E+02  0.86079516831E+02 -0.46450985141E+03  0.48753141210E+03  0.92650145333E+02 0.  0.
        -11    1    4    4    0    0 -0.93763825024E+02  0.49242273327E+02 -0.36631294713E+03  0.38131565874E+03  0.00000000000E+00 0. -1.
         11    1    4    4    0    0  0.16797968425E+02  0.36837243504E+02 -0.98196904276E+02  0.10621575336E+03  0.00000000000E+00 0.  1.
        -13    1    3    3    0    0 -0.27006602301E+02 -0.34576070812E+02  0.34872371394E+01  0.44011612825E+02  0.00000000000E+00 0. -1.
         13    1    3    3    0    0  0.36870059983E+02 -0.73263437375E+02  0.11134167362E+03  0.13828919287E+03  0.00000000000E+00 0.  1.
         21    1    1    2  502  501  0.67102398916E+02  0.21759991356E+02 -0.42322498416E+02  0.82264348513E+02  0.00000000000E+00 0.  1.
<scales pt_clust_5="13000.00000" pt_clust_6="13000.00000" pt_clust_7="13000.00000" pt_clust_8="13000.00000" pt_clust_9="70.54239"></scales>
<clustering>
<clus scale="   70.542">  1  9  2 -1</clus>
<clus scale="   91.221">  7  8 -1 -1</clus>
<clus scale="   92.650">  5  6 -1 -1</clus>
<clus scale="  145.626">  1  7  2 -1</clus>
<clus scale="  146.526">  2  5  1 -1</clus>
</clustering>
</event>
<event>
 9    1  0.1435532E-005  0.1208599E+03  0.7546771E-02  0.1242384E+00
         -2   -1    0    0    0  501 -0.00000000000E+00  0.00000000000E+00  0.15665090326E+03  0.15665090326E+03  0.00000000000E+00 0.  1.
          2   -1    0    0  502    0  0.00000000000E+00 -0.00000000000E+00 -0.33709770794E+03  0.33709770794E+03  0.00000000000E+00 0. -1.
         23    2    1    2    0    0  0.59508689261E+02 -0.54164996409E+02  0.10634082658E+03  0.16271452797E+03  0.93233659597E+02 0.  0.
         23    2    1    2    0    0 -0.46162136440E+02  0.79565505049E+01 -0.13501524734E+03  0.17182287927E+03  0.95392532673E+02 0.  0.
        -11    1    4    4    0    0  0.56719827382E+00 -0.36885260438E+02 -0.74746715751E+02  0.83354158067E+02  0.00000000000E+00 0.  1.
         11    1    4    4    0    0 -0.46729334714E+02  0.44841810943E+02 -0.60268531593E+02  0.88468721206E+02  0.00000000000E+00 0. -1.
        -13    1    3    3    0    0 -0.67218584269E+01 -0.34193319392E+02 -0.11742828718E+01  0.34867540952E+02  0.00000000000E+00 0. -1.
         13    1    3    3    0    0  0.66230547688E+02 -0.19971677017E+02  0.10751510945E+03  0.12784698702E+03  0.00000000000E+00 0.  1.
         21    1    1    2  502  501 -0.13346552821E+02  0.46208445904E+02 -0.15177238392E+03  0.15921120395E+03  0.00000000000E+00 0. -1.
<scales pt_clust_5="13000.00000" pt_clust_6="13000.00000" pt_clust_7="13000.00000" pt_clust_8="13000.00000" pt_clust_9="48.09731"></scales>
<clustering>
<clus scale="   48.097">  2  9  1 -1</clus>
<clus scale="   93.234">  7  8 -1 -1</clus>
<clus scale="   95.393">  5  6 -1 -1</clus>
<clus scale="  119.163">  1  7  2 -1</clus>
<clus scale="   48.097">  2  5  1 -1</clus>
</clustering>
</event>
<event>
 9    1  0.1435532E-005  0.9788752E+02  0.7546771E-02  0.1288463E+00
          2   -1    0    0  502    0  0.00000000000E+00  0.00000000000E+00  0.43448094000E+03  0.43448094000E+03  0.00000000000E+00 0.  1.
         -2   -1    0    0    0  501 -0.00000000000E+00 -0.00000000000E+00 -0.31085066712E+02  0.31085066712E+02  0.00000000000E+00 0. -1.
         23    2    1    2    0    0 -0.34018628404E+02  0.21918226018E+02  0.10591708287E+03  0.14259083304E+03  0.86464105354E+02 0.  0.
         23    2    1    2    0    0  0.77281148323E+01 -0.38461519490E+01  0.22851770087E+03  0.24699213058E+03  0.93328753949E+02 0.  0.
        -11    1    3    3    0    0  0.25984067389E+02  0.57945276307E+01  0.59022229990E+02  0.64748528489E+02  0.00000000000E+00 0.  1.
         11    1    3    3    0    0 -0.60002695792E+02  0.16123698387E+02  0.46894852879E+02  0.77842304556E+02  0.00000000000E+00 0. -1.
        -13    1    4    4    0    0  0.37717562807E+02  0.30199800724E+02  0.11431973798E+03  0.12411142172E+03  0.00000000000E+00 0.  1.
         13    1    4    4    0    0 -0.29989447975E+02 -0.34045952673E+02  0.11419796289E+03  0.12288070887E+03  0.00000000000E+00 0. -1.
         21    1    1    2  502  501  0.26290513571E+02 -0.18072074069E+02  0.68961089550E+02  0.75983043088E+02  0.00000000000E+00 0.  1.
<scales pt_clust_5="13000.00000" pt_clust_6="13000.00000" pt_clust_7="13000.00000" pt_clust_8="13000.00000" pt_clust_9="31.90284"></scales>
<clustering>
<clus scale="   31.903">  1  9  2 -1</clus>
<clus scale="   86.464">  5  6 -1 -1</clus>
<clus scale="   91.366">  2  5  1 -1</clus>
<clus scale="   93.329">  7  8 -1 -1</clus>
<clus scale="   31.903">  1  5  2 -1</clus>
</clustering>
</event>
<event>
 9    1  0.1435532E-005  0.9365729E+02  0.7546771E-02  0.1296574E+00
         -2   -1    0    0    0  501 -0.00000000000E+00  0.00000000000E+00  0.15477422107E+03  0.15477422107E+03  0.00000000000E+00 0.  1.
          2   -1    0    0  502    0  0.00000000000E+00 -0.00000000000E+00 -0.21075452182E+03  0.21075452182E+03  0.00000000000E+00 0. -1.
         23    2    1    2    0    0 -0.10672665302E+02 -0.10528107477E+02  0.54284858205E+02  0.10882121718E+03  0.93115329816E+02 0.  0.
         23    2    1    2    0    0 -0.17711569502E+01 -0.31292464474E+02  0.38259066494E+02  0.10190683289E+03  0.89100455054E+02 0.  0.
        -13    1    3    3    0    0 -0.26218918998E+02  0.20945115128E+02  0.64116055318E+02  0.72367106552E+02  0.00000000000E+00 0.  1.
         13    1    3    3    0    0  0.15546253695E+02 -0.31473222605E+02 -0.98311971132E+01  0.36454110629E+02  0.00000000000E+00 0. -1.
        -13    1    4    4    0    0 -0.37662958175E+02  0.69742295678E+01  0.24403148855E+01  0.38380899329E+02  0.00000000000E+00 0. -1.
         13    1    4    4    0    0  0.35891801224E+02 -0.38266694042E+02  0.35818751609E+02  0.63525933562E+02  0.00000000000E+00 0.  1.
         21    1    1    2  502  501  0.12443822252E+02  0.41820571951E+02 -0.14852422546E+03  0.15480069282E+03  0.00000000000E+00 0. -1.
<scales pt_clust_5="13000.00000" pt_clust_6="13000.00000" pt_clust_7="13000.00000" pt_clust_8="13000.00000" pt_clust_9="43.63266"></scales>
<clustering>
<clus scale="   43.633">  2  9  1 -1</clus>
<clus scale="   89.100">  7  8 -1 -1</clus>
<clus scale="   89.667">  2  7  1 -1</clus>
<clus scale="   93.115">  5  6 -1 -1</clus>
<clus scale="   43.633">  2  5  1 -1</clus>
</clustering>
</event>
<event>
 9    1  0.1435532E-005  0.1197788E+03  0.7546771E-02  0.1244119E+00
         -2   -1    0    0    0  501 -0.00000000000E+00  0.00000000000E+00  0.16915178112E+03  0.16915178112E+03  0.00000000000E+00 0.  1.
          2   -1    0    0  502    0  0.00000000000E+00 -0.00000000000E+00 -0.22743584238E+03  0.22743584238E+03  0.00000000000E+00 0. -1.
         23    2    1    2    0    0 -0.38589698217E+02 -0.61891539802E+02  0.10574712281E+03  0.15673336754E+03  0.89795139116E+02 0.  0.
         23    2    1    2    0    0  0.41166518401E+02  0.87234552546E+02 -0.87943998732E+02  0.15961606013E+03  0.91861800242E+02 0.  0.
        -11    1    3    3    0    0 -0.38762565308E+02 -0.83891337820E+02  0.93891560745E+02  0.13174186202E+03  0.00000000000E+00 0.  1.
         11    1    3    3    0    0  0.17286709072E+00  0.21999798018E+02  0.11855562068E+02  0.24991505513E+02  0.00000000000E+00 0. -1.
        -13    1    4    4    0    0  0.81488597879E+01  0.51301013818E+02  0.74393933571E+01  0.52474208028E+02  0.00000000000E+00 0.  1.
         13    1    4    4    0    0  0.33017658613E+02  0.35933538728E+02 -0.95383392090E+02  0.10714185210E+03  0.00000000000E+00 0. -1.
         21    1    1    2  502  501 -0.25768201838E+01 -0.25343012744E+02 -0.76087185338E+02  0.80238195829E+02  0.00000000000E+00 0. -1.
<scales pt_clust_5="13000.00000" pt_clust_6="13000.00000" pt_clust_7="13000.00000" pt_clust_8="13000.00000" pt_clust_9="25.47368"></scales>
<clustering>
<clus scale="   25.474">  2  9  1 -1</clus>
<clus scale="   89.795">  5  6 -1 -1</clus>
<clus scale="   91.862">  7  8 -1 -1</clus>
<clus scale="  118.201">  1  5  2 -1</clus>
<clus scale="   25.474">  2  5  1 -1</clus>
</clustering>
</event>
<event>
 9    1  0.1435532E-005  0.1294602E+03  0.7546771E-02  0.1228517E+00
          1   -1    0    0  502    0  0.00000000000E+00  0.00000000000E+00  0.69939798129E+02  0.69939798129E+02  0.00000000000E+00 0. -1.
         -1   -1    0    0    0  501 -0.00000000000E+00 -0.00000000000E+00 -0.35360275582E+03  0.35360275582E+03  0.00000000000E+00 0.  1.
         23    2    1    2    0    0 -0.10448384275E+03 -0.20864684527E+02 -0.20724992815E+03  0.25031228241E+03  0.91386528292E+02 0.  0.
         23    2    1    2    0    0  0.62179787221E+02  0.20122422759E+02 -0.56649075418E+02  0.12653125711E+03  0.92356934999E+02 0.  0.
        -11    1    4    4    0    0  0.36298640072E+02  0.33613356981E+02  0.12883359997E+02  0.51121717532E+02  0.00000000000E+00 0. -1.
         11    1    4    4    0    0  0.25881147149E+02 -0.13490934222E+02 -0.69532435415E+02  0.75409539574E+02  0.00000000000E+00 0.  1.
        -13    1    3    3    0    0 -0.39713488737E+02  0.35908109687E+02 -0.67545245101E+02  0.86191146092E+02  0.00000000000E+00 0. -1.
         13    1    3    3    0    0 -0.64770354008E+02 -0.56772794214E+02 -0.13970468304E+03  0.16412113632E+03  0.00000000000E+00 0.  1.
         21    1    1    2  502  501  0.42304055524E+02  0.74226176800E+00 -0.19763954124E+02  0.46699014432E+02  0.00000000000E+00 0.  1.
<scales pt_clust_5="13000.00000" pt_clust_6="13000.00000" pt_clust_7="13000.00000" pt_clust_8="13000.00000" pt_clust_9="42.31057"></scales>
<clustering>
<clus scale="   42.311">  1  9  2 -1</clus>
<clus scale="   91.387">  7  8 -1 -1</clus>
<clus scale="   92.357">  5  6 -1 -1</clus>
<clus scale="  128.770">  2  7  1 -1</clus>
<clus scale="   42.311">  1  5  2 -1</clus>
</clustering>
</event>
<event>
 9    1  0.1435532E-005  0.1058005E+03  0.7546771E-02  0.1281240E+00
         -1   -1    0    0    0  501 -0.00000000000E+00  0.00000000000E+00  0.27208492861E+03  0.27208492861E+03  0.00000000000E+00 0.  1.
          1   -1    0    0  502    0  0.00000000000E+00 -0.00000000000E+00 -0.68168276325E+02  0.68168276325E+02  0.00000000000E+00 0. -1.
         23    2    1    2    0    0  0.50895642492E+02 -0.26712783393E+02  0.16628580475E+03  0.18736189800E+03  0.64417177363E+02 0.  0.
         23    2    1    2    0    0 -0.94354282477E+01  0.42950475020E+02  0.15422658822E+02  0.10313373826E+03  0.92005102858E+02 0.  0.
        -11    1    3    3    0    0  0.27031906663E+02 -0.36652247327E+02  0.15011142426E+03  0.15686794097E+03  0.00000000000E+00 0.  1.
         11    1    3    3    0    0  0.23863735829E+02  0.99394639343E+01  0.16174380496E+02  0.30493957032E+02  0.00000000000E+00 0. -1.
        -11    1    4    4    0    0  0.39256829139E+02  0.34811558722E+02  0.52669881197E+01  0.52732195275E+02  0.00000000000E+00 0.  1.
         11    1    4    4    0    0 -0.48692257387E+02  0.81389162987E+01  0.10155670702E+02  0.50401542986E+02  0.00000000000E+00 0. -1.
         21    1    1    2  502  501 -0.41460214245E+02 -0.16237691627E+02  0.22208188715E+02  0.49757568677E+02  0.00000000000E+00 0.  1.
<scales pt_clust_5="13000.00000" pt_clust_6="13000.00000" pt_clust_7="13000.00000" pt_clust_8="13000.00000" pt_clust_9="44.52653"></scales>
<clustering>
<clus scale="   44.527">  2  9  1 -1</clus>
<clus scale="   64.417">  5  6 -1 -1</clus>
<clus scale="   82.936">  1  5  2 -1</clus>
<clus scale="   92.005">  7  8 -1 -1</clus>
<clus scale="   44.527">  2  5  1 -1</clus>
</clustering>
</event>
<event>
 9    1  0.1435532E-005  0.1033829E+03  0.7546771E-02  0.1274097E+00
          1   -1    0    0  502    0  0.00000000000E+00  0.00000000000E+00  0.65988075168E+03  0.65988075168E+03  0.00000000000E+00 0. -1.
         -1   -1    0    0    0  501 -0.00000000000E+00 -0.00000000000E+00 -0.28414187745E+02  0.28414187745E+02  0.00000000000E+00 0.  1.
         23    2    1    2    0    0  0.30545563237E+02  0.31213753865E+02  0.11103457181E+03  0.15070837570E+03  0.92070671247E+02 0.  0.
         23    2    1    2    0    0 -0.54513540032E+02 -0.24910869166E+02  0.38884751585E+03  0.40368860011E+03  0.90387044535E+02 0.  0.
        -13    1    3    3    0    0  0.30162881177E+01 -0.21118799315E+02 -0.36819820811E+01  0.21648525829E+02  0.00000000000E+00 0.  1.
         13    1    3    3    0    0  0.27529275119E+02  0.52332553180E+02  0.11471655389E+03  0.12905984987E+03  0.00000000000E+00 0. -1.
        -13    1    4    4    0    0 -0.49195588404E+02 -0.56942378491E+02  0.24907445053E+03  0.26019362462E+03  0.00000000000E+00 0.  1.
         13    1    4    4    0    0 -0.53179516287E+01  0.32031509325E+02  0.13977306532E+03  0.14349497548E+03  0.00000000000E+00 0. -1.
         21    1    1    2  502  501  0.23967976796E+02 -0.63028846985E+01  0.13158447627E+03  0.13389796362E+03  0.00000000000E+00 0. -1.
<scales pt_clust_5="13000.00000" pt_clust_6="13000.00000" pt_clust_7="13000.00000" pt_clust_8="13000.00000" pt_clust_9="24.78286"></scales>
<clustering>
<clus scale="   24.783">  1  9  2 -1</clus>
<clus scale="   90.387">  7  8 -1 -1</clus>
<clus scale="   92.071">  5  6 -1 -1</clus>
<clus scale="  101.886">  1  7  2 -1</clus>
<clus scale="   24.783">  1  5  2 -1</clus>
</clustering>
</event>
<event>
 9    1  0.1435532E-005  0.9677708E+02  0.7546771E-02  0.1287787E+00
          1   -1    0    0  502    0  0.00000000000E+00  0.00000000000E+00  0.52510526048E+02  0.52510526048E+02  0.00000000000E+00 0. -1.
         -1   -1    0    0    0  501 -0.00000000000E+00 -0.00000000000E+00 -0.29208714196E+03  0.29208714196E+03  0.00000000000E+00 0.  1.
         23    2    1    2    0    0 -0.97919012976E+01 -0.52832714605E+02 -0.13070700289E+03  0.16768577430E+03  0.90260851058E+02 0.  0.
         23    2    1    2    0    0  0.47131646472E+01  0.82892122431E+01 -0.88951111248E+02  0.12785413304E+03  0.91342510274E+02 0.  0.
        -11    1    3    3    0    0  0.33853394732E+02 -0.41313915046E+01 -0.72566726696E+02  0.80181360390E+02  0.00000000000E+00 0.  1.
         11    1    3    3    0    0 -0.43645296030E+02 -0.48701323101E+02 -0.58140276193E+02  0.87504413906E+02  0.00000000000E+00 0. -1.
        -13    1    4    4    0    0  0.23657174822E+02 -0.35656501104E+02 -0.52310328799E+02  0.67582678924E+02  0.00000000000E+00 0.  1.
         13    1    4    4    0    0 -0.18944010175E+02  0.43945713347E+02 -0.36640782449E+02  0.60271454118E+02  0.00000000000E+00 0. -1.
         21    1    1    2  502  501  0.50787366505E+01  0.44543502362E+02 -0.19918501772E+02  0.49057760665E+02  0.00000000000E+00 0. -1.
<scales pt_clust_5="13000.00000" pt_clust_6="13000.00000" pt_clust_7="13000.00000" pt_clust_8="13000.00000" pt_clust_9="44.83210"></scales>
<clustering>
<clus scale="   44.832">  1  9  2 -1</clus>
<clus scale="   90.261">  5  6 -1 -1</clus>
<clus scale="   91.343">  7  8 -1 -1</clus>
<clus scale="   95.757">  2  5  1 -1</clus>
<clus scale="   44.832">  1  5  2 -1</clus>
</clustering>
</event>
<event>
 9    1  0.1435532E-005  0.1238330E+03  0.7546771E-02  0.1237395E+00
         -2   -1    0    0    0  501 -0.00000000000E+00  0.00000000000E+00  0.27146252389E+03  0.27146252389E+03  0.00000000000E+00 0.  1.
          2   -1    0    0  502    0  0.00000000000E+00 -0.00000000000E+00 -0.68015397624E+02  0.68015397624E+02  0.00000000000E+00 0. -1.
         23    2    1    2    0    0  0.85034153789E+02 -0.27261266404E+02  0.96787309115E+02  0.16080786723E+03  0.92289777344E+02 0.  0.
         23    2    1    2    0    0 -0.66204208124E+02  0.40810753818E+02  0.82318750227E+02  0.14504501893E+03  0.90626519729E+02 0.  0.
        -11    1    3    3    0    0  0.47293978861E+02  0.16219426291E+02  0.21639184042E+01  0.50044707698E+02  0.00000000000E+00 0. -1.
         11    1    3    3    0    0  0.37740174928E+02 -0.43480692695E+02  0.94623390711E+02  0.11076315954E+03  0.00000000000E+00 0.  1.
        -13    1    4    4    0    0 -0.27859709626E+02 -0.23088331633E+02  0.54671375669E+02  0.65560611617E+02  0.00000000000E+00 0.  1.
         13    1    4    4    0    0 -0.38344498498E+02  0.63899085451E+02  0.27647374558E+02  0.79484407317E+02  0.00000000000E+00 0. -1.
         21    1    1    2  502  501 -0.18829945665E+02 -0.13549487414E+02  0.24341066923E+02  0.33625035344E+02  0.00000000000E+00 0.  1.
<scales pt_clust_5="13000.00000" pt_clust_6="13000.00000" pt_clust_7="13000.00000" pt_clust_8="13000.00000" pt_clust_9="23.19818"></scales>
<clustering>
<clus scale="   23.198">  1  9  2 -1</clus>
<clus scale="   90.627">  7  8 -1 -1</clus>
<clus scale="   92.290">  5  6 -1 -1</clus>
<clus scale="  122.598">  2  7  1 -1</clus>
<clus scale="  122.598">  2  5  1 -1</clus>
</clustering>
</event>
<event>
 9    1  0.1435532E-005  0.2805805E+03  0.7546771E-02  0.1095491E+00
          1   -1    0    0  502    0  0.00000000000E+00  0.00000000000E+00  0.19431204339E+03  0.19431204339E+03  0.00000000000E+00 0. -1.
         -1   -1    0    0    0  501 -0.00000000000E+00 -0.00000000000E+00 -0.64819152805E+03  0.64819152805E+03  0.00000000000E+00 0.  1.
         23    2    1    2    0    0  0.17860111169E+03  0.18319463612E+03 -0.40918456386E+03  0.49134355188E+03  0.92346341975E+02 0.  0.
         23    2    1    2    0    0 -0.21045354774E+03 -0.20700183273E+03 -0.38196349560E+02  0.31086620215E+03  0.89657013164E+02 0.  0.
        -11    1    3    3    0    0  0.15987226613E+03  0.19243818787E+03 -0.38742072347E+03  0.46117937357E+03  0.00000000000E+00 0.  1.
         11    1    3    3    0    0  0.18728845559E+02 -0.92435517511E+01 -0.21763840381E+02  0.30164178309E+02  0.00000000000E+00 0. -1.
        -11    1    4    4    0    0 -0.43477007292E+02 -0.24005311051E+02  0.24426944548E+02  0.55346009266E+02  0.00000000000E+00 0.  1.
         11    1    4    4    0    0 -0.16697654045E+03 -0.18299652168E+03 -0.62623294108E+02  0.25552019289E+03  0.00000000000E+00 0. -1.
         21    1    1    2  502  501  0.31852436052E+02  0.23807196611E+02 -0.64985712419E+01  0.40293817405E+02  0.00000000000E+00 0. -1.
<scales pt_clust_5="13000.00000" pt_clust_6="13000.00000" pt_clust_7="13000.00000" pt_clust_8="13000.00000" pt_clust_9="39.76632"></scales>
<clustering>
<clus scale="   39.766">  1  9  2 -1</clus>
<clus scale="   89.657">  7  8 -1 -1</clus>
<clus scale="   92.346">  5  6 -1 -1</clus>
<clus scale="  279.707">  1  7  2 -1</clus>
<clus scale="   39.766">  1  5  2 -1</clus>
</clustering>
</event>
<event>
 9    1  0.1435532E-005  0.1881163E+03  0.7546771E-02  0.1160421E+00
          1   -1    0    0  502    0  0.00000000000E+00  0.00000000000E+00  0.44513356659E+03  0.44513356659E+03  0.00000000000E+00 0. -1.
         -1   -1    0    0    0  501 -0.00000000000E+00 -0.00000000000E+00 -0.25569697485E+03  0.25569697485E+03  0.00000000000E+00 0.  1.
         23    2    1    2    0    0  0.13315612636E+03 -0.94668622640E+02 -0.17531744350E+03  0.25601285533E+03  0.90075934616E+02 0.  0.
         23    2    1    2    0    0 -0.10694850989E+03  0.13891583438E+03  0.32135184291E+03  0.37752425994E+03  0.92314500994E+02 0.  0.
        -11    1    4    4    0    0 -0.32908929190E+02 -0.54291266827E+01  0.34563252425E+02  0.48032191863E+02  0.00000000000E+00 0.  1.
         11    1    4    4    0    0 -0.74039580697E+02  0.14434496106E+03  0.28678859049E+03  0.32949206808E+03  0.00000000000E+00 0. -1.
        -13    1    3    3    0    0  0.17839558775E+02  0.13259705409E+02 -0.48871410810E+02  0.53688773867E+02  0.00000000000E+00 0. -1.
         13    1    3    3    0    0  0.11531656759E+03 -0.10792832805E+03 -0.12644603269E+03  0.20232408146E+03  0.00000000000E+00 0.  1.
         21    1    1    2  502  501 -0.26207616473E+02 -0.44247211737E+02  0.43402192330E+02  0.67293426178E+02  0.00000000000E+00 0. -1.
<scales pt_clust_5="13000.00000" pt_clust_6="13000.00000" pt_clust_7="13000.00000" pt_clust_8="13000.00000" pt_clust_9="51.42621"></scales>
<clustering>
<clus scale="   51.426">  1  9  2 -1</clus>
<clus scale="   90.076">  7  8 -1 -1</clus>
<clus scale="   92.315">  5  6 -1 -1</clus>
<clus scale="  187.028">  2  7  1 -1</clus>
<clus scale="   51.426">  1  5  2 -1</clus>
</clustering>
</event>
<event>
 9    1  0.1435532E-005  0.1098078E+03  0.7546771E-02  0.1261583E+00
          1   -1    0    0  502    0  0.00000000000E+00  0.00000000000E+00  0.82828682090E+02  0.82828682090E+02  0.00000000000E+00 0. -1.
         -1   -1    0    0    0  501 -0.00000000000E+00 -0.00000000000E+00 -0.26642359680E+03  0.26642359680E+03  0.00000000000E+00 0.  1.
         23    2    1    2    0    0  0.48244191818E+02 -0.38608101728E+02 -0.17305705587E+03  0.20549527339E+03  0.91986277430E+02 0.  0.
         23    2    1    2    0    0 -0.22949365735E+02  0.56172738216E+02 -0.21812180457E+02  0.11096287479E+03  0.90304697881E+02 0.  0.
        -13    1    3    3    0    0 -0.11237777517E+02 -0.48995615811E+02 -0.84192889040E+02  0.98057639055E+02  0.00000000000E+00 0. -1.
         13    1    3    3    0    0  0.59481969335E+02  0.10387514082E+02 -0.88864166827E+02  0.10743763433E+03  0.00000000000E+00 0.  1.
        -13    1    4    4    0    0 -0.25526978734E+02  0.79462771216E+02 -0.25435699508E+02  0.87252125832E+02  0.00000000000E+00 0. -1.
         13    1    4    4    0    0  0.25776129990E+01 -0.23290033000E+02  0.36235190517E+01  0.23710748960E+02  0.00000000000E+00 0.  1.
         21    1    1    2  502  501 -0.25294826084E+02 -0.17564636488E+02  0.11274321610E+02  0.32794130715E+02  0.00000000000E+00 0. -1.
<scales pt_clust_5="13000.00000" pt_clust_6="13000.00000" pt_clust_7="13000.00000" pt_clust_8="13000.00000" pt_clust_9="30.79521"></scales>
<clustering>
<clus scale="   30.795">  1  9  2 -1</clus>
<clus scale="   90.305">  7  8 -1 -1</clus>
<clus scale="   91.986">  5  6 -1 -1</clus>
<clus scale="  108.403">  1  7  2 -1</clus>
<clus scale="   30.795">  1  5  2 -1</clus>
</clustering>
</event>
<event>
 9    1  0.1435532E-005  0.1716840E+03  0.7546771E-02  0.1176225E+00
         -1   -1    0    0    0  501 -0.00000000000E+00  0.00000000000E+00  0.26944815766E+03  0.26944815766E+03  0.00000000000E+00 0.  1.
          1   -1    0    0  502    0  0.00000000000E+00 -0.00000000000E+00 -0.13674323581E+03  0.13674323581E+03  0.00000000000E+00 0. -1.
         23    2    1    2    0    0 -0.10746386384E+03 -0.85444696805E+02  0.95268021850E+02  0.18919920963E+03  0.88719032308E+02 0.  0.
         23    2    1    2    0    0  0.13348723237E+03  0.89610318679E+02  0.45160489178E+02  0.18952908232E+03  0.89626741784E+02 0.  0.
        -11    1    4    4    0    0  0.26456366079E+02  0.10486895800E+02  0.48671220587E+02  0.56380865576E+02  0.00000000000E+00 0.  1.
         11    1    4    4    0    0  0.10703086629E+03  0.79123422879E+02 -0.35107314094E+01  0.13314821675E+03  0.00000000000E+00 0. -1.
        -11    1    3    3    0    0 -0.65356194474E+02 -0.13078761278E+02  0.61718079175E+01  0.66937115009E+02  0.00000000000E+00 0. -1.
         11    1    3    3    0    0 -0.42107669369E+02 -0.72365935527E+02  0.89096213932E+02  0.12226209462E+03  0.00000000000E+00 0.  1.
         21    1    1    2  502  501 -0.26023368529E+02 -0.41656218742E+01 -0.77235891723E+01  0.27463101516E+02  0.00000000000E+00 0. -1.
<scales pt_clust_5="13000.00000" pt_clust_6="13000.00000" pt_clust_7="13000.00000" pt_clust_8="13000.00000" pt_clust_9="26.35466"></scales>
<clustering>
<clus scale="   26.355">  2  9  1 -1</clus>
<clus scale="   88.719">  7  8 -1 -1</clus>
<clus scale="   89.627">  5  6 -1 -1</clus>
<clus scale="  171.212">  1  7  2 -1</clus>
<clus scale="   26.355">  2  5  1 -1</clus>
</clustering>
</event>
<event>
 9    1  0.1435532E-005  0.1442345E+03  0.7546771E-02  0.1213007E+00
          2   -1    0    0  502    0  0.00000000000E+00  0.00000000000E+00  0.91135553964E+02  0.91135553964E+02  0.00000000000E+00 0. -1.
         -2   -1    0    0    0  501 -0.00000000000E+00 -0.00000000000E+00 -0.49387945199E+03  0.49387945199E+03  0.00000000000E+00 0.  1.
         23    2    1    2    0    0  0.74647792921E+02 -0.20495325727E+02 -0.21239337422E+03  0.24288572569E+03  0.88826679352E+02 0.  0.
         23    2    1    2    0    0 -0.15028057225E+03 -0.34478921282E+02 -0.14331496049E+03  0.23746395955E+03  0.10989498522E+03 0.  0.
        -13    1    4    4    0    0 -0.82967139536E+02  0.23392680004E+02 -0.25393721018E+02  0.89864368844E+02  0.00000000000E+00 0.  1.
         13    1    4    4    0    0 -0.67313432718E+02 -0.57871601286E+02 -0.11792123947E+03  0.14759959071E+03  0.00000000000E+00 0. -1.
        -13    1    3    3    0    0  0.30826786371E+02 -0.46545507864E+02 -0.58927485532E+02  0.81174032864E+02  0.00000000000E+00 0.  1.
         13    1    3    3    0    0  0.43821006551E+02  0.26050182137E+02 -0.15346588869E+03  0.16171169282E+03  0.00000000000E+00 0. -1.
         21    1    1    2  502  501  0.75632779332E+02  0.54974247009E+02 -0.47035563318E+02  0.10466532071E+03  0.00000000000E+00 0.  1.
<scales pt_clust_5="13000.00000" pt_clust_6="13000.00000" pt_clust_7="13000.00000" pt_clust_8="13000.00000" pt_clust_9="93.50126"></scales>
<clustering>
<clus scale="   88.827">  7  8 -1 -1</clus>
<clus scale="   93.501">  1  9  2 -1</clus>
<clus scale="  109.895">  5  6 -1 -1</clus>
<clus scale="  128.906">  2  7  1 -1</clus>
<clus scale="   93.501">  1  5  2 -1</clus>
</clustering>
</event>
<event>
 9    1  0.1435532E-005  0.1223961E+03  0.7546771E-02  0.1239655E+00
         -2   -1    0    0    0  501 -0.00000000000E+00  0.00000000000E+00  0.14384161051E+03  0.14384161051E+03  0.00000000000E+00 0.  1.
          2   -1    0    0  502    0  0.00000000000E+00 -0.00000000000E+00 -0.19383974140E+03  0.19383974140E+03  0.00000000000E+00 0. -1.
         23    2    1    2    0    0  0.52881117410E+02  0.65359096170E+02  0.80650770374E+02  0.14783345307E+03  0.91005269375E+02 0.  0.
         23    2    1    2    0    0 -0.51250035936E+02 -0.41206970257E+02 -0.10918245867E+03  0.15749370637E+03  0.92514202614E+02 0.  0.
        -11    1    4    4    0    0  0.22887933661E+02 -0.20903976088E+02 -0.11202122382E+02  0.32959388184E+02  0.00000000000E+00 0.  1.
         11    1    4    4    0    0 -0.74137969597E+02 -0.20302994169E+02 -0.97980336288E+02  0.12453431819E+03  0.00000000000E+00 0. -1.
        -11    1    3    3    0    0  0.72610664085E+02  0.39617197607E+02  0.80469332520E+02  0.11539993224E+03  0.00000000000E+00 0.  1.
         11    1    3    3    0    0 -0.19729546676E+02  0.25741898563E+02  0.18143785463E+00  0.32433520829E+02  0.00000000000E+00 0. -1.
         21    1    1    2  502  501 -0.16310814734E+01 -0.24152125913E+02 -0.21466442595E+02  0.32354192473E+02  0.00000000000E+00 0. -1.
<scales pt_clust_5="13000.00000" pt_clust_6="13000.00000" pt_clust_7="13000.00000" pt_clust_8="13000.00000" pt_clust_9="24.20714"></scales>
<clustering>
<clus scale="   24.207">  2  9  1 -1</clus>
<clus scale="   91.005">  7  8 -1 -1</clus>
<clus scale="   92.514">  5  6 -1 -1</clus>
<clus scale="  121.260">  1  7  2 -1</clus>
<clus scale="   24.207">  2  5  1 -1</clus>
</clustering>
</event>
<event>
 9    1  0.1635982E-005  0.9361625E+02  0.7546771E-02  0.1297907E+00
          2   -1    0    0  502    0  0.00000000000E+00  0.00000000000E+00  0.41973319020E+03  0.41973319020E+03  0.00000000000E+00 0. -1.
         -2   -1    0    0    0  501 -0.00000000000E+00 -0.00000000000E+00 -0.86588978244E+02  0.86588978244E+02  0.00000000000E+00 0.  1.
         23    2    1    2    0    0  0.21968137971E+02  0.45480199478E+01 -0.50526680775E+02  0.10166528900E+03  0.85320583364E+02 0.  0.
         23    2    1    2    0    0  0.10019986716E+02 -0.14480440936E+02  0.24832997804E+03  0.26523286323E+03  0.91491040230E+02 0.  0.
        -11    1    3    3    0    0 -0.16345174752E+02  0.35096074557E+02 -0.27724118401E+02  0.47618546052E+02  0.00000000000E+00 0. -1.
         11    1    3    3    0    0  0.38313312723E+02 -0.30548054609E+02 -0.22802562373E+02  0.54046742946E+02  0.00000000000E+00 0.  1.
        -11    1    4    4    0    0 -0.28133305023E+02  0.21910728933E+02  0.61342965143E+02  0.70954367494E+02  0.00000000000E+00 0. -1.
         11    1    4    4    0    0  0.38153291739E+02 -0.36391169869E+02  0.18698701290E+03  0.19427849574E+03  0.00000000000E+00 0.  1.
         21    1    1    2  502  501 -0.31988124688E+02  0.99324209884E+01  0.13534091470E+03  0.13942401622E+03  0.00000000000E+00 0. -1.
<scales pt_clust_5="13000.00000" pt_clust_6="13000.00000" pt_clust_7="13000.00000" pt_clust_8="13000.00000" pt_clust_9="33.49467"></scales>
<clustering>
<clus scale="   33.495">  1  9  2 -1</clus>
<clus scale="   85.321">  5  6 -1 -1</clus>
<clus scale="   87.596">  2  5  1 -1</clus>
<clus scale="   91.491">  7  8 -1 -1</clus>
<clus scale="   33.495">  1  5  2 -1</clus>
</clustering>
</event>
<event>
 9    1  0.1435532E-005  0.9268937E+02  0.7546771E-02  0.1296707E+00
         -1   -1    0    0    0  501 -0.00000000000E+00  0.00000000000E+00  0.37540861085E+03  0.37540861085E+03  0.00000000000E+00 0.  1.
          1   -1    0    0  502    0  0.00000000000E+00 -0.00000000000E+00 -0.33262089321E+02  0.33262089321E+02  0.00000000000E+00 0. -1.
         23    2    1    2    0    0 -0.24911833029E+01  0.80483952070E+01  0.20870429390E+03  0.22796989922E+03  0.91333509730E+02 0.  0.
         23    2    1    2    0    0  0.19624406704E+02 -0.21407092648E+02  0.12527809982E+03  0.15749185603E+03  0.90915903264E+02 0.  0.
        -11    1    4    4    0    0 -0.77769048755E+00 -0.39278497303E+02  0.12097240036E+02  0.41106548984E+02  0.00000000000E+00 0. -1.
         11    1    4    4    0    0  0.20402097192E+02  0.17871404655E+02  0.11318085979E+03  0.11638530704E+03  0.00000000000E+00 0.  1.
        -11    1    3    3    0    0  0.11783723737E+02 -0.32904212229E+02  0.37100018038E+02  0.50970135039E+02  0.00000000000E+00 0.  1.
         11    1    3    3    0    0 -0.14274907040E+02  0.40952607436E+02  0.17160427586E+03  0.17699976418E+03  0.00000000000E+00 0. -1.
         21    1    1    2  502  501 -0.17133223401E+02  0.13358697441E+02  0.81641278085E+01  0.23208944920E+02  0.00000000000E+00 0.  1.
<scales pt_clust_5="13000.00000" pt_clust_6="13000.00000" pt_clust_7="13000.00000" pt_clust_8="13000.00000" pt_clust_9="21.72561"></scales>
<clustering>
<clus scale="   21.726">  2  9  1 -1</clus>
<clus scale="   90.916">  5  6 -1 -1</clus>
<clus scale="   91.334">  7  8 -1 -1</clus>
<clus scale="   92.278">  2  5  1 -1</clus>
<clus scale="   21.726">  2  5  1 -1</clus>
</clustering>
</event>
<event>
 9    1  0.1435532E-005  0.1030980E+03  0.7546771E-02  0.1274960E+00
          1   -1    0    0  502    0  0.00000000000E+00  0.00000000000E+00  0.76342556722E+03  0.76342556722E+03  0.00000000000E+00 0. -1.
         -1   -1    0    0    0  501 -0.00000000000E+00 -0.00000000000E+00 -0.20514792504E+02  0.20514792504E+02  0.00000000000E+00 0.  1.
         23    2    1    2    0    0 -0.84625012593E+01 -0.51621555350E+02  0.19301549048E+03  0.22034958787E+03  0.92534114817E+02 0.  0.
         23    2    1    2    0    0  0.18913872009E+02  0.28833397360E+02  0.39265575209E+03  0.40436514023E+03  0.90241496161E+02 0.  0.
        -11    1    4    4    0    0 -0.18276674203E+02 -0.23105363135E+02  0.80044028135E+02  0.85293265066E+02  0.00000000000E+00 0.  1.
         11    1    4    4    0    0  0.37190546212E+02  0.51938760494E+02  0.31261172396E+03  0.31907187517E+03  0.00000000000E+00 0. -1.
        -11    1    3    3    0    0 -0.45528610754E+02 -0.42469470512E+02  0.82042686449E+02  0.10299277995E+03  0.00000000000E+00 0.  1.
         11    1    3    3    0    0  0.37066109494E+02 -0.91520848382E+01  0.11097280403E+03  0.11735680792E+03  0.00000000000E+00 0. -1.
         21    1    1    2  502  501 -0.10451370750E+02  0.22788157990E+02  0.15723953214E+03  0.15922563161E+03  0.00000000000E+00 0.  1.
<scales pt_clust_5="13000.00000" pt_clust_6="13000.00000" pt_clust_7="13000.00000" pt_clust_8="13000.00000" pt_clust_9="25.07053"></scales>
<clustering>
<clus scale="   25.071">  1  9  2 -1</clus>
<clus scale="   90.241">  5  6 -1 -1</clus>
<clus scale="   92.534">  7  8 -1 -1</clus>
<clus scale="  101.045">  1  5  2 -1</clus>
<clus scale="   25.071">  1  5  2 -1</clus>
</clustering>
</event>
<event>
 9    1  0.1435532E-005  0.1564425E+03  0.7546771E-02  0.1192796E+00
         -1   -1    0    0    0  501 -0.00000000000E+00  0.00000000000E+00  0.10597651625E+03  0.10597651625E+03  0.00000000000E+00 0.  1.
          1   -1    0    0  502    0  0.00000000000E+00 -0.00000000000E+00 -0.28031726122E+03  0.28031726122E+03  0.00000000000E+00 0. -1.
         23    2    1    2    0    0 -0.98775890237E+02 -0.75782065416E+02 -0.60190425173E+02  0.16571762840E+03  0.91322763591E+02 0.  0.
         23    2    1    2    0    0  0.11533766527E+03  0.61202085515E+02 -0.76234318487E+02  0.17670712399E+03  0.91461817458E+02 0.  0.
        -11    1    3    3    0    0 -0.41780195691E+02 -0.12365601164E+02 -0.67281640756E+02  0.80158044057E+02  0.00000000000E+00 0. -1.
         11    1    3    3    0    0 -0.56995694546E+02 -0.63416464252E+02  0.70912155832E+01  0.85559584346E+02  0.00000000000E+00 0.  1.
        -13    1    4    4    0    0  0.12764305499E+03  0.41843126782E+02 -0.54041318134E+02  0.14478971238E+03  0.00000000000E+00 0.  1.
         13    1    4    4    0    0 -0.12305389717E+02  0.19358958733E+02 -0.22193000352E+02  0.31917411611E+02  0.00000000000E+00 0. -1.
         21    1    1    2  502  501 -0.16561775035E+02  0.14579979902E+02 -0.37916001302E+02  0.43869025074E+02  0.00000000000E+00 0.  1.
<scales pt_clust_5="13000.00000" pt_clust_6="13000.00000" pt_clust_7="13000.00000" pt_clust_8="13000.00000" pt_clust_9="22.06509"></scales>
<clustering>
<clus scale="   22.065">  2  9  1 -1</clus>
<clus scale="   91.323">  5  6 -1 -1</clus>
<clus scale="   91.462">  7  8 -1 -1</clus>
<clus scale="  156.361">  1  5  2 -1</clus>
<clus scale="   22.065">  2  5  1 -1</clus>
</clustering>
</event>
<event>
 9    1  0.1435532E-005  0.2263078E+03  0.7546771E-02  0.1129393E+00
          1   -1    0    0  502    0  0.00000000000E+00  0.00000000000E+00  0.11758343390E+04  0.11758343390E+04  0.00000000000E+00 0. -1.
         -1   -1    0    0    0  501 -0.00000000000E+00 -0.00000000000E+00 -0.75787133288E+03  0.75787133288E+03  0.00000000000E+00 0.  1.
         23    2    1    2    0    0 -0.20593435078E+03 -0.15362075241E+02 -0.72629863557E+03  0.76070455853E+03  0.92286332342E+02 0.  0.
         23    2    1    2    0    0  0.21210784182E+03  0.38416044787E+02  0.10180222285E+04  0.10445254855E+04  0.90546690390E+02 0.  0.
        -11    1    4    4    0    0  0.20467630260E+02  0.28371266844E+02  0.84014112160E+02  0.91006723448E+02  0.00000000000E+00 0.  1.
         11    1    4    4    0    0  0.19164021156E+03  0.10044777944E+02  0.93400811632E+03  0.95351876206E+03  0.00000000000E+00 0. -1.
        -13    1    3    3    0    0 -0.19289499125E+03  0.14554118508E+02 -0.62961413077E+03  0.65866095503E+03  0.00000000000E+00 0. -1.
         13    1    3    3    0    0 -0.13039359537E+02 -0.29916193749E+02 -0.96684504805E+02  0.10204360350E+03  0.00000000000E+00 0.  1.
         21    1    1    2  502  501 -0.61734910331E+01 -0.23053969546E+02  0.12623941318E+03  0.12847562782E+03  0.00000000000E+00 0.  1.
<scales pt_clust_5="13000.00000" pt_clust_6="13000.00000" pt_clust_7="13000.00000" pt_clust_8="13000.00000" pt_clust_9="23.86624"></scales>
<clustering>
<clus scale="   23.866">  1  9  2 -1</clus>
<clus scale="   90.547">  5  6 -1 -1</clus>
<clus scale="   92.286">  7  8 -1 -1</clus>
<clus scale="  225.604">  1  5  2 -1</clus>
<clus scale="   23.866">  1  5  2 -1</clus>
</clustering>
</event>
<event>
 9    1  0.1435532E-005  0.2398331E+03  0.7546771E-02  0.1120334E+00
          1   -1    0    0  502    0  0.00000000000E+00  0.00000000000E+00  0.22802634191E+03  0.22802634191E+03  0.00000000000E+00 0. -1.
         -1   -1    0    0    0  501 -0.00000000000E+00 -0.00000000000E+00 -0.46130229078E+03  0.46130229078E+03  0.00000000000E+00 0.  1.
         23    2    1    2    0    0 -0.96946085867E+01  0.22391378874E+03 -0.33744322755E+03  0.41492176200E+03  0.89781771722E+02 0.  0.
         23    2    1    2    0    0  0.27648443645E+02 -0.19947345515E+03  0.87318661893E+02  0.23971471039E+03  0.96356099524E+02 0.  0.
        -13    1    3    3    0    0 -0.24965596283E+02  0.34032495946E+02 -0.25203935437E+02  0.49160249589E+02  0.00000000000E+00 0. -1.
         13    1    3    3    0    0  0.15270987696E+02  0.18988129279E+03 -0.31223929211E+03  0.36576151241E+03  0.00000000000E+00 0.  1.
        -13    1    4    4    0    0 -0.20206186637E+01 -0.18722279686E+03  0.57400011838E+02  0.19583467497E+03  0.00000000000E+00 0. -1.
         13    1    4    4    0    0  0.29669062308E+02 -0.12250658295E+02  0.29918650055E+02  0.43880035415E+02  0.00000000000E+00 0.  1.
         21    1    1    2  502  501 -0.17953835058E+02 -0.24440333587E+02  0.16848616786E+02  0.34692160306E+02  0.00000000000E+00 0. -1.
<scales pt_clust_5="13000.00000" pt_clust_6="13000.00000" pt_clust_7="13000.00000" pt_clust_8="13000.00000" pt_clust_9="30.32606"></scales>
<clustering>
<clus scale="   30.326">  1  9  2 -1</clus>
<clus scale="   89.782">  5  6 -1 -1</clus>
<clus scale="   96.356">  7  8 -1 -1</clus>
<clus scale="  237.268">  2  5  1 -1</clus>
<clus scale="   30.326">  1  5  2 -1</clus>
</clustering>
</event>
<event>
 9    1  0.1435532E-005  0.2020884E+03  0.7546771E-02  0.1148662E+00
         -2   -1    0    0    0  501 -0.00000000000E+00  0.00000000000E+00  0.57264085946E+03  0.57264085946E+03  0.00000000000E+00 0.  1.
          2   -1    0    0  502    0  0.00000000000E+00 -0.00000000000E+00 -0.17526696365E+03  0.17526696365E+03  0.00000000000E+00 0. -1.
         23    2    1    2    0    0  0.10439843363E+03 -0.16049185132E+03  0.44890303680E+03  0.49641386506E+03  0.90863203164E+02 0.  0.
         23    2    1    2    0    0 -0.88305194631E+02  0.72254590308E+02 -0.59255547530E+02  0.16146893969E+03  0.97685543217E+02 0.  0.
        -13    1    3    3    0    0  0.70734445789E+02 -0.38453890523E+02  0.22812447661E+03  0.24191494445E+03  0.00000000000E+00 0. -1.
         13    1    3    3    0    0  0.33663987837E+02 -0.12203796080E+03  0.22077856018E+03  0.25449892061E+03  0.00000000000E+00 0.  1.
        -13    1    4    4    0    0  0.19181341393E+02  0.24330002542E+02 -0.32995363864E+01  0.31157018819E+02  0.00000000000E+00 0.  1.
         13    1    4    4    0    0 -0.10748653602E+03  0.47924587765E+02 -0.55956011143E+02  0.13031192087E+03  0.00000000000E+00 0. -1.
         21    1    1    2  502  501 -0.16093238995E+02  0.88237261015E+02  0.77264065466E+01  0.90025018361E+02  0.00000000000E+00 0. -1.
<scales pt_clust_5="13000.00000" pt_clust_6="13000.00000" pt_clust_7="13000.00000" pt_clust_8="13000.00000" pt_clust_9="89.69285"></scales>
<clustering>
<clus scale="   89.693">  2  9  1 -1</clus>
<clus scale="   90.863">  5  6 -1 -1</clus>
<clus scale="   97.686">  7  8 -1 -1</clus>
<clus scale="  198.880">  1  5  2 -1</clus>
<clus scale="   89.693">  2  5  1 -1</clus>
</clustering>
</event>
<event>
 9    1  0.1435532E-005  0.1173762E+03  0.7546771E-02  0.1248429E+00
         -4   -1    0    0    0  501 -0.00000000000E+00  0.00000000000E+00  0.81022421409E+03  0.81022421409E+03  0.00000000000E+00 0.  1.
          4   -1    0    0  502    0  0.00000000000E+00 -0.00000000000E+00 -0.20963845139E+02  0.20963845139E+02  0.00000000000E+00 0. -1.
         23    2    1    2    0    0  0.30923164091E+02  0.57899277911E+02  0.41251962817E+03  0.42714146444E+03  0.89268239379E+02 0.  0.
         23    2    1    2    0    0 -0.54880346361E+02 -0.57179925960E+02  0.30056802268E+03  0.32419205808E+03  0.92075826982E+02 0.  0.
        -11    1    3    3    0    0 -0.19605127071E+02  0.54928746972E+02  0.18143753870E+03  0.19058097675E+03  0.00000000000E+00 0. -1.
         11    1    3    3    0    0  0.50528291162E+02  0.29705309393E+01  0.23108208947E+03  0.23656048769E+03  0.00000000000E+00 0.  1.
        -13    1    4    4    0    0 -0.56172197514E+02 -0.15891372881E+02  0.75874650703E+02  0.95733035703E+02  0.00000000000E+00 0. -1.
         13    1    4    4    0    0  0.12918511532E+01 -0.41288553079E+02  0.22469337197E+03  0.22845902237E+03  0.00000000000E+00 0.  1.
         21    1    1    2  502  501  0.23957182270E+02 -0.71935195151E+00  0.76172718100E+02  0.79854536705E+02  0.00000000000E+00 0.  1.
<scales pt_clust_5="13000.00000" pt_clust_6="13000.00000" pt_clust_7="13000.00000" pt_clust_8="13000.00000" pt_clust_9="23.96798"></scales>
<clustering>
<clus scale="   23.968">  1  9  2 -1</clus>
<clus scale="   89.268">  5  6 -1 -1</clus>
<clus scale="   92.076">  7  8 -1 -1</clus>
<clus scale="  115.187">  1  5  2 -1</clus>
<clus scale="  117.376">  2  5  1 -1</clus>
</clustering>
</event>
<event>
 9    1  0.1435532E-005  0.3604828E+03  0.7546771E-02  0.1086926E+00
          1   -1    0    0  502    0  0.00000000000E+00  0.00000000000E+00  0.19365911770E+04  0.19365911770E+04  0.00000000000E+00 0. -1.
         -1   -1    0    0    0  501 -0.00000000000E+00 -0.00000000000E+00 -0.10947051811E+03  0.10947051811E+03  0.00000000000E+00 0.  1.
         23    2    1    2    0    0  0.83819153986E+02  0.11466736507E+03  0.19110632209E+03  0.25269412367E+03  0.84607556437E+02 0.  0.
         23    2    1    2    0    0  0.16561204530E+03 -0.34281044221E+03  0.76962651909E+03  0.86337131474E+03  0.90214740451E+02 0.  0.
        -13    1    3    3    0    0 -0.17162233190E+02  0.16179119207E+02  0.19868700569E+02  0.30839445661E+02  0.00000000000E+00 0. -1.
         13    1    3    3    0    0  0.10098138718E+03  0.98488245860E+02  0.17123762152E+03  0.22185467801E+03  0.00000000000E+00 0.  1.
        -13    1    4    4    0    0  0.47363601070E+02 -0.14550451137E+03  0.22439109488E+03  0.27159940537E+03  0.00000000000E+00 0.  1.
         13    1    4    4    0    0  0.11824844423E+03 -0.19730593083E+03  0.54523542421E+03  0.59177190937E+03  0.00000000000E+00 0. -1.
         21    1    1    2  502  501 -0.24943119929E+03  0.22814307714E+03  0.86638781772E+03  0.92999625672E+03  0.00000000000E+00 0.  1.
<scales pt_clust_5="13000.00000" pt_clust_6="13000.00000" pt_clust_7="13000.00000" pt_clust_8="13000.00000" pt_clust_9="349.01170"></scales>
<clustering>
<clus scale="   84.608">  5  6 -1 -1</clus>
<clus scale="   90.215">  7  8 -1 -1</clus>
<clus scale="  165.326">  2  5  1 -1</clus>
<clus scale="  349.012">  1  9  2 -1</clus>
<clus scale="  349.012">  1  5  2 -1</clus>
</clustering>
</event>
<event>
 9    1  0.1435532E-005  0.1028214E+03  0.7546771E-02  0.1276595E+00
         -3   -1    0    0    0  501 -0.00000000000E+00  0.00000000000E+00  0.14835145012E+03  0.14835145012E+03  0.00000000000E+00 0.  1.
          3   -1    0    0  502    0  0.00000000000E+00 -0.00000000000E+00 -0.12229935236E+03  0.12229935236E+03  0.00000000000E+00 0. -1.
         23    2    1    2    0    0  0.34559255381E+02 -0.12243502039E+02  0.63522022477E+02  0.12355454206E+03  0.99430538816E+02 0.  0.
         23    2    1    2    0    0 -0.11268514730E+02 -0.92197889399E+00  0.60130322905E+01  0.96041818519E+02  0.95184268016E+02 0.  0.
        -11    1    4    4    0    0 -0.10721716959E+02  0.36185883683E+02  0.33017300762E+02  0.50144945329E+02  0.00000000000E+00 0.  1.
         11    1    4    4    0    0 -0.54679777150E+00 -0.37107862577E+02 -0.27004268472E+02  0.45896873189E+02  0.00000000000E+00 0. -1.
        -13    1    3    3    0    0 -0.14001324077E+02 -0.38269833956E+02  0.17587643176E+01  0.40788607709E+02  0.00000000000E+00 0. -1.
         13    1    3    3    0    0  0.48560579458E+02  0.26026331917E+02  0.61763258159E+02  0.82765934350E+02  0.00000000000E+00 0.  1.
         21    1    1    2  502  501 -0.23290740651E+02  0.13165480933E+02 -0.43482957010E+02  0.51054441909E+02  0.00000000000E+00 0.  1.
<scales pt_clust_5="13000.00000" pt_clust_6="13000.00000" pt_clust_7="13000.00000" pt_clust_8="13000.00000" pt_clust_9="26.75422"></scales>
<clustering>
<clus scale="   26.754">  2  9  1 -1</clus>
<clus scale="   95.184">  5  6 -1 -1</clus>
<clus scale="   98.721">  2  5  1 -1</clus>
<clus scale="   99.431">  7  8 -1 -1</clus>
<clus scale="   26.754">  2  5  1 -1</clus>
</clustering>
</event>
<event>
 9    1  0.1435532E-005  0.9612962E+02  0.7546771E-02  0.1291036E+00
          1   -1    0    0  502    0  0.00000000000E+00  0.00000000000E+00  0.58622978126E+03  0.58622978126E+03  0.00000000000E+00 0. -1.
         -1   -1    0    0    0  501 -0.00000000000E+00 -0.00000000000E+00 -0.28035134954E+02  0.28035134954E+02  0.00000000000E+00 0.  1.
         23    2    1    2    0    0 -0.72122550586E+01  0.73572533930E+01  0.12255417478E+03  0.15316333402E+03  0.91287103865E+02 0.  0.
         23    2    1    2    0    0  0.79094376074E+01  0.36016440577E+02  0.24395788260E+03  0.26457174149E+03  0.95514473843E+02 0.  0.
        -11    1    4    4    0    0  0.26732510684E+01  0.64714039319E+02  0.11156471404E+03  0.12900286266E+03  0.00000000000E+00 0.  1.
         11    1    4    4    0    0  0.52361865390E+01 -0.28697598743E+02  0.13239316857E+03  0.13556887883E+03  0.00000000000E+00 0. -1.
        -13    1    3    3    0    0 -0.31291725322E+02  0.27516464198E+02  0.11284497762E+03  0.12029263007E+03  0.00000000000E+00 0.  1.
         13    1    3    3    0    0  0.24079470263E+02 -0.20159210805E+02  0.97091971555E+01  0.32870703945E+02  0.00000000000E+00 0. -1.
         21    1    1    2  502  501 -0.69718254881E+00 -0.43373693970E+02  0.19168258892E+03  0.19652984070E+03  0.00000000000E+00 0. -1.
<scales pt_clust_5="13000.00000" pt_clust_6="13000.00000" pt_clust_7="13000.00000" pt_clust_8="13000.00000" pt_clust_9="43.37930"></scales>
<clustering>
<clus scale="   43.379">  1  9  2 -1</clus>
<clus scale="   91.287">  7  8 -1 -1</clus>
<clus scale="   91.931">  2  7  1 -1</clus>
<clus scale="   95.514">  5  6 -1 -1</clus>
<clus scale="   43.379">  1  5  2 -1</clus>
</clustering>
</event>
<event>
 9    1  0.1435532E-005  0.3917063E+03  0.7546771E-02  0.1046701E+00
         -3   -1    0    0    0  501 -0.00000000000E+00  0.00000000000E+00  0.65871245654E+03  0.65871245654E+03  0.00000000000E+00 0.  1.
          3   -1    0    0  502    0  0.00000000000E+00 -0.00000000000E+00 -0.25922129541E+03  0.25922129541E+03  0.00000000000E+00 0. -1.
         23    2    1    2    0    0  0.18569444726E+03  0.34494189256E+03  0.27944446341E+03  0.48986040361E+03  0.91687894011E+02 0.  0.
         23    2    1    2    0    0 -0.16800163300E+03 -0.33376685339E+03  0.96927018952E+02  0.39688943064E+03  0.92203644386E+02 0.  0.
        -11    1    3    3    0    0  0.11047440760E+02  0.91843756005E+02  0.43271755755E+02  0.10212622734E+03  0.00000000000E+00 0.  1.
         11    1    3    3    0    0  0.17464700650E+03  0.25309813655E+03  0.23617270765E+03  0.38773417627E+03  0.00000000000E+00 0. -1.
        -13    1    4    4    0    0 -0.38582838500E+02 -0.56987171482E+02  0.55784431752E+02  0.88589367117E+02  0.00000000000E+00 0. -1.
         13    1    4    4    0    0 -0.12941879450E+03 -0.27677968190E+03  0.41142587200E+02  0.30830006352E+03  0.00000000000E+00 0.  1.
         21    1    1    2  502  501 -0.17692814257E+02 -0.11175039171E+02  0.23119678768E+02  0.31183917701E+02  0.00000000000E+00 0.  1.
<scales pt_clust_5="13000.00000" pt_clust_6="13000.00000" pt_clust_7="13000.00000" pt_clust_8="13000.00000" pt_clust_9="20.92647"></scales>
<clustering>
<clus scale="   20.926">  1  9  2 -1</clus>
<clus scale="   91.688">  5  6 -1 -1</clus>
<clus scale="   92.204">  7  8 -1 -1</clus>
<clus scale="  391.585">  1  5  2 -1</clus>
<clus scale="  391.706">  2  5  1 -1</clus>
</clustering>
</event>
<event>
 9    1  0.1435532E-005  0.9792185E+02  0.7546771E-02  0.1288396E+00
         -1   -1    0    0    0  501 -0.00000000000E+00  0.00000000000E+00  0.29032323562E+03  0.29032323562E+03  0.00000000000E+00 0.  1.
          1   -1    0    0  502    0  0.00000000000E+00 -0.00000000000E+00 -0.64454418608E+02  0.64454418608E+02  0.00000000000E+00 0. -1.
         23    2    1    2    0    0 -0.10165816064E+02 -0.86443374894E+01  0.14282415658E+03  0.17362462326E+03  0.97819740903E+02 0.  0.
         23    2    1    2    0    0 -0.19124827344E+02 -0.39557106015E+01  0.10646597755E+03  0.14158965019E+03  0.91275506005E+02 0.  0.
        -11    1    3    3    0    0  0.43395598976E+02 -0.10678814332E+01  0.77316946343E+02  0.88669208709E+02  0.00000000000E+00 0.  1.
         11    1    3    3    0    0 -0.53561415040E+02 -0.75764560562E+01  0.65507210241E+02  0.84955414548E+02  0.00000000000E+00 0. -1.
        -13    1    4    4    0    0 -0.25679917514E+02  0.40405558819E+02  0.63111989406E+02  0.79216100345E+02  0.00000000000E+00 0.  1.
         13    1    4    4    0    0  0.65550901695E+01 -0.44361269420E+02  0.43353988145E+02  0.62373549841E+02  0.00000000000E+00 0. -1.
         21    1    1    2  502  501  0.29290643409E+02  0.12600048091E+02 -0.23421317125E+02  0.39563380784E+02  0.00000000000E+00 0.  1.
<scales pt_clust_5="13000.00000" pt_clust_6="13000.00000" pt_clust_7="13000.00000" pt_clust_8="13000.00000" pt_clust_9="31.88578"></scales>
<clustering>
<clus scale="   31.886">  2  9  1 -1</clus>
<clus scale="   91.276">  7  8 -1 -1</clus>
<clus scale="   91.385">  2  7  1 -1</clus>
<clus scale="   97.820">  5  6 -1 -1</clus>
<clus scale="   31.886">  2  5  1 -1</clus>
</clustering>
</event>
<event>
 9    1  0.1435532E-005  0.9034921E+02  0.7546771E-02  0.1303778E+00
          1   -1    0    0  502    0  0.00000000000E+00  0.00000000000E+00  0.72904733603E+03  0.72904733603E+03  0.00000000000E+00 0. -1.
         -1   -1    0    0    0  501 -0.00000000000E+00 -0.00000000000E+00 -0.40119818580E+02  0.40119818580E+02  0.00000000000E+00 0.  1.
         23    2    1    2    0    0  0.19785216214E+01 -0.20553514135E+02  0.58536640582E+02  0.10776609150E+03  0.88094441905E+02 0.  0.
         23    2    1    2    0    0 -0.58755855797E+02 -0.19366348341E+02  0.20549320983E+03  0.23087198332E+03  0.85129943948E+02 0.  0.
        -11    1    3    3    0    0 -0.36007795773E+02 -0.19608984039E+02  0.38597134561E+01  0.41182168465E+02  0.00000000000E+00 0.  1.
         11    1    3    3    0    0  0.37986317395E+02 -0.94453009639E+00  0.54676927126E+02  0.66583923031E+02  0.00000000000E+00 0. -1.
        -11    1    4    4    0    0  0.10580972826E+02 -0.32624256458E+02  0.58660633937E+02  0.67951225665E+02  0.00000000000E+00 0. -1.
         11    1    4    4    0    0 -0.69336828623E+02  0.13257908118E+02  0.14683257589E+03  0.16292075765E+03  0.00000000000E+00 0.  1.
         21    1    1    2  502  501  0.56777334175E+02  0.39919862476E+02  0.42489766704E+03  0.43052907980E+03  0.00000000000E+00 0. -1.
<scales pt_clust_5="13000.00000" pt_clust_6="13000.00000" pt_clust_7="13000.00000" pt_clust_8="13000.00000" pt_clust_9="69.40649"></scales>
<clustering>
<clus scale="   69.406">  1  9  2 -1</clus>
<clus scale="   85.130">  7  8 -1 -1</clus>
<clus scale="   87.461">  1  7  2 -1</clus>
<clus scale="   88.094">  5  6 -1 -1</clus>
<clus scale="   69.406">  1  5  2 -1</clus>
</clustering>
</event>
<event>
 9    1  0.1435532E-005  0.3458229E+03  0.7546771E-02  0.1064394E+00
          1   -1    0    0  502    0  0.00000000000E+00  0.00000000000E+00  0.79979231463E+03  0.79979231463E+03  0.00000000000E+00 0. -1.
         -1   -1    0    0    0  501 -0.00000000000E+00 -0.00000000000E+00 -0.20216696069E+03  0.20216696069E+03  0.00000000000E+00 0.  1.
         23    2    1    2    0    0  0.21435041508E+03  0.32108344032E+03  0.29525999003E+03  0.49472997773E+03  0.92404615990E+02 0.  0.
         23    2    1    2    0    0 -0.13708847422E+03 -0.26077897339E+03  0.24445227018E+03  0.39338746582E+03  0.90542051782E+02 0.  0.
        -11    1    3    3    0    0  0.41155047687E+02  0.17721106507E+02  0.54115457527E+02  0.70258510583E+02  0.00000000000E+00 0.  1.
         11    1    3    3    0    0  0.17319536739E+03  0.30336233382E+03  0.24114453251E+03  0.42447146715E+03  0.00000000000E+00 0. -1.
        -13    1    4    4    0    0 -0.11353562015E+02 -0.25779030293E+02  0.68386940242E+02  0.73961039534E+02  0.00000000000E+00 0. -1.
         13    1    4    4    0    0 -0.12573491221E+03 -0.23499994310E+03  0.17606532994E+03  0.31942642629E+03  0.00000000000E+00 0.  1.
         21    1    1    2  502  501 -0.77261940852E+02 -0.60304466932E+02  0.57913093725E+02  0.11384183177E+03  0.00000000000E+00 0. -1.
<scales pt_clust_5="13000.00000" pt_clust_6="13000.00000" pt_clust_7="13000.00000" pt_clust_8="13000.00000" pt_clust_9="98.01039"></scales>
<clustering>
<clus scale="   90.542">  7  8 -1 -1</clus>
<clus scale="   92.405">  5  6 -1 -1</clus>
<clus scale="   98.010">  2  9  1 -1</clus>
<clus scale="  345.330">  1  7  2 -1</clus>
<clus scale="  345.330">  1  5  2 -1</clus>
</clustering>
</event>
<event>
 9    1  0.1435532E-005  0.1132688E+03  0.7546771E-02  0.1257656E+00
         -3   -1    0    0    0  501 -0.00000000000E+00  0.00000000000E+00  0.73031664474E+02  0.73031664474E+02  0.00000000000E+00 0.  1.
          3   -1    0    0  502    0  0.00000000000E+00 -0.00000000000E+00 -0.26117717588E+03  0.26117717588E+03  0.00000000000E+00 0. -1.
         23    2    1    2    0    0 -0.55344343880E+00  0.61284696055E+02 -0.25242832371E+02  0.11356333847E+03  0.92213399174E+02 0.  0.
         23    2    1    2    0    0  0.16511243648E+02 -0.40427501833E+02 -0.84099920468E+02  0.13758197983E+03  0.99744676454E+02 0.  0.
        -11    1    4    4    0    0 -0.41798427006E+02 -0.24285736084E+02 -0.39232251176E+02  0.62258132076E+02  0.00000000000E+00 0.  1.
         11    1    4    4    0    0  0.58309670654E+02 -0.16141765749E+02 -0.44867669292E+02  0.75323847757E+02  0.00000000000E+00 0. -1.
        -13    1    3    3    0    0  0.18771435179E+02  0.15532744852E+02  0.30413222312E+02  0.38969180549E+02  0.00000000000E+00 0.  1.
         13    1    3    3    0    0 -0.19324878618E+02  0.45751951203E+02 -0.55656054683E+02  0.74594157917E+02  0.00000000000E+00 0. -1.
         21    1    1    2  502  501 -0.15957800209E+02 -0.20857194222E+02 -0.78802758566E+02  0.83063522054E+02  0.00000000000E+00 0. -1.
<scales pt_clust_5="13000.00000" pt_clust_6="13000.00000" pt_clust_7="13000.00000" pt_clust_8="13000.00000" pt_clust_9="26.26164"></scales>
<clustering>
<clus scale="   26.262">  2  9  1 -1</clus>
<clus scale="   92.213">  7  8 -1 -1</clus>
<clus scale="   99.745">  5  6 -1 -1</clus>
<clus scale="  106.696">  1  7  2 -1</clus>
<clus scale="   26.262">  2  5  1 -1</clus>
</clustering>
</event>
<event>
 9    1  0.1435532E-005  0.9235400E+02  0.7546771E-02  0.1297580E+00
          3   -1    0    0  502    0  0.00000000000E+00  0.00000000000E+00  0.17863982773E+03  0.17863982773E+03  0.00000000000E+00 0. -1.
         -3   -1    0    0    0  501 -0.00000000000E+00 -0.00000000000E+00 -0.12899091055E+03  0.12899091055E+03  0.00000000000E+00 0.  1.
         23    2    1    2    0    0 -0.10469795872E+02 -0.13341069545E+02 -0.72550431703E+02  0.11752088989E+03  0.90884507248E+02 0.  0.
         23    2    1    2    0    0  0.16126475455E+02 -0.32107938239E+02  0.95877218491E+02  0.13728499742E+03  0.91453521433E+02 0.  0.
        -11    1    4    4    0    0 -0.87368629497E+01 -0.58837238312E+02  0.73154662430E+02  0.94285513318E+02  0.00000000000E+00 0.  1.
         11    1    4    4    0    0  0.24863338405E+02  0.26729300074E+02  0.22722556061E+02  0.42999484102E+02  0.00000000000E+00 0. -1.
        -11    1    3    3    0    0  0.94102787410E+01 -0.39376186574E+02 -0.74410204283E+02  0.84710778042E+02  0.00000000000E+00 0.  1.
         11    1    3    3    0    0 -0.19880074613E+02  0.26035117029E+02  0.18597725801E+01  0.32810111846E+02  0.00000000000E+00 0. -1.
         21    1    1    2  502  501 -0.56566795827E+01  0.45449007784E+02  0.26322130384E+02  0.52824850974E+02  0.00000000000E+00 0.  1.
<scales pt_clust_5="13000.00000" pt_clust_6="13000.00000" pt_clust_7="13000.00000" pt_clust_8="13000.00000" pt_clust_9="45.79968"></scales>
<clustering>
<clus scale="   45.800">  1  9  2 -1</clus>
<clus scale="   90.885">  7  8 -1 -1</clus>
<clus scale="   91.454">  5  6 -1 -1</clus>
<clus scale="   91.791">  2  7  1 -1</clus>
<clus scale="   45.800">  1  5  2 -1</clus>
</clustering>
</event>
<event>
 9    1  0.1435532E-005  0.1141551E+03  0.7546771E-02  0.1253331E+00
         -2   -1    0    0    0  501 -0.00000000000E+00  0.00000000000E+00  0.19438536829E+02  0.19438536829E+02  0.00000000000E+00 0. -1.
          2   -1    0    0  502    0  0.00000000000E+00 -0.00000000000E+00 -0.91769334830E+03  0.91769334830E+03  0.00000000000E+00 0.  1.
         23    2    1    2    0    0 -0.83889409719E+02 -0.23218476542E+02 -0.36848762354E+03  0.38897564091E+03  0.89120086412E+02 0.  0.
         23    2    1    2    0    0  0.53953536129E+02  0.44780345905E+01 -0.37454855440E+03  0.38897023702E+03  0.89889870576E+02 0.  0.
        -13    1    3    3    0    0  0.38770346358E+01 -0.35580935145E+02 -0.97529829370E+02  0.10388985494E+03  0.00000000000E+00 0. -1.
         13    1    3    3    0    0 -0.87766444355E+02  0.12362458604E+02 -0.27095779417E+03  0.28508578596E+03  0.00000000000E+00 0.  1.
        -13    1    4    4    0    0 -0.21860816686E+02  0.13414722180E+02 -0.13941859413E+03  0.14175822540E+03  0.00000000000E+00 0.  1.
         13    1    4    4    0    0  0.75814352814E+02 -0.89366875891E+01 -0.23512996027E+03  0.24721201163E+03  0.00000000000E+00 0. -1.
         21    1    1    2  502  501  0.29935873590E+02  0.18740441951E+02 -0.15521863354E+03  0.15918600720E+03  0.00000000000E+00 0. -1.
<scales pt_clust_5="13000.00000" pt_clust_6="13000.00000" pt_clust_7="13000.00000" pt_clust_8="13000.00000" pt_clust_9="35.31799"></scales>
<clustering>
<clus scale="   35.318">  2  9  1 -1</clus>
<clus scale="   89.120">  5  6 -1 -1</clus>
<clus scale="   89.890">  7  8 -1 -1</clus>
<clus scale="  113.550">  1  5  2 -1</clus>
<clus scale="   35.318">  2  5  1 -1</clus>
</clustering>
</event>
<event>
 9    1  0.1435532E-005  0.1205648E+03  0.7546771E-02  0.1242280E+00
         -2   -1    0    0    0  501 -0.00000000000E+00  0.00000000000E+00  0.15301507264E+03  0.15301507264E+03  0.00000000000E+00 0.  1.
          2   -1    0    0  502    0  0.00000000000E+00 -0.00000000000E+00 -0.27761711578E+03  0.27761711578E+03  0.00000000000E+00 0. -1.
         23    2    1    2    0    0 -0.83408053285E+02 -0.74930234184E+01  0.85930349354E+02  0.15089464147E+03  0.91499284862E+02 0.  0.
         23    2    1    2    0    0  0.61995106259E+02  0.57409999481E+01 -0.57081458928E+02  0.12478990128E+03  0.91857902365E+02 0.  0.
        -11    1    3    3    0    0 -0.67489071903E+02 -0.40363218663E+02  0.30146649132E+02  0.84218671926E+02  0.00000000000E+00 0.  1.
         11    1    3    3    0    0 -0.15918981382E+02  0.32870195244E+02  0.55783700221E+02  0.66675969539E+02  0.00000000000E+00 0. -1.
        -11    1    4    4    0    0  0.18662464896E+02 -0.21266208516E+02  0.18334442309E+02  0.33714848293E+02  0.00000000000E+00 0.  1.
         11    1    4    4    0    0  0.43332641363E+02  0.27007208464E+02 -0.75415901238E+02  0.91075052984E+02  0.00000000000E+00 0. -1.
         21    1    1    2  502  501  0.21412947026E+02  0.17520234703E+01 -0.15345093356E+03  0.15494764567E+03  0.00000000000E+00 0.  1.
<scales pt_clust_5="13000.00000" pt_clust_6="13000.00000" pt_clust_7="13000.00000" pt_clust_8="13000.00000" pt_clust_9="21.48450"></scales>
<clustering>
<clus scale="   21.485">  2  9  1 -1</clus>
<clus scale="   91.499">  5  6 -1 -1</clus>
<clus scale="   91.858">  7  8 -1 -1</clus>
<clus scale="  120.292">  1  5  2 -1</clus>
<clus scale="   21.485">  2  5  1 -1</clus>
</clustering>
</event>
<event>
 9    1  0.1435532E-005  0.9749382E+02  0.7546771E-02  0.1288583E+00
         -1   -1    0    0    0  501 -0.00000000000E+00  0.00000000000E+00  0.81341377973E+03  0.81341377973E+03  0.00000000000E+00 0.  1.
          1   -1    0    0  502    0  0.00000000000E+00 -0.00000000000E+00 -0.26726493309E+02  0.26726493309E+02  0.00000000000E+00 0. -1.
         23    2    1    2    0    0 -0.79267186076E+01  0.15218962346E+02  0.28039953297E+03  0.29655206244E+03  0.94998831401E+02 0.  0.
         23    2    1    2    0    0 -0.50689828529E+02  0.45875702409E+02  0.30800922142E+03  0.32798943062E+03  0.89628942506E+02 0.  0.
        -13    1    3    3    0    0 -0.41780008367E+02  0.37282914241E+02  0.15518183935E+03  0.16497571960E+03  0.00000000000E+00 0. -1.
         13    1    3    3    0    0  0.33853289760E+02 -0.22063951895E+02  0.12521769362E+03  0.13157634284E+03  0.00000000000E+00 0.  1.
        -13    1    4    4    0    0 -0.35899062788E+02 -0.21136306071E+02  0.15093396869E+03  0.15657761350E+03  0.00000000000E+00 0.  1.
         13    1    4    4    0    0 -0.14790765741E+02  0.67012008480E+02  0.15707525272E+03  0.17141181712E+03  0.00000000000E+00 0. -1.
         21    1    1    2  502  501  0.58616547137E+02 -0.61094664754E+02  0.19827853203E+03  0.21559877997E+03  0.00000000000E+00 0.  1.
<scales pt_clust_5="13000.00000" pt_clust_6="13000.00000" pt_clust_7="13000.00000" pt_clust_8="13000.00000" pt_clust_9="84.66674"></scales>
<clustering>
<clus scale="   84.667">  2  9  1 -1</clus>
<clus scale="   89.629">  7  8 -1 -1</clus>
<clus scale="   92.269">  2  7  1 -1</clus>
<clus scale="   94.999">  5  6 -1 -1</clus>
<clus scale="   84.667">  2  5  1 -1</clus>
</clustering>
</event>
<event>
 9    1  0.1435532E-005  0.9865542E+02  0.7546771E-02  0.1285544E+00
         -2   -1    0    0    0  501 -0.00000000000E+00  0.00000000000E+00  0.71497990890E+02  0.71497990890E+02  0.00000000000E+00 0.  1.
          2   -1    0    0  502    0  0.00000000000E+00 -0.00000000000E+00 -0.22980691941E+03  0.22980691941E+03  0.00000000000E+00 0. -1.
         23    2    1    2    0    0 -0.44514934541E+01  0.33407294721E+02 -0.10239113577E+02  0.97291353754E+02  0.90691261618E+02 0.  0.
         23    2    1    2    0    0  0.17865329300E+02 -0.78777465484E+01 -0.67240729392E+02  0.11819380420E+03  0.95222007857E+02 0.  0.
        -11    1    4    4    0    0 -0.35357772693E+02  0.13774721810E+02 -0.38080066670E+02  0.53758780942E+02  0.00000000000E+00 0. -1.
         11    1    4    4    0    0  0.53223101993E+02 -0.21652468359E+02 -0.29160662722E+02  0.64435023257E+02  0.00000000000E+00 0.  1.
        -13    1    3    3    0    0  0.14224441612E+02 -0.28546346804E+02 -0.84150130031E+00  0.31905121524E+02  0.00000000000E+00 0. -1.
         13    1    3    3    0    0 -0.18675935066E+02  0.61953641525E+02 -0.93976122767E+01  0.65386232230E+02  0.00000000000E+00 0.  1.
         21    1    1    2  502  501 -0.13413835845E+02 -0.25529548173E+02 -0.80829085554E+02  0.85819752351E+02  0.00000000000E+00 0. -1.
<scales pt_clust_5="13000.00000" pt_clust_6="13000.00000" pt_clust_7="13000.00000" pt_clust_8="13000.00000" pt_clust_9="28.83902"></scales>
<clustering>
<clus scale="   28.839">  2  9  1 -1</clus>
<clus scale="   90.691">  7  8 -1 -1</clus>
<clus scale="   94.290">  1  7  2 -1</clus>
<clus scale="   95.222">  5  6 -1 -1</clus>
<clus scale="   28.839">  2  5  1 -1</clus>
</clustering>
</event>
<event>
 9    1  0.1435532E-005  0.2020342E+03  0.7546771E-02  0.1148368E+00
          1   -1    0    0  502    0  0.00000000000E+00  0.00000000000E+00  0.79066164952E+02  0.79066164952E+02  0.00000000000E+00 0. -1.
         -1   -1    0    0    0  501 -0.00000000000E+00 -0.00000000000E+00 -0.67239056818E+03  0.67239056818E+03  0.00000000000E+00 0.  1.
         23    2    1    2    0    0 -0.14219510828E+03 -0.12125934352E+03 -0.44987541853E+03  0.49579668321E+03  0.92212697981E+02 0.  0.
         23    2    1    2    0    0  0.12924735230E+03  0.10272082505E+03 -0.13704526526E+03  0.23215837606E+03  0.88654728403E+02 0.  0.
        -11    1    4    4    0    0  0.35002563559E+01  0.51388420401E+02 -0.34984983456E+02  0.62265324325E+02  0.00000000000E+00 0. -1.
         11    1    4    4    0    0  0.12574709594E+03  0.51332404650E+02 -0.10206028181E+03  0.16989305173E+03  0.00000000000E+00 0.  1.
        -13    1    3    3    0    0  0.10491732628E+02 -0.24744823275E+02 -0.75033418075E+02  0.79701923192E+02  0.00000000000E+00 0.  1.
         13    1    3    3    0    0 -0.15268684091E+03 -0.96514520249E+02 -0.37484200046E+03  0.41609476001E+03  0.00000000000E+00 0. -1.
         21    1    1    2  502  501  0.12947755980E+02  0.18538518473E+02 -0.64037194368E+01  0.23501673871E+02  0.00000000000E+00 0.  1.
<scales pt_clust_5="13000.00000" pt_clust_6="13000.00000" pt_clust_7="13000.00000" pt_clust_8="13000.00000" pt_clust_9="22.61241"></scales>
<clustering>
<clus scale="   22.612">  1  9  2 -1</clus>
<clus scale="   88.655">  5  6 -1 -1</clus>
<clus scale="   92.213">  7  8 -1 -1</clus>
<clus scale="  200.435">  1  5  2 -1</clus>
<clus scale="   22.612">  1  5  2 -1</clus>
</clustering>
</event>
<event>
 9    1  0.1435532E-005  0.1002694E+03  0.7546771E-02  0.1280822E+00
          1   -1    0    0  502    0  0.00000000000E+00  0.00000000000E+00  0.13795819720E+03  0.13795819720E+03  0.00000000000E+00 0. -1.
         -1   -1    0    0    0  501 -0.00000000000E+00 -0.00000000000E+00 -0.88803140856E+02  0.88803140856E+02  0.00000000000E+00 0.  1.
         23    2    1    2    0    0  0.27901603332E+02 -0.33605780137E+02  0.27102343607E+02  0.10775194154E+03  0.94700031418E+02 0.  0.
         23    2    1    2    0    0 -0.17189947790E+02  0.15301027883E+02  0.21814116175E+02  0.97799482609E+02  0.92516308696E+02 0.  0.
        -11    1    4    4    0    0 -0.32001838644E+02  0.34344214079E+02  0.44500174882E+02  0.64683137539E+02  0.00000000000E+00 0.  1.
         11    1    4    4    0    0  0.14811890854E+02 -0.19043186196E+02 -0.22686058707E+02  0.33116345070E+02  0.00000000000E+00 0. -1.
        -11    1    3    3    0    0  0.32335616458E+02  0.16544535679E+02 -0.17656769854E+02  0.40386572944E+02  0.00000000000E+00 0.  1.
         11    1    3    3    0    0 -0.44340131262E+01 -0.50150315815E+02  0.44759113461E+02  0.67365368600E+02  0.00000000000E+00 0. -1.
         21    1    1    2  502  501 -0.10711655541E+02  0.18304752254E+02  0.23859656252E+00  0.21209913904E+02  0.00000000000E+00 0.  1.
<scales pt_clust_5="13000.00000" pt_clust_6="13000.00000" pt_clust_7="13000.00000" pt_clust_8="13000.00000" pt_clust_9="21.20857"></scales>
<clustering>
<clus scale="   21.209">  2  9  1 -1</clus>
<clus scale="   92.516">  5  6 -1 -1</clus>
<clus scale="   94.700">  7  8 -1 -1</clus>
<clus scale="   98.210">  1  5  2 -1</clus>
<clus scale="   98.210">  1  5  2 -1</clus>
</clustering>
</event>
<event>
 9    1  0.1435532E-005  0.1373459E+03  0.7546771E-02  0.1217141E+00
         -2   -1    0    0    0  501 -0.00000000000E+00  0.00000000000E+00  0.22361601903E+03  0.22361601903E+03  0.00000000000E+00 0.  1.
          2   -1    0    0  502    0  0.00000000000E+00 -0.00000000000E+00 -0.27828576214E+03  0.27828576214E+03  0.00000000000E+00 0. -1.
         23    2    1    2    0    0  0.10583180564E+03 -0.45192853756E+02  0.10532651423E+03  0.18084532454E+03  0.91480007059E+02 0.  0.
         23    2    1    2    0    0 -0.50232286433E+02  0.79945782313E+02  0.17311333575E+02  0.13201398952E+03  0.90627812776E+02 0.  0.
        -11    1    3    3    0    0  0.61095070308E+02 -0.68247172508E+02  0.44315389585E+02  0.10175528451E+03  0.00000000000E+00 0. -1.
         11    1    3    3    0    0  0.44736735332E+02  0.23054318753E+02  0.61011124645E+02  0.79090040029E+02  0.00000000000E+00 0.  1.
        -13    1    4    4    0    0 -0.21340112798E+02  0.68920474653E+02 -0.27801257306E+02  0.77319739708E+02  0.00000000000E+00 0.  1.
         13    1    4    4    0    0 -0.28892173634E+02  0.11025307660E+02  0.45112590881E+02  0.54694249811E+02  0.00000000000E+00 0. -1.
         21    1    1    2  502  501 -0.55599519208E+02 -0.34752928557E+02 -0.17730759091E+03  0.18904246712E+03  0.00000000000E+00 0. -1.
<scales pt_clust_5="13000.00000" pt_clust_6="13000.00000" pt_clust_7="13000.00000" pt_clust_8="13000.00000" pt_clust_9="65.56731"></scales>
<clustering>
<clus scale="   65.567">  2  9  1 -1</clus>
<clus scale="   90.628">  7  8 -1 -1</clus>
<clus scale="   91.480">  5  6 -1 -1</clus>
<clus scale="  136.780">  2  7  1 -1</clus>
<clus scale="   65.567">  2  5  1 -1</clus>
</clustering>
</event>
<event>
 9    1  0.1435532E-005  0.1135079E+03  0.7546771E-02  0.1255506E+00
         -1   -1    0    0    0  501 -0.00000000000E+00  0.00000000000E+00  0.58920863780E+03  0.58920863780E+03  0.00000000000E+00 0.  1.
          1   -1    0    0  502    0  0.00000000000E+00 -0.00000000000E+00 -0.13133021046E+03  0.13133021046E+03  0.00000000000E+00 0. -1.
         23    2    1    2    0    0 -0.54557016646E+02  0.30580268761E+02  0.51207898562E+03  0.52371424332E+03  0.90222504046E+02 0.  0.
         23    2    1    2    0    0  0.56111141783E+02 -0.59140791580E+02  0.11905339635E+02  0.12479607929E+03  0.93734896563E+02 0.  0.
        -11    1    4    4    0    0  0.76565811549E+02 -0.65514367219E+02  0.18342847626E+02  0.10242517205E+03  0.00000000000E+00 0.  1.
         11    1    4    4    0    0 -0.20454669767E+02  0.63735756389E+01 -0.64375079913E+01  0.22370907242E+02  0.00000000000E+00 0. -1.
        -11    1    3    3    0    0 -0.76141255378E+02  0.40252945596E+02  0.40071749010E+03  0.40986863416E+03  0.00000000000E+00 0.  1.
         11    1    3    3    0    0  0.21584238732E+02 -0.96726768352E+01  0.11136149552E+03  0.11384560915E+03  0.00000000000E+00 0. -1.
         21    1    1    2  502  501 -0.15541251368E+01  0.28560522820E+02 -0.66105897909E+02  0.72028525648E+02  0.00000000000E+00 0. -1.
<scales pt_clust_5="13000.00000" pt_clust_6="13000.00000" pt_clust_7="13000.00000" pt_clust_8="13000.00000" pt_clust_9="28.60278"></scales>
<clustering>
<clus scale="   28.603">  2  9  1 -1</clus>
<clus scale="   90.223">  7  8 -1 -1</clus>
<clus scale="   93.735">  5  6 -1 -1</clus>
<clus scale="  110.625">  1  7  2 -1</clus>
<clus scale="   28.603">  2  5  1 -1</clus>
</clustering>
</event>
<event>
 9    1  0.1435532E-005  0.9271196E+02  0.7546771E-02  0.1297283E+00
          2   -1    0    0  502    0  0.00000000000E+00  0.00000000000E+00  0.39931581262E+03  0.39931581262E+03  0.00000000000E+00 0. -1.
         -2   -1    0    0    0  501 -0.00000000000E+00 -0.00000000000E+00 -0.51213772569E+02  0.51213772569E+02  0.00000000000E+00 0.  1.
         23    2    1    2    0    0 -0.19936014016E+02  0.28875932830E+02  0.75566133860E+02  0.12273190584E+03  0.90120008732E+02 0.  0.
         23    2    1    2    0    0  0.41402002160E+01  0.48091139377E+02  0.15693156598E+03  0.18801999367E+03  0.91619335698E+02 0.  0.
        -13    1    3    3    0    0  0.33910983624E+01  0.55706121036E+02  0.25581491797E+02  0.61392867595E+02  0.00000000000E+00 0.  1.
         13    1    3    3    0    0 -0.23327112378E+02 -0.26830188206E+02  0.49984642063E+02  0.61339038248E+02  0.00000000000E+00 0. -1.
        -13    1    4    4    0    0  0.41689143875E+02  0.22510806840E+02  0.12147667714E+03  0.13038904951E+03  0.00000000000E+00 0. -1.
         13    1    4    4    0    0 -0.37548943659E+02  0.25580332536E+02  0.35454888839E+02  0.57630944163E+02  0.00000000000E+00 0.  1.
         21    1    1    2  502  501  0.15795813800E+02 -0.76967072207E+02  0.11560434021E+03  0.13977768568E+03  0.00000000000E+00 0.  1.
<scales pt_clust_5="13000.00000" pt_clust_6="13000.00000" pt_clust_7="13000.00000" pt_clust_8="13000.00000" pt_clust_9="78.57123"></scales>
<clustering>
<clus scale="   78.571">  1  9  2 -1</clus>
<clus scale="   90.120">  5  6 -1 -1</clus>
<clus scale="   91.231">  2  5  1 -1</clus>
<clus scale="   91.619">  7  8 -1 -1</clus>
<clus scale="   78.571">  1  5  2 -1</clus>
</clustering>
</event>
<event>
 9    1  0.1435532E-005  0.9524972E+02  0.7546771E-02  0.1291762E+00
         -2   -1    0    0    0  501 -0.00000000000E+00  0.00000000000E+00  0.88449337814E+02  0.88449337814E+02  0.00000000000E+00 0.  1.
          2   -1    0    0  502    0  0.00000000000E+00 -0.00000000000E+00 -0.17730970494E+03  0.17730970494E+03  0.00000000000E+00 0. -1.
         23    2    1    2    0    0  0.33079821754E+02  0.96761798651E+01  0.14555818498E+02  0.99083417061E+02  0.91748289468E+02 0.  0.
         23    2    1    2    0    0 -0.23700121817E+01 -0.18347123906E+02 -0.49601696147E+02  0.10411144303E+03  0.89647255371E+02 0.  0.
        -13    1    4    4    0    0 -0.25231358778E+02  0.13814880412E+02  0.11825996636E+02  0.31101874269E+02  0.00000000000E+00 0. -1.
         13    1    4    4    0    0  0.22861346596E+02 -0.32162004318E+02 -0.61427692783E+02  0.73009568760E+02  0.00000000000E+00 0.  1.
        -13    1    3    3    0    0  0.21681421965E+02 -0.18677342877E+02  0.46675205959E+02  0.54749447913E+02  0.00000000000E+00 0.  1.
         13    1    3    3    0    0  0.11398399789E+02  0.28353522742E+02 -0.32119387461E+02  0.44333969149E+02  0.00000000000E+00 0. -1.
         21    1    1    2  502  501 -0.30709809572E+02  0.86709440414E+01 -0.53814489478E+02  0.62564182663E+02  0.00000000000E+00 0. -1.
<scales pt_clust_5="13000.00000" pt_clust_6="13000.00000" pt_clust_7="13000.00000" pt_clust_8="13000.00000" pt_clust_9="31.91046"></scales>
<clustering>
<clus scale="   31.910">  2  9  1 -1</clus>
<clus scale="   89.647">  5  6 -1 -1</clus>
<clus scale="   91.748">  7  8 -1 -1</clus>
<clus scale="   93.228">  2  5  1 -1</clus>
<clus scale="   31.910">  2  5  1 -1</clus>
</clustering>
</event>
<event>
 9    1  0.1435532E-005  0.1811269E+03  0.7546771E-02  0.1167113E+00
          2   -1    0    0  502    0  0.00000000000E+00  0.00000000000E+00  0.79652322269E+03  0.79652322269E+03  0.00000000000E+00 0. -1.
         -2   -1    0    0    0  501 -0.00000000000E+00 -0.00000000000E+00 -0.54480202107E+02  0.54480202107E+02  0.00000000000E+00 0.  1.
         23    2    1    2    0    0 -0.11593846376E+03 -0.96969979161E+02  0.19120704667E+03  0.25992294487E+03  0.90304475718E+02 0.  0.
         23    2    1    2    0    0  0.13801228777E+03  0.89275051954E+02  0.46171495568E+03  0.49894459386E+03  0.93528503495E+02 0.  0.
        -13    1    3    3    0    0  0.94796285499E+01 -0.34554923286E+02  0.43295352998E+02  0.56199587828E+02  0.00000000000E+00 0.  1.
         13    1    3    3    0    0 -0.12541809231E+03 -0.62415055875E+02  0.14791169367E+03  0.20372335704E+03  0.00000000000E+00 0. -1.
        -13    1    4    4    0    0  0.57239155609E+02  0.82378714151E+02  0.18312906721E+03  0.20880332549E+03  0.00000000000E+00 0.  1.
         13    1    4    4    0    0  0.80773132162E+02  0.68963378032E+01  0.27858588847E+03  0.29014126837E+03  0.00000000000E+00 0. -1.
         21    1    1    2  502  501 -0.22073824008E+02  0.76949272071E+01  0.89121018223E+02  0.92135886061E+02  0.00000000000E+00 0. -1.
<scales pt_clust_5="13000.00000" pt_clust_6="13000.00000" pt_clust_7="13000.00000" pt_clust_8="13000.00000" pt_clust_9="23.37660"></scales>
<clustering>
<clus scale="   23.377">  1  9  2 -1</clus>
<clus scale="   90.304">  5  6 -1 -1</clus>
<clus scale="   93.529">  7  8 -1 -1</clus>
<clus scale="  179.483">  2  5  1 -1</clus>
<clus scale="   23.377">  1  5  2 -1</clus>
</clustering>
</event>
<event>
 9    1  0.1435532E-005  0.2932725E+03  0.7546771E-02  0.1088673E+00
         -2   -1    0    0    0  501 -0.00000000000E+00  0.00000000000E+00  0.20328590216E+03  0.20328590216E+03  0.00000000000E+00 0.  1.
          2   -1    0    0  502    0  0.00000000000E+00 -0.00000000000E+00 -0.83726727827E+03  0.83726727827E+03  0.00000000000E+00 0. -1.
         23    2    1    2    0    0 -0.23348104372E+03 -0.11971320971E+03 -0.55433932265E+02  0.28313378688E+03  0.90813931031E+02 0.  0.
         23    2    1    2    0    0  0.22632918924E+03  0.25522639930E+03 -0.41607659416E+03  0.54573153237E+03  0.91311315905E+02 0.  0.
        -11    1    4    4    0    0  0.36511971650E+02  0.49513972101E+02 -0.13839812798E+03  0.15145560186E+03  0.00000000000E+00 0. -1.
         11    1    4    4    0    0  0.18981721759E+03  0.20571242720E+03 -0.27767846619E+03  0.39427593051E+03  0.00000000000E+00 0.  1.
        -11    1    3    3    0    0 -0.99421945584E+02 -0.62523484658E+01 -0.23025584423E+01  0.99644954215E+02  0.00000000000E+00 0.  1.
         11    1    3    3    0    0 -0.13405909814E+03 -0.11346086125E+03 -0.53131373822E+02  0.18348883266E+03  0.00000000000E+00 0. -1.
         21    1    1    2  502  501  0.71518544828E+01 -0.13551318959E+03 -0.16247084968E+03  0.21168786118E+03  0.00000000000E+00 0.  1.
<scales pt_clust_5="13000.00000" pt_clust_6="13000.00000" pt_clust_7="13000.00000" pt_clust_8="13000.00000" pt_clust_9="135.70178"></scales>
<clustering>
<clus scale="   90.814">  7  8 -1 -1</clus>
<clus scale="   91.311">  5  6 -1 -1</clus>
<clus scale="  135.702">  2  9  1 -1</clus>
<clus scale="  293.118">  1  7  2 -1</clus>
<clus scale="  135.702">  2  5  1 -1</clus>
</clustering>
</event>
<event>
 9    1  0.1435532E-005  0.1745387E+03  0.7546771E-02  0.1188924E+00
         -1   -1    0    0    0  501 -0.00000000000E+00  0.00000000000E+00  0.80671711199E+02  0.80671711199E+02  0.00000000000E+00 0.  1.
          1   -1    0    0  502    0  0.00000000000E+00 -0.00000000000E+00 -0.91233539751E+03  0.91233539751E+03  0.00000000000E+00 0. -1.
         23    2    1    2    0    0 -0.81215771934E+02 -0.45315336433E+02 -0.41350227081E+02  0.12942043618E+03  0.79939518987E+02 0.  0.
         23    2    1    2    0    0  0.10505611710E+03 -0.11003944941E+03 -0.29622050163E+03  0.34509721044E+03  0.90554022002E+02 0.  0.
        -11    1    4    4    0    0  0.70178659481E+02 -0.76086848505E+02 -0.10370215491E+03  0.14652095309E+03  0.00000000000E+00 0. -1.
         11    1    4    4    0    0  0.34877457617E+02 -0.33952600908E+02 -0.19251834672E+03  0.19857625735E+03  0.00000000000E+00 0.  1.
        -11    1    3    3    0    0 -0.93827336963E+01 -0.18675247122E+02 -0.48165132940E+02  0.52504100580E+02  0.00000000000E+00 0. -1.
         11    1    3    3    0    0 -0.71833038237E+02 -0.26640089311E+02  0.68149058590E+01  0.76916335604E+02  0.00000000000E+00 0.  1.
         21    1    1    2  502  501 -0.23840345165E+02  0.15535478585E+03 -0.49409295760E+03  0.51848946209E+03  0.00000000000E+00 0.  1.
<scales pt_clust_5="13000.00000" pt_clust_6="13000.00000" pt_clust_7="13000.00000" pt_clust_8="13000.00000" pt_clust_9="149.21033"></scales>
<clustering>
<clus scale="   79.940">  7  8 -1 -1</clus>
<clus scale="   90.554">  5  6 -1 -1</clus>
<clus scale="  122.637">  1  7  2 -1</clus>
<clus scale="  149.210">  2  9  1 -1</clus>
<clus scale="  149.210">  2  5  1 -1</clus>
</clustering>
</event>
<event>
 9    1  0.1435532E-005  0.9799920E+02  0.7546771E-02  0.1293551E+00
         -1   -1    0    0    0  501 -0.00000000000E+00  0.00000000000E+00  0.47934357044E+02  0.47934357044E+02  0.00000000000E+00 0.  1.
          1   -1    0    0  502    0  0.00000000000E+00 -0.00000000000E+00 -0.28804340091E+03  0.28804340091E+03  0.00000000000E+00 0. -1.
         23    2    1    2    0    0  0.32184151001E+02  0.24755211422E+01 -0.29615128516E+02  0.89754760761E+02  0.78338454552E+02 0.  0.
         23    2    1    2    0    0 -0.11141608282E+02  0.19330522557E+02 -0.14996486846E+03  0.17853209926E+03  0.94267938112E+02 0.  0.
        -11    1    4    4    0    0 -0.42491652439E+02 -0.10483225246E+02 -0.11453785846E+03  0.12261467922E+03  0.00000000000E+00 0. -1.
         11    1    4    4    0    0  0.31350044157E+02  0.29813747803E+02 -0.35427010000E+02  0.55917420043E+02  0.00000000000E+00 0.  1.
        -11    1    3    3    0    0 -0.15206501293E+02 -0.20401250615E+02 -0.26949676710E+02  0.37063914837E+02  0.00000000000E+00 0. -1.
         11    1    3    3    0    0  0.47390652294E+02  0.22876771757E+02 -0.26654518062E+01  0.52690845924E+02  0.00000000000E+00 0.  1.
         21    1    1    2  502  501 -0.21042542718E+02 -0.21806043699E+02 -0.60529046891E+02  0.67690897936E+02  0.00000000000E+00 0.  1.
<scales pt_clust_5="13000.00000" pt_clust_6="13000.00000" pt_clust_7="13000.00000" pt_clust_8="13000.00000" pt_clust_9="30.30334"></scales>
<clustering>
<clus scale="   30.303">  2  9  1 -1</clus>
<clus scale="   78.338">  7  8 -1 -1</clus>
<clus scale="   82.791">  1  7  2 -1</clus>
<clus scale="   94.268">  5  6 -1 -1</clus>
<clus scale="   30.303">  2  5  1 -1</clus>
</clustering>
</event>
<event>
 9    1  0.1435532E-005  0.9579993E+02  0.7546771E-02  0.1291036E+00
         -2   -1    0    0    0  501 -0.00000000000E+00  0.00000000000E+00  0.21659635656E+02  0.21659635656E+02  0.00000000000E+00 0.  1.
          2   -1    0    0  502    0  0.00000000000E+00 -0.00000000000E+00 -0.71969202652E+03  0.71969202652E+03  0.00000000000E+00 0. -1.
         23    2    1    2    0    0 -0.91978462680E+01  0.20050760832E+02 -0.13490442365E+03  0.16411507266E+03  0.90818060801E+02 0.  0.
         23    2    1    2    0    0  0.24236088024E+02  0.10457345416E+01 -0.37412891697E+03  0.38647010445E+03  0.93798793150E+02 0.  0.
        -11    1    3    3    0    0  0.45199465439E+01 -0.27953128988E+02 -0.98059170443E+02  0.10206570553E+03  0.00000000000E+00 0. -1.
         11    1    3    3    0    0 -0.13717792812E+02  0.48003889820E+02 -0.36845253207E+02  0.62049367131E+02  0.00000000000E+00 0.  1.
        -13    1    4    4    0    0  0.54906146834E+02 -0.20330317512E+02 -0.20116605751E+03  0.20951322026E+03  0.00000000000E+00 0.  1.
         13    1    4    4    0    0 -0.30670058810E+02  0.21376052053E+02 -0.17296285946E+03  0.17695688419E+03  0.00000000000E+00 0. -1.
         21    1    1    2  502  501 -0.15038241756E+02 -0.21096495374E+02 -0.18899905024E+03  0.19076648507E+03  0.00000000000E+00 0. -1.
<scales pt_clust_5="13000.00000" pt_clust_6="13000.00000" pt_clust_7="13000.00000" pt_clust_8="13000.00000" pt_clust_9="25.90774"></scales>
<clustering>
<clus scale="   25.908">  2  9  1 -1</clus>
<clus scale="   90.818">  5  6 -1 -1</clus>
<clus scale="   92.883">  1  5  2 -1</clus>
<clus scale="   93.799">  7  8 -1 -1</clus>
<clus scale="   25.908">  2  5  1 -1</clus>
</clustering>
</event>
<event>
 9    1  0.1435532E-005  0.1475204E+03  0.7546771E-02  0.1203754E+00
          1   -1    0    0  502    0  0.00000000000E+00  0.00000000000E+00  0.20586057890E+03  0.20586057890E+03  0.00000000000E+00 0. -1.
         -1   -1    0    0    0  501 -0.00000000000E+00 -0.00000000000E+00 -0.30076521880E+03  0.30076521880E+03  0.00000000000E+00 0.  1.
         23    2    1    2    0    0 -0.81285062317E+02 -0.73946045597E+02 -0.17348838962E+03  0.22543431135E+03  0.92989936997E+02 0.  0.
         23    2    1    2    0    0  0.31699735750E+02  0.14617572575E+03  0.24800476616E+02  0.17838841358E+03  0.93995459530E+02 0.  0.
        -11    1    3    3    0    0 -0.32269579458E+02 -0.41106763667E+02 -0.12159870778E+02  0.53655887234E+02  0.00000000000E+00 0. -1.
         11    1    3    3    0    0 -0.49015482858E+02 -0.32839281930E+02 -0.16132851884E+03  0.17177842411E+03  0.00000000000E+00 0.  1.
        -13    1    4    4    0    0 -0.25660831535E+02  0.85275307273E+02 -0.59605338401E+01  0.89251802611E+02  0.00000000000E+00 0.  1.
         13    1    4    4    0    0  0.57360567285E+02  0.60900418479E+02  0.30761010456E+02  0.89136610966E+02  0.00000000000E+00 0. -1.
         21    1    1    2  502  501  0.49585326567E+02 -0.72229680155E+02  0.53783273114E+02  0.10280307278E+03  0.00000000000E+00 0. -1.
<scales pt_clust_5="13000.00000" pt_clust_6="13000.00000" pt_clust_7="13000.00000" pt_clust_8="13000.00000" pt_clust_9="87.61182"></scales>
<clustering>
<clus scale="   87.612">  1  9  2 -1</clus>
<clus scale="   92.990">  5  6 -1 -1</clus>
<clus scale="   93.995">  7  8 -1 -1</clus>
<clus scale="  146.882">  2  5  1 -1</clus>
<clus scale="   87.612">  1  5  2 -1</clus>
</clustering>
</event>
<event>
 9    1  0.1435532E-005  0.2124185E+03  0.7546771E-02  0.1139718E+00
         -2   -1    0    0    0  501 -0.00000000000E+00  0.00000000000E+00  0.14590202169E+03  0.14590202169E+03  0.00000000000E+00 0.  1.
          2   -1    0    0  502    0  0.00000000000E+00 -0.00000000000E+00 -0.46416458235E+03  0.46416458235E+03  0.00000000000E+00 0. -1.
         23    2    1    2    0    0  0.18590543230E+03  0.35038806762E+02 -0.24904845571E+02  0.21101553827E+03  0.90104152630E+02 0.  0.
         23    2    1    2    0    0 -0.20077356229E+03 -0.33089248089E+01 -0.19222515205E+03  0.29202003287E+03  0.89466296556E+02 0.  0.
        -13    1    4    4    0    0 -0.21809944101E+02  0.30290926011E+02 -0.39676613766E+02  0.54474283293E+02  0.00000000000E+00 0.  1.
         13    1    4    4    0    0 -0.17896361819E+03 -0.33599850820E+02 -0.15254853829E+03  0.23754574958E+03  0.00000000000E+00 0. -1.
        -13    1    3    3    0    0  0.17988981916E+03  0.72116978738E+01 -0.28652299729E+02  0.18230005459E+03  0.00000000000E+00 0.  1.
         13    1    3    3    0    0  0.60156131418E+01  0.27827108888E+02  0.37474541572E+01  0.28715483684E+02  0.00000000000E+00 0. -1.
         21    1    1    2  502  501  0.14868129987E+02 -0.31729881953E+02 -0.10113256303E+03  0.10703103290E+03  0.00000000000E+00 0. -1.
<scales pt_clust_5="13000.00000" pt_clust_6="13000.00000" pt_clust_7="13000.00000" pt_clust_8="13000.00000" pt_clust_9="35.04064"></scales>
<clustering>
<clus scale="   35.041">  2  9  1 -1</clus>
<clus scale="   89.466">  5  6 -1 -1</clus>
<clus scale="   90.104">  7  8 -1 -1</clus>
<clus scale="  212.149">  2  5  1 -1</clus>
<clus scale="   35.041">  2  5  1 -1</clus>
</clustering>
</event>
<event>
 9    1  0.1435532E-005  0.4257387E+03  0.7546771E-02  0.1053310E+00
          2   -1    0    0  502    0  0.00000000000E+00  0.00000000000E+00  0.11957353167E+04  0.11957353167E+04  0.00000000000E+00 0. -1.
         -2   -1    0    0    0  501 -0.00000000000E+00 -0.00000000000E+00 -0.32672458385E+03  0.32672458385E+03  0.00000000000E+00 0.  1.
         23    2    1    2    0    0  0.18320786895E+03  0.14761630151E+03  0.30211107535E+02  0.25436955535E+03  0.91844781840E+02 0.  0.
         23    2    1    2    0    0 -0.13040428262E+03 -0.52050288539E+03  0.33492710087E+03  0.63902743574E+03  0.90837052549E+02 0.  0.
        -11    1    3    3    0    0  0.66238043536E+02  0.71210036794E+01 -0.94965862061E+01  0.67293181337E+02  0.00000000000E+00 0. -1.
         11    1    3    3    0    0  0.11696982542E+03  0.14049529783E+03  0.39707693741E+02  0.18707637401E+03  0.00000000000E+00 0.  1.
        -13    1    4    4    0    0 -0.27090794251E+02 -0.10003109231E+03  0.10993073363E+03  0.15107910762E+03  0.00000000000E+00 0.  1.
         13    1    4    4    0    0 -0.10331348837E+03 -0.42047179307E+03  0.22499636724E+03  0.48794832812E+03  0.00000000000E+00 0. -1.
         21    1    1    2  502  501 -0.52803586332E+02  0.37288658388E+03  0.50387252443E+03  0.62906290945E+03  0.00000000000E+00 0.  1.
<scales pt_clust_5="13000.00000" pt_clust_6="13000.00000" pt_clust_7="13000.00000" pt_clust_8="13000.00000" pt_clust_9="415.93513"></scales>
<clustering>
<clus scale="   90.837">  7  8 -1 -1</clus>
<clus scale="   91.845">  5  6 -1 -1</clus>
<clus scale="  252.569">  2  5  1 -1</clus>
<clus scale="  415.935">  1  9  2 -1</clus>
<clus scale="  415.935">  1  5  2 -1</clus>
</clustering>
</event>
<event>
 9    1  0.1435532E-005  0.1080656E+03  0.7546771E-02  0.1264963E+00
          2   -1    0    0  502    0  0.00000000000E+00  0.00000000000E+00  0.78046013820E+02  0.78046013820E+02  0.00000000000E+00 0. -1.
         -2   -1    0    0    0  501 -0.00000000000E+00 -0.00000000000E+00 -0.19611388562E+03  0.19611388562E+03  0.00000000000E+00 0.  1.
         23    2    1    2    0    0  0.60587401302E+02 -0.20064743592E+02 -0.92164777048E+02  0.14489473435E+03  0.91797117504E+02 0.  0.
         23    2    1    2    0    0 -0.36838986859E+02  0.12364200062E+02 -0.24166824148E+02  0.10423917471E+03  0.93657812050E+02 0.  0.
        -11    1    3    3    0    0  0.57187431663E+02  0.15515107067E+00 -0.73751719844E+01  0.57661248459E+02  0.00000000000E+00 0. -1.
         11    1    3    3    0    0  0.33999696387E+01 -0.20219894663E+02 -0.84789605064E+02  0.87233485890E+02  0.00000000000E+00 0.  1.
        -13    1    4    4    0    0  0.11803350622E+02  0.30843359165E+02  0.17685531309E+02  0.37462112970E+02  0.00000000000E+00 0. -1.
         13    1    4    4    0    0 -0.48642337482E+02 -0.18479159103E+02 -0.41852355457E+02  0.66777061736E+02  0.00000000000E+00 0.  1.
         21    1    1    2  502  501 -0.23748414443E+02  0.77005435301E+01 -0.17362706062E+01  0.25025990386E+02  0.00000000000E+00 0. -1.
<scales pt_clust_5="13000.00000" pt_clust_6="13000.00000" pt_clust_7="13000.00000" pt_clust_8="13000.00000" pt_clust_9="24.96569"></scales>
<clustering>
<clus scale="   24.966">  1  9  2 -1</clus>
<clus scale="   91.797">  5  6 -1 -1</clus>
<clus scale="   93.658">  7  8 -1 -1</clus>
<clus scale="  106.457">  2  5  1 -1</clus>
<clus scale="   24.966">  1  5  2 -1</clus>
</clustering>
</event>
<event>
 9    1  0.1435532E-005  0.1490211E+03  0.7546771E-02  0.1203027E+00
         -1   -1    0    0    0  501 -0.00000000000E+00  0.00000000000E+00  0.23240760864E+03  0.23240760864E+03  0.00000000000E+00 0.  1.
          1   -1    0    0  502    0  0.00000000000E+00 -0.00000000000E+00 -0.15444775290E+03  0.15444775290E+03  0.00000000000E+00 0. -1.
         23    2    1    2    0    0  0.10517752397E+03  0.35294365395E+02  0.10660202249E+03  0.18320610949E+03  0.99460965096E+02 0.  0.
         23    2    1    2    0    0 -0.96856984212E+02 -0.57357916588E+02  0.22158937535E+02  0.14764225366E+03  0.92930138093E+02 0.  0.
        -11    1    4    4    0    0 -0.48250953297E+02 -0.39866761301E+02 -0.34090251713E+02  0.71271722391E+02  0.00000000000E+00 0. -1.
         11    1    4    4    0    0 -0.48606030915E+02 -0.17491155287E+02  0.56249189249E+02  0.76370531265E+02  0.00000000000E+00 0.  1.
        -11    1    3    3    0    0  0.30276559898E+02  0.45051599632E+02  0.21732126649E+01  0.54323471557E+02  0.00000000000E+00 0. -1.
         11    1    3    3    0    0  0.74900964069E+02 -0.97572342366E+01  0.10442880983E+03  0.12888263793E+03  0.00000000000E+00 0.  1.
         21    1    1    2  502  501 -0.83205397550E+01  0.22063551193E+02 -0.50801104281E+02  0.56006998395E+02  0.00000000000E+00 0. -1.
<scales pt_clust_5="13000.00000" pt_clust_6="13000.00000" pt_clust_7="13000.00000" pt_clust_8="13000.00000" pt_clust_9="23.58032"></scales>
<clustering>
<clus scale="   23.580">  2  9  1 -1</clus>
<clus scale="   92.930">  5  6 -1 -1</clus>
<clus scale="   99.461">  7  8 -1 -1</clus>
<clus scale="  144.744">  2  5  1 -1</clus>
<clus scale="   23.580">  2  5  1 -1</clus>
</clustering>
</event>
<event>
 9    1  0.1435532E-005  0.9396461E+02  0.7546771E-02  0.1293574E+00
         -2   -1    0    0    0  501 -0.00000000000E+00  0.00000000000E+00  0.52513018773E+03  0.52513018773E+03  0.00000000000E+00 0.  1.
          2   -1    0    0  502    0  0.00000000000E+00 -0.00000000000E+00 -0.45926451629E+02  0.45926451629E+02  0.00000000000E+00 0. -1.
         23    2    1    2    0    0 -0.32134614290E+01 -0.19437324188E+02  0.41300911147E+03  0.42358808897E+03  0.91990255207E+02 0.  0.
         23    2    1    2    0    0 -0.22980145292E+02  0.15213650796E+02  0.72266126349E+02  0.12025076975E+03  0.92077751704E+02 0.  0.
        -11    1    3    3    0    0  0.43135235586E+02 -0.16021252868E+02  0.24425438056E+03  0.24855086303E+03  0.00000000000E+00 0.  1.
         11    1    3    3    0    0 -0.46348697015E+02 -0.34160713195E+01  0.16875473091E+03  0.17503722594E+03  0.00000000000E+00 0. -1.
        -13    1    4    4    0    0  0.34898536903E+02  0.15051601762E+02  0.32736567163E+02  0.50161154524E+02  0.00000000000E+00 0.  1.
         13    1    4    4    0    0 -0.57878682195E+02  0.16204903342E+00  0.39529559187E+02  0.70089615223E+02  0.00000000000E+00 0. -1.
         21    1    1    2  502  501  0.26193606721E+02  0.42236733917E+01 -0.60715017201E+01  0.27217780642E+02  0.00000000000E+00 0.  1.
<scales pt_clust_5="13000.00000" pt_clust_6="13000.00000" pt_clust_7="13000.00000" pt_clust_8="13000.00000" pt_clust_9="26.53195"></scales>
<clustering>
<clus scale="   26.532">  2  9  1 -1</clus>
<clus scale="   91.990">  5  6 -1 -1</clus>
<clus scale="   92.078">  7  8 -1 -1</clus>
<clus scale="   93.879">  1  5  2 -1</clus>
<clus scale="   26.532">  2  5  1 -1</clus>
</clustering>
</event>
<event>
 9    1  0.1435532E-005  0.9534925E+02  0.7546771E-02  0.1292196E+00
          1   -1    0    0  502    0  0.00000000000E+00  0.00000000000E+00  0.78169741605E+02  0.78169741605E+02  0.00000000000E+00 0. -1.
         -1   -1    0    0    0  501 -0.00000000000E+00 -0.00000000000E+00 -0.31891790445E+03  0.31891790445E+03  0.00000000000E+00 0.  1.
         23    2    1    2    0    0 -0.96613756823E+01 -0.15506352022E+02 -0.23386437718E+03  0.25221277503E+03  0.92654993606E+02 0.  0.
         23    2    1    2    0    0  0.26861075902E+02  0.42941393035E+02  0.17645310970E+02  0.10425236809E+03  0.89396412785E+02 0.  0.
        -13    1    3    3    0    0 -0.43186830589E+02 -0.25601668985E+02 -0.18754977908E+03  0.19415320606E+03  0.00000000000E+00 0.  1.
         13    1    3    3    0    0  0.33525454907E+02  0.10095316963E+02 -0.46314598098E+02  0.58059568964E+02  0.00000000000E+00 0. -1.
        -13    1    4    4    0    0  0.35877473183E+02  0.72431603657E+01  0.45274907077E+02  0.58219186399E+02  0.00000000000E+00 0. -1.
         13    1    4    4    0    0 -0.90163972811E+01  0.35698232669E+02 -0.27629596107E+02  0.46033181692E+02  0.00000000000E+00 0.  1.
         21    1    1    2  502  501 -0.17199700220E+02 -0.27435041013E+02 -0.24529096634E+02  0.40622502936E+02  0.00000000000E+00 0.  1.
<scales pt_clust_5="13000.00000" pt_clust_6="13000.00000" pt_clust_7="13000.00000" pt_clust_8="13000.00000" pt_clust_9="32.38072"></scales>
<clustering>
<clus scale="   32.381">  1  9  2 -1</clus>
<clus scale="   89.396">  7  8 -1 -1</clus>
<clus scale="   92.186">  1  7  2 -1</clus>
<clus scale="   92.655">  5  6 -1 -1</clus>
<clus scale="   32.381">  1  5  2 -1</clus>
</clustering>
</event>
<event>
 9    1  0.1435532E-005  0.2060921E+03  0.7546771E-02  0.1145736E+00
         -3   -1    0    0    0  501 -0.00000000000E+00  0.00000000000E+00  0.82730390454E+02  0.82730390454E+02  0.00000000000E+00 0.  1.
          3   -1    0    0  502    0  0.00000000000E+00 -0.00000000000E+00 -0.64832692373E+03  0.64832692373E+03  0.00000000000E+00 0. -1.
         23    2    1    2    0    0 -0.52344736784E+02 -0.15265184780E+03 -0.21209254863E+03  0.28104535738E+03  0.89222674306E+02 0.  0.
         23    2    1    2    0    0  0.79212922157E+02  0.18626464794E+03 -0.24445190746E+03  0.33277682872E+03  0.10007235664E+03 0.  0.
        -11    1    3    3    0    0  0.11503122516E+02 -0.17672908957E+02 -0.76488038245E+02  0.79341499439E+02  0.00000000000E+00 0. -1.
         11    1    3    3    0    0 -0.63847859300E+02 -0.13497893885E+03 -0.13560451039E+03  0.20170385794E+03  0.00000000000E+00 0.  1.
        -13    1    4    4    0    0  0.71457622131E+02  0.45740482030E+02 -0.84975047500E+02  0.12007973249E+03  0.00000000000E+00 0.  1.
         13    1    4    4    0    0  0.77553000264E+01  0.14052416591E+03 -0.15947685996E+03  0.21269709623E+03  0.00000000000E+00 0. -1.
         21    1    1    2  502  501 -0.26868185373E+02 -0.33612800141E+02 -0.10905207718E+03  0.11723512808E+03  0.00000000000E+00 0. -1.
<scales pt_clust_5="13000.00000" pt_clust_6="13000.00000" pt_clust_7="13000.00000" pt_clust_8="13000.00000" pt_clust_9="43.03161"></scales>
<clustering>
<clus scale="   43.032">  2  9  1 -1</clus>
<clus scale="   89.223">  5  6 -1 -1</clus>
<clus scale="  100.072">  7  8 -1 -1</clus>
<clus scale="  201.048">  1  5  2 -1</clus>
<clus scale="   43.032">  2  5  1 -1</clus>
</clustering>
</event>
<event>
 9    1  0.1435532E-005  0.9092367E+02  0.7546771E-02  0.1302469E+00
         -1   -1    0    0    0  501 -0.00000000000E+00  0.00000000000E+00  0.10018553861E+03  0.10018553861E+03  0.00000000000E+00 0.  1.
          1   -1    0    0  502    0  0.00000000000E+00 -0.00000000000E+00 -0.21434020079E+03  0.21434020079E+03  0.00000000000E+00 0. -1.
         23    2    1    2    0    0 -0.21997815023E+01  0.93488458206E+01  0.51212135912E+02  0.10194893569E+03  0.87627978786E+02 0.  0.
         23    2    1    2    0    0 -0.28498513062E+02  0.89943620151E+01 -0.10120261688E+03  0.13912000885E+03  0.90660594541E+02 0.  0.
        -13    1    4    4    0    0  0.24897184257E+02 -0.10126673163E+02 -0.48467053666E+01  0.27311350135E+02  0.00000000000E+00 0.  1.
         13    1    4    4    0    0 -0.53395697320E+02  0.19121035178E+02 -0.96355911515E+02  0.11180865871E+03  0.00000000000E+00 0. -1.
        -13    1    3    3    0    0 -0.32830900389E+02  0.32538223610E+02  0.41968539033E+02  0.62433663072E+02  0.00000000000E+00 0. -1.
         13    1    3    3    0    0  0.30631118886E+02 -0.23189377790E+02  0.92435968791E+01  0.39515272614E+02  0.00000000000E+00 0.  1.
         21    1    1    2  502  501  0.30698294564E+02 -0.18343207836E+02 -0.64164181203E+02  0.73456794869E+02  0.00000000000E+00 0.  1.
<scales pt_clust_5="13000.00000" pt_clust_6="13000.00000" pt_clust_7="13000.00000" pt_clust_8="13000.00000" pt_clust_9="35.76113"></scales>
<clustering>
<clus scale="   35.761">  2  9  1 -1</clus>
<clus scale="   87.628">  7  8 -1 -1</clus>
<clus scale="   87.900">  1  7  2 -1</clus>
<clus scale="   90.661">  5  6 -1 -1</clus>
<clus scale="   35.761">  2  5  1 -1</clus>
</clustering>
</event>
<event>
 9    1  0.1435532E-005  0.1264332E+03  0.7546771E-02  0.1233932E+00
          1   -1    0    0  502    0  0.00000000000E+00  0.00000000000E+00  0.33595279699E+03  0.33595279699E+03  0.00000000000E+00 0. -1.
         -1   -1    0    0    0  501 -0.00000000000E+00 -0.00000000000E+00 -0.96077516915E+02  0.96077516915E+02  0.00000000000E+00 0.  1.
         23    2    1    2    0    0 -0.52877514310E+02 -0.79282744423E+02 -0.20334496956E+02  0.13143078273E+03  0.88197357107E+02 0.  0.
         23    2    1    2    0    0  0.19581565762E+02  0.54178646892E+02  0.18090809992E+03  0.21100270146E+03  0.92063216912E+02 0.  0.
        -11    1    3    3    0    0 -0.35389821840E+02 -0.61132958903E+02 -0.54327690461E+02  0.89113276817E+02  0.00000000000E+00 0.  1.
         11    1    3    3    0    0 -0.17487692470E+02 -0.18149785519E+02  0.33993193505E+02  0.42317505917E+02  0.00000000000E+00 0. -1.
        -13    1    4    4    0    0 -0.74548354658E+01 -0.23705226421E+02  0.56909183310E+02  0.62098047284E+02  0.00000000000E+00 0.  1.
         13    1    4    4    0    0  0.27036401228E+02  0.77883873313E+02  0.12399891661E+03  0.14890465417E+03  0.00000000000E+00 0. -1.
         21    1    1    2  502  501  0.33295948548E+02  0.25104097530E+02  0.79301677107E+02  0.89596829712E+02  0.00000000000E+00 0. -1.
<scales pt_clust_5="13000.00000" pt_clust_6="13000.00000" pt_clust_7="13000.00000" pt_clust_8="13000.00000" pt_clust_9="41.69935"></scales>
<clustering>
<clus scale="   41.699">  1  9  2 -1</clus>
<clus scale="   88.197">  5  6 -1 -1</clus>
<clus scale="   92.063">  7  8 -1 -1</clus>
<clus scale="  123.647">  2  5  1 -1</clus>
<clus scale="   41.699">  1  5  2 -1</clus>
</clustering>
</event>
<event>
 9    1  0.1435532E-005  0.1198541E+03  0.7546771E-02  0.1243994E+00
         -1   -1    0    0    0  501 -0.00000000000E+00  0.00000000000E+00  0.64224182314E+02  0.64224182314E+02  0.00000000000E+00 0.  1.
          1   -1    0    0  502    0  0.00000000000E+00 -0.00000000000E+00 -0.33896190969E+03  0.33896190969E+03  0.00000000000E+00 0. -1.
         23    2    1    2    0    0 -0.68130597568E+02 -0.76673741848E+01 -0.63104516343E+02  0.12743231034E+03  0.86926674759E+02 0.  0.
         23    2    1    2    0    0  0.10118259643E+03  0.27912733265E+02 -0.17225445164E+03  0.22049985977E+03  0.89059269875E+02 0.  0.
        -11    1    4    4    0    0  0.14039928943E+02  0.34776230949E+02 -0.14622176761E+02  0.40253122822E+02  0.00000000000E+00 0.  1.
         11    1    4    4    0    0  0.87142667486E+02 -0.68634976838E+01 -0.15763227488E+03  0.18024673695E+03  0.00000000000E+00 0. -1.
        -11    1    3    3    0    0 -0.66773792586E+02 -0.35192027373E+02 -0.23253261278E+02  0.78980581962E+02  0.00000000000E+00 0.  1.
         11    1    3    3    0    0 -0.13568049821E+01  0.27524653188E+02 -0.39851255065E+02  0.48451728382E+02  0.00000000000E+00 0. -1.
         21    1    1    2  502  501 -0.33051998861E+02 -0.20245359080E+02 -0.39378759393E+02  0.55253921891E+02  0.00000000000E+00 0.  1.
<scales pt_clust_5="13000.00000" pt_clust_6="13000.00000" pt_clust_7="13000.00000" pt_clust_8="13000.00000" pt_clust_9="38.75963"></scales>
<clustering>
<clus scale="   38.760">  2  9  1 -1</clus>
<clus scale="   86.927">  7  8 -1 -1</clus>
<clus scale="   89.059">  5  6 -1 -1</clus>
<clus scale="  118.278">  1  7  2 -1</clus>
<clus scale="   38.760">  2  5  1 -1</clus>
</clustering>
</event>
<event>
 9    1  0.1435532E-005  0.1397453E+03  0.7546771E-02  0.1220132E+00
          1   -1    0    0  502    0  0.00000000000E+00  0.00000000000E+00  0.29369500069E+03  0.29369500069E+03  0.00000000000E+00 0. -1.
         -1   -1    0    0    0  501 -0.00000000000E+00 -0.00000000000E+00 -0.76605652687E+02  0.76605652687E+02  0.00000000000E+00 0.  1.
         23    2    1    2    0    0  0.75712834942E+02  0.53109673881E+02  0.64646063743E+02  0.14500082415E+03  0.91066210039E+02 0.  0.
         23    2    1    2    0    0 -0.63091186769E+02 -0.22942632172E+02  0.11147178380E+03  0.17287826632E+03  0.11381596621E+03 0.  0.
        -13    1    4    4    0    0  0.13508985251E+01  0.33050862100E+02  0.71152923633E+02  0.78466062434E+02  0.00000000000E+00 0. -1.
         13    1    4    4    0    0 -0.64442085294E+02 -0.55993494273E+02  0.40318860171E+02  0.94412203890E+02  0.00000000000E+00 0.  1.
        -13    1    3    3    0    0  0.48162931411E+02 -0.17560434492E+02  0.11940329651E+02  0.52636568029E+02  0.00000000000E+00 0.  1.
         13    1    3    3    0    0  0.27549903531E+02  0.70670108373E+02  0.52705734092E+02  0.92364256117E+02  0.00000000000E+00 0. -1.
         21    1    1    2  502  501 -0.12621648174E+02 -0.30167041709E+02  0.40971500458E+02  0.52421562909E+02  0.00000000000E+00 0.  1.
<scales pt_clust_5="13000.00000" pt_clust_6="13000.00000" pt_clust_7="13000.00000" pt_clust_8="13000.00000" pt_clust_9="32.70102"></scales>
<clustering>
<clus scale="   32.701">  1  9  2 -1</clus>
<clus scale="   91.066">  7  8 -1 -1</clus>
<clus scale="  113.816">  5  6 -1 -1</clus>
<clus scale="  121.933">  2  7  1 -1</clus>
<clus scale="   32.701">  1  5  2 -1</clus>
</clustering>
</event>
<event>
 9    1  0.1435532E-005  0.9680853E+02  0.7546771E-02  0.1288635E+00
         -2   -1    0    0    0  501 -0.00000000000E+00  0.00000000000E+00  0.19320173124E+02  0.19320173124E+02  0.00000000000E+00 0.  1.
          2   -1    0    0  502    0  0.00000000000E+00 -0.00000000000E+00 -0.68382694166E+03  0.68382694166E+03  0.00000000000E+00 0. -1.
         23    2    1    2    0    0 -0.40845545900E+01  0.36846094878E+02 -0.28643501833E+03  0.30209414563E+03  0.88552440975E+02 0.  0.
         23    2    1    2    0    0  0.26024000703E+02 -0.19948848981E+02 -0.34238947257E+03  0.35588571163E+03  0.91372225707E+02 0.  0.
        -11    1    4    4    0    0  0.42535915510E+02  0.20746233699E+02 -0.23756722258E+03  0.24223520712E+03  0.00000000000E+00 0. -1.
         11    1    4    4    0    0 -0.16511914806E+02 -0.40695082680E+02 -0.10482224999E+03  0.11365050452E+03  0.00000000000E+00 0.  1.
        -11    1    3    3    0    0  0.26642059085E+02 -0.85562924106E+01 -0.35303082477E+02  0.45047942067E+02  0.00000000000E+00 0.  1.
         11    1    3    3    0    0 -0.30726613675E+02  0.45402387288E+02 -0.25113193586E+03  0.25704620356E+03  0.00000000000E+00 0. -1.
         21    1    1    2  502  501 -0.21939446113E+02 -0.16897245897E+02 -0.35682277629E+02  0.45167257516E+02  0.00000000000E+00 0.  1.
<scales pt_clust_5="13000.00000" pt_clust_6="13000.00000" pt_clust_7="13000.00000" pt_clust_8="13000.00000" pt_clust_9="27.69217"></scales>
<clustering>
<clus scale="   27.692">  1  9  2 -1</clus>
<clus scale="   88.552">  7  8 -1 -1</clus>
<clus scale="   91.372">  5  6 -1 -1</clus>
<clus scale="   94.152">  1  7  2 -1</clus>
<clus scale="   96.809">  2  5  1 -1</clus>
</clustering>
</event>
<event>
 9    1  0.1435532E-005  0.9990755E+02  0.7546771E-02  0.1281829E+00
          2   -1    0    0  502    0  0.00000000000E+00  0.00000000000E+00  0.35848145999E+03  0.35848145999E+03  0.00000000000E+00 0. -1.
         -2   -1    0    0    0  501 -0.00000000000E+00 -0.00000000000E+00 -0.47410281098E+02  0.47410281098E+02  0.00000000000E+00 0.  1.
         23    2    1    2    0    0  0.44627278215E+02 -0.42513423844E+01  0.76521353346E+02  0.12977353580E+03  0.94741676168E+02 0.  0.
         23    2    1    2    0    0 -0.17471311602E+02 -0.41051856150E+01  0.94322255308E+02  0.13304112977E+03  0.92093186974E+02 0.  0.
        -11    1    3    3    0    0 -0.30036714957E+02 -0.18546695684E+01  0.20950295428E+02  0.36668227707E+02  0.00000000000E+00 0. -1.
         11    1    3    3    0    0  0.74663993172E+02 -0.23966728160E+01  0.55571057918E+02  0.93105308093E+02  0.00000000000E+00 0.  1.
        -11    1    4    4    0    0 -0.24555306471E+02 -0.43798002112E+02  0.69332189616E+02  0.85604792984E+02  0.00000000000E+00 0.  1.
         11    1    4    4    0    0  0.70839948687E+01  0.39692816497E+02  0.24990065692E+02  0.47436336790E+02  0.00000000000E+00 0. -1.
         21    1    1    2  502  501 -0.27155966613E+02  0.83565279995E+01  0.14022757024E+03  0.14307707552E+03  0.00000000000E+00 0. -1.
<scales pt_clust_5="13000.00000" pt_clust_6="13000.00000" pt_clust_7="13000.00000" pt_clust_8="13000.00000" pt_clust_9="28.41264"></scales>
<clustering>
<clus scale="   28.413">  1  9  2 -1</clus>
<clus scale="   92.093">  7  8 -1 -1</clus>
<clus scale="   94.742">  5  6 -1 -1</clus>
<clus scale="   97.400">  1  7  2 -1</clus>
<clus scale="   28.413">  1  5  2 -1</clus>
</clustering>
</event>
<event>
 9    1  0.1435532E-005  0.1304831E+03  0.7546771E-02  0.1230544E+00
          4   -1    0    0  502    0  0.00000000000E+00  0.00000000000E+00  0.16957472581E+03  0.16957472581E+03  0.00000000000E+00 0. -1.
         -4   -1    0    0    0  501 -0.00000000000E+00 -0.00000000000E+00 -0.16383889928E+03  0.16383889928E+03  0.00000000000E+00 0.  1.
         23    2    1    2    0    0  0.76126719264E+00  0.70282403741E+02 -0.29264100374E+02  0.12080947794E+03  0.93799502061E+02 0.  0.
         23    2    1    2    0    0 -0.23677816317E+02 -0.80333130809E+02 -0.33787606290E+02  0.13940640087E+03  0.10620024187E+03 0.  0.
        -11    1    4    4    0    0 -0.62948225890E+02 -0.50908998078E+02 -0.20837913874E+01  0.80984859169E+02  0.00000000000E+00 0.  1.
         11    1    4    4    0    0  0.39270409573E+02 -0.29424132731E+02 -0.31703814903E+02  0.58421541698E+02  0.00000000000E+00 0. -1.
        -13    1    3    3    0    0 -0.42578878865E+02  0.50703491171E+02 -0.31241773321E+02  0.73211019270E+02  0.00000000000E+00 0.  1.
         13    1    3    3    0    0  0.43340146058E+02  0.19578912570E+02  0.19776729471E+01  0.47598458673E+02  0.00000000000E+00 0. -1.
         21    1    1    2  502  501  0.22916549124E+02  0.10050727068E+02  0.68787533188E+02  0.73197746280E+02  0.00000000000E+00 0. -1.
<scales pt_clust_5="13000.00000" pt_clust_6="13000.00000" pt_clust_7="13000.00000" pt_clust_8="13000.00000" pt_clust_9="25.02370"></scales>
<clustering>
<clus scale="   25.024">  1  9  2 -1</clus>
<clus scale="   93.800">  7  8 -1 -1</clus>
<clus scale="  106.200">  5  6 -1 -1</clus>
<clus scale="  120.606">  2  7  1 -1</clus>
<clus scale="   25.024">  1  5  2 -1</clus>
</clustering>
</event>
<event>
 9    1  0.1435532E-005  0.1206791E+03  0.7546771E-02  0.1242053E+00
          1   -1    0    0  502    0  0.00000000000E+00  0.00000000000E+00  0.43835767766E+03  0.43835767766E+03  0.00000000000E+00 0. -1.
         -1   -1    0    0    0  501 -0.00000000000E+00 -0.00000000000E+00 -0.14086775970E+03  0.14086775970E+03  0.00000000000E+00 0.  1.
         23    2    1    2    0    0 -0.72475426291E+02 -0.25389655924E+02 -0.94446514611E+02  0.15292312347E+03  0.92563575594E+02 0.  0.
         23    2    1    2    0    0  0.68924416694E+02  0.52460209734E+02  0.23428164110E+03  0.26630088319E+03  0.92334306789E+02 0.  0.
        -13    1    3    3    0    0 -0.42258813114E+02  0.43537670363E+01  0.69237223445E+01  0.43043007613E+02  0.00000000000E+00 0. -1.
         13    1    3    3    0    0 -0.30216613177E+02 -0.29743422960E+02 -0.10137023696E+03  0.10988011586E+03  0.00000000000E+00 0.  1.
        -13    1    4    4    0    0  0.23168599120E+02  0.57564569939E+02  0.19855484958E+03  0.20802521959E+03  0.00000000000E+00 0. -1.
         13    1    4    4    0    0  0.45755817574E+02 -0.51043602047E+01  0.35726791521E+02  0.58275663594E+02  0.00000000000E+00 0.  1.
         21    1    1    2  502  501  0.35510095973E+01 -0.27070553810E+02  0.15765479147E+03  0.16000143070E+03  0.00000000000E+00 0.  1.
<scales pt_clust_5="13000.00000" pt_clust_6="13000.00000" pt_clust_7="13000.00000" pt_clust_8="13000.00000" pt_clust_9="27.30246"></scales>
<clustering>
<clus scale="   27.302">  1  9  2 -1</clus>
<clus scale="   92.334">  7  8 -1 -1</clus>
<clus scale="   92.564">  5  6 -1 -1</clus>
<clus scale="  120.503">  1  7  2 -1</clus>
<clus scale="   27.302">  1  5  2 -1</clus>
</clustering>
</event>
<event>
 9    1  0.1435532E-005  0.1493403E+03  0.7546771E-02  0.1202669E+00
         -2   -1    0    0    0  501 -0.00000000000E+00  0.00000000000E+00  0.25376433364E+03  0.25376433364E+03  0.00000000000E+00 0.  1.
          2   -1    0    0  502    0  0.00000000000E+00 -0.00000000000E+00 -0.11627063069E+03  0.11627063069E+03  0.00000000000E+00 0. -1.
         23    2    1    2    0    0 -0.19396669505E+02 -0.13135411054E+03  0.10418842150E+03  0.19504031978E+03  0.97751552524E+02 0.  0.
         23    2    1    2    0    0  0.18778988466E+02  0.87226491490E+02  0.20148256746E+02  0.12894319949E+03  0.90880609699E+02 0.  0.
        -11    1    3    3    0    0  0.24356244649E+02 -0.10421216802E+03  0.43682007277E+02  0.11559204287E+03  0.00000000000E+00 0. -1.
         11    1    3    3    0    0 -0.43752914154E+02 -0.27141942525E+02  0.60506414226E+02  0.79448276907E+02  0.00000000000E+00 0.  1.
        -13    1    4    4    0    0  0.38295355616E+02  0.46953769700E+01  0.21414140350E+02  0.44126479959E+02  0.00000000000E+00 0. -1.
         13    1    4    4    0    0 -0.19516367150E+02  0.82531114520E+02 -0.12658836047E+01  0.84816719531E+02  0.00000000000E+00 0.  1.
         21    1    1    2  502  501  0.61768103913E+00  0.44127619051E+02  0.13157024699E+02  0.46051445057E+02  0.00000000000E+00 0.  1.
<scales pt_clust_5="13000.00000" pt_clust_6="13000.00000" pt_clust_7="13000.00000" pt_clust_8="13000.00000" pt_clust_9="44.13194"></scales>
<clustering>
<clus scale="   44.132">  2  9  1 -1</clus>
<clus scale="   90.881">  7  8 -1 -1</clus>
<clus scale="   97.752">  5  6 -1 -1</clus>
<clus scale="  144.936">  2  7  1 -1</clus>
<clus scale="   44.132">  2  5  1 -1</clus>
</clustering>
</event>
<event>
 9    1  0.1435532E-005  0.1046622E+03  0.7546771E-02  0.1271554E+00
         -1   -1    0    0    0  501 -0.00000000000E+00  0.00000000000E+00  0.24830507961E+02  0.24830507961E+02  0.00000000000E+00 0.  1.
          1   -1    0    0  502    0  0.00000000000E+00 -0.00000000000E+00 -0.76395332648E+03  0.76395332648E+03  0.00000000000E+00 0. -1.
         23    2    1    2    0    0  0.22627141161E+02  0.37210824805E+02 -0.18921217688E+03  0.21460218922E+03  0.91412355519E+02 0.  0.
         23    2    1    2    0    0 -0.68267265694E+02 -0.24176280308E+02 -0.34103596450E+03  0.35998185280E+03  0.89646490013E+02 0.  0.
        -11    1    3    3    0    0  0.44335735880E+02 -0.13142107930E+02 -0.92976945739E+02  0.10384163383E+03  0.00000000000E+00 0. -1.
         11    1    3    3    0    0 -0.21708594720E+02  0.50352932735E+02 -0.96235231137E+02  0.11076055540E+03  0.00000000000E+00 0.  1.
        -13    1    4    4    0    0 -0.14212678528E+02 -0.38209875304E+02 -0.54534878031E+02  0.68088528575E+02  0.00000000000E+00 0. -1.
         13    1    4    4    0    0 -0.54054587166E+02  0.14033594995E+02 -0.28650108647E+03  0.29189332423E+03  0.00000000000E+00 0.  1.
         21    1    1    2  502  501  0.45640124533E+02 -0.13034544497E+02 -0.20887467714E+03  0.21419979241E+03  0.00000000000E+00 0. -1.
<scales pt_clust_5="13000.00000" pt_clust_6="13000.00000" pt_clust_7="13000.00000" pt_clust_8="13000.00000" pt_clust_9="47.46494"></scales>
<clustering>
<clus scale="   47.465">  2  9  1 -1</clus>
<clus scale="   89.646">  7  8 -1 -1</clus>
<clus scale="   91.412">  5  6 -1 -1</clus>
<clus scale="  103.123">  2  7  1 -1</clus>
<clus scale="   47.465">  2  5  1 -1</clus>
</clustering>
</event>
<event>
 9    1  0.1435532E-005  0.1072876E+03  0.7546771E-02  0.1266251E+00
         -2   -1    0    0    0  501 -0.00000000000E+00  0.00000000000E+00  0.34118307600E+02  0.34118307600E+02  0.00000000000E+00 0.  1.
          2   -1    0    0  502    0  0.00000000000E+00 -0.00000000000E+00 -0.47473023107E+03  0.47473023107E+03  0.00000000000E+00 0. -1.
         23    2    1    2    0    0  0.32427304645E+02 -0.33984254745E+02 -0.12761704900E+03  0.16308941461E+03  0.90031029678E+02 0.  0.
         23    2    1    2    0    0 -0.43295760059E+02  0.55222389652E+02 -0.20517655509E+03  0.23533280613E+03  0.91433449704E+02 0.  0.
        -11    1    4    4    0    0  0.23170013402E+02  0.12291231187E+02 -0.17154796038E+02  0.31340244291E+02  0.00000000000E+00 0.  1.
         11    1    4    4    0    0 -0.66465773460E+02  0.42931158465E+02 -0.18802175905E+03  0.20399256184E+03  0.00000000000E+00 0. -1.
        -11    1    3    3    0    0  0.56595705178E+02 -0.10588721007E+02 -0.42492243172E+02  0.71559664525E+02  0.00000000000E+00 0.  1.
         11    1    3    3    0    0 -0.24168400534E+02 -0.23395533737E+02 -0.85124805824E+02  0.91529750080E+02  0.00000000000E+00 0. -1.
         21    1    1    2  502  501  0.10868455414E+02 -0.21238134907E+02 -0.10781831939E+03  0.11042631794E+03  0.00000000000E+00 0. -1.
<scales pt_clust_5="13000.00000" pt_clust_6="13000.00000" pt_clust_7="13000.00000" pt_clust_8="13000.00000" pt_clust_9="23.85753"></scales>
<clustering>
<clus scale="   23.858">  2  9  1 -1</clus>
<clus scale="   90.031">  7  8 -1 -1</clus>
<clus scale="   91.433">  5  6 -1 -1</clus>
<clus scale="  106.095">  1  7  2 -1</clus>
<clus scale="   23.858">  2  5  1 -1</clus>
</clustering>
</event>
<event>
 9    1  0.1435532E-005  0.2031750E+03  0.7546771E-02  0.1147437E+00
         -1   -1    0    0    0  501 -0.00000000000E+00  0.00000000000E+00  0.11252742838E+04  0.11252742838E+04  0.00000000000E+00 0.  1.
          1   -1    0    0  502    0  0.00000000000E+00 -0.00000000000E+00 -0.52600084293E+02  0.52600084293E+02  0.00000000000E+00 0. -1.
         23    2    1    2    0    0  0.13883698657E+03  0.10555239685E+03  0.76202562622E+03  0.78744657415E+03  0.94720825671E+02 0.  0.
         23    2    1    2    0    0 -0.15344474989E+03 -0.11935347999E+03  0.29559911869E+03  0.36532116677E+03  0.91050378723E+02 0.  0.
        -13    1    3    3    0    0  0.96284797574E+02  0.93529190704E+02  0.68996184417E+03  0.70289815633E+03  0.00000000000E+00 0.  1.
         13    1    3    3    0    0  0.42552188993E+02  0.12023206142E+02  0.72063782047E+02  0.84548417826E+02  0.00000000000E+00 0. -1.
        -13    1    4    4    0    0 -0.48724815998E+02 -0.94869211805E+02  0.15926341833E+03  0.19167449350E+03  0.00000000000E+00 0. -1.
         13    1    4    4    0    0 -0.10471993389E+03 -0.24484268181E+02  0.13633570036E+03  0.17364667326E+03  0.00000000000E+00 0.  1.
         21    1    1    2  502  501  0.14607763324E+02  0.13801083139E+02  0.15049454650E+02  0.25106627221E+02  0.00000000000E+00 0.  1.
<scales pt_clust_5="13000.00000" pt_clust_6="13000.00000" pt_clust_7="13000.00000" pt_clust_8="13000.00000" pt_clust_9="20.09618"></scales>
<clustering>
<clus scale="   20.096">  2  9  1 -1</clus>
<clus scale="   91.050">  7  8 -1 -1</clus>
<clus scale="   94.721">  5  6 -1 -1</clus>
<clus scale="  201.490">  2  7  1 -1</clus>
<clus scale="   20.096">  2  5  1 -1</clus>
</clustering>
</event>
<event>
 9    1  0.1435532E-005  0.9336840E+02  0.7546771E-02  0.1295391E+00
         -2   -1    0    0    0  501 -0.00000000000E+00  0.00000000000E+00  0.23201191616E+02  0.23201191616E+02  0.00000000000E+00 0.  1.
          2   -1    0    0  502    0  0.00000000000E+00 -0.00000000000E+00 -0.56760782488E+03  0.56760782488E+03  0.00000000000E+00 0. -1.
         23    2    1    2    0    0 -0.11972531564E+01  0.13909788165E+02 -0.13333323227E+03  0.16222891666E+03  0.91354008943E+02 0.  0.
         23    2    1    2    0    0 -0.15936192841E+02 -0.28727739023E+02 -0.29466702497E+03  0.30999017186E+03  0.90476548417E+02 0.  0.
        -11    1    4    4    0    0  0.11019070170E+02  0.29150354608E+02 -0.12133070966E+03  0.12526892747E+03  0.00000000000E+00 0. -1.
         11    1    4    4    0    0 -0.26955263011E+02 -0.57878093630E+02 -0.17333631531E+03  0.18472124439E+03  0.00000000000E+00 0.  1.
        -13    1    3    3    0    0  0.12734914957E+02 -0.22399988747E+02 -0.26749816773E+01  0.25905464324E+02  0.00000000000E+00 0.  1.
         13    1    3    3    0    0 -0.13932168114E+02  0.36309776912E+02 -0.13065825060E+03  0.13632345233E+03  0.00000000000E+00 0. -1.
         21    1    1    2  502  501  0.17133445997E+02  0.14817950858E+02 -0.11640637602E+03  0.11858992798E+03  0.00000000000E+00 0.  1.
<scales pt_clust_5="13000.00000" pt_clust_6="13000.00000" pt_clust_7="13000.00000" pt_clust_8="13000.00000" pt_clust_9="22.65230"></scales>
<clustering>
<clus scale="   22.652">  2  9  1 -1</clus>
<clus scale="   90.477">  5  6 -1 -1</clus>
<clus scale="   91.354">  7  8 -1 -1</clus>
<clus scale="   92.510">  2  5  1 -1</clus>
<clus scale="   22.652">  2  5  1 -1</clus>
</clustering>
</event>
<event>
 9    1  0.1435532E-005  0.1019635E+03  0.7546771E-02  0.1279532E+00
          2   -1    0    0  502    0  0.00000000000E+00  0.00000000000E+00  0.15989708156E+03  0.15989708156E+03  0.00000000000E+00 0. -1.
         -2   -1    0    0    0  501 -0.00000000000E+00 -0.00000000000E+00 -0.13483081349E+03  0.13483081349E+03  0.00000000000E+00 0.  1.
         23    2    1    2    0    0  0.23491251063E+02 -0.18989605398E+02 -0.79122276198E+02  0.12338404715E+03  0.89726498378E+02 0.  0.
         23    2    1    2    0    0 -0.48560817122E+02  0.14180833591E+02  0.73046121830E+02  0.13107651741E+03  0.96364249088E+02 0.  0.
        -11    1    3    3    0    0 -0.31639024205E+02 -0.20496649080E+02 -0.44259373373E+02  0.58138047848E+02  0.00000000000E+00 0.  1.
         11    1    3    3    0    0  0.55130275268E+02  0.15070436825E+01 -0.34862902825E+02  0.65245999304E+02  0.00000000000E+00 0. -1.
        -13    1    4    4    0    0  0.33978101287E+01 -0.34109233109E+02  0.88397500157E+01  0.35399520863E+02  0.00000000000E+00 0. -1.
         13    1    4    4    0    0 -0.51958627251E+02  0.48290066700E+02  0.64206371815E+02  0.95676996552E+02  0.00000000000E+00 0.  1.
         21    1    1    2  502  501  0.25069566058E+02  0.48087718070E+01  0.31142422441E+02  0.40267330482E+02  0.00000000000E+00 0. -1.
<scales pt_clust_5="13000.00000" pt_clust_6="13000.00000" pt_clust_7="13000.00000" pt_clust_8="13000.00000" pt_clust_9="25.52660"></scales>
<clustering>
<clus scale="   25.527">  1  9  2 -1</clus>
<clus scale="   89.726">  5  6 -1 -1</clus>
<clus scale="   95.715">  2  5  1 -1</clus>
<clus scale="   96.364">  7  8 -1 -1</clus>
<clus scale="   25.527">  1  5  2 -1</clus>
</clustering>
</event>
<event>
 9    1  0.1435532E-005  0.1451627E+03  0.7546771E-02  0.1206552E+00
         -1   -1    0    0    0  501 -0.00000000000E+00  0.00000000000E+00  0.10148935885E+03  0.10148935885E+03  0.00000000000E+00 0.  1.
          1   -1    0    0  502    0  0.00000000000E+00 -0.00000000000E+00 -0.34483029298E+03  0.34483029298E+03  0.00000000000E+00 0. -1.
         23    2    1    2    0    0 -0.89179357490E+02 -0.62339663953E+02  0.49569303384E+00  0.14216470850E+03  0.91495175424E+02 0.  0.
         23    2    1    2    0    0  0.93467431026E+02  0.86109831252E+02 -0.22150669715E+03  0.27126065503E+03  0.91466181661E+02 0.  0.
        -13    1    3    3    0    0 -0.19720532512E+02  0.11943786801E+02  0.28522175641E+02  0.36675168016E+02  0.00000000000E+00 0.  1.
         13    1    3    3    0    0 -0.69458824978E+02 -0.74283450754E+02 -0.28026482607E+02  0.10548954048E+03  0.00000000000E+00 0. -1.
        -13    1    4    4    0    0  0.33605132062E+01  0.45018230021E+02 -0.12532388562E+03  0.13320664545E+03  0.00000000000E+00 0.  1.
         13    1    4    4    0    0  0.90106917820E+02  0.41091601231E+02 -0.96182811524E+02  0.13805400959E+03  0.00000000000E+00 0. -1.
         21    1    1    2  502  501 -0.42880735364E+01 -0.23770167299E+02 -0.22329930012E+02  0.32894288295E+02  0.00000000000E+00 0. -1.
<scales pt_clust_5="13000.00000" pt_clust_6="13000.00000" pt_clust_7="13000.00000" pt_clust_8="13000.00000" pt_clust_9="24.15385"></scales>
<clustering>
<clus scale="   24.154">  2  9  1 -1</clus>
<clus scale="   91.466">  7  8 -1 -1</clus>
<clus scale="   91.495">  5  6 -1 -1</clus>
<clus scale="  145.144">  2  7  1 -1</clus>
<clus scale="   24.154">  2  5  1 -1</clus>
</clustering>
</event>
<event>
 9    1  0.1435532E-005  0.1323316E+03  0.7546771E-02  0.1224075E+00
          2   -1    0    0  502    0  0.00000000000E+00  0.00000000000E+00  0.30315807252E+02  0.30315807252E+02  0.00000000000E+00 0. -1.
         -2   -1    0    0    0  501 -0.00000000000E+00 -0.00000000000E+00 -0.14655542221E+04  0.14655542221E+04  0.00000000000E+00 0.  1.
         23    2    1    2    0    0 -0.52173226436E+01  0.57215979169E+02 -0.43849006574E+03  0.45143761747E+03  0.90672465400E+02 0.  0.
         23    2    1    2    0    0  0.30910295222E+02 -0.14343107468E+03 -0.88148861748E+03  0.89822031503E+03  0.90827485149E+02 0.  0.
        -11    1    4    4    0    0  0.62662232756E+02 -0.10554688226E+03 -0.65471029964E+03  0.66611731416E+03  0.00000000000E+00 0.  1.
         11    1    4    4    0    0 -0.31751937534E+02 -0.37884192424E+02 -0.22677831783E+03  0.23210300087E+03  0.00000000000E+00 0. -1.
        -13    1    3    3    0    0  0.69757542046E+01  0.73440318277E+02 -0.40924117831E+03  0.41583708772E+03  0.00000000000E+00 0. -1.
         13    1    3    3    0    0 -0.12193076848E+02 -0.16224339108E+02 -0.29248887429E+02  0.35600529748E+02  0.00000000000E+00 0.  1.
         21    1    1    2  502  501 -0.25692972579E+02  0.86215095512E+02 -0.11525973168E+03  0.14621209690E+03  0.00000000000E+00 0. -1.
<scales pt_clust_5="13000.00000" pt_clust_6="13000.00000" pt_clust_7="13000.00000" pt_clust_8="13000.00000" pt_clust_9="89.96206"></scales>
<clustering>
<clus scale="   89.962">  1  9  2 -1</clus>
<clus scale="   90.672">  7  8 -1 -1</clus>
<clus scale="   90.827">  5  6 -1 -1</clus>
<clus scale="  132.225">  2  7  1 -1</clus>
<clus scale="   89.962">  1  5  2 -1</clus>
</clustering>
</event>
<event>
 9    1  0.1435532E-005  0.1252077E+03  0.7546771E-02  0.1241149E+00
         -1   -1    0    0    0  501 -0.00000000000E+00  0.00000000000E+00  0.16551361354E+03  0.16551361354E+03  0.00000000000E+00 0.  1.
          1   -1    0    0  502    0  0.00000000000E+00 -0.00000000000E+00 -0.13035608918E+03  0.13035608918E+03  0.00000000000E+00 0. -1.
         23    2    1    2    0    0 -0.41452537884E+02  0.43159427776E+02  0.56928908184E+02  0.12744741917E+03  0.97061294881E+02 0.  0.
         23    2    1    2    0    0  0.38323956005E+02 -0.15556632465E+02  0.15036412604E+02  0.12230811857E+03  0.11411593993E+03 0.  0.
        -11    1    3    3    0    0  0.31010699437E+02  0.20723380111E+02  0.26311529341E+02  0.45644479831E+02  0.00000000000E+00 0. -1.
         11    1    3    3    0    0 -0.72463237321E+02  0.22436047666E+02  0.30617378843E+02  0.81802939343E+02  0.00000000000E+00 0.  1.
        -11    1    4    4    0    0  0.36712090514E+01  0.47833351171E+02 -0.22451142964E+01  0.48026532233E+02  0.00000000000E+00 0.  1.
         11    1    4    4    0    0  0.34652746953E+02 -0.63389983636E+02  0.17281526901E+02  0.74281586337E+02  0.00000000000E+00 0. -1.
         21    1    1    2  502  501  0.31285818793E+01 -0.27602795312E+02 -0.36807796430E+02  0.46114164978E+02  0.00000000000E+00 0.  1.
<scales pt_clust_5="13000.00000" pt_clust_6="13000.00000" pt_clust_7="13000.00000" pt_clust_8="13000.00000" pt_clust_9="27.77953"></scales>
<clustering>
<clus scale="   27.780">  2  9  1 -1</clus>
<clus scale="   97.061">  5  6 -1 -1</clus>
<clus scale="  109.888">  1  5  2 -1</clus>
<clus scale="  114.116">  7  8 -1 -1</clus>
<clus scale="   27.780">  2  5  1 -1</clus>
</clustering>
</event>
<event>
 9    1  0.1435532E-005  0.9136901E+02  0.7546771E-02  0.1300079E+00
         -1   -1    0    0    0  501 -0.00000000000E+00  0.00000000000E+00  0.41604548905E+02  0.41604548905E+02  0.00000000000E+00 0.  1.
          1   -1    0    0  502    0  0.00000000000E+00 -0.00000000000E+00 -0.38938979938E+03  0.38938979938E+03  0.00000000000E+00 0. -1.
         23    2    1    2    0    0 -0.16442003697E+02 -0.17501658437E+01 -0.84279426070E+02  0.12506412897E+03  0.90909912162E+02 0.  0.
         23    2    1    2    0    0 -0.36122348380E+02  0.17894366683E+02 -0.14621341473E+03  0.17638811922E+03  0.90052060187E+02 0.  0.
        -11    1    4    4    0    0 -0.21110339189E+02 -0.22295344853E+02 -0.12464254899E+03  0.12836858588E+03  0.00000000000E+00 0.  1.
         11    1    4    4    0    0 -0.15012009192E+02  0.40189711537E+02 -0.21570865741E+02  0.48019533340E+02  0.00000000000E+00 0. -1.
        -13    1    3    3    0    0 -0.44262972416E+02  0.44373504116E+01 -0.85668304964E+02  0.96529577235E+02  0.00000000000E+00 0.  1.
         13    1    3    3    0    0  0.27820968719E+02 -0.61875162553E+01  0.13888788942E+01  0.28534551731E+02  0.00000000000E+00 0. -1.
         21    1    1    2  502  501  0.52564352077E+02 -0.16144200840E+02 -0.11729240967E+03  0.12954210010E+03  0.00000000000E+00 0. -1.
<scales pt_clust_5="13000.00000" pt_clust_6="13000.00000" pt_clust_7="13000.00000" pt_clust_8="13000.00000" pt_clust_9="54.98769"></scales>
<clustering>
<clus scale="   54.988">  2  9  1 -1</clus>
<clus scale="   90.052">  5  6 -1 -1</clus>
<clus scale="   90.516">  2  5  1 -1</clus>
<clus scale="   90.910">  7  8 -1 -1</clus>
<clus scale="   54.988">  2  5  1 -1</clus>
</clustering>
</event>
<event>
 9    1  0.1435532E-005  0.9218092E+02  0.7546771E-02  0.1299840E+00
          2   -1    0    0  502    0  0.00000000000E+00  0.00000000000E+00  0.39436008528E+03  0.39436008528E+03  0.00000000000E+00 0. -1.
         -2   -1    0    0    0  501 -0.00000000000E+00 -0.00000000000E+00 -0.19476695777E+03  0.19476695777E+03  0.00000000000E+00 0.  1.
         23    2    1    2    0    0 -0.44212973219E+01 -0.98855068029E+01 -0.16184817730E+03  0.18602688507E+03  0.91070842528E+02 0.  0.
         23    2    1    2    0    0  0.23264114598E+02  0.66840466095E+02  0.18238518544E+03  0.21426156809E+03  0.87377324039E+02 0.  0.
        -11    1    3    3    0    0 -0.33837817176E+02  0.22292586468E+02 -0.41396270444E+02  0.57927614221E+02  0.00000000000E+00 0.  1.
         11    1    3    3    0    0  0.29416519854E+02 -0.32178093271E+02 -0.12045190685E+03  0.12809927085E+03  0.00000000000E+00 0. -1.
        -13    1    4    4    0    0  0.21217665989E+02 -0.15001685415E+02  0.74014765347E+02  0.78443772250E+02  0.00000000000E+00 0. -1.
         13    1    4    4    0    0  0.20464486088E+01  0.81842151510E+02  0.10837042010E+03  0.13581779584E+03  0.00000000000E+00 0.  1.
         21    1    1    2  502  501 -0.18842817276E+02 -0.56954959292E+02  0.17905611937E+03  0.18883858990E+03  0.00000000000E+00 0. -1.
<scales pt_clust_5="13000.00000" pt_clust_6="13000.00000" pt_clust_7="13000.00000" pt_clust_8="13000.00000" pt_clust_9="59.99099"></scales>
<clustering>
<clus scale="   59.991">  1  9  2 -1</clus>
<clus scale="   87.377">  7  8 -1 -1</clus>
<clus scale="   88.534">  1  7  2 -1</clus>
<clus scale="   91.071">  5  6 -1 -1</clus>
<clus scale="   59.991">  1  5  2 -1</clus>
</clustering>
</event>
<event>
 9    1  0.1435532E-005  0.9652997E+02  0.7546771E-02  0.1289055E+00
          1   -1    0    0  502    0  0.00000000000E+00  0.00000000000E+00  0.98183268569E+02  0.98183268569E+02  0.00000000000E+00 0. -1.
         -1   -1    0    0    0  501 -0.00000000000E+00 -0.00000000000E+00 -0.32343944095E+03  0.32343944095E+03  0.00000000000E+00 0.  1.
         23    2    1    2    0    0  0.16545555365E+02 -0.22163322733E+02 -0.19197179473E+03  0.21278832717E+03  0.87525618726E+02 0.  0.
         23    2    1    2    0    0  0.21820800426E+02  0.72876929945E+02 -0.68331519745E+02  0.13622481423E+03  0.90004495285E+02 0.  0.
        -13    1    3    3    0    0  0.15877305946E+02  0.29213544273E+02 -0.11889129657E+03  0.12345306968E+03  0.00000000000E+00 0.  1.
         13    1    3    3    0    0  0.66824941909E+00 -0.51376867006E+02 -0.73080498160E+02  0.89335257496E+02  0.00000000000E+00 0. -1.
        -13    1    4    4    0    0  0.47781438260E+02  0.68075633373E+02 -0.71441416307E+02  0.10964138664E+03  0.00000000000E+00 0.  1.
         13    1    4    4    0    0 -0.25960637833E+02  0.48012965717E+01  0.31098965623E+01  0.26583427584E+02  0.00000000000E+00 0. -1.
         21    1    1    2  502  501 -0.38366355792E+02 -0.50713607212E+02  0.35047142093E+02  0.72609568116E+02  0.00000000000E+00 0. -1.
<scales pt_clust_5="13000.00000" pt_clust_6="13000.00000" pt_clust_7="13000.00000" pt_clust_8="13000.00000" pt_clust_9="63.59125"></scales>
<clustering>
<clus scale="   63.591">  1  9  2 -1</clus>
<clus scale="   87.526">  5  6 -1 -1</clus>
<clus scale="   90.004">  7  8 -1 -1</clus>
<clus scale="   94.223">  2  5  1 -1</clus>
<clus scale="   63.591">  1  5  2 -1</clus>
</clustering>
</event>
<event>
 9    1  0.1435532E-005  0.1083071E+03  0.7546771E-02  0.1263756E+00
          1   -1    0    0  502    0  0.00000000000E+00  0.00000000000E+00  0.85251849319E+02  0.85251849319E+02  0.00000000000E+00 0. -1.
         -1   -1    0    0    0  501 -0.00000000000E+00 -0.00000000000E+00 -0.33011064113E+03  0.33011064113E+03  0.00000000000E+00 0.  1.
         23    2    1    2    0    0  0.24072591097E+02  0.42538852581E+02 -0.15804848831E+03  0.18842855393E+03  0.90205053387E+02 0.  0.
         23    2    1    2    0    0 -0.54999762162E+02 -0.56064390753E+02 -0.12701357327E+03  0.17443886062E+03  0.90156966177E+02 0.  0.
        -11    1    4    4    0    0 -0.15671385684E+02 -0.73087289488E+02 -0.64992052449E+02  0.99052062551E+02  0.00000000000E+00 0. -1.
         11    1    4    4    0    0 -0.39328376478E+02  0.17022898735E+02 -0.62021520821E+02  0.75386798067E+02  0.00000000000E+00 0.  1.
        -11    1    3    3    0    0  0.18994752590E+01  0.67919753669E+02 -0.93113070354E+02  0.11526814311E+03  0.00000000000E+00 0.  1.
         11    1    3    3    0    0  0.22173115838E+02 -0.25380901088E+02 -0.64935417960E+02  0.73160410822E+02  0.00000000000E+00 0. -1.
         21    1    1    2  502  501  0.30927171065E+02  0.13525538172E+02  0.40203269777E+02  0.52495075899E+02  0.00000000000E+00 0. -1.
<scales pt_clust_5="13000.00000" pt_clust_6="13000.00000" pt_clust_7="13000.00000" pt_clust_8="13000.00000" pt_clust_9="33.75545"></scales>
<clustering>
<clus scale="   33.755">  1  9  2 -1</clus>
<clus scale="   90.157">  5  6 -1 -1</clus>
<clus scale="   90.205">  7  8 -1 -1</clus>
<clus scale="  108.267">  1  5  2 -1</clus>
<clus scale="   33.755">  1  5  2 -1</clus>
</clustering>
</event>
<event>
 9    1  0.1435532E-005  0.1050240E+03  0.7546771E-02  0.1275065E+00
         -1   -1    0    0    0  501 -0.00000000000E+00  0.00000000000E+00  0.12451694089E+03  0.12451694089E+03  0.00000000000E+00 0.  1.
          1   -1    0    0  502    0  0.00000000000E+00 -0.00000000000E+00 -0.33410110489E+03  0.33410110489E+03  0.00000000000E+00 0. -1.
         23    2    1    2    0    0  0.46731595810E+02  0.95019503357E+01  0.83615497075E+02  0.13325643137E+03  0.92149856453E+02 0.  0.
         23    2    1    2    0    0 -0.76056032996E+02 -0.72752817521E+01 -0.22317372584E+03  0.24941089173E+03  0.81005130262E+02 0.  0.
        -11    1    4    4    0    0 -0.26916971305E+02  0.21493025428E+02 -0.23302541599E+02  0.41587040424E+02  0.00000000000E+00 0. -1.
         11    1    4    4    0    0 -0.49139061691E+02 -0.28768307180E+02 -0.19987118424E+03  0.20782385130E+03  0.00000000000E+00 0.  1.
        -13    1    3    3    0    0  0.46659596473E+02 -0.20181615519E+02  0.72839182981E+01  0.51356314254E+02  0.00000000000E+00 0. -1.
         13    1    3    3    0    0  0.71999337248E-01  0.29683565855E+02  0.76331578777E+02  0.81900117120E+02  0.00000000000E+00 0.  1.
         21    1    1    2  502  501  0.29324437186E+02 -0.22266685836E+01 -0.70025935235E+02  0.75950722675E+02  0.00000000000E+00 0.  1.
<scales pt_clust_5="13000.00000" pt_clust_6="13000.00000" pt_clust_7="13000.00000" pt_clust_8="13000.00000" pt_clust_9="29.40885"></scales>
<clustering>
<clus scale="   29.409">  2  9  1 -1</clus>
<clus scale="   81.005">  5  6 -1 -1</clus>
<clus scale="   92.150">  7  8 -1 -1</clus>
<clus scale="   95.395">  2  5  1 -1</clus>
<clus scale="   29.409">  2  5  1 -1</clus>
</clustering>
</event>
<event>
 9    1  0.1435532E-005  0.9752002E+02  0.7546771E-02  0.1286947E+00
         -1   -1    0    0    0  501 -0.00000000000E+00  0.00000000000E+00  0.12375015367E+03  0.12375015367E+03  0.00000000000E+00 0.  1.
          1   -1    0    0  502    0  0.00000000000E+00 -0.00000000000E+00 -0.15633288396E+03  0.15633288396E+03  0.00000000000E+00 0. -1.
         23    2    1    2    0    0 -0.78355432142E+01 -0.17619478089E+02  0.50157630973E+02  0.10853815721E+03  0.94302183856E+02 0.  0.
         23    2    1    2    0    0 -0.71994930717E+01  0.39118920113E+02 -0.17915160833E+02  0.10161216323E+03  0.91771216173E+02 0.  0.
        -11    1    4    4    0    0  0.13018063741E+02  0.65025266581E+02 -0.18132249317E+02  0.68749790856E+02  0.00000000000E+00 0.  1.
         11    1    4    4    0    0 -0.20217556813E+02 -0.25906346468E+02  0.21708848369E+00  0.32862372376E+02  0.00000000000E+00 0. -1.
        -11    1    3    3    0    0 -0.49876340635E+02 -0.44369536313E+01  0.37919223858E+02  0.62810854561E+02  0.00000000000E+00 0.  1.
         11    1    3    3    0    0  0.42040797421E+02 -0.13182524458E+02  0.12238407115E+02  0.45727302649E+02  0.00000000000E+00 0. -1.
         21    1    1    2  502  501  0.15035036286E+02 -0.21499442024E+02 -0.64825200422E+02  0.69932717187E+02  0.00000000000E+00 0. -1.
<scales pt_clust_5="13000.00000" pt_clust_6="13000.00000" pt_clust_7="13000.00000" pt_clust_8="13000.00000" pt_clust_9="26.23506"></scales>
<clustering>
<clus scale="   26.235">  2  9  1 -1</clus>
<clus scale="   91.771">  5  6 -1 -1</clus>
<clus scale="   94.302">  7  8 -1 -1</clus>
<clus scale="   95.075">  2  5  1 -1</clus>
<clus scale="   26.235">  2  5  1 -1</clus>
</clustering>
</event>
<event>
 9    1  0.1435532E-005  0.1241300E+03  0.7546771E-02  0.1236658E+00
         -1   -1    0    0    0  501 -0.00000000000E+00  0.00000000000E+00  0.14525473786E+03  0.14525473786E+03  0.00000000000E+00 0.  1.
          1   -1    0    0  502    0  0.00000000000E+00 -0.00000000000E+00 -0.50158899227E+03  0.50158899227E+03  0.00000000000E+00 0. -1.
         23    2    1    2    0    0  0.67004161116E+02  0.55040269656E+02  0.10085372068E+03  0.16129296840E+03  0.91241217605E+02 0.  0.
         23    2    1    2    0    0 -0.34023425485E+02 -0.58045669684E+02 -0.23206129809E+03  0.25800124614E+03  0.90472668182E+02 0.  0.
        -11    1    3    3    0    0  0.89560539329E+02  0.45255089367E+02  0.72692080101E+02  0.12390823955E+03  0.00000000000E+00 0.  1.
         11    1    3    3    0    0 -0.22556378213E+02  0.97851802887E+01  0.28161640576E+02  0.37384728851E+02  0.00000000000E+00 0. -1.
        -13    1    4    4    0    0 -0.65119125020E+02 -0.44242612543E+02 -0.16209272285E+03  0.18019977805E+03  0.00000000000E+00 0. -1.
         13    1    4    4    0    0  0.31095699535E+02 -0.13803057141E+02 -0.69968575236E+02  0.77801468087E+02  0.00000000000E+00 0.  1.
         21    1    1    2  502  501 -0.32980735631E+02  0.30054000281E+01 -0.22512667700E+03  0.22754951560E+03  0.00000000000E+00 0. -1.
<scales pt_clust_5="13000.00000" pt_clust_6="13000.00000" pt_clust_7="13000.00000" pt_clust_8="13000.00000" pt_clust_9="33.11739"></scales>
<clustering>
<clus scale="   33.117">  2  9  1 -1</clus>
<clus scale="   90.473">  7  8 -1 -1</clus>
<clus scale="   91.241">  5  6 -1 -1</clus>
<clus scale="  123.566">  2  7  1 -1</clus>
<clus scale="   33.117">  2  5  1 -1</clus>
</clustering>
</event>
<event>
 9    1  0.1435532E-005  0.1298019E+03  0.7546771E-02  0.1235148E+00
         -3   -1    0    0    0  501 -0.00000000000E+00  0.00000000000E+00  0.49642631680E+03  0.49642631680E+03  0.00000000000E+00 0.  1.
          3   -1    0    0  502    0  0.00000000000E+00 -0.00000000000E+00 -0.41519776893E+02  0.41519776893E+02  0.00000000000E+00 0. -1.
         23    2    1    2    0    0 -0.45021205152E+02  0.59164011659E+02  0.27135737929E+03  0.29565248960E+03  0.90820031506E+02 0.  0.
         23    2    1    2    0    0  0.48758435126E+02 -0.35688520527E+02  0.12346310478E+03  0.17767627145E+03  0.11258180892E+03 0.  0.
        -11    1    4    4    0    0  0.30641252715E+02 -0.76853700962E+02  0.77371865036E+02  0.11327746121E+03  0.00000000000E+00 0. -1.
         11    1    4    4    0    0  0.18117182411E+02  0.41165180435E+02  0.46091239740E+02  0.64398810233E+02  0.00000000000E+00 0.  1.
        -13    1    3    3    0    0 -0.38551883692E+02 -0.15836719099E+02  0.85111697942E+02  0.94768404727E+02  0.00000000000E+00 0.  1.
         13    1    3    3    0    0 -0.64693214594E+01  0.75000730758E+02  0.18624568134E+03  0.20088408487E+03  0.00000000000E+00 0. -1.
         21    1    1    2  502  501 -0.37372299744E+01 -0.23475491132E+02  0.60086055850E+02  0.64617332655E+02  0.00000000000E+00 0. -1.
<scales pt_clust_5="13000.00000" pt_clust_6="13000.00000" pt_clust_7="13000.00000" pt_clust_8="13000.00000" pt_clust_9="23.77111"></scales>
<clustering>
<clus scale="   23.771">  1  9  2 -1</clus>
<clus scale="   90.820">  7  8 -1 -1</clus>
<clus scale="  111.455">  1  7  2 -1</clus>
<clus scale="  112.582">  5  6 -1 -1</clus>
<clus scale="  129.802">  2  5  1 -1</clus>
</clustering>
</event>
<event>
 9    1  0.1435532E-005  0.1276696E+03  0.7546771E-02  0.1231691E+00
         -2   -1    0    0    0  501 -0.00000000000E+00  0.00000000000E+00  0.42048679862E+03  0.42048679862E+03  0.00000000000E+00 0.  1.
          2   -1    0    0  502    0  0.00000000000E+00 -0.00000000000E+00 -0.10987938385E+03  0.10987938385E+03  0.00000000000E+00 0. -1.
         23    2    1    2    0    0 -0.44252800476E+02 -0.66251407708E+02  0.27113993286E+03  0.29747908063E+03  0.92894460798E+02 0.  0.
         23    2    1    2    0    0  0.88278011722E+02  0.10440994216E+03  0.24047580120E+01  0.16383684131E+03  0.90234607191E+02 0.  0.
        -11    1    3    3    0    0  0.24737715208E+02 -0.23735294100E+02  0.40755176587E+02  0.53256954084E+02  0.00000000000E+00 0.  1.
         11    1    3    3    0    0 -0.68990515684E+02 -0.42516113608E+02  0.23038475627E+03  0.24422212654E+03  0.00000000000E+00 0. -1.
        -13    1    4    4    0    0  0.31379957713E+02  0.84712694061E+02  0.33152678974E+02  0.96229114120E+02  0.00000000000E+00 0.  1.
         13    1    4    4    0    0  0.56898054009E+02  0.19697248098E+02 -0.30747920962E+02  0.67607727193E+02  0.00000000000E+00 0. -1.
         21    1    1    2  502  501 -0.44025211247E+02 -0.38158534450E+02  0.37062723904E+02  0.69050260534E+02  0.00000000000E+00 0.  1.
<scales pt_clust_5="13000.00000" pt_clust_6="13000.00000" pt_clust_7="13000.00000" pt_clust_8="13000.00000" pt_clust_9="58.26056"></scales>
<clustering>
<clus scale="   58.261">  2  9  1 -1</clus>
<clus scale="   90.235">  7  8 -1 -1</clus>
<clus scale="   92.894">  5  6 -1 -1</clus>
<clus scale="  125.748">  2  7  1 -1</clus>
<clus scale="   58.261">  2  5  1 -1</clus>
</clustering>
</event>
<event>
 9    1  0.1435532E-005  0.1936181E+03  0.7546771E-02  0.1155355E+00
         -2   -1    0    0    0  501 -0.00000000000E+00  0.00000000000E+00  0.60592662512E+02  0.60592662512E+02  0.00000000000E+00 0.  1.
          2   -1    0    0  502    0  0.00000000000E+00 -0.00000000000E+00 -0.86708677029E+03  0.86708677029E+03  0.00000000000E+00 0. -1.
         23    2    1    2    0    0  0.12199292580E+03  0.89149974136E+02 -0.24427022563E+03  0.30177863037E+03  0.92587292799E+02 0.  0.
         23    2    1    2    0    0 -0.16877689651E+03 -0.11253715169E+03 -0.44491748947E+03  0.49746214099E+03  0.91469984011E+02 0.  0.
        -11    1    3    3    0    0  0.11463944653E+02  0.51560198964E+02 -0.12085664801E+03  0.13189467583E+03  0.00000000000E+00 0.  1.
         11    1    3    3    0    0  0.11052898115E+03  0.37589775172E+02 -0.12341357762E+03  0.16988395454E+03  0.00000000000E+00 0. -1.
        -13    1    4    4    0    0 -0.86189039538E+02 -0.25582175357E+02 -0.11210930044E+03  0.14370627501E+03  0.00000000000E+00 0.  1.
         13    1    4    4    0    0 -0.82587856968E+02 -0.86954976337E+02 -0.33280818903E+03  0.35375586597E+03  0.00000000000E+00 0. -1.
         21    1    1    2  502  501  0.46783970707E+02  0.23387177557E+02 -0.11730639268E+03  0.12843866144E+03  0.00000000000E+00 0. -1.
<scales pt_clust_5="13000.00000" pt_clust_6="13000.00000" pt_clust_7="13000.00000" pt_clust_8="13000.00000" pt_clust_9="52.30392"></scales>
<clustering>
<clus scale="   52.304">  2  9  1 -1</clus>
<clus scale="   91.470">  7  8 -1 -1</clus>
<clus scale="   92.587">  5  6 -1 -1</clus>
<clus scale="  193.086">  2  7  1 -1</clus>
<clus scale="   52.304">  2  5  1 -1</clus>
</clustering>
</event>
<event>
 9    1  0.1435532E-005  0.9835754E+02  0.7546771E-02  0.1287277E+00
          2   -1    0    0  502    0  0.00000000000E+00  0.00000000000E+00  0.10838663957E+04  0.10838663957E+04  0.00000000000E+00 0. -1.
         -2   -1    0    0    0  501 -0.00000000000E+00 -0.00000000000E+00 -0.17335041757E+02  0.17335041757E+02  0.00000000000E+00 0.  1.
         23    2    1    2    0    0  0.19400420901E+02 -0.29122445672E+02  0.29893246816E+03  0.31384170622E+03  0.88946629354E+02 0.  0.
         23    2    1    2    0    0 -0.22687433185E+02 -0.38105535349E+02  0.53347498179E+03  0.54375265353E+03  0.95418240313E+02 0.  0.
        -11    1    3    3    0    0 -0.23788201905E+02 -0.42611499956E+02  0.18292264585E+03  0.18932066143E+03  0.00000000000E+00 0.  1.
         11    1    3    3    0    0  0.43188622806E+02  0.13489054285E+02  0.11600982231E+03  0.12452104479E+03  0.00000000000E+00 0. -1.
        -13    1    4    4    0    0 -0.56700877628E+02 -0.39606980479E+02  0.40391370134E+03  0.40979260676E+03  0.00000000000E+00 0.  1.
         13    1    4    4    0    0  0.34013444442E+02  0.15014451300E+01  0.12956128045E+03  0.13396004678E+03  0.00000000000E+00 0. -1.
         21    1    1    2  502  501  0.32870122845E+01  0.67227981021E+02  0.23412390400E+03  0.24360707770E+03  0.00000000000E+00 0. -1.
<scales pt_clust_5="13000.00000" pt_clust_6="13000.00000" pt_clust_7="13000.00000" pt_clust_8="13000.00000" pt_clust_9="67.30829"></scales>
<clustering>
<clus scale="   67.308">  2  9  1 -1</clus>
<clus scale="   88.947">  5  6 -1 -1</clus>
<clus scale="   92.093">  2  5  1 -1</clus>
<clus scale="   95.418">  7  8 -1 -1</clus>
<clus scale="   98.358">  1  5  2 -1</clus>
</clustering>
</event>
<event>
 9    1  0.1435532E-005  0.1349863E+03  0.7546771E-02  0.1221619E+00
          1   -1    0    0  502    0  0.00000000000E+00  0.00000000000E+00  0.13250024947E+04  0.13250024947E+04  0.00000000000E+00 0. -1.
         -1   -1    0    0    0  501 -0.00000000000E+00 -0.00000000000E+00 -0.19012195797E+02  0.19012195797E+02  0.00000000000E+00 0.  1.
         23    2    1    2    0    0 -0.10506765248E+03  0.67620891962E+02  0.65620712899E+03  0.67318456223E+03  0.83413800123E+02 0.  0.
         23    2    1    2    0    0  0.61162828032E+02 -0.51906769106E+02  0.46437938936E+03  0.47965186301E+03  0.89344771599E+02 0.  0.
        -11    1    3    3    0    0 -0.83345935465E+02  0.47094625808E+01  0.34788019542E+03  0.35775599835E+03  0.00000000000E+00 0.  1.
         11    1    3    3    0    0 -0.21721717017E+02  0.62911429382E+02  0.30832693358E+03  0.31542856387E+03  0.00000000000E+00 0. -1.
        -13    1    4    4    0    0 -0.13491819364E+02 -0.23168540255E+02  0.42461228341E+02  0.50217191872E+02  0.00000000000E+00 0.  1.
         13    1    4    4    0    0  0.74654647396E+02 -0.28738228851E+02  0.42191816102E+03  0.42943467114E+03  0.00000000000E+00 0. -1.
         21    1    1    2  502  501  0.43904824449E+02 -0.15714122856E+02  0.18540378054E+03  0.19117826525E+03  0.00000000000E+00 0.  1.
<scales pt_clust_5="13000.00000" pt_clust_6="13000.00000" pt_clust_7="13000.00000" pt_clust_8="13000.00000" pt_clust_9="46.63226"></scales>
<clustering>
<clus scale="   46.632">  2  9  1 -1</clus>
<clus scale="   83.414">  5  6 -1 -1</clus>
<clus scale="   89.345">  7  8 -1 -1</clus>
<clus scale="  131.136">  2  5  1 -1</clus>
<clus scale="  134.986">  1  5  2 -1</clus>
</clustering>
</event>
<event>
 9    1  0.1435532E-005  0.1175328E+03  0.7546771E-02  0.1251154E+00
          1   -1    0    0  502    0  0.00000000000E+00  0.00000000000E+00  0.11497508926E+03  0.11497508926E+03  0.00000000000E+00 0. -1.
         -1   -1    0    0    0  501 -0.00000000000E+00 -0.00000000000E+00 -0.18511570630E+03  0.18511570630E+03  0.00000000000E+00 0.  1.
         23    2    1    2    0    0 -0.19223335780E+02  0.34523721417E+02 -0.43721515152E+02  0.11813152524E+03  0.10238194367E+03 0.  0.
         23    2    1    2    0    0  0.61836271427E+02 -0.50653269587E+02 -0.48656270630E+02  0.13125901112E+03  0.92043561130E+02 0.  0.
        -11    1    4    4    0    0  0.15975439111E+01 -0.56518264126E+02 -0.52594165610E+01  0.56784925719E+02  0.00000000000E+00 0. -1.
         11    1    4    4    0    0  0.60238727516E+02  0.58649945389E+01 -0.43396854069E+02  0.74474085404E+02  0.00000000000E+00 0.  1.
        -13    1    3    3    0    0 -0.84409444984E+01 -0.25736079969E+02  0.16942769831E+02  0.31947657281E+02  0.00000000000E+00 0. -1.
         13    1    3    3    0    0 -0.10782391281E+02  0.60259801385E+02 -0.60664284982E+02  0.86183867963E+02  0.00000000000E+00 0.  1.
         21    1    1    2  502  501 -0.42612935648E+02  0.16129548170E+02  0.22237168745E+02  0.50700259195E+02  0.00000000000E+00 0.  1.
<scales pt_clust_5="13000.00000" pt_clust_6="13000.00000" pt_clust_7="13000.00000" pt_clust_8="13000.00000" pt_clust_9="45.56341"></scales>
<clustering>
<clus scale="   45.563">  1  9  2 -1</clus>
<clus scale="   92.044">  5  6 -1 -1</clus>
<clus scale="  102.382">  7  8 -1 -1</clus>
<clus scale="  108.646">  1  5  2 -1</clus>
<clus scale="   45.563">  1  5  2 -1</clus>
</clustering>
</event>
<event>
 9    1  0.1435532E-005  0.1055255E+03  0.7546771E-02  0.1272214E+00
          1   -1    0    0  502    0  0.00000000000E+00  0.00000000000E+00  0.69343257570E+02  0.69343257570E+02  0.00000000000E+00 0. -1.
         -1   -1    0    0    0  501 -0.00000000000E+00 -0.00000000000E+00 -0.22674252761E+03  0.22674252761E+03  0.00000000000E+00 0.  1.
         23    2    1    2    0    0  0.27664770203E+02  0.44055937349E+02 -0.13000048097E+03  0.16768971947E+03  0.92268368573E+02 0.  0.
         23    2    1    2    0    0 -0.47280370616E+01 -0.53237496345E+02 -0.18945156589E+02  0.10228364232E+03  0.85126019386E+02 0.  0.
        -11    1    4    4    0    0  0.22265443288E+02 -0.26776611389E+02  0.26070920882E+02  0.43502066593E+02  0.00000000000E+00 0. -1.
         11    1    4    4    0    0 -0.26993480349E+02 -0.26460884957E+02 -0.45016077471E+02  0.58781575726E+02  0.00000000000E+00 0.  1.
        -13    1    3    3    0    0  0.18444190206E+02  0.12538854031E+02  0.95984639675E+01  0.24280476176E+02  0.00000000000E+00 0. -1.
         13    1    3    3    0    0  0.92205799972E+01  0.31517083318E+02 -0.13959894493E+03  0.14340924330E+03  0.00000000000E+00 0.  1.
         21    1    1    2  502  501 -0.22936733142E+02  0.91815589964E+01 -0.84536324818E+01  0.26112423384E+02  0.00000000000E+00 0. -1.
<scales pt_clust_5="13000.00000" pt_clust_6="13000.00000" pt_clust_7="13000.00000" pt_clust_8="13000.00000" pt_clust_9="24.70617"></scales>
<clustering>
<clus scale="   24.706">  1  9  2 -1</clus>
<clus scale="   85.126">  5  6 -1 -1</clus>
<clus scale="   92.268">  7  8 -1 -1</clus>
<clus scale="   99.341">  1  5  2 -1</clus>
<clus scale="   24.706">  1  5  2 -1</clus>
</clustering>
</event>
<event>
 9    1  0.1435532E-005  0.1055301E+03  0.7546771E-02  0.1269986E+00
          1   -1    0    0  502    0  0.00000000000E+00  0.00000000000E+00  0.75669266029E+03  0.75669266029E+03  0.00000000000E+00 0. -1.
         -1   -1    0    0    0  501 -0.00000000000E+00 -0.00000000000E+00 -0.24819511548E+02  0.24819511548E+02  0.00000000000E+00 0.  1.
         23    2    1    2    0    0  0.40190521008E+02 -0.60828464883E+02  0.24163854004E+03  0.26844669546E+03  0.91427917790E+02 0.  0.
         23    2    1    2    0    0 -0.17258513966E+01  0.20776391954E+02  0.31371088458E+03  0.32801325529E+03  0.93506895534E+02 0.  0.
        -11    1    3    3    0    0  0.47814023916E+02 -0.26231483254E+02  0.51413203420E+02  0.74950577600E+02  0.00000000000E+00 0.  1.
         11    1    3    3    0    0 -0.76235029077E+01 -0.34596981630E+02  0.19022533662E+03  0.19349611786E+03  0.00000000000E+00 0. -1.
        -11    1    4    4    0    0  0.32915602470E+02 -0.22364710371E+02  0.15085362140E+03  0.15601420527E+03  0.00000000000E+00 0.  1.
         11    1    4    4    0    0 -0.34641453867E+02  0.43141102325E+02  0.16285726318E+03  0.17199905002E+03  0.00000000000E+00 0. -1.
         21    1    1    2  502  501 -0.38464669612E+02  0.40052072930E+02  0.17652372413E+03  0.18505222110E+03  0.00000000000E+00 0. -1.
<scales pt_clust_5="13000.00000" pt_clust_6="13000.00000" pt_clust_7="13000.00000" pt_clust_8="13000.00000" pt_clust_9="55.53107"></scales>
<clustering>
<clus scale="   55.531">  1  9  2 -1</clus>
<clus scale="   91.428">  5  6 -1 -1</clus>
<clus scale="   93.507">  7  8 -1 -1</clus>
<clus scale="  103.692">  2  5  1 -1</clus>
<clus scale="   55.531">  1  5  2 -1</clus>
</clustering>
</event>
<event>
 9    1  0.1435532E-005  0.1075542E+03  0.7546771E-02  0.1265577E+00
         -2   -1    0    0    0  501 -0.00000000000E+00  0.00000000000E+00  0.38200139945E+02  0.38200139945E+02  0.00000000000E+00 0.  1.
          2   -1    0    0  502    0  0.00000000000E+00 -0.00000000000E+00 -0.47582204749E+03  0.47582204749E+03  0.00000000000E+00 0. -1.
         23    2    1    2    0    0  0.54299900860E+02 -0.29737260680E+02 -0.83892435734E+02  0.13830108634E+03  0.90865096726E+02 0.  0.
         23    2    1    2    0    0 -0.32765281417E+02  0.27178527017E+02 -0.24955235300E+03  0.26931076778E+03  0.91867713359E+02 0.  0.
        -11    1    4    4    0    0  0.24093402833E+02 -0.44249867417E+01 -0.13815991958E+03  0.14031477451E+03  0.00000000000E+00 0. -1.
         11    1    4    4    0    0 -0.56858684249E+02  0.31603513759E+02 -0.11139243342E+03  0.12899599327E+03  0.00000000000E+00 0.  1.
        -13    1    3    3    0    0 -0.16748450876E+02 -0.32028643920E+02 -0.14446043880E+02  0.38923422535E+02  0.00000000000E+00 0. -1.
         13    1    3    3    0    0  0.71048351736E+02  0.22913832394E+01 -0.69446391854E+02  0.99377663804E+02  0.00000000000E+00 0.  1.
         21    1    1    2  502  501 -0.21534619443E+02  0.25587336633E+01 -0.10417711881E+03  0.10641033331E+03  0.00000000000E+00 0.  1.
<scales pt_clust_5="13000.00000" pt_clust_6="13000.00000" pt_clust_7="13000.00000" pt_clust_8="13000.00000" pt_clust_9="21.68610"></scales>
<clustering>
<clus scale="   21.686">  2  9  1 -1</clus>
<clus scale="   90.865">  7  8 -1 -1</clus>
<clus scale="   91.868">  5  6 -1 -1</clus>
<clus scale="  106.699">  1  7  2 -1</clus>
<clus scale="   21.686">  2  5  1 -1</clus>
</clustering>
</event>
<event>
 9    1  0.1435532E-005  0.1293532E+03  0.7546771E-02  0.1228717E+00
         -2   -1    0    0    0  501 -0.00000000000E+00  0.00000000000E+00  0.51626826177E+03  0.51626826177E+03  0.00000000000E+00 0.  1.
          2   -1    0    0  502    0  0.00000000000E+00 -0.00000000000E+00 -0.11319697392E+03  0.11319697392E+03  0.00000000000E+00 0. -1.
         23    2    1    2    0    0  0.31077153244E+02 -0.79744624687E+02  0.30389334993E+03  0.32863172130E+03  0.91228534414E+02 0.  0.
         23    2    1    2    0    0 -0.71172821323E+02  0.77526643686E+02  0.16950226046E+03  0.21985146466E+03  0.92345542601E+02 0.  0.
        -11    1    4    4    0    0  0.17427718732E+02  0.39387218035E+02  0.60966903662E+02  0.74646109523E+02  0.00000000000E+00 0.  1.
         11    1    4    4    0    0 -0.88600540055E+02  0.38139425651E+02  0.10853535679E+03  0.14520535514E+03  0.00000000000E+00 0. -1.
        -13    1    3    3    0    0 -0.28366560073E+02 -0.19071335575E+02  0.47395064672E+02  0.58435175419E+02  0.00000000000E+00 0. -1.
         13    1    3    3    0    0  0.59443713317E+02 -0.60673289112E+02  0.25649828526E+03  0.27019654588E+03  0.00000000000E+00 0.  1.
         21    1    1    2  502  501  0.40095668079E+02  0.22179810003E+01 -0.70324322531E+02  0.80982049726E+02  0.00000000000E+00 0. -1.
<scales pt_clust_5="13000.00000" pt_clust_6="13000.00000" pt_clust_7="13000.00000" pt_clust_8="13000.00000" pt_clust_9="40.15697"></scales>
<clustering>
<clus scale="   40.157">  2  9  1 -1</clus>
<clus scale="   91.229">  7  8 -1 -1</clus>
<clus scale="   92.346">  5  6 -1 -1</clus>
<clus scale="  128.558">  1  7  2 -1</clus>
<clus scale="   40.157">  2  5  1 -1</clus>
</clustering>
</event>
<event>
 9    1  0.1435532E-005  0.9893671E+02  0.7546771E-02  0.1284515E+00
         -1   -1    0    0    0  501 -0.00000000000E+00  0.00000000000E+00  0.10602701689E+03  0.10602701689E+03  0.00000000000E+00 0.  1.
          1   -1    0    0  502    0  0.00000000000E+00 -0.00000000000E+00 -0.13124370570E+03  0.13124370570E+03  0.00000000000E+00 0. -1.
         23    2    1    2    0    0 -0.45650004042E+01 -0.24772656734E+02  0.23345563988E+02  0.10152324111E+03  0.95537580968E+02 0.  0.
         23    2    1    2    0    0  0.24150492739E+02  0.19102951321E+02 -0.17187416856E+02  0.98329338828E+02  0.91788248309E+02 0.  0.
        -11    1    3    3    0    0  0.42439456157E+02 -0.28846047112E+02  0.81631288291E+01  0.51959970605E+02  0.00000000000E+00 0.  1.
         11    1    3    3    0    0 -0.47004456562E+02  0.40733903780E+01  0.15182435159E+02  0.49563270505E+02  0.00000000000E+00 0. -1.
        -13    1    4    4    0    0  0.43959357732E+02 -0.23894573709E+01  0.22181372078E+02  0.49296530365E+02  0.00000000000E+00 0.  1.
         13    1    4    4    0    0 -0.19808864993E+02  0.21492408692E+02 -0.39368788934E+02  0.49032808464E+02  0.00000000000E+00 0. -1.
         21    1    1    2  502  501 -0.19585492334E+02  0.56697054132E+01 -0.31374835934E+02  0.37418142650E+02  0.00000000000E+00 0. -1.
<scales pt_clust_5="13000.00000" pt_clust_6="13000.00000" pt_clust_7="13000.00000" pt_clust_8="13000.00000" pt_clust_9="20.38963"></scales>
<clustering>
<clus scale="   20.390">  2  9  1 -1</clus>
<clus scale="   91.788">  7  8 -1 -1</clus>
<clus scale="   95.321">  2  7  1 -1</clus>
<clus scale="   95.538">  5  6 -1 -1</clus>
<clus scale="   20.390">  2  5  1 -1</clus>
</clustering>
</event>
<event>
 9    1  0.1435532E-005  0.1121367E+03  0.7546771E-02  0.1258656E+00
          2   -1    0    0  502    0  0.00000000000E+00  0.00000000000E+00  0.27983448476E+03  0.27983448476E+03  0.00000000000E+00 0. -1.
         -2   -1    0    0    0  501 -0.00000000000E+00 -0.00000000000E+00 -0.40595541983E+03  0.40595541983E+03  0.00000000000E+00 0.  1.
         23    2    1    2    0    0  0.20643041672E+02  0.40410467862E+02 -0.22048258958E+03  0.24320312708E+03  0.92065452972E+02 0.  0.
         23    2    1    2    0    0 -0.10665107478E+02 -0.79575206255E+02 -0.14943779594E+03  0.19546007328E+03  0.97092880399E+02 0.  0.
        -11    1    4    4    0    0  0.16651672896E+02 -0.68118367648E+02 -0.15026971471E+03  0.16582634706E+03  0.00000000000E+00 0.  1.
         11    1    4    4    0    0 -0.27316780373E+02 -0.11456838607E+02  0.83191876914E+00  0.29633726220E+02  0.00000000000E+00 0. -1.
        -11    1    3    3    0    0  0.75004019465E+01  0.67034395893E+02 -0.11211843958E+03  0.13084498751E+03  0.00000000000E+00 0. -1.
         11    1    3    3    0    0  0.13142639725E+02 -0.26623928031E+02 -0.10836415000E+03  0.11235813957E+03  0.00000000000E+00 0.  1.
         21    1    1    2  502  501 -0.99779341939E+01  0.39164738393E+02  0.24379945045E+03  0.24712670423E+03  0.00000000000E+00 0. -1.
<scales pt_clust_5="13000.00000" pt_clust_6="13000.00000" pt_clust_7="13000.00000" pt_clust_8="13000.00000" pt_clust_9="40.41579"></scales>
<clustering>
<clus scale="   40.416">  1  9  2 -1</clus>
<clus scale="   92.065">  7  8 -1 -1</clus>
<clus scale="   97.093">  5  6 -1 -1</clus>
<clus scale="  107.813">  2  7  1 -1</clus>
<clus scale="   40.416">  1  5  2 -1</clus>
</clustering>
</event>
<event>
 9    1  0.1435532E-005  0.2267970E+03  0.7546771E-02  0.1130599E+00
          2   -1    0    0  502    0  0.00000000000E+00  0.00000000000E+00  0.14040454159E+04  0.14040454159E+04  0.00000000000E+00 0. -1.
         -2   -1    0    0    0  501 -0.00000000000E+00 -0.00000000000E+00 -0.40377305782E+02  0.40377305782E+02  0.00000000000E+00 0.  1.
         23    2    1    2    0    0 -0.13530705832E+03 -0.15849528077E+03  0.56162725335E+03  0.60938777381E+03  0.11180131082E+03 0.  0.
         23    2    1    2    0    0  0.11225772808E+03  0.14588459611E+03  0.69306618117E+03  0.72293775383E+03  0.91728684336E+02 0.  0.
        -13    1    3    3    0    0 -0.41129011809E+01 -0.62443274048E+02  0.83348522476E+02  0.10422597867E+03  0.00000000000E+00 0.  1.
         13    1    3    3    0    0 -0.13119415714E+03 -0.96052006724E+02  0.47827873088E+03  0.50516179515E+03  0.00000000000E+00 0. -1.
        -13    1    4    4    0    0 -0.12356353327E+02  0.38663911675E+02  0.16212014003E+03  0.16712425717E+03  0.00000000000E+00 0. -1.
         13    1    4    4    0    0  0.12461408141E+03  0.10722068443E+03  0.53094604115E+03  0.55581349666E+03  0.00000000000E+00 0.  1.
         21    1    1    2  502  501  0.23049330240E+02  0.12610684664E+02  0.10897467562E+03  0.11209719407E+03  0.00000000000E+00 0.  1.
<scales pt_clust_5="13000.00000" pt_clust_6="13000.00000" pt_clust_7="13000.00000" pt_clust_8="13000.00000" pt_clust_9="26.27358"></scales>
<clustering>
<clus scale="   26.274">  1  9  2 -1</clus>
<clus scale="   91.729">  7  8 -1 -1</clus>
<clus scale="  111.801">  5  6 -1 -1</clus>
<clus scale="  217.604">  1  7  2 -1</clus>
<clus scale="   26.274">  1  5  2 -1</clus>
</clustering>
</event>
<event>
 9    1  0.1435532E-005  0.9927791E+02  0.7546771E-02  0.1282255E+00
          1   -1    0    0  502    0  0.00000000000E+00  0.00000000000E+00  0.15588045888E+03  0.15588045888E+03  0.00000000000E+00 0. -1.
         -1   -1    0    0    0  501 -0.00000000000E+00 -0.00000000000E+00 -0.52171155648E+03  0.52171155648E+03  0.00000000000E+00 0.  1.
         23    2    1    2    0    0  0.32783200987E+02  0.22860592250E+02 -0.47934482052E+03  0.48949879886E+03  0.90775944913E+02 0.  0.
         23    2    1    2    0    0 -0.11587413447E+02 -0.11937223762E+02  0.25038714719E+02  0.96461298119E+02  0.91657401984E+02 0.  0.
        -11    1    3    3    0    0 -0.25546778168E+02  0.29659718043E+02 -0.15404912369E+03  0.15894486232E+03  0.00000000000E+00 0. -1.
         11    1    3    3    0    0  0.58329979155E+02 -0.67991257928E+01 -0.32529569683E+03  0.33055393653E+03  0.00000000000E+00 0.  1.
        -13    1    4    4    0    0 -0.35338210068E+02 -0.20414887073E+02 -0.19536880610E+02  0.45246507147E+02  0.00000000000E+00 0. -1.
         13    1    4    4    0    0  0.23750796621E+02  0.84776633111E+01  0.44575595330E+02  0.51214790972E+02  0.00000000000E+00 0.  1.
         21    1    1    2  502  501 -0.21195787540E+02 -0.10923368488E+02  0.88475008209E+02  0.91631918381E+02  0.00000000000E+00 0. -1.
<scales pt_clust_5="13000.00000" pt_clust_6="13000.00000" pt_clust_7="13000.00000" pt_clust_8="13000.00000" pt_clust_9="23.84494"></scales>
<clustering>
<clus scale="   23.845">  1  9  2 -1</clus>
<clus scale="   90.776">  5  6 -1 -1</clus>
<clus scale="   91.657">  7  8 -1 -1</clus>
<clus scale="   98.465">  2  5  1 -1</clus>
<clus scale="   23.845">  1  5  2 -1</clus>
</clustering>
</event>
<event>
 9    1  0.1435532E-005  0.1566289E+03  0.7546771E-02  0.1193249E+00
          1   -1    0    0  502    0  0.00000000000E+00  0.00000000000E+00  0.13879130172E+03  0.13879130172E+03  0.00000000000E+00 0. -1.
         -1   -1    0    0    0  501 -0.00000000000E+00 -0.00000000000E+00 -0.32161345862E+03  0.32161345862E+03  0.00000000000E+00 0.  1.
         23    2    1    2    0    0  0.20303724221E+02 -0.13100886726E+03 -0.23505920417E+03  0.28495439793E+03  0.91491064668E+02 0.  0.
         23    2    1    2    0    0 -0.40881697772E+01  0.10661860603E+03  0.46995969926E+02  0.14569640569E+03  0.87376090306E+02 0.  0.
        -13    1    4    4    0    0 -0.20403309940E+02 -0.66807304132E+01 -0.11845226027E+01  0.21501867574E+02  0.00000000000E+00 0.  1.
         13    1    4    4    0    0  0.16315140163E+02  0.11329933644E+03  0.48180492529E+02  0.12419453812E+03  0.00000000000E+00 0. -1.
        -13    1    3    3    0    0  0.23141766881E+02  0.46128190422E+01 -0.21315057409E+02  0.31798602897E+02  0.00000000000E+00 0. -1.
         13    1    3    3    0    0 -0.28380426601E+01 -0.13562168630E+03 -0.21374414676E+03  0.25315579503E+03  0.00000000000E+00 0.  1.
         21    1    1    2  502  501 -0.16215554443E+02  0.24390261229E+02  0.52410773550E+01  0.29753956721E+02  0.00000000000E+00 0. -1.
<scales pt_clust_5="13000.00000" pt_clust_6="13000.00000" pt_clust_7="13000.00000" pt_clust_8="13000.00000" pt_clust_9="29.28872"></scales>
<clustering>
<clus scale="   29.289">  1  9  2 -1</clus>
<clus scale="   87.376">  5  6 -1 -1</clus>
<clus scale="   91.491">  7  8 -1 -1</clus>
<clus scale="  154.261">  1  5  2 -1</clus>
<clus scale="   29.289">  1  5  2 -1</clus>
</clustering>
</event>
<event>
 9    1  0.1435532E-005  0.9136845E+02  0.7546771E-02  0.1300113E+00
         -1   -1    0    0    0  501 -0.00000000000E+00  0.00000000000E+00  0.66236096387E+02  0.66236096387E+02  0.00000000000E+00 0.  1.
          1   -1    0    0  502    0  0.00000000000E+00 -0.00000000000E+00 -0.16592272898E+03  0.16592272898E+03  0.00000000000E+00 0. -1.
         23    2    1    2    0    0 -0.36303164178E+01 -0.44251441149E+01 -0.16612607772E+02  0.92103447874E+02  0.90411864684E+02 0.  0.
         23    2    1    2    0    0 -0.29432949531E+01 -0.14629395650E+02 -0.66293668961E+02  0.11382813603E+03  0.91319832483E+02 0.  0.
        -11    1    4    4    0    0 -0.41260416227E+02 -0.27957323235E+02 -0.24333845242E+02  0.55463230108E+02  0.00000000000E+00 0.  1.
         11    1    4    4    0    0  0.38317121274E+02  0.13327927585E+02 -0.41959823718E+02  0.58364905919E+02  0.00000000000E+00 0. -1.
        -13    1    3    3    0    0 -0.46224258160E+02 -0.10920076065E+02 -0.80291939427E+01  0.48170510263E+02  0.00000000000E+00 0.  1.
         13    1    3    3    0    0  0.42593941742E+02  0.64949319499E+01 -0.85834138295E+01  0.43932937611E+02  0.00000000000E+00 0. -1.
         21    1    1    2  502  501  0.65736113710E+01  0.19054539765E+02 -0.16780355861E+02  0.26227241466E+02  0.00000000000E+00 0. -1.
<scales pt_clust_5="13000.00000" pt_clust_6="13000.00000" pt_clust_7="13000.00000" pt_clust_8="13000.00000" pt_clust_9="20.15658"></scales>
<clustering>
<clus scale="   20.157">  2  9  1 -1</clus>
<clus scale="   90.412">  7  8 -1 -1</clus>
<clus scale="   90.461">  1  7  2 -1</clus>
<clus scale="   91.320">  5  6 -1 -1</clus>
<clus scale="   20.157">  2  5  1 -1</clus>
</clustering>
</event>
<event>
 9    1  0.1435532E-005  0.1126743E+03  0.7546771E-02  0.1256078E+00
          2   -1    0    0  502    0  0.00000000000E+00  0.00000000000E+00  0.32462591080E+03  0.32462591080E+03  0.00000000000E+00 0. -1.
         -2   -1    0    0    0  501 -0.00000000000E+00 -0.00000000000E+00 -0.65583972085E+02  0.65583972085E+02  0.00000000000E+00 0.  1.
         23    2    1    2    0    0 -0.37732575844E+02  0.52157266406E+02  0.23957662971E+02  0.11729338103E+03  0.95077020883E+02 0.  0.
         23    2    1    2    0    0  0.48461690426E+02 -0.24090974926E+02  0.18731213040E+03  0.21648062241E+03  0.94069735702E+02 0.  0.
        -11    1    3    3    0    0  0.24006338302E+01 -0.23235142161E+02  0.21656552196E+02  0.31853431950E+02  0.00000000000E+00 0. -1.
         11    1    3    3    0    0 -0.40133209674E+02  0.75392408566E+02  0.23011107759E+01  0.85439949081E+02  0.00000000000E+00 0.  1.
        -11    1    4    4    0    0  0.62296812019E+02 -0.45762931722E+02  0.16588608391E+03  0.18301183443E+03  0.00000000000E+00 0. -1.
         11    1    4    4    0    0 -0.13835121593E+02  0.21671956796E+02  0.21426046489E+02  0.33468787983E+02  0.00000000000E+00 0.  1.
         21    1    1    2  502  501 -0.10729114582E+02 -0.28066291480E+02  0.47772145350E+02  0.56435879443E+02  0.00000000000E+00 0. -1.
<scales pt_clust_5="13000.00000" pt_clust_6="13000.00000" pt_clust_7="13000.00000" pt_clust_8="13000.00000" pt_clust_9="30.04714"></scales>
<clustering>
<clus scale="   30.047">  1  9  2 -1</clus>
<clus scale="   94.070">  7  8 -1 -1</clus>
<clus scale="   95.077">  5  6 -1 -1</clus>
<clus scale="  111.826">  1  7  2 -1</clus>
<clus scale="   30.047">  1  5  2 -1</clus>
</clustering>
</event>
<event>
 9    1  0.1435532E-005  0.2065760E+03  0.7546771E-02  0.1144411E+00
         -2   -1    0    0    0  501 -0.00000000000E+00  0.00000000000E+00  0.41168775041E+03  0.41168775041E+03  0.00000000000E+00 0.  1.
          2   -1    0    0  502    0  0.00000000000E+00 -0.00000000000E+00 -0.13599661198E+03  0.13599661198E+03  0.00000000000E+00 0. -1.
         23    2    1    2    0    0 -0.56682146075E+01 -0.17539057717E+03  0.16040415876E+03  0.25476034701E+03  0.91538828086E+02 0.  0.
         23    2    1    2    0    0  0.38236250805E+02  0.19444928472E+03  0.12754848876E+03  0.25324712134E+03  0.92698178398E+02 0.  0.
        -13    1    4    4    0    0  0.15868809477E+02  0.17412397654E+03  0.70179745467E+02  0.18840428603E+03  0.00000000000E+00 0. -1.
         13    1    4    4    0    0  0.22367441328E+02  0.20325308179E+02  0.57368743292E+02  0.64842835310E+02  0.00000000000E+00 0.  1.
        -13    1    3    3    0    0 -0.48493276855E+02 -0.10133280524E+03  0.93450035102E+02  0.14612612490E+03  0.00000000000E+00 0.  1.
         13    1    3    3    0    0  0.42825062248E+02 -0.74057771929E+02  0.66954123655E+02  0.10863422211E+03  0.00000000000E+00 0. -1.
         21    1    1    2  502  501 -0.32568036198E+02 -0.19058707548E+02 -0.12261509089E+02  0.39676894036E+02  0.00000000000E+00 0.  1.
<scales pt_clust_5="13000.00000" pt_clust_6="13000.00000" pt_clust_7="13000.00000" pt_clust_8="13000.00000" pt_clust_9="37.73475"></scales>
<clustering>
<clus scale="   37.735">  2  9  1 -1</clus>
<clus scale="   91.539">  7  8 -1 -1</clus>
<clus scale="   92.698">  5  6 -1 -1</clus>
<clus scale="  206.058">  1  7  2 -1</clus>
<clus scale="   37.735">  2  5  1 -1</clus>
</clustering>
</event>
<event>
 9    1  0.1435532E-005  0.1030825E+03  0.7546771E-02  0.1275639E+00
         -1   -1    0    0    0  501 -0.00000000000E+00  0.00000000000E+00  0.59167618228E+03  0.59167618228E+03  0.00000000000E+00 0.  1.
          1   -1    0    0  502    0  0.00000000000E+00 -0.00000000000E+00 -0.62504945805E+02  0.62504945805E+02  0.00000000000E+00 0. -1.
         23    2    1    2    0    0  0.34513400300E+02 -0.68288092497E+01  0.37493068357E+03  0.38814738929E+03  0.94061527197E+02 0.  0.
         23    2    1    2    0    0 -0.45136161900E+02  0.47897753801E+02  0.18321890905E+03  0.21466014251E+03  0.90434176164E+02 0.  0.
        -11    1    4    4    0    0 -0.19196642644E+02  0.45339197970E+02  0.18202620081E+03  0.18856747265E+03  0.00000000000E+00 0.  1.
         11    1    4    4    0    0 -0.25939519256E+02  0.25585558313E+01  0.11927082371E+01  0.26092669854E+02  0.00000000000E+00 0. -1.
        -13    1    3    3    0    0 -0.19861742593E+02 -0.34099502268E+02  0.13786245893E+03  0.14339917174E+03  0.00000000000E+00 0. -1.
         13    1    3    3    0    0  0.54375142893E+02  0.27270693018E+02  0.23706822464E+03  0.24474821755E+03  0.00000000000E+00 0.  1.
         21    1    1    2  502  501  0.10622761600E+02 -0.41068944551E+02 -0.28978356140E+02  0.51373596284E+02  0.00000000000E+00 0. -1.
<scales pt_clust_5="13000.00000" pt_clust_6="13000.00000" pt_clust_7="13000.00000" pt_clust_8="13000.00000" pt_clust_9="42.42053"></scales>
<clustering>
<clus scale="   42.421">  2  9  1 -1</clus>
<clus scale="   90.434">  5  6 -1 -1</clus>
<clus scale="   94.062">  7  8 -1 -1</clus>
<clus scale="   99.784">  2  5  1 -1</clus>
<clus scale="   42.421">  2  5  1 -1</clus>
</clustering>
</event>
<event>
 9    1  0.1435532E-005  0.1472933E+03  0.7546771E-02  0.1204038E+00
          1   -1    0    0  502    0  0.00000000000E+00  0.00000000000E+00  0.12861221612E+03  0.12861221612E+03  0.00000000000E+00 0. -1.
         -1   -1    0    0    0  501 -0.00000000000E+00 -0.00000000000E+00 -0.54692677652E+03  0.54692677652E+03  0.00000000000E+00 0.  1.
         23    2    1    2    0    0  0.10604573927E+03  0.38461090905E+02 -0.43984113463E+03  0.46349245775E+03  0.92952032503E+02 0.  0.
         23    2    1    2    0    0 -0.10021088173E+03 -0.87387286997E+02  0.15278459394E+02  0.16237906903E+03  0.91949834102E+02 0.  0.
        -11    1    3    3    0    0  0.81187951759E+02  0.57396318201E+02 -0.40347410392E+03  0.41554443010E+03  0.00000000000E+00 0.  1.
         11    1    3    3    0    0  0.24857787512E+02 -0.18935227296E+02 -0.36367030713E+02  0.47948027651E+02  0.00000000000E+00 0. -1.
        -13    1    4    4    0    0 -0.11419260150E+03 -0.57953454733E+02  0.19456375650E+02  0.12952645949E+03  0.00000000000E+00 0. -1.
         13    1    4    4    0    0  0.13981719773E+02 -0.29433832264E+02 -0.41779162552E+01  0.32852609543E+02  0.00000000000E+00 0.  1.
         21    1    1    2  502  501 -0.58348575382E+01  0.48926196093E+02  0.62481148388E+01  0.49667465867E+02  0.00000000000E+00 0. -1.
<scales pt_clust_5="13000.00000" pt_clust_6="13000.00000" pt_clust_7="13000.00000" pt_clust_8="13000.00000" pt_clust_9="49.27290"></scales>
<clustering>
<clus scale="   49.273">  1  9  2 -1</clus>
<clus scale="   91.950">  7  8 -1 -1</clus>
<clus scale="   92.952">  5  6 -1 -1</clus>
<clus scale="  146.663">  1  7  2 -1</clus>
<clus scale="   49.273">  1  5  2 -1</clus>
</clustering>
</event>
<event>
 9    1  0.1435532E-005  0.2922904E+03  0.7546771E-02  0.1120632E+00
          1   -1    0    0  502    0  0.00000000000E+00  0.00000000000E+00  0.41273891924E+03  0.41273891924E+03  0.00000000000E+00 0. -1.
         -1   -1    0    0    0  501 -0.00000000000E+00 -0.00000000000E+00 -0.62292279450E+03  0.62292279450E+03  0.00000000000E+00 0.  1.
         23    2    1    2    0    0  0.27093862660E+03 -0.11382833634E+03 -0.50404455874E+03  0.59052954012E+03  0.91102091215E+02 0.  0.
         23    2    1    2    0    0 -0.88192551081E+02  0.27797618358E+02  0.14078378814E+03  0.19169589280E+03  0.91523803780E+02 0.  0.
        -11    1    3    3    0    0  0.13084164867E+03 -0.55511430384E+02 -0.15711680600E+03  0.21186492550E+03  0.00000000000E+00 0. -1.
         11    1    3    3    0    0  0.14009697793E+03 -0.58316905954E+02 -0.34692775274E+03  0.37866461462E+03  0.00000000000E+00 0.  1.
        -11    1    4    4    0    0 -0.78459141202E+02  0.56364575512E+02  0.86919352455E+02  0.12995297627E+03  0.00000000000E+00 0. -1.
         11    1    4    4    0    0 -0.97334098792E+01 -0.28566957153E+02  0.53864435688E+02  0.61742916524E+02  0.00000000000E+00 0.  1.
         21    1    1    2  502  501 -0.18274607552E+03  0.86030717980E+02  0.15307689533E+03  0.25343628082E+03  0.00000000000E+00 0. -1.
<scales pt_clust_5="13000.00000" pt_clust_6="13000.00000" pt_clust_7="13000.00000" pt_clust_8="13000.00000" pt_clust_9="277.73020"></scales>
<clustering>
<clus scale="   91.102">  5  6 -1 -1</clus>
<clus scale="   91.524">  7  8 -1 -1</clus>
<clus scale="  130.105">  1  7  2 -1</clus>
<clus scale="  277.730">  1  9  2 -1</clus>
<clus scale="  130.105">  1  5  2 -1</clus>
</clustering>
</event>
<event>
 9    1  0.1435532E-005  0.2382276E+03  0.7546771E-02  0.1122507E+00
          1   -1    0    0  502    0  0.00000000000E+00  0.00000000000E+00  0.88437378691E+03  0.88437378691E+03  0.00000000000E+00 0. -1.
         -1   -1    0    0    0  501 -0.00000000000E+00 -0.00000000000E+00 -0.10909629002E+03  0.10909629002E+03  0.00000000000E+00 0.  1.
         23    2    1    2    0    0  0.83022003108E+02  0.19072543273E+03  0.79146612800E+02  0.23868130483E+03  0.86230709522E+02 0.  0.
         23    2    1    2    0    0 -0.82582905942E+02 -0.21292040932E+03  0.52875428059E+03  0.58594642792E+03  0.10768978638E+03 0.  0.
        -11    1    3    3    0    0  0.25055808112E+02  0.57067470692E+00  0.10089669843E+01  0.25082607602E+02  0.00000000000E+00 0. -1.
         11    1    3    3    0    0  0.57966194996E+02  0.19015475802E+03  0.78137645816E+02  0.21359869722E+03  0.00000000000E+00 0.  1.
        -13    1    4    4    0    0 -0.10005180869E+03 -0.17175596909E+03  0.35850519514E+03  0.40992249546E+03  0.00000000000E+00 0. -1.
         13    1    4    4    0    0  0.17468902751E+02 -0.41164440234E+02  0.17024908545E+03  0.17602393246E+03  0.00000000000E+00 0.  1.
         21    1    1    2  502  501 -0.43909716572E+00  0.22194976591E+02  0.16737660349E+03  0.16884234418E+03  0.00000000000E+00 0.  1.
<scales pt_clust_5="13000.00000" pt_clust_6="13000.00000" pt_clust_7="13000.00000" pt_clust_8="13000.00000" pt_clust_9="22.19932"></scales>
<clustering>
<clus scale="   22.199">  1  9  2 -1</clus>
<clus scale="   86.231">  5  6 -1 -1</clus>
<clus scale="  107.690">  7  8 -1 -1</clus>
<clus scale="  229.327">  2  5  1 -1</clus>
<clus scale="   22.199">  1  5  2 -1</clus>
</clustering>
</event>
<event>
 9    1  0.1435532E-005  0.1973011E+03  0.7546771E-02  0.1189424E+00
          1   -1    0    0  502    0  0.00000000000E+00  0.00000000000E+00  0.51538446047E+03  0.51538446047E+03  0.00000000000E+00 0. -1.
         -1   -1    0    0    0  501 -0.00000000000E+00 -0.00000000000E+00 -0.24659847115E+03  0.24659847115E+03  0.00000000000E+00 0.  1.
         23    2    1    2    0    0  0.59994158291E+01 -0.17361028466E+02 -0.11977612215E+03  0.14627548021E+03  0.81931668921E+02 0.  0.
         23    2    1    2    0    0  0.16597208209E+03 -0.21237456138E+02  0.20044849226E+01  0.19086531868E+03  0.91802997427E+02 0.  0.
        -11    1    3    3    0    0  0.26749661949E+02  0.24678851507E+02 -0.61743220877E+02  0.71671580493E+02  0.00000000000E+00 0. -1.
         11    1    3    3    0    0 -0.20750246120E+02 -0.42039879973E+02 -0.58032901276E+02  0.74603899715E+02  0.00000000000E+00 0.  1.
        -13    1    4    4    0    0  0.12846959201E+03  0.14266099651E+02  0.29175777081E+02  0.13251106987E+03  0.00000000000E+00 0.  1.
         13    1    4    4    0    0  0.37502490085E+02 -0.35503555789E+02 -0.27171292159E+02  0.58354248807E+02  0.00000000000E+00 0. -1.
         21    1    1    2  502  501 -0.17197149792E+03  0.38598484604E+02  0.38655762655E+03  0.42484213274E+03  0.00000000000E+00 0. -1.
<scales pt_clust_5="13000.00000" pt_clust_6="13000.00000" pt_clust_7="13000.00000" pt_clust_8="13000.00000" pt_clust_9="174.64234"></scales>
<clustering>
<clus scale="   81.932">  5  6 -1 -1</clus>
<clus scale="   83.965">  2  5  1 -1</clus>
<clus scale="   91.803">  7  8 -1 -1</clus>
<clus scale="  174.642">  1  9  2 -1</clus>
<clus scale="  174.642">  1  5  2 -1</clus>
</clustering>
</event>
<event>
 9    1  0.1435532E-005  0.9618471E+02  0.7546771E-02  0.1288715E+00
         -1   -1    0    0    0  501 -0.00000000000E+00  0.00000000000E+00  0.21323555150E+03  0.21323555150E+03  0.00000000000E+00 0.  1.
          1   -1    0    0  502    0  0.00000000000E+00 -0.00000000000E+00 -0.16739748569E+03  0.16739748569E+03  0.00000000000E+00 0. -1.
         23    2    1    2    0    0 -0.14658772584E+02  0.29004510764E+02  0.15857919246E+03  0.18621355944E+03  0.92043403794E+02 0.  0.
         23    2    1    2    0    0  0.97443627445E+01 -0.61259425735E+01 -0.14641798324E+02  0.93567811811E+02  0.91695547172E+02 0.  0.
        -11    1    3    3    0    0 -0.34925586028E+02  0.49658947608E+02  0.68163486456E+02  0.91280165002E+02  0.00000000000E+00 0.  1.
         11    1    3    3    0    0  0.20266813444E+02 -0.20654436844E+02  0.90415706000E+02  0.94933394440E+02  0.00000000000E+00 0. -1.
        -11    1    4    4    0    0  0.16117843751E+02  0.32285120518E+02  0.20169325892E+02  0.41339032415E+02  0.00000000000E+00 0.  1.
         11    1    4    4    0    0 -0.63734810063E+01 -0.38411063092E+02 -0.34811124216E+02  0.52228779396E+02  0.00000000000E+00 0. -1.
         21    1    1    2  502  501  0.49144098400E+01 -0.22878568190E+02 -0.98099328317E+02  0.10085166594E+03  0.00000000000E+00 0. -1.
<scales pt_clust_5="13000.00000" pt_clust_6="13000.00000" pt_clust_7="13000.00000" pt_clust_8="13000.00000" pt_clust_9="23.40043"></scales>
<clustering>
<clus scale="   23.400">  2  9  1 -1</clus>
<clus scale="   91.696">  7  8 -1 -1</clus>
<clus scale="   92.043">  5  6 -1 -1</clus>
<clus scale="   95.852">  2  7  1 -1</clus>
<clus scale="   23.400">  2  5  1 -1</clus>
</clustering>
</event>
<event>
 9    1  0.1559116E-005  0.9470283E+02  0.7546771E-02  0.1297060E+00
         -1   -1    0    0    0  501 -0.00000000000E+00  0.00000000000E+00  0.66755710988E+02  0.66755710988E+02  0.00000000000E+00 0.  1.
          1   -1    0    0  502    0  0.00000000000E+00 -0.00000000000E+00 -0.23106827914E+03  0.23106827914E+03  0.00000000000E+00 0. -1.
         23    2    1    2    0    0  0.24131936054E+02 -0.16061067643E+02  0.60484734652E+01  0.96080159015E+02  0.91402979675E+02 0.  0.
         23    2    1    2    0    0 -0.51302915714E+01  0.87348613754E+01 -0.15649336059E+03  0.17710547954E+03  0.82301648087E+02 0.  0.
        -11    1    4    4    0    0 -0.35612297549E+02 -0.89981349178E+00 -0.29810249548E+02  0.46451010529E+02  0.00000000000E+00 0.  1.
         11    1    4    4    0    0  0.30482005977E+02  0.96346748671E+01 -0.12668311104E+03  0.13065446901E+03  0.00000000000E+00 0. -1.
        -13    1    3    3    0    0 -0.16429959794E+02  0.25751009289E+02  0.19570353092E+02  0.36277496860E+02  0.00000000000E+00 0.  1.
         13    1    3    3    0    0  0.40561895848E+02 -0.41812076933E+02 -0.13521879627E+02  0.59802662155E+02  0.00000000000E+00 0. -1.
         21    1    1    2  502  501 -0.19001644483E+02  0.73262062680E+01 -0.13867681026E+02  0.24638351576E+02  0.00000000000E+00 0. -1.
<scales pt_clust_5="13000.00000" pt_clust_6="13000.00000" pt_clust_7="13000.00000" pt_clust_8="13000.00000" pt_clust_9="20.36506"></scales>
<clustering>
<clus scale="   20.365">  2  9  1 -1</clus>
<clus scale="   82.302">  5  6 -1 -1</clus>
<clus scale="   85.952">  2  5  1 -1</clus>
<clus scale="   91.403">  7  8 -1 -1</clus>
<clus scale="   20.365">  2  5  1 -1</clus>
</clustering>
</event>
<event>
 9    1  0.1435532E-005  0.9815293E+02  0.7546771E-02  0.1286230E+00
         -3   -1    0    0    0  501 -0.00000000000E+00  0.00000000000E+00  0.71155168052E+03  0.71155168052E+03  0.00000000000E+00 0.  1.
          3   -1    0    0  502    0  0.00000000000E+00 -0.00000000000E+00 -0.56927437956E+02  0.56927437956E+02  0.00000000000E+00 0. -1.
         23    2    1    2    0    0  0.15885985642E+02  0.36558852571E+02  0.47875828821E+03  0.48940718546E+03  0.93386189616E+02 0.  0.
         23    2    1    2    0    0 -0.38218305473E+02  0.17490206222E+02  0.19406469434E+03  0.21782466856E+03  0.89554086777E+02 0.  0.
        -11    1    4    4    0    0 -0.62567208515E+02  0.22454432017E+02  0.96739354405E+02  0.11737699855E+03  0.00000000000E+00 0.  1.
         11    1    4    4    0    0  0.24348903042E+02 -0.49642257952E+01  0.97325339935E+02  0.10044767001E+03  0.00000000000E+00 0. -1.
        -13    1    3    3    0    0 -0.37707431480E+02  0.57779349252E+01  0.14258062535E+03  0.14759562882E+03  0.00000000000E+00 0.  1.
         13    1    3    3    0    0  0.53593417121E+02  0.30780917646E+02  0.33617766286E+03  0.34181155665E+03  0.00000000000E+00 0. -1.
         21    1    1    2  502  501  0.22332319831E+02 -0.54049058792E+02 -0.18198739988E+02  0.61247264449E+02  0.00000000000E+00 0. -1.
<scales pt_clust_5="13000.00000" pt_clust_6="13000.00000" pt_clust_7="13000.00000" pt_clust_8="13000.00000" pt_clust_9="58.48105"></scales>
<clustering>
<clus scale="   58.481">  2  9  1 -1</clus>
<clus scale="   89.554">  5  6 -1 -1</clus>
<clus scale="   93.386">  7  8 -1 -1</clus>
<clus scale="   94.514">  2  5  1 -1</clus>
<clus scale="   58.481">  2  5  1 -1</clus>
</clustering>
</event>
<event>
 9    1  0.1435532E-005  0.9840636E+02  0.7546771E-02  0.1284464E+00
          2   -1    0    0  502    0  0.00000000000E+00  0.00000000000E+00  0.50271347969E+02  0.50271347969E+02  0.00000000000E+00 0. -1.
         -2   -1    0    0    0  501 -0.00000000000E+00 -0.00000000000E+00 -0.30878920408E+03  0.30878920408E+03  0.00000000000E+00 0.  1.
         23    2    1    2    0    0 -0.36725624125E+02  0.19693480502E+02 -0.15254743841E+03  0.18330776134E+03  0.92706039504E+02 0.  0.
         23    2    1    2    0    0  0.16354417309E+02 -0.18522976852E+02 -0.11870189742E+03  0.15170187135E+03  0.91174281923E+02 0.  0.
        -11    1    4    4    0    0  0.56651332060E+01  0.25425151649E+02 -0.15186202950E+01  0.26092877921E+02  0.00000000000E+00 0. -1.
         11    1    4    4    0    0  0.10689284103E+02 -0.43948128501E+02 -0.11718327713E+03  0.12560899343E+03  0.00000000000E+00 0.  1.
        -11    1    3    3    0    0 -0.62858069159E+02 -0.80659995515E+01 -0.90479537552E+02  0.11046603063E+03  0.00000000000E+00 0.  1.
         11    1    3    3    0    0  0.26132445033E+02  0.27759480053E+02 -0.62067900857E+02  0.72841730712E+02  0.00000000000E+00 0. -1.
         21    1    1    2  502  501  0.20371206816E+02 -0.11705036500E+01  0.12731479719E+02  0.24050919354E+02  0.00000000000E+00 0. -1.
<scales pt_clust_5="13000.00000" pt_clust_6="13000.00000" pt_clust_7="13000.00000" pt_clust_8="13000.00000" pt_clust_9="20.40481"></scales>
<clustering>
<clus scale="   20.405">  1  9  2 -1</clus>
<clus scale="   91.174">  5  6 -1 -1</clus>
<clus scale="   92.706">  7  8 -1 -1</clus>
<clus scale="   96.965">  1  5  2 -1</clus>
<clus scale="   20.405">  1  5  2 -1</clus>
</clustering>
</event>
<event>
 9    1  0.1435532E-005  0.9170727E+02  0.7546771E-02  0.1300342E+00
          3   -1    0    0  502    0  0.00000000000E+00  0.00000000000E+00  0.17164876492E+03  0.17164876492E+03  0.00000000000E+00 0. -1.
         -3   -1    0    0    0  501 -0.00000000000E+00 -0.00000000000E+00 -0.11823953877E+03  0.11823953877E+03  0.00000000000E+00 0.  1.
         23    2    1    2    0    0 -0.13288320144E+02  0.84494939252E+01 -0.59491539732E+02  0.10623279872E+03  0.86592094466E+02 0.  0.
         23    2    1    2    0    0  0.40671080053E+02 -0.45938329742E+00  0.41063946359E+02  0.10636264601E+03  0.89288392245E+02 0.  0.
        -11    1    3    3    0    0 -0.33023286567E+02  0.38275055899E+02 -0.24416049010E+02  0.56139654515E+02  0.00000000000E+00 0.  1.
         11    1    3    3    0    0  0.19734966423E+02 -0.29825561974E+02 -0.35075490723E+02  0.50093144204E+02  0.00000000000E+00 0. -1.
        -13    1    4    4    0    0  0.32957863801E+01 -0.36617972674E+02  0.40025746231E+02  0.54348859160E+02  0.00000000000E+00 0. -1.
         13    1    4    4    0    0  0.37375293673E+02  0.36158589377E+02  0.10382001284E+01  0.52013786849E+02  0.00000000000E+00 0.  1.
         21    1    1    2  502  501 -0.27382759909E+02 -0.79901106278E+01  0.71836819522E+02  0.77292858966E+02  0.00000000000E+00 0. -1.
<scales pt_clust_5="13000.00000" pt_clust_6="13000.00000" pt_clust_7="13000.00000" pt_clust_8="13000.00000" pt_clust_9="28.52468"></scales>
<clustering>
<clus scale="   28.525">  1  9  2 -1</clus>
<clus scale="   86.592">  5  6 -1 -1</clus>
<clus scale="   89.084">  2  5  1 -1</clus>
<clus scale="   89.288">  7  8 -1 -1</clus>
<clus scale="   28.525">  1  5  2 -1</clus>
</clustering>
</event>
<event>
 9    1  0.1435532E-005  0.1109496E+03  0.7546771E-02  0.1260145E+00
          1   -1    0    0  502    0  0.00000000000E+00  0.00000000000E+00  0.10666475517E+04  0.10666475517E+04  0.00000000000E+00 0. -1.
         -1   -1    0    0    0  501 -0.00000000000E+00 -0.00000000000E+00 -0.20080227335E+02  0.20080227335E+02  0.00000000000E+00 0.  1.
         23    2    1    2    0    0  0.37954607339E+02  0.61306810066E+02  0.23181201270E+03  0.25912211638E+03  0.90600136815E+02 0.  0.
         23    2    1    2    0    0 -0.28564885218E+02 -0.19029737257E+02  0.50282177751E+03  0.51268019925E+03  0.93984909396E+02 0.  0.
        -11    1    4    4    0    0  0.34446915515E+02 -0.52452973711E+01  0.14829840987E+03  0.15233686850E+03  0.00000000000E+00 0.  1.
         11    1    4    4    0    0 -0.63011800733E+02 -0.13784439886E+02  0.35452336764E+03  0.36034333075E+03  0.00000000000E+00 0. -1.
        -11    1    3    3    0    0  0.49211009256E+02  0.44199955450E+02  0.22910886196E+03  0.23846641299E+03  0.00000000000E+00 0. -1.
         11    1    3    3    0    0 -0.11256401916E+02  0.17106854616E+02  0.27031507347E+01  0.20655703398E+02  0.00000000000E+00 0.  1.
         21    1    1    2  502  501 -0.93897221211E+01 -0.42277072809E+02  0.31193353411E+03  0.31492546336E+03  0.00000000000E+00 0.  1.
<scales pt_clust_5="13000.00000" pt_clust_6="13000.00000" pt_clust_7="13000.00000" pt_clust_8="13000.00000" pt_clust_9="43.30725"></scales>
<clustering>
<clus scale="   43.307">  1  9  2 -1</clus>
<clus scale="   90.600">  7  8 -1 -1</clus>
<clus scale="   93.985">  5  6 -1 -1</clus>
<clus scale="  108.097">  2  7  1 -1</clus>
<clus scale="   43.307">  1  5  2 -1</clus>
</clustering>
</event>
<event>
 9    1  0.1435532E-005  0.1566310E+03  0.7546771E-02  0.1205609E+00
          1   -1    0    0  502    0  0.00000000000E+00  0.00000000000E+00  0.79314052004E+03  0.79314052004E+03  0.00000000000E+00 0. -1.
         -1   -1    0    0    0  501 -0.00000000000E+00 -0.00000000000E+00 -0.75504299886E+02  0.75504299886E+02  0.00000000000E+00 0.  1.
         23    2    1    2    0    0  0.51831814918E+02 -0.56540448754E+02  0.11461116308E+03  0.16443132099E+03  0.89546531138E+02 0.  0.
         23    2    1    2    0    0 -0.15859507409E+03 -0.66672241819E+01  0.15674789153E+03  0.24101061475E+03  0.91210555950E+02 0.  0.
        -13    1    4    4    0    0 -0.69412163366E+02  0.39069277140E+02  0.47445208996E+02  0.92711944732E+02  0.00000000000E+00 0.  1.
         13    1    4    4    0    0 -0.89182910729E+02 -0.45736501322E+02  0.10930268253E+03  0.14829867002E+03  0.00000000000E+00 0. -1.
        -13    1    3    3    0    0  0.58194285984E+02  0.10667539799E+01  0.43331512290E+02  0.72562613256E+02  0.00000000000E+00 0. -1.
         13    1    3    3    0    0 -0.63624710668E+01 -0.57607202733E+02  0.71279650790E+02  0.91868707738E+02  0.00000000000E+00 0.  1.
         21    1    1    2  502  501  0.10676325918E+03  0.63207672935E+02  0.44627716555E+03  0.46320288419E+03  0.00000000000E+00 0. -1.
<scales pt_clust_5="13000.00000" pt_clust_6="13000.00000" pt_clust_7="13000.00000" pt_clust_8="13000.00000" pt_clust_9="127.33378"></scales>
<clustering>
<clus scale="   89.547">  7  8 -1 -1</clus>
<clus scale="   91.211">  5  6 -1 -1</clus>
<clus scale="  117.906">  2  7  1 -1</clus>
<clus scale="  127.334">  1  9  2 -1</clus>
<clus scale="  127.334">  1  5  2 -1</clus>
</clustering>
</event>
<event>
 9    1  0.1435532E-005  0.1193949E+03  0.7546771E-02  0.1244101E+00
         -2   -1    0    0    0  501 -0.00000000000E+00  0.00000000000E+00  0.80810472060E+02  0.80810472060E+02  0.00000000000E+00 0.  1.
          2   -1    0    0  502    0  0.00000000000E+00 -0.00000000000E+00 -0.31567543564E+03  0.31567543564E+03  0.00000000000E+00 0. -1.
         23    2    1    2    0    0 -0.73029027138E+02  0.39182862090E+02 -0.19381251247E+02  0.12471321716E+03  0.91154912918E+02 0.  0.
         23    2    1    2    0    0  0.44629910935E+02 -0.54588663760E+02 -0.10238670358E+03  0.15415134080E+03  0.91147395126E+02 0.  0.
        -13    1    3    3    0    0 -0.17899450198E+01 -0.25596799539E+02 -0.11452656327E+02  0.28099170570E+02  0.00000000000E+00 0. -1.
         13    1    3    3    0    0 -0.71239082118E+02  0.64779661629E+02 -0.79285949202E+01  0.96614046593E+02  0.00000000000E+00 0.  1.
        -13    1    4    4    0    0  0.24068133542E+02 -0.78105414717E+02 -0.59500163485E+02  0.10109401721E+03  0.00000000000E+00 0. -1.
         13    1    4    4    0    0  0.20561777393E+02  0.23516750957E+02 -0.42886540099E+02  0.53057323593E+02  0.00000000000E+00 0.  1.
         21    1    1    2  502  501  0.28399116203E+02  0.15405801670E+02 -0.11309700875E+03  0.11762134974E+03  0.00000000000E+00 0.  1.
<scales pt_clust_5="13000.00000" pt_clust_6="13000.00000" pt_clust_7="13000.00000" pt_clust_8="13000.00000" pt_clust_9="32.30864"></scales>
<clustering>
<clus scale="   32.309">  2  9  1 -1</clus>
<clus scale="   91.147">  7  8 -1 -1</clus>
<clus scale="   91.155">  5  6 -1 -1</clus>
<clus scale="  119.389">  2  7  1 -1</clus>
<clus scale="   32.309">  2  5  1 -1</clus>
</clustering>
</event>
<event>
 9    1  0.1435532E-005  0.1602924E+03  0.7546771E-02  0.1188402E+00
         -2   -1    0    0    0  501 -0.00000000000E+00  0.00000000000E+00  0.14821345214E+03  0.14821345214E+03  0.00000000000E+00 0.  1.
          2   -1    0    0  502    0  0.00000000000E+00 -0.00000000000E+00 -0.39485085582E+03  0.39485085582E+03  0.00000000000E+00 0. -1.
         23    2    1    2    0    0  0.12005737403E+03  0.49064849846E+02  0.65376502234E+02  0.17152528091E+03  0.91245286975E+02 0.  0.
         23    2    1    2    0    0 -0.13713619317E+03 -0.35893979604E+02 -0.22115154697E+03  0.27815205710E+03  0.91465003647E+02 0.  0.
        -11    1    3    3    0    0  0.86335289462E+02  0.64168402127E+02  0.14346956552E+02  0.10852281419E+03  0.00000000000E+00 0.  1.
         11    1    3    3    0    0  0.33722084572E+02 -0.15103552281E+02  0.51029545682E+02  0.63002466713E+02  0.00000000000E+00 0. -1.
        -13    1    4    4    0    0 -0.23992839053E+02  0.89627846435E+01  0.12351059546E+00  0.25612557257E+02  0.00000000000E+00 0.  1.
         13    1    4    4    0    0 -0.11314335412E+03 -0.44856764247E+02 -0.22127505757E+03  0.25253949984E+03  0.00000000000E+00 0. -1.
         21    1    1    2  502  501  0.17078819135E+02 -0.13170870242E+02 -0.90862358933E+02  0.93386969953E+02  0.00000000000E+00 0.  1.
<scales pt_clust_5="13000.00000" pt_clust_6="13000.00000" pt_clust_7="13000.00000" pt_clust_8="13000.00000" pt_clust_9="21.56752"></scales>
<clustering>
<clus scale="   21.568">  2  9  1 -1</clus>
<clus scale="   91.245">  5  6 -1 -1</clus>
<clus scale="   91.465">  7  8 -1 -1</clus>
<clus scale="  160.167">  1  5  2 -1</clus>
<clus scale="   21.568">  2  5  1 -1</clus>
</clustering>
</event>
<event>
 9    1  0.1531534E-005  0.1220224E+03  0.7546771E-02  0.1244659E+00
          2   -1    0    0  502    0  0.00000000000E+00  0.00000000000E+00  0.77969725108E+03  0.77969725108E+03  0.00000000000E+00 0. -1.
         -2   -1    0    0    0  501 -0.00000000000E+00 -0.00000000000E+00 -0.51762629467E+02  0.51762629467E+02  0.00000000000E+00 0.  1.
         23    2    1    2    0    0  0.54770893754E+02  0.30841284727E+02  0.28672285081E+02  0.11293272531E+03  0.89334567036E+02 0.  0.
         23    2    1    2    0    0 -0.72118343073E+02 -0.48436685015E+02  0.64435483869E+03  0.65831614771E+03  0.10314952409E+03 0.  0.
        -11    1    4    4    0    0 -0.42125802894E+02 -0.79375790093E+02  0.48407134602E+03  0.49234151496E+03  0.00000000000E+00 0. -1.
         11    1    4    4    0    0 -0.29992540178E+02  0.30939105078E+02  0.16028349268E+03  0.16597463274E+03  0.00000000000E+00 0.  1.
        -13    1    3    3    0    0  0.69311662774E+02  0.47353494234E+02  0.33545047531E+02  0.90397622903E+02  0.00000000000E+00 0.  1.
         13    1    3    3    0    0 -0.14540769020E+02 -0.16512209507E+02 -0.48727624498E+01  0.22535102405E+02  0.00000000000E+00 0. -1.
         21    1    1    2  502  501  0.17347449319E+02  0.17595400288E+02  0.54907497838E+02  0.60211007532E+02  0.00000000000E+00 0. -1.
<scales pt_clust_5="13000.00000" pt_clust_6="13000.00000" pt_clust_7="13000.00000" pt_clust_8="13000.00000" pt_clust_9="24.70895"></scales>
<clustering>
<clus scale="   24.709">  1  9  2 -1</clus>
<clus scale="   89.335">  7  8 -1 -1</clus>
<clus scale="  103.150">  5  6 -1 -1</clus>
<clus scale="  110.591">  2  7  1 -1</clus>
<clus scale="   24.709">  1  5  2 -1</clus>
</clustering>
</event>
<event>
 9    1  0.1435532E-005  0.9513601E+02  0.7546771E-02  0.1292436E+00
         -2   -1    0    0    0  501 -0.00000000000E+00  0.00000000000E+00  0.43992355147E+02  0.43992355147E+02  0.00000000000E+00 0.  1.
          2   -1    0    0  502    0  0.00000000000E+00 -0.00000000000E+00 -0.40076297733E+03  0.40076297733E+03  0.00000000000E+00 0. -1.
         23    2    1    2    0    0  0.10124323889E+02 -0.12827213590E+02 -0.53875191886E+02  0.10803009025E+03  0.92200459632E+02 0.  0.
         23    2    1    2    0    0  0.27392970684E+02 -0.10247864046E+02 -0.17217583100E+03  0.19878460195E+03  0.94949500423E+02 0.  0.
        -13    1    3    3    0    0  0.38018217131E+02 -0.39578658530E+02 -0.29041534280E+02  0.62090786419E+02  0.00000000000E+00 0.  1.
         13    1    3    3    0    0 -0.27893893242E+02  0.26751444939E+02 -0.24833657606E+02  0.45939303833E+02  0.00000000000E+00 0. -1.
        -13    1    4    4    0    0  0.27385055548E+02  0.36026918450E+02 -0.46614820031E+02  0.64967850256E+02  0.00000000000E+00 0.  1.
         13    1    4    4    0    0  0.79151362687E-02 -0.46274782496E+02 -0.12556101097E+03  0.13381675170E+03  0.00000000000E+00 0. -1.
         21    1    1    2  502  501 -0.37517294573E+02  0.23075077636E+02 -0.13071959929E+03  0.13794064027E+03  0.00000000000E+00 0. -1.
<scales pt_clust_5="13000.00000" pt_clust_6="13000.00000" pt_clust_7="13000.00000" pt_clust_8="13000.00000" pt_clust_9="44.04551"></scales>
<clustering>
<clus scale="   44.046">  2  9  1 -1</clus>
<clus scale="   92.200">  5  6 -1 -1</clus>
<clus scale="   92.393">  1  5  2 -1</clus>
<clus scale="   94.950">  7  8 -1 -1</clus>
<clus scale="   44.046">  2  5  1 -1</clus>
</clustering>
</event>
<event>
 9    1  0.1435532E-005  0.1328764E+03  0.7546771E-02  0.1223686E+00
         -2   -1    0    0    0  501 -0.00000000000E+00  0.00000000000E+00  0.96037986990E+02  0.96037986990E+02  0.00000000000E+00 0.  1.
          2   -1    0    0  502    0  0.00000000000E+00 -0.00000000000E+00 -0.28382254117E+03  0.28382254117E+03  0.00000000000E+00 0. -1.
         23    2    1    2    0    0  0.93675330708E+01 -0.99846428205E+02  0.91419634650E+01  0.13650603505E+03  0.92158896519E+02 0.  0.
         23    2    1    2    0    0 -0.16352146431E+02  0.80614102835E+02 -0.17377876940E+03  0.21245974580E+03  0.90410489548E+02 0.  0.
        -11    1    4    4    0    0 -0.26454827360E+02 -0.36520513304E+01 -0.10995422170E+02  0.28880697330E+02  0.00000000000E+00 0. -1.
         11    1    4    4    0    0  0.10102680929E+02  0.84266154165E+02 -0.16278334723E+03  0.18357904847E+03  0.00000000000E+00 0.  1.
        -13    1    3    3    0    0 -0.16242364342E+02 -0.55945174622E+02 -0.36039491975E+02  0.68501984969E+02  0.00000000000E+00 0. -1.
         13    1    3    3    0    0  0.25609897413E+02 -0.43901253583E+02  0.45181455440E+02  0.68004050080E+02  0.00000000000E+00 0.  1.
         21    1    1    2  502  501  0.69846133598E+01  0.19232325370E+02 -0.23147748241E+02  0.30894747313E+02  0.00000000000E+00 0.  1.
<scales pt_clust_5="13000.00000" pt_clust_6="13000.00000" pt_clust_7="13000.00000" pt_clust_8="13000.00000" pt_clust_9="20.46136"></scales>
<clustering>
<clus scale="   20.461">  2  9  1 -1</clus>
<clus scale="   90.410">  5  6 -1 -1</clus>
<clus scale="   92.159">  7  8 -1 -1</clus>
<clus scale="  131.670">  2  5  1 -1</clus>
<clus scale="   20.461">  2  5  1 -1</clus>
</clustering>
</event>
<event>
 9    1  0.1435532E-005  0.9141578E+02  0.7546771E-02  0.1300088E+00
          3   -1    0    0  502    0  0.00000000000E+00  0.00000000000E+00  0.24760710638E+02  0.24760710638E+02  0.00000000000E+00 0. -1.
         -3   -1    0    0    0  501 -0.00000000000E+00 -0.00000000000E+00 -0.44525990927E+03  0.44525990927E+03  0.00000000000E+00 0.  1.
         23    2    1    2    0    0 -0.88875853741E+00 -0.10107065664E+02 -0.24207069094E+03  0.25881238771E+03  0.91009284983E+02 0.  0.
         23    2    1    2    0    0 -0.16815182231E+02 -0.24183443126E+00 -0.15566328045E+03  0.18056863652E+03  0.89950913150E+02 0.  0.
        -11    1    4    4    0    0 -0.13439344412E+01 -0.36696264718E+02 -0.12557378084E+03  0.13083270401E+03  0.00000000000E+00 0.  1.
         11    1    4    4    0    0 -0.15471247790E+02  0.36454430287E+02 -0.30089499610E+02  0.49735932509E+02  0.00000000000E+00 0. -1.
        -11    1    3    3    0    0 -0.26892316759E+02 -0.31104793513E+02 -0.54414200849E+02  0.68202713540E+02  0.00000000000E+00 0. -1.
         11    1    3    3    0    0  0.26003558222E+02  0.20997727848E+02 -0.18765649009E+03  0.19060967417E+03  0.00000000000E+00 0.  1.
         21    1    1    2  502  501  0.17703940769E+02  0.10348900096E+02 -0.22765227247E+02  0.30639595682E+02  0.00000000000E+00 0. -1.
<scales pt_clust_5="13000.00000" pt_clust_6="13000.00000" pt_clust_7="13000.00000" pt_clust_8="13000.00000" pt_clust_9="20.50681"></scales>
<clustering>
<clus scale="   20.507">  1  9  2 -1</clus>
<clus scale="   89.951">  5  6 -1 -1</clus>
<clus scale="   90.362">  1  5  2 -1</clus>
<clus scale="   91.009">  7  8 -1 -1</clus>
<clus scale="   20.507">  1  5  2 -1</clus>
</clustering>
</event>
<event>
 9    1  0.1435532E-005  0.1459042E+03  0.7546771E-02  0.1206705E+00
          2   -1    0    0  502    0  0.00000000000E+00  0.00000000000E+00  0.80198387725E+02  0.80198387725E+02  0.00000000000E+00 0. -1.
         -2   -1    0    0    0  501 -0.00000000000E+00 -0.00000000000E+00 -0.33590557115E+03  0.33590557115E+03  0.00000000000E+00 0.  1.
         23    2    1    2    0    0  0.44268678114E+02 -0.10182860407E+03 -0.18936443047E+03  0.23894618010E+03  0.94380130254E+02 0.  0.
         23    2    1    2    0    0 -0.62992084807E+02  0.93759854853E+02 -0.56218790015E+02  0.15439453433E+03  0.88984306202E+02 0.  0.
        -11    1    4    4    0    0 -0.58948734104E+02  0.31794786917E+02 -0.62972519279E+02  0.91931495756E+02  0.00000000000E+00 0.  1.
         11    1    4    4    0    0 -0.40433507038E+01  0.61965067935E+02  0.67537292637E+01  0.62463038576E+02  0.00000000000E+00 0. -1.
        -13    1    3    3    0    0  0.59274076269E+02 -0.86539427816E+02 -0.92854597247E+02  0.14008734744E+03  0.00000000000E+00 0. -1.
         13    1    3    3    0    0 -0.15005398155E+02 -0.15289176251E+02 -0.96509833224E+02  0.98858832651E+02  0.00000000000E+00 0.  1.
         21    1    1    2  502  501  0.18723406694E+02  0.80687492135E+01 -0.10123962936E+02  0.22763244444E+02  0.00000000000E+00 0.  1.
<scales pt_clust_5="13000.00000" pt_clust_6="13000.00000" pt_clust_7="13000.00000" pt_clust_8="13000.00000" pt_clust_9="20.38800"></scales>
<clustering>
<clus scale="   20.388">  1  9  2 -1</clus>
<clus scale="   88.984">  5  6 -1 -1</clus>
<clus scale="   94.380">  7  8 -1 -1</clus>
<clus scale="  142.473">  1  5  2 -1</clus>
<clus scale="   20.388">  1  5  2 -1</clus>
</clustering>
</event>
<event>
 9    1  0.1435532E-005  0.9794043E+02  0.7546771E-02  0.1285981E+00
         -2   -1    0    0    0  501 -0.00000000000E+00  0.00000000000E+00  0.27120189995E+03  0.27120189995E+03  0.00000000000E+00 0.  1.
          2   -1    0    0  502    0  0.00000000000E+00 -0.00000000000E+00 -0.30975498983E+03  0.30975498983E+03  0.00000000000E+00 0. -1.
         23    2    1    2    0    0 -0.22238367941E+02  0.29991807430E+02  0.17404942127E+03  0.20085618941E+03  0.93037380982E+02 0.  0.
         23    2    1    2    0    0  0.41495679073E+02  0.29886864254E+02  0.46180503433E+02  0.11378331830E+03  0.90547714432E+02 0.  0.
        -11    1    3    3    0    0 -0.31840913866E+02 -0.22115057724E+02  0.35673384097E+02  0.52683108364E+02  0.00000000000E+00 0. -1.
         11    1    3    3    0    0  0.96025459255E+01  0.52106865153E+02  0.13837603717E+03  0.14817308105E+03  0.00000000000E+00 0.  1.
        -13    1    4    4    0    0 -0.16644194286E+02  0.21018452376E+02  0.47958809128E+02  0.54944079905E+02  0.00000000000E+00 0. -1.
         13    1    4    4    0    0  0.58139873359E+02  0.88684118783E+01 -0.17783056951E+01  0.58839238392E+02  0.00000000000E+00 0.  1.
         21    1    1    2  502  501 -0.19257311133E+02 -0.59878671683E+02 -0.25878301458E+03  0.26631738207E+03  0.00000000000E+00 0. -1.
<scales pt_clust_5="13000.00000" pt_clust_6="13000.00000" pt_clust_7="13000.00000" pt_clust_8="13000.00000" pt_clust_9="62.89912"></scales>
<clustering>
<clus scale="   62.899">  2  9  1 -1</clus>
<clus scale="   90.548">  7  8 -1 -1</clus>
<clus scale="   93.037">  5  6 -1 -1</clus>
<clus scale="   95.579">  2  7  1 -1</clus>
<clus scale="   62.899">  2  5  1 -1</clus>
</clustering>
</event>
<event>
 9    1  0.1435532E-005  0.1020273E+03  0.7546771E-02  0.1279270E+00
         -1   -1    0    0    0  501 -0.00000000000E+00  0.00000000000E+00  0.47989919801E+03  0.47989919801E+03  0.00000000000E+00 0.  1.
          1   -1    0    0  502    0  0.00000000000E+00 -0.00000000000E+00 -0.23665438914E+03  0.23665438914E+03  0.00000000000E+00 0. -1.
         23    2    1    2    0    0 -0.25299370641E+02 -0.16066781335E+02  0.45551157875E+03  0.46676079080E+03  0.97348024313E+02 0.  0.
         23    2    1    2    0    0  0.30220145047E+02  0.40717837486E+02 -0.14995459321E+03  0.18260130916E+03  0.91025593244E+02 0.  0.
        -11    1    3    3    0    0  0.26795797095E+02  0.23573196237E+02  0.18788021876E+03  0.19123986751E+03  0.00000000000E+00 0.  1.
         11    1    3    3    0    0 -0.52095167736E+02 -0.39639977572E+02  0.26763135999E+03  0.27552092329E+03  0.00000000000E+00 0. -1.
        -11    1    4    4    0    0 -0.26648185576E+02  0.13129743565E+02 -0.14354380885E+02  0.32993396478E+02  0.00000000000E+00 0.  1.
         11    1    4    4    0    0  0.56868330622E+02  0.27588093920E+02 -0.13560021232E+03  0.14960791268E+03  0.00000000000E+00 0. -1.
         21    1    1    2  502  501 -0.49207744056E+01 -0.24651056151E+02 -0.62312176669E+02  0.67191487194E+02  0.00000000000E+00 0.  1.
<scales pt_clust_5="13000.00000" pt_clust_6="13000.00000" pt_clust_7="13000.00000" pt_clust_8="13000.00000" pt_clust_9="25.13739"></scales>
<clustering>
<clus scale="   25.137">  2  9  1 -1</clus>
<clus scale="   91.026">  7  8 -1 -1</clus>
<clus scale="   96.014">  2  7  1 -1</clus>
<clus scale="   97.348">  5  6 -1 -1</clus>
<clus scale="   25.137">  2  5  1 -1</clus>
</clustering>
</event>
<event>
 9    1  0.1435532E-005  0.1043177E+03  0.7546771E-02  0.1271777E+00
          2   -1    0    0  502    0  0.00000000000E+00  0.00000000000E+00  0.35385887046E+03  0.35385887046E+03  0.00000000000E+00 0. -1.
         -2   -1    0    0    0  501 -0.00000000000E+00 -0.00000000000E+00 -0.95976695972E+02  0.95976695972E+02  0.00000000000E+00 0.  1.
         23    2    1    2    0    0  0.48229896551E+02 -0.45101845249E+02 -0.20462527350E+02  0.11268526652E+03  0.88988509930E+02 0.  0.
         23    2    1    2    0    0 -0.41511235940E+02 -0.37071579923E+02  0.13032351289E+03  0.16771628744E+03  0.89705352752E+02 0.  0.
        -11    1    4    4    0    0 -0.68882321635E+01 -0.62164775254E+02  0.71539615147E+02  0.95025383767E+02  0.00000000000E+00 0.  1.
         11    1    4    4    0    0 -0.34623003777E+02  0.25093195331E+02  0.58783897747E+02  0.72690903673E+02  0.00000000000E+00 0. -1.
        -13    1    3    3    0    0  0.29637511460E+02 -0.36359464219E+02 -0.55130797310E+02  0.72386445802E+02  0.00000000000E+00 0.  1.
         13    1    3    3    0    0  0.18592385091E+02 -0.87423810305E+01  0.34668269960E+02  0.40298820721E+02  0.00000000000E+00 0. -1.
         21    1    1    2  502  501 -0.67186606110E+01  0.82173425172E+02  0.14802118895E+03  0.16943401247E+03  0.00000000000E+00 0. -1.
<scales pt_clust_5="13000.00000" pt_clust_6="13000.00000" pt_clust_7="13000.00000" pt_clust_8="13000.00000" pt_clust_9="82.44763"></scales>
<clustering>
<clus scale="   82.448">  1  9  2 -1</clus>
<clus scale="   88.989">  7  8 -1 -1</clus>
<clus scale="   89.705">  5  6 -1 -1</clus>
<clus scale="  103.702">  2  7  1 -1</clus>
<clus scale="   82.448">  1  5  2 -1</clus>
</clustering>
</event>
<event>
 9    1  0.1435532E-005  0.9142516E+02  0.7546771E-02  0.1300188E+00
          1   -1    0    0  502    0  0.00000000000E+00  0.00000000000E+00  0.15943485392E+03  0.15943485392E+03  0.00000000000E+00 0. -1.
         -1   -1    0    0    0  501 -0.00000000000E+00 -0.00000000000E+00 -0.12928800674E+03  0.12928800674E+03  0.00000000000E+00 0.  1.
         23    2    1    2    0    0 -0.22188125174E+02  0.84229593443E+00 -0.73572461608E+02  0.11846904782E+03  0.90160888545E+02 0.  0.
         23    2    1    2    0    0 -0.51268688277E+01  0.28646726780E-01  0.10906840673E+03  0.14240636615E+03  0.91418653280E+02 0.  0.
        -11    1    4    4    0    0  0.30473967698E+02  0.30810508669E+02  0.63649241353E+02  0.77001143345E+02  0.00000000000E+00 0.  1.
         11    1    4    4    0    0 -0.35600836526E+02 -0.30781861943E+02  0.45419165378E+02  0.65405222801E+02  0.00000000000E+00 0. -1.
        -11    1    3    3    0    0  0.12590476631E+01 -0.36790617052E+02 -0.62872483235E+02  0.72856597863E+02  0.00000000000E+00 0.  1.
         11    1    3    3    0    0 -0.23447172837E+02  0.37632912987E+02 -0.10699978373E+02  0.45612449957E+02  0.00000000000E+00 0. -1.
         21    1    1    2  502  501  0.27314994001E+02 -0.87094266121E+00 -0.53490979456E+01  0.27847446692E+02  0.00000000000E+00 0.  1.
<scales pt_clust_5="13000.00000" pt_clust_6="13000.00000" pt_clust_7="13000.00000" pt_clust_8="13000.00000" pt_clust_9="27.32888"></scales>
<clustering>
<clus scale="   27.329">  2  9  1 -1</clus>
<clus scale="   90.161">  7  8 -1 -1</clus>
<clus scale="   90.167">  2  7  1 -1</clus>
<clus scale="   91.419">  5  6 -1 -1</clus>
<clus scale="   91.425">  1  5  2 -1</clus>
</clustering>
</event>
<event>
 9    1  0.1435532E-005  0.1924093E+03  0.7546771E-02  0.1157437E+00
         -2   -1    0    0    0  501 -0.00000000000E+00  0.00000000000E+00  0.42062896475E+02  0.42062896475E+02  0.00000000000E+00 0.  1.
          2   -1    0    0  502    0  0.00000000000E+00 -0.00000000000E+00 -0.11593501612E+04  0.11593501612E+04  0.00000000000E+00 0. -1.
         23    2    1    2    0    0  0.53118552198E+02  0.12699689675E+03 -0.48212640241E+03  0.51173699830E+03  0.10236745161E+03 0.  0.
         23    2    1    2    0    0 -0.45241116609E+02 -0.18375121986E+03 -0.47676614280E+03  0.52123617588E+03  0.92573898549E+02 0.  0.
        -11    1    3    3    0    0  0.37410443384E+02  0.64726768340E+02 -0.40277216991E+03  0.40965170165E+03  0.00000000000E+00 0. -1.
         11    1    3    3    0    0  0.15708108814E+02  0.62270128407E+02 -0.79354232505E+02  0.10208529664E+03  0.00000000000E+00 0.  1.
        -13    1    4    4    0    0 -0.28539710492E+02 -0.22128674097E+02 -0.34009526069E+02  0.49606866014E+02  0.00000000000E+00 0. -1.
         13    1    4    4    0    0 -0.16701406118E+02 -0.16162254576E+03 -0.44275661673E+03  0.47162930987E+03  0.00000000000E+00 0.  1.
         21    1    1    2  502  501 -0.78774355889E+01  0.56754323113E+02 -0.15839471946E+03  0.16843988345E+03  0.00000000000E+00 0. -1.
<scales pt_clust_5="13000.00000" pt_clust_6="13000.00000" pt_clust_7="13000.00000" pt_clust_8="13000.00000" pt_clust_9="57.29840"></scales>
<clustering>
<clus scale="   57.298">  2  9  1 -1</clus>
<clus scale="   92.574">  7  8 -1 -1</clus>
<clus scale="  102.367">  5  6 -1 -1</clus>
<clus scale="  187.382">  2  7  1 -1</clus>
<clus scale="   57.298">  2  5  1 -1</clus>
</clustering>
</event>
<event>
 9    1  0.1435532E-005  0.1357610E+03  0.7546771E-02  0.1237329E+00
          1   -1    0    0  502    0  0.00000000000E+00  0.00000000000E+00  0.74861204345E+03  0.74861204345E+03  0.00000000000E+00 0. -1.
         -1   -1    0    0    0  501 -0.00000000000E+00 -0.00000000000E+00 -0.10314816887E+03  0.10314816887E+03  0.00000000000E+00 0.  1.
         23    2    1    2    0    0  0.17886431892E+00  0.10885414641E+02 -0.46050950426E+02  0.10392552016E+03  0.92527290361E+02 0.  0.
         23    2    1    2    0    0  0.87400340897E+02  0.40808241671E+02  0.16552374350E+03  0.21210251175E+03  0.91023258855E+02 0.  0.
        -11    1    4    4    0    0  0.84063452193E+02  0.65523271300E+02  0.12253271553E+03  0.16240144535E+03  0.00000000000E+00 0.  1.
         11    1    4    4    0    0  0.33368887038E+01 -0.24715029629E+02  0.42991027967E+02  0.49701066402E+02  0.00000000000E+00 0. -1.
        -11    1    3    3    0    0  0.23457506509E+02 -0.32530871946E+02 -0.35465162397E+02  0.53537743556E+02  0.00000000000E+00 0. -1.
         11    1    3    3    0    0 -0.23278642190E+02  0.43416286586E+02 -0.10585788029E+02  0.50387776606E+02  0.00000000000E+00 0.  1.
         21    1    1    2  502  501 -0.87579205216E+02 -0.51693656311E+02  0.52599108151E+03  0.53573218040E+03  0.00000000000E+00 0. -1.
<scales pt_clust_5="13000.00000" pt_clust_6="13000.00000" pt_clust_7="13000.00000" pt_clust_8="13000.00000" pt_clust_9="100.72649"></scales>
<clustering>
<clus scale="   91.023">  5  6 -1 -1</clus>
<clus scale="   92.527">  7  8 -1 -1</clus>
<clus scale="   93.166">  2  7  1 -1</clus>
<clus scale="  100.726">  1  9  2 -1</clus>
<clus scale="  100.726">  1  5  2 -1</clus>
</clustering>
</event>
<event>
 9    1  0.1435532E-005  0.1420285E+03  0.7546771E-02  0.1210638E+00
         -1   -1    0    0    0  501 -0.00000000000E+00  0.00000000000E+00  0.12292730773E+03  0.12292730773E+03  0.00000000000E+00 0.  1.
          1   -1    0    0  502    0  0.00000000000E+00 -0.00000000000E+00 -0.34179447828E+03  0.34179447828E+03  0.00000000000E+00 0. -1.
         23    2    1    2    0    0  0.14821502715E+02  0.10203030841E+03  0.18096519186E+02  0.13956647485E+03  0.92311733374E+02 0.  0.
         23    2    1    2    0    0 -0.63447415961E+02 -0.10931831898E+03 -0.11680011189E+03  0.19532126333E+03  0.92369152394E+02 0.  0.
        -13    1    4    4    0    0 -0.31198525835E+02 -0.10425929012E+03 -0.47547429436E+02  0.11876070746E+03  0.00000000000E+00 0. -1.
         13    1    4    4    0    0 -0.32248890127E+02 -0.50590288561E+01 -0.69252682453E+02  0.76560555864E+02  0.00000000000E+00 0.  1.
        -13    1    3    3    0    0 -0.85152380818E+01  0.27982005955E+02  0.48130630694E+02  0.56321040010E+02  0.00000000000E+00 0.  1.
         13    1    3    3    0    0  0.23336740797E+02  0.74048302459E+02 -0.30034111507E+02  0.83245434843E+02  0.00000000000E+00 0. -1.
         21    1    1    2  502  501  0.48625913246E+02  0.72880105641E+01 -0.12016357784E+03  0.12983404783E+03  0.00000000000E+00 0.  1.
<scales pt_clust_5="13000.00000" pt_clust_6="13000.00000" pt_clust_7="13000.00000" pt_clust_8="13000.00000" pt_clust_9="49.16904"></scales>
<clustering>
<clus scale="   49.169">  2  9  1 -1</clus>
<clus scale="   92.312">  7  8 -1 -1</clus>
<clus scale="   92.369">  5  6 -1 -1</clus>
<clus scale="  141.991">  1  7  2 -1</clus>
<clus scale="   49.169">  2  5  1 -1</clus>
</clustering>
</event>
<event>
 9    1  0.1435532E-005  0.1163131E+03  0.7546771E-02  0.1256424E+00
         -2   -1    0    0    0  501 -0.00000000000E+00  0.00000000000E+00  0.39771324784E+02  0.39771324784E+02  0.00000000000E+00 0.  1.
          2   -1    0    0  502    0  0.00000000000E+00 -0.00000000000E+00 -0.50218989651E+03  0.50218989651E+03  0.00000000000E+00 0. -1.
         23    2    1    2    0    0  0.52672835998E+02 -0.37237330050E+02 -0.68883490742E+02  0.12268084783E+03  0.78387554670E+02 0.  0.
         23    2    1    2    0    0 -0.34170115824E+02  0.54430380191E+02 -0.35020784352E+03  0.36912859250E+03  0.97365913117E+02 0.  0.
        -11    1    3    3    0    0  0.21425248112E+02 -0.39483801551E+02 -0.78036576372E+02  0.90042873640E+02  0.00000000000E+00 0. -1.
         11    1    3    3    0    0  0.31247587886E+02  0.22464715015E+01  0.91530856300E+01  0.32637974194E+02  0.00000000000E+00 0.  1.
        -11    1    4    4    0    0 -0.27196388455E+00 -0.27671173964E+02 -0.91851932636E+02  0.95929898165E+02  0.00000000000E+00 0.  1.
         11    1    4    4    0    0 -0.33898151940E+02  0.82101554155E+02 -0.25835591088E+03  0.27319869434E+03  0.00000000000E+00 0. -1.
         21    1    1    2  502  501 -0.18502720174E+02 -0.17193050141E+02 -0.43327237464E+02  0.50151780958E+02  0.00000000000E+00 0. -1.
<scales pt_clust_5="13000.00000" pt_clust_6="13000.00000" pt_clust_7="13000.00000" pt_clust_8="13000.00000" pt_clust_9="25.25770"></scales>
<clustering>
<clus scale="   25.258">  2  9  1 -1</clus>
<clus scale="   78.388">  5  6 -1 -1</clus>
<clus scale="   97.366">  7  8 -1 -1</clus>
<clus scale="  100.962">  1  5  2 -1</clus>
<clus scale="   25.258">  2  5  1 -1</clus>
</clustering>
</event>
<event>
 9    1  0.1435532E-005  0.1272706E+03  0.7546771E-02  0.1231985E+00
          2   -1    0    0  502    0  0.00000000000E+00  0.00000000000E+00  0.63743838206E+03  0.63743838206E+03  0.00000000000E+00 0. -1.
         -2   -1    0    0    0  501 -0.00000000000E+00 -0.00000000000E+00 -0.49124821514E+02  0.49124821514E+02  0.00000000000E+00 0.  1.
         23    2    1    2    0    0 -0.72108848137E+02 -0.40492588092E+02  0.75656148540E+02  0.14460736816E+03  0.91367950857E+02 0.  0.
         23    2    1    2    0    0  0.95109243271E+02  0.50904602939E+02  0.34593354084E+03  0.37333117101E+03  0.89828179392E+02 0.  0.
        -11    1    4    4    0    0 -0.10933487403E+02  0.29676337381E+02  0.64568892871E+02  0.71898317600E+02  0.00000000000E+00 0.  1.
         11    1    4    4    0    0  0.10604273067E+03  0.21228265558E+02  0.28136464797E+03  0.30143285341E+03  0.00000000000E+00 0. -1.
        -13    1    3    3    0    0 -0.50506566531E+02 -0.67154829696E+02  0.34021762356E+02  0.90654093829E+02  0.00000000000E+00 0.  1.
         13    1    3    3    0    0 -0.21602281606E+02  0.26662241604E+02  0.41634386184E+02  0.53953274330E+02  0.00000000000E+00 0. -1.
         21    1    1    2  502  501 -0.23000395133E+02 -0.10412014847E+02  0.16672387117E+03  0.16862466441E+03  0.00000000000E+00 0.  1.
<scales pt_clust_5="13000.00000" pt_clust_6="13000.00000" pt_clust_7="13000.00000" pt_clust_8="13000.00000" pt_clust_9="25.24734"></scales>
<clustering>
<clus scale="   25.247">  1  9  2 -1</clus>
<clus scale="   89.828">  5  6 -1 -1</clus>
<clus scale="   91.368">  7  8 -1 -1</clus>
<clus scale="  126.170">  1  5  2 -1</clus>
<clus scale="   25.247">  1  5  2 -1</clus>
</clustering>
</event>
<event>
 9    1  0.1435532E-005  0.9204316E+02  0.7546771E-02  0.1298595E+00
          2   -1    0    0  502    0  0.00000000000E+00  0.00000000000E+00  0.36066756847E+03  0.36066756847E+03  0.00000000000E+00 0. -1.
         -2   -1    0    0    0  501 -0.00000000000E+00 -0.00000000000E+00 -0.30151409140E+02  0.30151409140E+02  0.00000000000E+00 0.  1.
         23    2    1    2    0    0 -0.22939855929E+01 -0.77618359721E+01  0.12484973945E+03  0.15531119552E+03  0.92025005007E+02 0.  0.
         23    2    1    2    0    0 -0.47185760334E+01 -0.12494361748E+02  0.15109870964E+03  0.17688078687E+03  0.90981419397E+02 0.  0.
        -11    1    4    4    0    0 -0.82553174712E+01  0.30487845921E+02  0.11899652394E+03  0.12311714634E+03  0.00000000000E+00 0. -1.
         11    1    4    4    0    0  0.35367414379E+01 -0.42982207669E+02  0.32102185704E+02  0.53763640530E+02  0.00000000000E+00 0.  1.
        -13    1    3    3    0    0 -0.40108278700E+02 -0.56101666965E+01  0.10502123664E+03  0.11255935384E+03  0.00000000000E+00 0. -1.
         13    1    3    3    0    0  0.37814293107E+02 -0.21516692756E+01  0.19828502807E+02  0.42751841685E+02  0.00000000000E+00 0.  1.
         21    1    1    2  502  501  0.70125616263E+01  0.20256197720E+02  0.54567710246E+02  0.58626995217E+02  0.00000000000E+00 0. -1.
<scales pt_clust_5="13000.00000" pt_clust_6="13000.00000" pt_clust_7="13000.00000" pt_clust_8="13000.00000" pt_clust_9="21.43571"></scales>
<clustering>
<clus scale="   21.436">  1  9  2 -1</clus>
<clus scale="   90.981">  5  6 -1 -1</clus>
<clus scale="   91.000">  1  5  2 -1</clus>
<clus scale="   92.025">  7  8 -1 -1</clus>
<clus scale="   21.436">  1  5  2 -1</clus>
</clustering>
</event>
<event>
 9    1  0.1435532E-005  0.1013177E+03  0.7546771E-02  0.1277615E+00
         -1   -1    0    0    0  501 -0.00000000000E+00  0.00000000000E+00  0.67395266831E+02  0.67395266831E+02  0.00000000000E+00 0.  1.
          1   -1    0    0  502    0  0.00000000000E+00 -0.00000000000E+00 -0.24695413488E+03  0.24695413488E+03  0.00000000000E+00 0. -1.
         23    2    1    2    0    0  0.25222177284E+01 -0.30232298639E+02 -0.38450909737E+02  0.10302819706E+03  0.90642062345E+02 0.  0.
         23    2    1    2    0    0  0.53621057968E+01  0.70579210032E+02 -0.91382668086E+02  0.14680267782E+03  0.90498934365E+02 0.  0.
        -11    1    3    3    0    0 -0.39840295225E+02  0.33931881056E+01 -0.74016099806E+01  0.40663825195E+02  0.00000000000E+00 0. -1.
         11    1    3    3    0    0  0.42362512954E+02 -0.33625486745E+02 -0.31049299756E+02  0.62364371863E+02  0.00000000000E+00 0.  1.
        -13    1    4    4    0    0 -0.40351291634E+02  0.19719244171E+02 -0.48420420077E+02  0.66042504553E+02  0.00000000000E+00 0.  1.
         13    1    4    4    0    0  0.45713397431E+02  0.50859965861E+02 -0.42962248010E+02  0.80760173267E+02  0.00000000000E+00 0. -1.
         21    1    1    2  502  501 -0.78843235252E+01 -0.40346911393E+02 -0.49725290223E+02  0.64518526829E+02  0.00000000000E+00 0.  1.
<scales pt_clust_5="13000.00000" pt_clust_6="13000.00000" pt_clust_7="13000.00000" pt_clust_8="13000.00000" pt_clust_9="41.11005"></scales>
<clustering>
<clus scale="   41.110">  2  9  1 -1</clus>
<clus scale="   90.499">  7  8 -1 -1</clus>
<clus scale="   90.642">  5  6 -1 -1</clus>
<clus scale="  101.190">  2  7  1 -1</clus>
<clus scale="   41.110">  2  5  1 -1</clus>
</clustering>
</event>
<event>
 9    1  0.1435532E-005  0.1022922E+03  0.7546771E-02  0.1281774E+00
         -3   -1    0    0    0  501 -0.00000000000E+00  0.00000000000E+00  0.71497957877E+02  0.71497957877E+02  0.00000000000E+00 0.  1.
          3   -1    0    0  502    0  0.00000000000E+00 -0.00000000000E+00 -0.28595579015E+03  0.28595579015E+03  0.00000000000E+00 0. -1.
         23    2    1    2    0    0  0.40100409056E+01  0.19446749873E+01  0.13403437646E+02  0.91527554053E+02  0.90431072212E+02 0.  0.
         23    2    1    2    0    0 -0.29901360330E+02 -0.10052689226E+02 -0.20197589218E+03  0.22842748604E+03  0.10192991437E+03 0.  0.
        -13    1    3    3    0    0 -0.32124073379E+01  0.36232352583E+02 -0.21348632404E+02  0.42176617220E+02  0.00000000000E+00 0.  1.
         13    1    3    3    0    0  0.72224482435E+01 -0.34287677596E+02  0.34752070049E+02  0.49350936833E+02  0.00000000000E+00 0. -1.
        -13    1    4    4    0    0 -0.64523866137E+02 -0.19505667072E+02 -0.10253207329E+03  0.12270544569E+03  0.00000000000E+00 0.  1.
         13    1    4    4    0    0  0.34622505807E+02  0.94529778459E+01 -0.99443818892E+02  0.10572204034E+03  0.00000000000E+00 0. -1.
         21    1    1    2  502  501  0.25891319424E+02  0.81080142387E+01 -0.25885377731E+02  0.37498707934E+02  0.00000000000E+00 0.  1.
<scales pt_clust_5="13000.00000" pt_clust_6="13000.00000" pt_clust_7="13000.00000" pt_clust_8="13000.00000" pt_clust_9="27.13117"></scales>
<clustering>
<clus scale="   27.131">  2  9  1 -1</clus>
<clus scale="   90.431">  5  6 -1 -1</clus>
<clus scale="   90.839">  1  5  2 -1</clus>
<clus scale="  101.930">  7  8 -1 -1</clus>
<clus scale="   27.131">  2  5  1 -1</clus>
</clustering>
</event>
<event>
 9    1  0.1435532E-005  0.1208383E+03  0.7546771E-02  0.1249091E+00
          1   -1    0    0  502    0  0.00000000000E+00  0.00000000000E+00  0.55938302484E+02  0.55938302484E+02  0.00000000000E+00 0. -1.
         -1   -1    0    0    0  501 -0.00000000000E+00 -0.00000000000E+00 -0.72167790884E+03  0.72167790884E+03  0.00000000000E+00 0.  1.
         23    2    1    2    0    0 -0.40550456451E+02 -0.16272514198E+02 -0.56113941197E+03  0.57409721055E+03  0.11314165127E+03 0.  0.
         23    2    1    2    0    0  0.24618813176E+02  0.37493314537E+02 -0.12970199292E+03  0.16699175185E+03  0.95140967106E+02 0.  0.
        -11    1    3    3    0    0 -0.62215503332E+02 -0.49709707301E+02 -0.41788995768E+03  0.42541020273E+03  0.00000000000E+00 0.  1.
         11    1    3    3    0    0  0.21665046881E+02  0.33437193103E+02 -0.14324945429E+03  0.14868700782E+03  0.00000000000E+00 0. -1.
        -13    1    4    4    0    0  0.31635078214E+02 -0.14571395507E+02 -0.10161753744E+03  0.10742079713E+03  0.00000000000E+00 0.  1.
         13    1    4    4    0    0 -0.70162650380E+01  0.52064710044E+02 -0.28084455485E+02  0.59570954726E+02  0.00000000000E+00 0. -1.
         21    1    1    2  502  501  0.15931643275E+02 -0.21220800340E+02  0.25101798536E+02  0.36527248928E+02  0.00000000000E+00 0. -1.
<scales pt_clust_5="13000.00000" pt_clust_6="13000.00000" pt_clust_7="13000.00000" pt_clust_8="13000.00000" pt_clust_9="26.53563"></scales>
<clustering>
<clus scale="   26.536">  1  9  2 -1</clus>
<clus scale="   95.141">  7  8 -1 -1</clus>
<clus scale="  104.176">  1  7  2 -1</clus>
<clus scale="  113.142">  5  6 -1 -1</clus>
<clus scale="   26.536">  1  5  2 -1</clus>
</clustering>
</event>
<event>
 9    1  0.1435532E-005  0.9669717E+02  0.7546771E-02  0.1287493E+00
         -2   -1    0    0    0  501 -0.00000000000E+00  0.00000000000E+00  0.11811845932E+03  0.11811845932E+03  0.00000000000E+00 0.  1.
          2   -1    0    0  502    0  0.00000000000E+00 -0.00000000000E+00 -0.32968679273E+03  0.32968679273E+03  0.00000000000E+00 0. -1.
         23    2    1    2    0    0 -0.27312719687E+01 -0.42842230018E+02  0.69671231538E+02  0.12155352889E+03  0.89879159771E+02 0.  0.
         23    2    1    2    0    0  0.23591208804E+02  0.26853382966E+02 -0.28386627390E+03  0.29983809421E+03  0.89694882625E+02 0.  0.
        -13    1    4    4    0    0 -0.10035102804E+02  0.53009638394E+02 -0.15962866522E+03  0.16849936442E+03  0.00000000000E+00 0.  1.
         13    1    4    4    0    0  0.33626311608E+02 -0.26156255428E+02 -0.12423760868E+03  0.13133872979E+03  0.00000000000E+00 0. -1.
        -13    1    3    3    0    0 -0.30469310840E+02 -0.53914177646E+02  0.67506251716E+02  0.91609014158E+02  0.00000000000E+00 0.  1.
         13    1    3    3    0    0  0.27738038871E+02  0.11071947628E+02  0.21649798224E+01  0.29944514728E+02  0.00000000000E+00 0. -1.
         21    1    1    2  502  501 -0.20859936835E+02  0.15988847052E+02  0.26267089513E+01  0.26413628958E+02  0.00000000000E+00 0.  1.
<scales pt_clust_5="13000.00000" pt_clust_6="13000.00000" pt_clust_7="13000.00000" pt_clust_8="13000.00000" pt_clust_9="26.28270"></scales>
<clustering>
<clus scale="   26.283">  1  9  2 -1</clus>
<clus scale="   89.695">  5  6 -1 -1</clus>
<clus scale="   89.879">  7  8 -1 -1</clus>
<clus scale="   96.526">  2  5  1 -1</clus>
<clus scale="   96.526">  2  5  1 -1</clus>
</clustering>
</event>
<event>
 9    1  0.1435532E-005  0.1023389E+03  0.7546771E-02  0.1276338E+00
          3   -1    0    0  502    0  0.00000000000E+00  0.00000000000E+00  0.38791082185E+03  0.38791082185E+03  0.00000000000E+00 0. -1.
         -3   -1    0    0    0  501 -0.00000000000E+00 -0.00000000000E+00 -0.53146671750E+02  0.53146671750E+02  0.00000000000E+00 0.  1.
         23    2    1    2    0    0 -0.90222903886E+01 -0.68825431580E+02  0.64098391942E+02  0.13058662893E+03  0.90143896353E+02 0.  0.
         23    2    1    2    0    0 -0.52606961807E+01  0.83910996855E+01  0.17842604362E+03  0.19927519427E+03  0.88185398634E+02 0.  0.
        -13    1    3    3    0    0  0.67905673057E+01 -0.27492153960E+02 -0.20603466574E+02  0.35020467851E+02  0.00000000000E+00 0.  1.
         13    1    3    3    0    0 -0.15812857694E+02 -0.41333277620E+02  0.84701858516E+02  0.95566161079E+02  0.00000000000E+00 0. -1.
        -13    1    4    4    0    0 -0.17001615525E+02 -0.30533356725E+02  0.32263202333E+02  0.47563168820E+02  0.00000000000E+00 0.  1.
         13    1    4    4    0    0  0.11740919344E+02  0.38924456411E+02  0.14616284129E+03  0.15171202545E+03  0.00000000000E+00 0. -1.
         21    1    1    2  502  501  0.14282986569E+02  0.60434331895E+02  0.92239714536E+02  0.11119567040E+03  0.00000000000E+00 0. -1.
<scales pt_clust_5="13000.00000" pt_clust_6="13000.00000" pt_clust_7="13000.00000" pt_clust_8="13000.00000" pt_clust_9="62.09921"></scales>
<clustering>
<clus scale="   62.099">  1  9  2 -1</clus>
<clus scale="   88.185">  7  8 -1 -1</clus>
<clus scale="   90.144">  5  6 -1 -1</clus>
<clus scale="  100.618">  1  7  2 -1</clus>
<clus scale="   62.099">  1  5  2 -1</clus>
</clustering>
</event>
<event>
 9    1  0.1435532E-005  0.2306615E+03  0.7546771E-02  0.1145073E+00
          2   -1    0    0  502    0  0.00000000000E+00  0.00000000000E+00  0.63879632048E+03  0.63879632048E+03  0.00000000000E+00 0. -1.
         -2   -1    0    0    0  501 -0.00000000000E+00 -0.00000000000E+00 -0.59834103877E+03  0.59834103877E+03  0.00000000000E+00 0.  1.
         23    2    1    2    0    0 -0.30203605162E+02 -0.11095845736E+03  0.47192345845E+01  0.14576744458E+03  0.89453002740E+02 0.  0.
         23    2    1    2    0    0 -0.12749433157E+03 -0.36045952484E+02 -0.49391925714E+03  0.51951881770E+03  0.91593963213E+02 0.  0.
        -11    1    3    3    0    0  0.88009113844E+00 -0.11336769915E+03  0.11203523744E+02  0.11392334579E+03  0.00000000000E+00 0.  1.
         11    1    3    3    0    0 -0.31083696301E+02  0.24092417934E+01 -0.64842891598E+01  0.31844098788E+02  0.00000000000E+00 0. -1.
        -13    1    4    4    0    0 -0.49567244076E+02 -0.58364356493E+02 -0.29358541160E+03  0.30340682869E+03  0.00000000000E+00 0.  1.
         13    1    4    4    0    0 -0.77927087497E+02  0.22318404008E+02 -0.20033384554E+03  0.21611198901E+03  0.00000000000E+00 0. -1.
         21    1    1    2  502  501  0.15769793673E+03  0.14700440984E+03  0.52965530427E+03  0.57185109697E+03  0.00000000000E+00 0. -1.
<scales pt_clust_5="13000.00000" pt_clust_6="13000.00000" pt_clust_7="13000.00000" pt_clust_8="13000.00000" pt_clust_9="211.69622"></scales>
<clustering>
<clus scale="   89.453">  5  6 -1 -1</clus>
<clus scale="   91.594">  7  8 -1 -1</clus>
<clus scale="  145.691">  2  5  1 -1</clus>
<clus scale="  211.696">  1  9  2 -1</clus>
<clus scale="  211.696">  1  5  2 -1</clus>
</clustering>
</event>
<event>
 9    1  0.1435532E-005  0.1989038E+03  0.7546771E-02  0.1152239E+00
         -1   -1    0    0    0  501 -0.00000000000E+00  0.00000000000E+00  0.18241071908E+03  0.18241071908E+03  0.00000000000E+00 0.  1.
          1   -1    0    0  502    0  0.00000000000E+00 -0.00000000000E+00 -0.38341328489E+03  0.38341328489E+03  0.00000000000E+00 0. -1.
         23    2    1    2    0    0  0.16684309990E+03  0.24701167491E+02  0.41226174620E+02  0.19625964583E+03  0.91495811079E+02 0.  0.
         23    2    1    2    0    0 -0.15945377204E+03 -0.60441590211E+02 -0.10291985638E+03  0.22555413227E+03  0.10584648553E+03 0.  0.
        -11    1    3    3    0    0  0.23149651446E+02 -0.30079412356E+02  0.51580233436E+01  0.38305125173E+02  0.00000000000E+00 0. -1.
         11    1    3    3    0    0  0.14369344846E+03  0.54780579847E+02  0.36068151276E+02  0.15795452065E+03  0.00000000000E+00 0.  1.
        -13    1    4    4    0    0 -0.15414758793E+03 -0.19688279834E+02 -0.99033357450E+02  0.18427347372E+03  0.00000000000E+00 0. -1.
         13    1    4    4    0    0 -0.53061841116E+01 -0.40753310377E+02 -0.38864989309E+01  0.41280658551E+02  0.00000000000E+00 0.  1.
         21    1    1    2  502  501 -0.73893278602E+01  0.35740422720E+02 -0.13930888405E+03  0.14401022588E+03  0.00000000000E+00 0. -1.
<scales pt_clust_5="13000.00000" pt_clust_6="13000.00000" pt_clust_7="13000.00000" pt_clust_8="13000.00000" pt_clust_9="36.49630"></scales>
<clustering>
<clus scale="   36.496">  2  9  1 -1</clus>
<clus scale="   91.496">  5  6 -1 -1</clus>
<clus scale="  105.846">  7  8 -1 -1</clus>
<clus scale="  191.653">  1  5  2 -1</clus>
<clus scale="   36.496">  2  5  1 -1</clus>
</clustering>
</event>
<event>
 9    1  0.1435532E-005  0.1142997E+03  0.7546771E-02  0.1253032E+00
         -1   -1    0    0    0  501 -0.00000000000E+00  0.00000000000E+00  0.26953163618E+03  0.26953163618E+03  0.00000000000E+00 0.  1.
          1   -1    0    0  502    0  0.00000000000E+00 -0.00000000000E+00 -0.14857110552E+03  0.14857110552E+03  0.00000000000E+00 0. -1.
         23    2    1    2    0    0 -0.48546898356E+00 -0.74478786760E+02  0.21597700675E+03  0.24588363175E+03  0.90914066902E+02 0.  0.
         23    2    1    2    0    0 -0.21839856400E+02  0.36998979935E+02 -0.64467471513E+02  0.11896126777E+03  0.90276378427E+02 0.  0.
        -11    1    3    3    0    0 -0.33636846234E+02 -0.62560846337E+02  0.18776427431E+03  0.20075039135E+03  0.00000000000E+00 0.  1.
         11    1    3    3    0    0  0.33151377250E+02 -0.11917940423E+02  0.28212732439E+02  0.45133240402E+02  0.00000000000E+00 0. -1.
        -11    1    4    4    0    0 -0.56688695566E+02  0.30858563917E+02 -0.43419730682E+02  0.77789023547E+02  0.00000000000E+00 0. -1.
         11    1    4    4    0    0  0.34848839166E+02  0.61404160176E+01 -0.21047740832E+02  0.41172244221E+02  0.00000000000E+00 0.  1.
         21    1    1    2  502  501  0.22325325384E+02  0.37479806826E+02 -0.30549004571E+02  0.53257842178E+02  0.00000000000E+00 0. -1.
<scales pt_clust_5="13000.00000" pt_clust_6="13000.00000" pt_clust_7="13000.00000" pt_clust_8="13000.00000" pt_clust_9="43.62518"></scales>
<clustering>
<clus scale="   43.625">  2  9  1 -1</clus>
<clus scale="   90.276">  7  8 -1 -1</clus>
<clus scale="   90.914">  5  6 -1 -1</clus>
<clus scale="  113.793">  2  7  1 -1</clus>
<clus scale="   43.625">  2  5  1 -1</clus>
</clustering>
</event>
<event>
 9    1  0.1435532E-005  0.9507271E+02  0.7546771E-02  0.1291188E+00
         -1   -1    0    0    0  501 -0.00000000000E+00  0.00000000000E+00  0.10017904001E+03  0.10017904001E+03  0.00000000000E+00 0.  1.
          1   -1    0    0  502    0  0.00000000000E+00 -0.00000000000E+00 -0.18789040811E+03  0.18789040811E+03  0.00000000000E+00 0. -1.
         23    2    1    2    0    0  0.29709401330E+01  0.14361887146E+02  0.12462656397E+02  0.93320337315E+02  0.91314167928E+02 0.  0.
         23    2    1    2    0    0  0.25016573410E+01 -0.43408006085E+02 -0.11763675247E+02  0.10152885440E+03  0.90990169465E+02 0.  0.
        -11    1    3    3    0    0  0.21709932441E+02 -0.49037216639E+01  0.45547732132E+02  0.50694807970E+02  0.00000000000E+00 0.  1.
         11    1    3    3    0    0 -0.18738992308E+02  0.19265608810E+02 -0.33085075735E+02  0.42625529345E+02  0.00000000000E+00 0. -1.
        -11    1    4    4    0    0  0.25752869842E+02 -0.63609490350E+02 -0.15923054154E+02  0.70448003671E+02  0.00000000000E+00 0.  1.
         11    1    4    4    0    0 -0.23251212501E+02  0.20201484265E+02  0.41593789064E+01  0.31080850731E+02  0.00000000000E+00 0. -1.
         21    1    1    2  502  501 -0.54725974740E+01  0.29046118939E+02 -0.88410349247E+02  0.93220256396E+02  0.00000000000E+00 0. -1.
<scales pt_clust_5="13000.00000" pt_clust_6="13000.00000" pt_clust_7="13000.00000" pt_clust_8="13000.00000" pt_clust_9="29.55717"></scales>
<clustering>
<clus scale="   29.557">  2  9  1 -1</clus>
<clus scale="   90.990">  7  8 -1 -1</clus>
<clus scale="   91.314">  5  6 -1 -1</clus>
<clus scale="   94.762">  2  7  1 -1</clus>
<clus scale="   29.557">  2  5  1 -1</clus>
</clustering>
</event>
<event>
 9    1  0.1435532E-005  0.1477295E+03  0.7546771E-02  0.1203445E+00
         -1   -1    0    0    0  501 -0.00000000000E+00  0.00000000000E+00  0.10244586068E+03  0.10244586068E+03  0.00000000000E+00 0.  1.
          1   -1    0    0  502    0  0.00000000000E+00 -0.00000000000E+00 -0.74527612587E+03  0.74527612587E+03  0.00000000000E+00 0. -1.
         23    2    1    2    0    0 -0.40011172998E+02 -0.10733683259E+03  0.20945353867E+02  0.14762591738E+03  0.90733753572E+02 0.  0.
         23    2    1    2    0    0  0.94790339177E+02  0.10475995199E+03 -0.48529538989E+03  0.51338080583E+03  0.89935423533E+02 0.  0.
        -11    1    4    4    0    0  0.29685267566E+02  0.14656384897E+02 -0.29885958063E+02  0.44600394820E+02  0.00000000000E+00 0.  1.
         11    1    4    4    0    0  0.65105071611E+02  0.90103567094E+02 -0.45540943182E+03  0.46878041101E+03  0.00000000000E+00 0. -1.
        -11    1    3    3    0    0 -0.42676660592E+01 -0.10536943342E+03 -0.13288888649E+01  0.10546419496E+03  0.00000000000E+00 0.  1.
         11    1    3    3    0    0 -0.35743506939E+02 -0.19673991710E+01  0.22274242732E+02  0.42161722416E+02  0.00000000000E+00 0. -1.
         21    1    1    2  502  501 -0.54779166179E+02  0.25768806037E+01 -0.17848022916E+03  0.18671526334E+03  0.00000000000E+00 0. -1.
<scales pt_clust_5="13000.00000" pt_clust_6="13000.00000" pt_clust_7="13000.00000" pt_clust_8="13000.00000" pt_clust_9="54.83974"></scales>
<clustering>
<clus scale="   54.840">  2  9  1 -1</clus>
<clus scale="   89.935">  5  6 -1 -1</clus>
<clus scale="   90.734">  7  8 -1 -1</clus>
<clus scale="  147.240">  2  5  1 -1</clus>
<clus scale="   54.840">  2  5  1 -1</clus>
</clustering>
</event>
<event>
 9    1  0.1435532E-005  0.9220060E+02  0.7546771E-02  0.1302490E+00
         -4   -1    0    0    0  501 -0.00000000000E+00  0.00000000000E+00  0.36233590157E+03  0.36233590157E+03  0.00000000000E+00 0.  1.
          4   -1    0    0  502    0  0.00000000000E+00 -0.00000000000E+00 -0.54496272775E+02  0.54496272775E+02  0.00000000000E+00 0. -1.
         23    2    1    2    0    0  0.16875404857E+02 -0.35712744828E+01  0.19153565136E+03  0.20984443586E+03  0.83971710871E+02 0.  0.
         23    2    1    2    0    0  0.28348740986E+02  0.13181885600E+02  0.12666988958E+03  0.15960589231E+03  0.91931315172E+02 0.  0.
        -13    1    4    4    0    0  0.46988187798E+02 -0.74933383892E+00  0.12794313933E+03  0.13630076374E+03  0.00000000000E+00 0.  1.
         13    1    4    4    0    0 -0.18639446813E+02  0.13931219439E+02 -0.12732497536E+01  0.23305128566E+02  0.00000000000E+00 0. -1.
        -13    1    3    3    0    0  0.23125349241E+02 -0.40799309459E+02  0.12235638499E+03  0.13103606518E+03  0.00000000000E+00 0.  1.
         13    1    3    3    0    0 -0.62499443839E+01  0.37228034976E+02  0.69179266372E+02  0.78808370677E+02  0.00000000000E+00 0. -1.
         21    1    1    2  502  501 -0.45224145843E+02 -0.96106111174E+01 -0.10365912145E+02  0.47381846185E+02  0.00000000000E+00 0. -1.
<scales pt_clust_5="13000.00000" pt_clust_6="13000.00000" pt_clust_7="13000.00000" pt_clust_8="13000.00000" pt_clust_9="46.23405"></scales>
<clustering>
<clus scale="   46.234">  2  9  1 -1</clus>
<clus scale="   83.972">  7  8 -1 -1</clus>
<clus scale="   84.266">  1  7  2 -1</clus>
<clus scale="   91.931">  5  6 -1 -1</clus>
<clus scale="   46.234">  2  5  1 -1</clus>
</clustering>
</event>
<event>
 9    1  0.1435532E-005  0.1045941E+03  0.7546771E-02  0.1273080E+00
         -2   -1    0    0    0  501 -0.00000000000E+00  0.00000000000E+00  0.24047726286E+02  0.24047726286E+02  0.00000000000E+00 0.  1.
          2   -1    0    0  502    0  0.00000000000E+00 -0.00000000000E+00 -0.88700946029E+03  0.88700946029E+03  0.00000000000E+00 0. -1.
         23    2    1    2    0    0  0.14571589307E+02  0.33708719440E+02 -0.15316950681E+03  0.18374886718E+03  0.94626314474E+02 0.  0.
         23    2    1    2    0    0 -0.51727983964E+02 -0.44753032028E+02 -0.41958325559E+03  0.43452201217E+03  0.89892449537E+02 0.  0.
        -11    1    4    4    0    0 -0.58782831252E+02  0.50065396275E+01 -0.28050497389E+03  0.28664180970E+03  0.00000000000E+00 0. -1.
         11    1    4    4    0    0  0.70548472878E+01 -0.49759571655E+02 -0.13907828170E+03  0.14788020247E+03  0.00000000000E+00 0.  1.
        -13    1    3    3    0    0  0.12332980829E+02  0.60841551348E+02 -0.14073522754E+03  0.15381872792E+03  0.00000000000E+00 0. -1.
         13    1    3    3    0    0  0.22386084779E+01 -0.27132831907E+02 -0.12434279269E+02  0.29930139261E+02  0.00000000000E+00 0.  1.
         21    1    1    2  502  501  0.37156394657E+02  0.11044312588E+02 -0.29020897159E+03  0.29278630722E+03  0.00000000000E+00 0.  1.
<scales pt_clust_5="13000.00000" pt_clust_6="13000.00000" pt_clust_7="13000.00000" pt_clust_8="13000.00000" pt_clust_9="38.76306"></scales>
<clustering>
<clus scale="   38.763">  2  9  1 -1</clus>
<clus scale="   89.892">  5  6 -1 -1</clus>
<clus scale="   94.626">  7  8 -1 -1</clus>
<clus scale="  100.332">  2  5  1 -1</clus>
<clus scale="   38.763">  2  5  1 -1</clus>
</clustering>
</event>
<event>
 9    1  0.1435532E-005  0.1112225E+03  0.7546771E-02  0.1258467E+00
         -1   -1    0    0    0  501 -0.00000000000E+00  0.00000000000E+00  0.25006809868E+03  0.25006809868E+03  0.00000000000E+00 0.  1.
          1   -1    0    0  502    0  0.00000000000E+00 -0.00000000000E+00 -0.11862062595E+03  0.11862062595E+03  0.00000000000E+00 0. -1.
         23    2    1    2    0    0  0.66927614986E+02  0.30527670809E+02  0.16650420557E+03  0.20358829549E+03  0.91177295719E+02 0.  0.
         23    2    1    2    0    0 -0.22548566367E+02  0.64176774631E-01 -0.53940610060E+02  0.10798684132E+03  0.90791665484E+02 0.  0.
        -11    1    3    3    0    0  0.84860881221E+01  0.46587984143E+02  0.35306554982E+02  0.59067815118E+02  0.00000000000E+00 0. -1.
         11    1    3    3    0    0  0.58441526864E+02 -0.16060313334E+02  0.13119765059E+03  0.14452048037E+03  0.00000000000E+00 0.  1.
        -13    1    4    4    0    0 -0.54060278701E+02 -0.17865221947E+02 -0.37516439295E+02  0.68184771803E+02  0.00000000000E+00 0. -1.
         13    1    4    4    0    0  0.31511712334E+02  0.17929398722E+02 -0.16424170766E+02  0.39802069520E+02  0.00000000000E+00 0.  1.
         21    1    1    2  502  501 -0.44379048619E+02 -0.30591847584E+02  0.18883877215E+02  0.57113587820E+02  0.00000000000E+00 0.  1.
<scales pt_clust_5="13000.00000" pt_clust_6="13000.00000" pt_clust_7="13000.00000" pt_clust_8="13000.00000" pt_clust_9="53.90140"></scales>
<clustering>
<clus scale="   53.901">  2  9  1 -1</clus>
<clus scale="   90.792">  7  8 -1 -1</clus>
<clus scale="   91.177">  5  6 -1 -1</clus>
<clus scale="  110.907">  2  7  1 -1</clus>
<clus scale="   53.901">  2  5  1 -1</clus>
</clustering>
</event>
<event>
 9    1  0.1435532E-005  0.1122989E+03  0.7546771E-02  0.1256719E+00
         -1   -1    0    0    0  501 -0.00000000000E+00  0.00000000000E+00  0.30892914905E+03  0.30892914905E+03  0.00000000000E+00 0.  1.
          1   -1    0    0  502    0  0.00000000000E+00 -0.00000000000E+00 -0.13542526901E+03  0.13542526901E+03  0.00000000000E+00 0. -1.
         23    2    1    2    0    0  0.35537831510E+02  0.56758559319E+02  0.24734490361E+03  0.27272888822E+03  0.93365269806E+02 0.  0.
         23    2    1    2    0    0 -0.39932469010E+02 -0.22204406862E+02 -0.16343541440E+02  0.10440006782E+03  0.92437141069E+02 0.  0.
        -11    1    4    4    0    0 -0.35541383455E+02  0.32095710942E+02 -0.13950232763E+01  0.47908983382E+02  0.00000000000E+00 0.  1.
         11    1    4    4    0    0 -0.43910855548E+01 -0.54300117803E+02 -0.14948518164E+02  0.56491084439E+02  0.00000000000E+00 0. -1.
        -11    1    3    3    0    0 -0.16524456773E+02  0.60257886141E+02  0.12604521106E+03  0.14068214437E+03  0.00000000000E+00 0. -1.
         11    1    3    3    0    0  0.52062288283E+02 -0.34993268218E+01  0.12129969255E+03  0.13204674385E+03  0.00000000000E+00 0.  1.
         21    1    1    2  502  501  0.43946375002E+01 -0.34554152457E+02 -0.57497482135E+02  0.67225462011E+02  0.00000000000E+00 0. -1.
<scales pt_clust_5="13000.00000" pt_clust_6="13000.00000" pt_clust_7="13000.00000" pt_clust_8="13000.00000" pt_clust_9="34.83249"></scales>
<clustering>
<clus scale="   34.832">  2  9  1 -1</clus>
<clus scale="   92.437">  5  6 -1 -1</clus>
<clus scale="   93.365">  7  8 -1 -1</clus>
<clus scale="  111.528">  2  5  1 -1</clus>
<clus scale="   34.832">  2  5  1 -1</clus>
</clustering>
</event>
<event>
 9    1  0.1435532E-005  0.1471889E+03  0.7546771E-02  0.1217968E+00
          1   -1    0    0  502    0  0.00000000000E+00  0.00000000000E+00  0.12372897644E+03  0.12372897644E+03  0.00000000000E+00 0. -1.
         -1   -1    0    0    0  501 -0.00000000000E+00 -0.00000000000E+00 -0.10378666037E+04  0.10378666037E+04  0.00000000000E+00 0.  1.
         23    2    1    2    0    0 -0.51049683634E+02  0.25390014747E+02 -0.58508739005E+03  0.59519281766E+03  0.93147802714E+02 0.  0.
         23    2    1    2    0    0 -0.32658116490E+01 -0.12601923175E+03 -0.40157249107E+03  0.43099268289E+03  0.92750821153E+02 0.  0.
        -11    1    3    3    0    0  0.12985606898E+02 -0.24532978433E+02 -0.16756391272E+03  0.16984745469E+03  0.00000000000E+00 0.  1.
         11    1    3    3    0    0 -0.64035290532E+02  0.49922993180E+02 -0.41752347733E+03  0.42534536297E+03  0.00000000000E+00 0. -1.
        -11    1    4    4    0    0  0.41292639807E+02 -0.54430555035E+02 -0.22809183915E+03  0.23810429334E+03  0.00000000000E+00 0.  1.
         11    1    4    4    0    0 -0.44558451456E+02 -0.71588676714E+02 -0.17348065192E+03  0.19288838954E+03  0.00000000000E+00 0. -1.
         21    1    1    2  502  501  0.54315495283E+02  0.10062921700E+03  0.72522253878E+02  0.13541007957E+03  0.00000000000E+00 0. -1.
<scales pt_clust_5="13000.00000" pt_clust_6="13000.00000" pt_clust_7="13000.00000" pt_clust_8="13000.00000" pt_clust_9="114.28846"></scales>
<clustering>
<clus scale="   92.751">  7  8 -1 -1</clus>
<clus scale="   93.148">  5  6 -1 -1</clus>
<clus scale="  109.212">  2  5  1 -1</clus>
<clus scale="  114.288">  1  9  2 -1</clus>
<clus scale="  114.288">  1  5  2 -1</clus>
</clustering>
</event>
<event>
 9    1  0.1435532E-005  0.1001454E+03  0.7546771E-02  0.1280879E+00
         -1   -1    0    0    0  501 -0.00000000000E+00  0.00000000000E+00  0.37390129023E+02  0.37390129023E+02  0.00000000000E+00 0.  1.
          1   -1    0    0  502    0  0.00000000000E+00 -0.00000000000E+00 -0.52699691878E+03  0.52699691878E+03  0.00000000000E+00 0. -1.
         23    2    1    2    0    0  0.10262471274E+02 -0.25909389355E+02 -0.84347674573E+02  0.12914176337E+03  0.93736065982E+02 0.  0.
         23    2    1    2    0    0 -0.44124885837E+02  0.31463083248E+02 -0.19582904069E+03  0.22302261190E+03  0.91940965213E+02 0.  0.
        -13    1    3    3    0    0  0.21524304681E+02 -0.53580015473E+02 -0.25452012709E+02  0.63102446078E+02  0.00000000000E+00 0.  1.
         13    1    3    3    0    0 -0.11261833408E+02  0.27670626117E+02 -0.58895661864E+02  0.66039317288E+02  0.00000000000E+00 0. -1.
        -13    1    4    4    0    0  0.20109096301E+02  0.14932513258E+02 -0.11862233495E+03  0.12123784086E+03  0.00000000000E+00 0. -1.
         13    1    4    4    0    0 -0.64233982138E+02  0.16530569990E+02 -0.77206705732E+02  0.10178477104E+03  0.00000000000E+00 0.  1.
         21    1    1    2  502  501  0.33862414564E+02 -0.55536938925E+01 -0.20943007450E+03  0.21222267254E+03  0.00000000000E+00 0. -1.
<scales pt_clust_5="13000.00000" pt_clust_6="13000.00000" pt_clust_7="13000.00000" pt_clust_8="13000.00000" pt_clust_9="34.31482"></scales>
<clustering>
<clus scale="   34.315">  2  9  1 -1</clus>
<clus scale="   91.941">  7  8 -1 -1</clus>
<clus scale="   93.736">  5  6 -1 -1</clus>
<clus scale="   98.467">  2  7  1 -1</clus>
<clus scale="   34.315">  2  5  1 -1</clus>
</clustering>
</event>
<event>
 9    1  0.1435532E-005  0.1045203E+03  0.7546771E-02  0.1273064E+00
         -1   -1    0    0    0  501 -0.00000000000E+00  0.00000000000E+00  0.88110315390E+02  0.88110315390E+02  0.00000000000E+00 0.  1.
          1   -1    0    0  502    0  0.00000000000E+00 -0.00000000000E+00 -0.27505034183E+03  0.27505034183E+03  0.00000000000E+00 0. -1.
         23    2    1    2    0    0  0.23137131091E+02 -0.47342570110E+02  0.27223934102E+02  0.10619324062E+03  0.88086412034E+02 0.  0.
         23    2    1    2    0    0 -0.27821549462E+02  0.25484486562E+02 -0.10281687414E+03  0.14339852456E+03  0.92565271923E+02 0.  0.
        -13    1    4    4    0    0 -0.42219430678E+02 -0.22537048922E+02 -0.64413275065E+02  0.80246301507E+02  0.00000000000E+00 0. -1.
         13    1    4    4    0    0  0.14397881216E+02  0.48021535484E+02 -0.38403599079E+02  0.63152223049E+02  0.00000000000E+00 0.  1.
        -13    1    3    3    0    0 -0.72282375592E+01  0.23829094296E+02  0.28358048361E+01  0.25062221415E+02  0.00000000000E+00 0. -1.
         13    1    3    3    0    0  0.30365368650E+02 -0.71171664406E+02  0.24388129266E+02  0.81131019202E+02  0.00000000000E+00 0.  1.
         21    1    1    2  502  501  0.46844183709E+01  0.21858083548E+02 -0.11134708640E+03  0.11356889205E+03  0.00000000000E+00 0.  1.
<scales pt_clust_5="13000.00000" pt_clust_6="13000.00000" pt_clust_7="13000.00000" pt_clust_8="13000.00000" pt_clust_9="22.35441"></scales>
<clustering>
<clus scale="   22.354">  2  9  1 -1</clus>
<clus scale="   88.086">  7  8 -1 -1</clus>
<clus scale="   92.565">  5  6 -1 -1</clus>
<clus scale="  100.575">  1  7  2 -1</clus>
<clus scale="   22.354">  2  5  1 -1</clus>
</clustering>
</event>
<event>
 9    1  0.1435532E-005  0.1054244E+03  0.7546771E-02  0.1270617E+00
         -1   -1    0    0    0  501 -0.00000000000E+00  0.00000000000E+00  0.46596584142E+02  0.46596584142E+02  0.00000000000E+00 0.  1.
          1   -1    0    0  502    0  0.00000000000E+00 -0.00000000000E+00 -0.34054847187E+03  0.34054847187E+03  0.00000000000E+00 0. -1.
         23    2    1    2    0    0  0.13354855629E+02  0.42651708041E+02 -0.63035277266E+02  0.12037858122E+03  0.92304042544E+02 0.  0.
         23    2    1    2    0    0 -0.28649020758E+02 -0.59198383473E+02 -0.19706044747E+03  0.22609776781E+03  0.89230968024E+02 0.  0.
        -11    1    4    4    0    0 -0.48432391428E+02 -0.47506203435E+01 -0.59704211884E+02  0.77025046899E+02  0.00000000000E+00 0.  1.
         11    1    4    4    0    0  0.19783370671E+02 -0.54447763129E+02 -0.13735623558E+03  0.14907272091E+03  0.00000000000E+00 0. -1.
        -13    1    3    3    0    0  0.36342638534E+02  0.62201922938E+02 -0.48794724907E+02  0.87010296928E+02  0.00000000000E+00 0. -1.
         13    1    3    3    0    0 -0.22987782905E+02 -0.19550214897E+02 -0.14240552359E+02  0.33368284296E+02  0.00000000000E+00 0.  1.
         21    1    1    2  502  501  0.15294165129E+02  0.16546675432E+02 -0.33856162997E+02  0.40668706983E+02  0.00000000000E+00 0. -1.
<scales pt_clust_5="13000.00000" pt_clust_6="13000.00000" pt_clust_7="13000.00000" pt_clust_8="13000.00000" pt_clust_9="22.53229"></scales>
<clustering>
<clus scale="   22.532">  2  9  1 -1</clus>
<clus scale="   89.231">  5  6 -1 -1</clus>
<clus scale="   92.304">  7  8 -1 -1</clus>
<clus scale="  102.744">  2  5  1 -1</clus>
<clus scale="   22.532">  2  5  1 -1</clus>
</clustering>
</event>
<event>
 9    1  0.1435532E-005  0.9783568E+02  0.7546771E-02  0.1293048E+00
         -1   -1    0    0    0  501 -0.00000000000E+00  0.00000000000E+00  0.32773958583E+03  0.32773958583E+03  0.00000000000E+00 0.  1.
          1   -1    0    0  502    0  0.00000000000E+00 -0.00000000000E+00 -0.18087159926E+03  0.18087159926E+03  0.00000000000E+00 0. -1.
         23    2    1    2    0    0 -0.32417435763E+02 -0.16863164780E+02  0.30109502890E+03  0.31272173741E+03  0.76167001712E+02 0.  0.
         23    2    1    2    0    0  0.14145625257E+02 -0.18861010525E+01 -0.10270178175E+03  0.13809458193E+03  0.91207464015E+02 0.  0.
        -13    1    3    3    0    0 -0.37672485103E+02 -0.42126102553E+02  0.17113831732E+03  0.18022804528E+03  0.00000000000E+00 0.  1.
         13    1    3    3    0    0  0.52550493400E+01  0.25262937773E+02  0.12995671159E+03  0.13249369213E+03  0.00000000000E+00 0. -1.
        -13    1    4    4    0    0  0.20239953601E+02  0.42006160471E+02 -0.64491584754E+02  0.79582270283E+02  0.00000000000E+00 0.  1.
         13    1    4    4    0    0 -0.60943283441E+01 -0.43892261523E+02 -0.38210196997E+02  0.58512311646E+02  0.00000000000E+00 0. -1.
         21    1    1    2  502  501  0.18271810506E+02  0.18749265832E+02 -0.51525260582E+02  0.57794865745E+02  0.00000000000E+00 0. -1.
<scales pt_clust_5="13000.00000" pt_clust_6="13000.00000" pt_clust_7="13000.00000" pt_clust_8="13000.00000" pt_clust_9="26.18003"></scales>
<clustering>
<clus scale="   26.180">  2  9  1 -1</clus>
<clus scale="   76.167">  5  6 -1 -1</clus>
<clus scale="   83.991">  1  5  2 -1</clus>
<clus scale="   91.207">  7  8 -1 -1</clus>
<clus scale="   26.180">  2  5  1 -1</clus>
</clustering>
</event>
<event>
 9    1  0.1435532E-005  0.1544797E+03  0.7546771E-02  0.1195287E+00
          1   -1    0    0  502    0  0.00000000000E+00  0.00000000000E+00  0.33222469238E+03  0.33222469238E+03  0.00000000000E+00 0. -1.
         -1   -1    0    0    0  501 -0.00000000000E+00 -0.00000000000E+00 -0.27149090981E+03  0.27149090981E+03  0.00000000000E+00 0.  1.
         23    2    1    2    0    0  0.83153508029E+02  0.90975191115E+02 -0.21516822107E+03  0.26362882660E+03  0.89508678664E+02 0.  0.
         23    2    1    2    0    0 -0.10142870949E+03 -0.99515005207E+02  0.20014937557E+03  0.26169435202E+03  0.90736662758E+02 0.  0.
        -11    1    3    3    0    0  0.56426639280E+02  0.61477629294E+01 -0.12343196274E+03  0.13585731499E+03  0.00000000000E+00 0.  1.
         11    1    3    3    0    0  0.26726868749E+02  0.84827428185E+02 -0.91736258330E+02  0.12777151161E+03  0.00000000000E+00 0. -1.
        -13    1    4    4    0    0 -0.92560213769E+02 -0.29670140426E+02  0.10190861109E+03  0.14082995214E+03  0.00000000000E+00 0. -1.
         13    1    4    4    0    0 -0.88684957201E+01 -0.69844864780E+02  0.98240764478E+02  0.12086439988E+03  0.00000000000E+00 0.  1.
         21    1    1    2  502  501  0.18275201460E+02  0.85398140921E+01  0.75752628076E+02  0.78392423572E+02  0.00000000000E+00 0. -1.
<scales pt_clust_5="13000.00000" pt_clust_6="13000.00000" pt_clust_7="13000.00000" pt_clust_8="13000.00000" pt_clust_9="20.17205"></scales>
<clustering>
<clus scale="   20.172">  1  9  2 -1</clus>
<clus scale="   89.509">  5  6 -1 -1</clus>
<clus scale="   90.737">  7  8 -1 -1</clus>
<clus scale="  153.762">  2  5  1 -1</clus>
<clus scale="   20.172">  1  5  2 -1</clus>
</clustering>
</event>
<event>
 9    1  0.1435532E-005  0.1419565E+03  0.7546771E-02  0.1210775E+00
         -2   -1    0    0    0  501 -0.00000000000E+00  0.00000000000E+00  0.18200742020E+03  0.18200742020E+03  0.00000000000E+00 0.  1.
          2   -1    0    0  502    0  0.00000000000E+00 -0.00000000000E+00 -0.23533170736E+03  0.23533170736E+03  0.00000000000E+00 0. -1.
         23    2    1    2    0    0  0.11110976113E+03 -0.72994134826E+02  0.81292999598E+02  0.18101357057E+03  0.92107753257E+02 0.  0.
         23    2    1    2    0    0 -0.36551201984E+02  0.54786967714E+02 -0.56191070592E+02  0.12659337821E+03  0.92362572480E+02 0.  0.
        -11    1    4    4    0    0 -0.51556391311E+02  0.71860277657E+02 -0.33781070215E+02  0.94673764554E+02  0.00000000000E+00 0. -1.
         11    1    4    4    0    0  0.15005189328E+02 -0.17073309943E+02 -0.22410000377E+02  0.31919613658E+02  0.00000000000E+00 0.  1.
        -13    1    3    3    0    0  0.74891965649E+02 -0.93739966028E+02  0.59411202427E+02  0.13388681311E+03  0.00000000000E+00 0.  1.
         13    1    3    3    0    0  0.36217795480E+02  0.20745831203E+02  0.21881797171E+02  0.47126757465E+02  0.00000000000E+00 0. -1.
         21    1    1    2  502  501 -0.74558559146E+02  0.18207167112E+02 -0.78426216166E+02  0.10973217877E+03  0.00000000000E+00 0.  1.
<scales pt_clust_5="13000.00000" pt_clust_6="13000.00000" pt_clust_7="13000.00000" pt_clust_8="13000.00000" pt_clust_9="76.74946"></scales>
<clustering>
<clus scale="   76.749">  2  9  1 -1</clus>
<clus scale="   92.108">  7  8 -1 -1</clus>
<clus scale="   92.363">  5  6 -1 -1</clus>
<clus scale="  141.791">  1  7  2 -1</clus>
<clus scale="   76.749">  2  5  1 -1</clus>
</clustering>
</event>
<event>
 9    1  0.1435532E-005  0.1644213E+03  0.7546771E-02  0.1183924E+00
          3   -1    0    0  502    0  0.00000000000E+00  0.00000000000E+00  0.98541267594E+03  0.98541267594E+03  0.00000000000E+00 0. -1.
         -3   -1    0    0    0  501 -0.00000000000E+00 -0.00000000000E+00 -0.40364371295E+02  0.40364371295E+02  0.00000000000E+00 0.  1.
         23    2    1    2    0    0 -0.13016991580E+03  0.65515889218E+02  0.26238178189E+03  0.31354085535E+03  0.90703526854E+02 0.  0.
         23    2    1    2    0    0  0.98587472535E+02 -0.75506314425E+02  0.41913394327E+03  0.44662994239E+03  0.91566095173E+02 0.  0.
        -11    1    3    3    0    0 -0.56762935691E+02  0.52416646963E+02  0.20613553666E+03  0.22013949037E+03  0.00000000000E+00 0. -1.
         11    1    3    3    0    0 -0.73406980114E+02  0.13099242255E+02  0.56246245235E+02  0.93401364980E+02  0.00000000000E+00 0.  1.
        -11    1    4    4    0    0  0.28472176823E+02 -0.51836975062E+02  0.79835813093E+02  0.99355391846E+02  0.00000000000E+00 0.  1.
         11    1    4    4    0    0  0.70115295712E+02 -0.23669339363E+02  0.33929813017E+03  0.34727455055E+03  0.00000000000E+00 0. -1.
         21    1    1    2  502  501  0.31582443270E+02  0.99904252067E+01  0.26353257948E+03  0.26560624949E+03  0.00000000000E+00 0.  1.
<scales pt_clust_5="13000.00000" pt_clust_6="13000.00000" pt_clust_7="13000.00000" pt_clust_8="13000.00000" pt_clust_9="33.12490"></scales>
<clustering>
<clus scale="   33.125">  1  9  2 -1</clus>
<clus scale="   90.704">  5  6 -1 -1</clus>
<clus scale="   91.566">  7  8 -1 -1</clus>
<clus scale="  163.942">  2  5  1 -1</clus>
<clus scale="   33.125">  1  5  2 -1</clus>
</clustering>
</event>
<event>
 9    1  0.1435532E-005  0.1061240E+03  0.7546771E-02  0.1268537E+00
         -4   -1    0    0    0  501 -0.00000000000E+00  0.00000000000E+00  0.34820823205E+03  0.34820823205E+03  0.00000000000E+00 0.  1.
          4   -1    0    0  502    0  0.00000000000E+00 -0.00000000000E+00 -0.68557832657E+02  0.68557832657E+02  0.00000000000E+00 0. -1.
         23    2    1    2    0    0  0.30410879998E+02  0.41036855658E+02  0.18968288979E+03  0.21626118442E+03  0.90445873672E+02 0.  0.
         23    2    1    2    0    0 -0.10233229678E+02 -0.59184531407E+02  0.11821461484E+03  0.16133378557E+03  0.91904120998E+02 0.  0.
        -11    1    3    3    0    0  0.32640437599E+02 -0.22914872772E+02  0.72738444751E+02  0.82954028869E+02  0.00000000000E+00 0. -1.
         11    1    3    3    0    0 -0.22295576013E+01  0.63951728430E+02  0.11694444504E+03  0.13330715556E+03  0.00000000000E+00 0.  1.
        -11    1    4    4    0    0  0.26955251111E+02  0.74918219034E+01  0.56930985368E+02  0.63433824202E+02  0.00000000000E+00 0.  1.
         11    1    4    4    0    0 -0.37188480790E+02 -0.66676353310E+02  0.61283629471E+02  0.97899961365E+02  0.00000000000E+00 0. -1.
         21    1    1    2  502  501 -0.20177650319E+02  0.18147675749E+02 -0.28247105233E+02  0.39171094720E+02  0.00000000000E+00 0. -1.
<scales pt_clust_5="13000.00000" pt_clust_6="13000.00000" pt_clust_7="13000.00000" pt_clust_8="13000.00000" pt_clust_9="27.13809"></scales>
<clustering>
<clus scale="   27.138">  2  9  1 -1</clus>
<clus scale="   90.446">  5  6 -1 -1</clus>
<clus scale="   91.904">  7  8 -1 -1</clus>
<clus scale="  104.864">  1  5  2 -1</clus>
<clus scale="   27.138">  2  5  1 -1</clus>
</clustering>
</event>
<event>
 9    1  0.1435532E-005  0.2536961E+03  0.7546771E-02  0.1111395E+00
          1   -1    0    0  502    0  0.00000000000E+00  0.00000000000E+00  0.54996316472E+03  0.54996316472E+03  0.00000000000E+00 0. -1.
         -1   -1    0    0    0  501 -0.00000000000E+00 -0.00000000000E+00 -0.13311822217E+03  0.13311822217E+03  0.00000000000E+00 0.  1.
         23    2    1    2    0    0  0.18136505527E+03 -0.16441535743E+03  0.17976855584E+03  0.31707184037E+03  0.91061107279E+02 0.  0.
         23    2    1    2    0    0 -0.18278465337E+03  0.13280961759E+03  0.21906233319E+03  0.32960289639E+03  0.97985404308E+02 0.  0.
        -11    1    4    4    0    0 -0.16532911858E+03  0.14318098588E+03  0.17164912928E+03  0.27802506317E+03  0.00000000000E+00 0.  1.
         11    1    4    4    0    0 -0.17455534788E+02 -0.10371368291E+02  0.47413203913E+02  0.51577833225E+02  0.00000000000E+00 0. -1.
        -13    1    3    3    0    0  0.68778392959E+01 -0.38370313759E+02  0.40254302972E+01  0.39189153352E+02  0.00000000000E+00 0.  1.
         13    1    3    3    0    0  0.17448721598E+03 -0.12604504367E+03  0.17574312554E+03  0.27788268702E+03  0.00000000000E+00 0. -1.
         21    1    1    2  502  501  0.14195980927E+01  0.31605739835E+02  0.18014053524E+02  0.36406650129E+02  0.00000000000E+00 0. -1.
<scales pt_clust_5="13000.00000" pt_clust_6="13000.00000" pt_clust_7="13000.00000" pt_clust_8="13000.00000" pt_clust_9="31.63760"></scales>
<clustering>
<clus scale="   31.638">  2  9  1 -1</clus>
<clus scale="   91.061">  7  8 -1 -1</clus>
<clus scale="   97.985">  5  6 -1 -1</clus>
<clus scale="  251.103">  2  7  1 -1</clus>
<clus scale="  253.696">  1  5  2 -1</clus>
</clustering>
</event>
<event>
 9    1  0.1435532E-005  0.9457782E+02  0.7546771E-02  0.1292172E+00
         -1   -1    0    0    0  501 -0.00000000000E+00  0.00000000000E+00  0.13911534802E+03  0.13911534802E+03  0.00000000000E+00 0.  1.
          1   -1    0    0  502    0  0.00000000000E+00 -0.00000000000E+00 -0.16132130641E+03  0.16132130641E+03  0.00000000000E+00 0. -1.
         23    2    1    2    0    0  0.31115175156E+02 -0.36311757791E+01  0.83868714077E+02  0.12767468056E+03  0.91024849864E+02 0.  0.
         23    2    1    2    0    0 -0.75034589438E+01  0.71645170205E+01 -0.35365802417E+02  0.98131270086E+02  0.90947094443E+02 0.  0.
        -11    1    4    4    0    0  0.15453341182E+01 -0.37703930637E+02  0.37513009907E+01  0.37921586229E+02  0.00000000000E+00 0. -1.
         11    1    4    4    0    0 -0.90487930619E+01  0.44868447657E+02 -0.39117103408E+02  0.60209683856E+02  0.00000000000E+00 0.  1.
        -13    1    3    3    0    0 -0.24840579451E+02  0.20526521538E+02  0.45143615404E+02  0.55464749938E+02  0.00000000000E+00 0. -1.
         13    1    3    3    0    0  0.55955754607E+02 -0.24157697318E+02  0.38725098673E+02  0.72209930622E+02  0.00000000000E+00 0.  1.
         21    1    1    2  502  501 -0.23611716212E+02 -0.35333412414E+01 -0.70708870055E+02  0.74630703784E+02  0.00000000000E+00 0. -1.
<scales pt_clust_5="13000.00000" pt_clust_6="13000.00000" pt_clust_7="13000.00000" pt_clust_8="13000.00000" pt_clust_9="23.87462"></scales>
<clustering>
<clus scale="   23.875">  2  9  1 -1</clus>
<clus scale="   90.947">  5  6 -1 -1</clus>
<clus scale="   91.025">  7  8 -1 -1</clus>
<clus scale="   94.503">  2  5  1 -1</clus>
<clus scale="   23.875">  2  5  1 -1</clus>
</clustering>
</event>
<event>
 9    1  0.1435532E-005  0.9414901E+02  0.7546771E-02  0.1297230E+00
         -2   -1    0    0    0  501 -0.00000000000E+00  0.00000000000E+00  0.23791361951E+03  0.23791361951E+03  0.00000000000E+00 0.  1.
          2   -1    0    0  502    0  0.00000000000E+00 -0.00000000000E+00 -0.54538339188E+02  0.54538339188E+02  0.00000000000E+00 0. -1.
         23    2    1    2    0    0  0.12933417310E+02  0.11639478408E+01  0.89273248668E+02  0.12297907227E+03  0.83579370842E+02 0.  0.
         23    2    1    2    0    0 -0.38997254965E+02 -0.56240670318E+00  0.10220697862E+03  0.14217131779E+03  0.90803716489E+02 0.  0.
        -13    1    4    4    0    0 -0.60754391174E+02  0.23183994366E+02  0.79785181466E+02  0.10292846459E+03  0.00000000000E+00 0.  1.
         13    1    4    4    0    0  0.21757136208E+02 -0.23746401069E+02  0.22421797152E+02  0.39242853200E+02  0.00000000000E+00 0. -1.
        -13    1    3    3    0    0  0.10627951868E+02  0.39751311937E+02  0.66243264393E+02  0.77982627803E+02  0.00000000000E+00 0. -1.
         13    1    3    3    0    0  0.23054654425E+01 -0.38587364097E+02  0.23029984276E+02  0.44996444466E+02  0.00000000000E+00 0.  1.
         21    1    1    2  502  501  0.26063837655E+02 -0.60154113762E+00 -0.81049469606E+01  0.27301568641E+02  0.00000000000E+00 0. -1.
<scales pt_clust_5="13000.00000" pt_clust_6="13000.00000" pt_clust_7="13000.00000" pt_clust_8="13000.00000" pt_clust_9="26.07078"></scales>
<clustering>
<clus scale="   26.071">  2  9  1 -1</clus>
<clus scale="   83.579">  7  8 -1 -1</clus>
<clus scale="   87.202">  1  7  2 -1</clus>
<clus scale="   90.804">  5  6 -1 -1</clus>
<clus scale="   26.071">  2  5  1 -1</clus>
</clustering>
</event>
<event>
 9    1  0.1435532E-005  0.1346172E+03  0.7546771E-02  0.1221134E+00
         -1   -1    0    0    0  501 -0.00000000000E+00  0.00000000000E+00  0.42421195006E+02  0.42421195006E+02  0.00000000000E+00 0.  1.
          1   -1    0    0  502    0  0.00000000000E+00 -0.00000000000E+00 -0.57165690347E+03  0.57165690347E+03  0.00000000000E+00 0. -1.
         23    2    1    2    0    0 -0.54285287897E+02 -0.92445608587E+02 -0.16932118264E+03  0.22078801070E+03  0.92653115168E+02 0.  0.
         23    2    1    2    0    0  0.59769190142E+02  0.61570714939E+02 -0.25979741929E+03  0.28837694626E+03  0.91122198372E+02 0.  0.
        -13    1    3    3    0    0 -0.74294407072E+02 -0.67798681420E+02 -0.88562433025E+02  0.13401352420E+03  0.00000000000E+00 0.  1.
         13    1    3    3    0    0  0.20009119175E+02 -0.24646927167E+02 -0.80758749612E+02  0.86774486503E+02  0.00000000000E+00 0. -1.
        -13    1    4    4    0    0  0.39195073517E+02  0.18928025818E+01 -0.19107529344E+03  0.19506307762E+03  0.00000000000E+00 0.  1.
         13    1    4    4    0    0  0.20574116625E+02  0.59677912358E+02 -0.68722125853E+02  0.93313868637E+02  0.00000000000E+00 0. -1.
         21    1    1    2  502  501 -0.54839022458E+01  0.30874893647E+02 -0.10011710653E+03  0.10491314151E+03  0.00000000000E+00 0. -1.
<scales pt_clust_5="13000.00000" pt_clust_6="13000.00000" pt_clust_7="13000.00000" pt_clust_8="13000.00000" pt_clust_9="31.35813"></scales>
<clustering>
<clus scale="   31.358">  2  9  1 -1</clus>
<clus scale="   91.122">  7  8 -1 -1</clus>
<clus scale="   92.653">  5  6 -1 -1</clus>
<clus scale="  133.568">  2  7  1 -1</clus>
<clus scale="   31.358">  2  5  1 -1</clus>
</clustering>
</event>
<event>
 9    1  0.1435532E-005  0.1183347E+03  0.7546771E-02  0.1248884E+00
          3   -1    0    0  502    0  0.00000000000E+00  0.00000000000E+00  0.25240609478E+03  0.25240609478E+03  0.00000000000E+00 0. -1.
         -3   -1    0    0    0  501 -0.00000000000E+00 -0.00000000000E+00 -0.68231734295E+02  0.68231734295E+02  0.00000000000E+00 0.  1.
         23    2    1    2    0    0 -0.71160284691E-01 -0.60137430506E+02  0.43856185687E+02  0.11564173420E+03  0.88504971913E+02 0.  0.
         23    2    1    2    0    0 -0.50184333355E+01  0.80221402649E+02  0.10502711374E+03  0.16407264328E+03  0.97100358061E+02 0.  0.
        -11    1    3    3    0    0  0.39408360262E+02 -0.28915160578E+02  0.43309002806E+02  0.65305245531E+02  0.00000000000E+00 0.  1.
         11    1    3    3    0    0 -0.39479520547E+02 -0.31222269927E+02  0.54718288097E+00  0.50336488665E+02  0.00000000000E+00 0. -1.
        -11    1    4    4    0    0  0.22606217492E+02  0.21946805865E+02 -0.92648606087E+01  0.32841147957E+02  0.00000000000E+00 0.  1.
         11    1    4    4    0    0 -0.27624650828E+02  0.58274596784E+02  0.11429197435E+03  0.13123149532E+03  0.00000000000E+00 0. -1.
         21    1    1    2  502  501  0.50895936202E+01 -0.20083972144E+02  0.35291061053E+02  0.40923451596E+02  0.00000000000E+00 0.  1.
<scales pt_clust_5="13000.00000" pt_clust_6="13000.00000" pt_clust_7="13000.00000" pt_clust_8="13000.00000" pt_clust_9="20.71883"></scales>
<clustering>
<clus scale="   20.719">  1  9  2 -1</clus>
<clus scale="   88.505">  5  6 -1 -1</clus>
<clus scale="   97.100">  7  8 -1 -1</clus>
<clus scale="  111.390">  2  5  1 -1</clus>
<clus scale="   20.719">  1  5  2 -1</clus>
</clustering>
</event>
<event>
 9    1  0.1435532E-005  0.1985285E+03  0.7546771E-02  0.1151248E+00
         -3   -1    0    0    0  501 -0.00000000000E+00  0.00000000000E+00  0.46360239806E+03  0.46360239806E+03  0.00000000000E+00 0.  1.
          3   -1    0    0  502    0  0.00000000000E+00 -0.00000000000E+00 -0.10104732329E+03  0.10104732329E+03  0.00000000000E+00 0. -1.
         23    2    1    2    0    0  0.16285104923E+03  0.81956432373E+02  0.26437753205E+03  0.33484301991E+03  0.94800039502E+02 0.  0.
         23    2    1    2    0    0 -0.14542237132E+03 -0.69042269130E+02  0.82463281840E+02  0.20302102577E+03  0.92210861862E+02 0.  0.
        -11    1    3    3    0    0  0.97943822050E+02  0.97586175852E+02  0.18860317128E+03  0.23385296708E+03  0.00000000000E+00 0.  1.
         11    1    3    3    0    0  0.64907227177E+02 -0.15629743480E+02  0.75774360776E+02  0.10099005284E+03  0.00000000000E+00 0. -1.
        -13    1    4    4    0    0 -0.74530961046E+02 -0.52499041272E+02 -0.24211318405E+01  0.91196904379E+02  0.00000000000E+00 0.  1.
         13    1    4    4    0    0 -0.70891410272E+02 -0.16543227859E+02  0.84884413681E+02  0.11182412139E+03  0.00000000000E+00 0. -1.
         21    1    1    2  502  501 -0.17428677909E+02 -0.12914163242E+02  0.15714260883E+02  0.26785675668E+02  0.00000000000E+00 0. -1.
<scales pt_clust_5="13000.00000" pt_clust_6="13000.00000" pt_clust_7="13000.00000" pt_clust_8="13000.00000" pt_clust_9="21.69181"></scales>
<clustering>
<clus scale="   21.692">  2  9  1 -1</clus>
<clus scale="   92.211">  7  8 -1 -1</clus>
<clus scale="   94.800">  5  6 -1 -1</clus>
<clus scale="  197.305">  2  7  1 -1</clus>
<clus scale="   21.692">  2  5  1 -1</clus>
</clustering>
</event>
<event>
 9    1  0.1435532E-005  0.1011848E+03  0.7546771E-02  0.1281337E+00
          1   -1    0    0  502    0  0.00000000000E+00  0.00000000000E+00  0.53284077413E+02  0.53284077413E+02  0.00000000000E+00 0. -1.
         -1   -1    0    0    0  501 -0.00000000000E+00 -0.00000000000E+00 -0.47709773845E+03  0.47709773845E+03  0.00000000000E+00 0.  1.
         23    2    1    2    0    0 -0.57434413723E+01 -0.30675174994E+02 -0.23888771467E+03  0.25799821869E+03  0.92313526356E+02 0.  0.
         23    2    1    2    0    0  0.14031216621E+02  0.42298482443E+01 -0.21149925381E+03  0.23398850381E+03  0.99014740803E+02 0.  0.
        -11    1    3    3    0    0 -0.20324681897E+02 -0.57943618804E+02 -0.11565511821E+03  0.13094526346E+03  0.00000000000E+00 0.  1.
         11    1    3    3    0    0  0.14581240525E+02  0.27268443810E+02 -0.12323259646E+03  0.12705295523E+03  0.00000000000E+00 0. -1.
        -13    1    4    4    0    0 -0.39775506216E+02 -0.13628483951E+02 -0.71505355345E+02  0.82950842748E+02  0.00000000000E+00 0.  1.
         13    1    4    4    0    0  0.53806722837E+02  0.17858332195E+02 -0.13999389846E+03  0.15103766106E+03  0.00000000000E+00 0. -1.
         21    1    1    2  502  501 -0.82877752489E+01  0.26445326750E+02  0.26573307446E+02  0.38395093360E+02  0.00000000000E+00 0. -1.
<scales pt_clust_5="13000.00000" pt_clust_6="13000.00000" pt_clust_7="13000.00000" pt_clust_8="13000.00000" pt_clust_9="27.71358"></scales>
<clustering>
<clus scale="   27.714">  1  9  2 -1</clus>
<clus scale="   92.314">  5  6 -1 -1</clus>
<clus scale="   94.637">  2  5  1 -1</clus>
<clus scale="   99.015">  7  8 -1 -1</clus>
<clus scale="   27.714">  1  5  2 -1</clus>
</clustering>
</event>
<event>
 9    1  0.1435532E-005  0.1043212E+03  0.7546771E-02  0.1271524E+00
         -2   -1    0    0    0  501 -0.00000000000E+00  0.00000000000E+00  0.52397705474E+02  0.52397705474E+02  0.00000000000E+00 0.  1.
          2   -1    0    0  502    0  0.00000000000E+00 -0.00000000000E+00 -0.37455721814E+03  0.37455721814E+03  0.00000000000E+00 0. -1.
         23    2    1    2    0    0  0.46814805897E+02 -0.15578079346E+02 -0.38624526260E+02  0.11108764453E+03  0.91729537947E+02 0.  0.
         23    2    1    2    0    0 -0.38034101741E+02  0.37773654027E+02 -0.17541378683E+03  0.20514267432E+03  0.91869899231E+02 0.  0.
        -13    1    4    4    0    0  0.45216621709E+01  0.58747438029E+02 -0.96942580116E+02  0.11344413049E+03  0.00000000000E+00 0. -1.
         13    1    4    4    0    0 -0.42555763912E+02 -0.20973784002E+02 -0.78471206714E+02  0.91698543830E+02  0.00000000000E+00 0.  1.
        -13    1    3    3    0    0  0.70983060729E+02 -0.94022638274E+01 -0.45962930563E+02  0.85085771204E+02  0.00000000000E+00 0. -1.
         13    1    3    3    0    0 -0.24168254832E+02 -0.61758155184E+01  0.73384043031E+01  0.26001873329E+02  0.00000000000E+00 0.  1.
         21    1    1    2  502  501 -0.87807041558E+01 -0.22195574682E+02 -0.10812119958E+03  0.11072460476E+03  0.00000000000E+00 0. -1.
<scales pt_clust_5="13000.00000" pt_clust_6="13000.00000" pt_clust_7="13000.00000" pt_clust_8="13000.00000" pt_clust_9="23.86932"></scales>
<clustering>
<clus scale="   23.869">  2  9  1 -1</clus>
<clus scale="   91.730">  7  8 -1 -1</clus>
<clus scale="   91.870">  5  6 -1 -1</clus>
<clus scale="  104.198">  1  7  2 -1</clus>
<clus scale="   23.869">  2  5  1 -1</clus>
</clustering>
</event>
<event>
 9    1  0.1435532E-005  0.1008090E+03  0.7546771E-02  0.1279600E+00
         -3   -1    0    0    0  501 -0.00000000000E+00  0.00000000000E+00  0.33462435933E+02  0.33462435933E+02  0.00000000000E+00 0.  1.
          3   -1    0    0  502    0  0.00000000000E+00 -0.00000000000E+00 -0.49597008817E+03  0.49597008817E+03  0.00000000000E+00 0. -1.
         23    2    1    2    0    0  0.21795488210E+02  0.37630137475E+02 -0.94000686739E+02  0.13936641805E+03  0.93251267123E+02 0.  0.
         23    2    1    2    0    0 -0.28133662320E+02 -0.14185002849E+02 -0.22957861319E+03  0.24903088399E+03  0.91199365585E+02 0.  0.
        -11    1    3    3    0    0  0.97445468786E+01  0.68541394551E+02 -0.69718600926E+02  0.98252543356E+02  0.00000000000E+00 0.  1.
         11    1    3    3    0    0  0.12050941332E+02 -0.30911257076E+02 -0.24282085814E+02  0.41113874695E+02  0.00000000000E+00 0. -1.
        -13    1    4    4    0    0 -0.57535082012E+02  0.98685082091E+00 -0.18345530610E+03  0.19226832520E+03  0.00000000000E+00 0.  1.
         13    1    4    4    0    0  0.29401419692E+02 -0.15171853670E+02 -0.46123307092E+02  0.56762558794E+02  0.00000000000E+00 0. -1.
         21    1    1    2  502  501  0.63381741093E+01 -0.23445134626E+02 -0.13892835230E+03  0.14103522206E+03  0.00000000000E+00 0.  1.
<scales pt_clust_5="13000.00000" pt_clust_6="13000.00000" pt_clust_7="13000.00000" pt_clust_8="13000.00000" pt_clust_9="24.28676"></scales>
<clustering>
<clus scale="   24.287">  2  9  1 -1</clus>
<clus scale="   91.199">  7  8 -1 -1</clus>
<clus scale="   93.251">  5  6 -1 -1</clus>
<clus scale="   98.914">  2  7  1 -1</clus>
<clus scale="   24.287">  2  5  1 -1</clus>
</clustering>
</event>
<event>
 9    1  0.1435532E-005  0.9143733E+02  0.7546771E-02  0.1299999E+00
         -2   -1    0    0    0  501 -0.00000000000E+00  0.00000000000E+00  0.89015117765E+02  0.89015117765E+02  0.00000000000E+00 0.  1.
          2   -1    0    0  502    0  0.00000000000E+00 -0.00000000000E+00 -0.16422862185E+03  0.16422862185E+03  0.00000000000E+00 0. -1.
         23    2    1    2    0    0 -0.16535060216E+01  0.41620561816E+01  0.32501703771E+02  0.95989301955E+02  0.90208250998E+02 0.  0.
         23    2    1    2    0    0  0.20957911069E+02  0.36353102366E+01 -0.85528415061E+02  0.12682890970E+03  0.91203141586E+02 0.  0.
        -11    1    3    3    0    0  0.40355741014E+02 -0.16102362028E+02  0.12270052815E+02  0.45148932343E+02  0.00000000000E+00 0.  1.
         11    1    3    3    0    0 -0.42009247035E+02  0.20264418210E+02  0.20231650956E+02  0.50840369612E+02  0.00000000000E+00 0. -1.
        -13    1    4    4    0    0 -0.54433989397E+01  0.32259146584E+02  0.15107440295E+00  0.32715530774E+02  0.00000000000E+00 0. -1.
         13    1    4    4    0    0  0.26401310009E+02 -0.28623836348E+02 -0.85679489464E+02  0.94113378923E+02  0.00000000000E+00 0.  1.
         21    1    1    2  502  501 -0.19304405048E+02 -0.77973664182E+01 -0.22186792792E+02  0.30425527961E+02  0.00000000000E+00 0. -1.
<scales pt_clust_5="13000.00000" pt_clust_6="13000.00000" pt_clust_7="13000.00000" pt_clust_8="13000.00000" pt_clust_9="20.81968"></scales>
<clustering>
<clus scale="   20.820">  2  9  1 -1</clus>
<clus scale="   90.208">  5  6 -1 -1</clus>
<clus scale="   90.445">  1  5  2 -1</clus>
<clus scale="   91.203">  7  8 -1 -1</clus>
<clus scale="   20.820">  2  5  1 -1</clus>
</clustering>
</event>
<event>
 9    1  0.1435532E-005  0.9475018E+02  0.7546771E-02  0.1292828E+00
         -1   -1    0    0    0  501 -0.00000000000E+00  0.00000000000E+00  0.46734110576E+02  0.46734110576E+02  0.00000000000E+00 0.  1.
          1   -1    0    0  502    0  0.00000000000E+00 -0.00000000000E+00 -0.26520822020E+03  0.26520822020E+03  0.00000000000E+00 0. -1.
         23    2    1    2    0    0  0.46012449436E+01 -0.24114537398E+02 -0.54707871070E+02  0.11080524610E+03  0.93178157518E+02 0.  0.
         23    2    1    2    0    0 -0.12251572498E+02  0.61725627018E+00 -0.12851699820E+03  0.15808875511E+03  0.91241183864E+02 0.  0.
        -11    1    3    3    0    0 -0.40663284235E+02  0.70024655924E+01 -0.20248029312E+02  0.45962157262E+02  0.00000000000E+00 0.  1.
         11    1    3    3    0    0  0.45264529178E+02 -0.31117002990E+02 -0.34459841758E+02  0.64843088843E+02  0.00000000000E+00 0. -1.
        -11    1    4    4    0    0 -0.24873694971E+01  0.41639563154E+02 -0.31397090280E+02  0.52209362233E+02  0.00000000000E+00 0.  1.
         11    1    4    4    0    0 -0.97642030014E+01 -0.41022306884E+02 -0.97119907918E+02  0.10587939288E+03  0.00000000000E+00 0. -1.
         21    1    1    2  502  501  0.76503275549E+01  0.23497281127E+02 -0.35249240354E+02  0.43048329557E+02  0.00000000000E+00 0. -1.
<scales pt_clust_5="13000.00000" pt_clust_6="13000.00000" pt_clust_7="13000.00000" pt_clust_8="13000.00000" pt_clust_9="24.71133"></scales>
<clustering>
<clus scale="   24.711">  2  9  1 -1</clus>
<clus scale="   91.241">  7  8 -1 -1</clus>
<clus scale="   92.846">  2  7  1 -1</clus>
<clus scale="   93.178">  5  6 -1 -1</clus>
<clus scale="   24.711">  2  5  1 -1</clus>
</clustering>
</event>
<event>
 9    1  0.1435532E-005  0.1901596E+03  0.7546771E-02  0.1158848E+00
         -2   -1    0    0    0  501 -0.00000000000E+00  0.00000000000E+00  0.77521217890E+02  0.77521217890E+02  0.00000000000E+00 0.  1.
          2   -1    0    0  502    0  0.00000000000E+00 -0.00000000000E+00 -0.91588293588E+03  0.91588293588E+03  0.00000000000E+00 0. -1.
         23    2    1    2    0    0 -0.15974425262E+03 -0.44472982679E+02 -0.77519360615E+02  0.20417873152E+03  0.90463421905E+02 0.  0.
         23    2    1    2    0    0  0.15847408036E+03  0.22144810905E+02 -0.64979861185E+03  0.67595197429E+03  0.95228193245E+02 0.  0.
        -13    1    4    4    0    0  0.67121015682E+02  0.39815960683E+02 -0.16787941066E+03  0.18513248768E+03  0.00000000000E+00 0.  1.
         13    1    4    4    0    0  0.91353064680E+02 -0.17671149778E+02 -0.48191920119E+03  0.49081948661E+03  0.00000000000E+00 0. -1.
        -13    1    3    3    0    0 -0.13115556083E+03 -0.51692428465E+02 -0.23899571721E+02  0.14298628545E+03  0.00000000000E+00 0.  1.
         13    1    3    3    0    0 -0.28588691786E+02  0.72194457853E+01 -0.53619788894E+02  0.61192446074E+02  0.00000000000E+00 0. -1.
         21    1    1    2  502  501  0.12701722541E+01  0.22328171774E+02 -0.11104374553E+03  0.11327344796E+03  0.00000000000E+00 0.  1.
<scales pt_clust_5="13000.00000" pt_clust_6="13000.00000" pt_clust_7="13000.00000" pt_clust_8="13000.00000" pt_clust_9="22.36427"></scales>
<clustering>
<clus scale="   22.364">  2  9  1 -1</clus>
<clus scale="   90.463">  7  8 -1 -1</clus>
<clus scale="   95.228">  5  6 -1 -1</clus>
<clus scale="  187.819">  1  7  2 -1</clus>
<clus scale="   22.364">  2  5  1 -1</clus>
</clustering>
</event>
<event>
 9    1  0.1435532E-005  0.9973983E+02  0.7546771E-02  0.1281396E+00
          1   -1    0    0  502    0  0.00000000000E+00  0.00000000000E+00  0.39603885408E+03  0.39603885408E+03  0.00000000000E+00 0. -1.
         -1   -1    0    0    0  501 -0.00000000000E+00 -0.00000000000E+00 -0.13171401444E+03  0.13171401444E+03  0.00000000000E+00 0.  1.
         23    2    1    2    0    0  0.30895411659E+02 -0.20728798640E+02 -0.73149272191E+02  0.12199672862E+03  0.90267248860E+02 0.  0.
         23    2    1    2    0    0 -0.79210816829E+02  0.73027908784E+02  0.28453157455E+03  0.31702910032E+03  0.89116802979E+02 0.  0.
        -11    1    3    3    0    0  0.15167726604E+02  0.17545464027E+02 -0.77020172200E+02  0.80436373389E+02  0.00000000000E+00 0.  1.
         11    1    3    3    0    0  0.15727685055E+02 -0.38274262667E+02  0.38709000088E+01  0.41560355229E+02  0.00000000000E+00 0. -1.
        -13    1    4    4    0    0 -0.55568073134E+01  0.48567881450E+02  0.18191775855E+03  0.18837140996E+03  0.00000000000E+00 0. -1.
         13    1    4    4    0    0 -0.73654009515E+02  0.24460027335E+02  0.10261381600E+03  0.12865769036E+03  0.00000000000E+00 0.  1.
         21    1    1    2  502  501  0.48315405170E+02 -0.52299110144E+02  0.52942537280E+02  0.88727039577E+02  0.00000000000E+00 0.  1.
<scales pt_clust_5="13000.00000" pt_clust_6="13000.00000" pt_clust_7="13000.00000" pt_clust_8="13000.00000" pt_clust_9="71.20095"></scales>
<clustering>
<clus scale="   71.201">  1  9  2 -1</clus>
<clus scale="   89.117">  7  8 -1 -1</clus>
<clus scale="   90.267">  5  6 -1 -1</clus>
<clus scale="   98.700">  1  7  2 -1</clus>
<clus scale="   71.201">  1  5  2 -1</clus>
</clustering>
</event>
<event>
 9    1  0.1435532E-005  0.3180380E+03  0.7546771E-02  0.1076566E+00
         -1   -1    0    0    0  501 -0.00000000000E+00  0.00000000000E+00  0.56753355827E+03  0.56753355827E+03  0.00000000000E+00 0.  1.
          1   -1    0    0  502    0  0.00000000000E+00 -0.00000000000E+00 -0.32022987470E+03  0.32022987470E+03  0.00000000000E+00 0. -1.
         23    2    1    2    0    0  0.65311948029E+02  0.30038869711E+03  0.36431617655E+03  0.48517895221E+03  0.90406411681E+02 0.  0.
         23    2    1    2    0    0 -0.39899850902E+02 -0.29584521552E+03 -0.31678127307E+02  0.31343083883E+03  0.90105478927E+02 0.  0.
        -11    1    4    4    0    0 -0.65838353053E+02 -0.20273102648E+03 -0.38207427693E+02  0.21655106871E+03  0.00000000000E+00 0. -1.
         11    1    4    4    0    0  0.25938502151E+02 -0.93114189042E+02  0.65293003860E+01  0.96879770119E+02  0.00000000000E+00 0.  1.
        -13    1    3    3    0    0 -0.13652440860E+02  0.11844298516E+03  0.16889879267E+03  0.20674121999E+03  0.00000000000E+00 0. -1.
         13    1    3    3    0    0  0.78964388889E+02  0.18194571194E+03  0.19541738388E+03  0.27843773223E+03  0.00000000000E+00 0.  1.
         21    1    1    2  502  501 -0.25412097127E+02 -0.45434815852E+01 -0.85334365667E+02  0.89153641928E+02  0.00000000000E+00 0. -1.
<scales pt_clust_5="13000.00000" pt_clust_6="13000.00000" pt_clust_7="13000.00000" pt_clust_8="13000.00000" pt_clust_9="25.81507"></scales>
<clustering>
<clus scale="   25.815">  2  9  1 -1</clus>
<clus scale="   90.105">  5  6 -1 -1</clus>
<clus scale="   90.406">  7  8 -1 -1</clus>
<clus scale="  317.953">  2  5  1 -1</clus>
<clus scale="   25.815">  2  5  1 -1</clus>
</clustering>
</event>
<event>
 9    1  0.1435532E-005  0.9334762E+02  0.7546771E-02  0.1297477E+00
         -1   -1    0    0    0  501 -0.00000000000E+00  0.00000000000E+00  0.41257409788E+02  0.41257409788E+02  0.00000000000E+00 0.  1.
          1   -1    0    0  502    0  0.00000000000E+00 -0.00000000000E+00 -0.50564448385E+03  0.50564448385E+03  0.00000000000E+00 0. -1.
         23    2    1    2    0    0  0.15082381819E+02 -0.15743486299E+02 -0.39019949617E+02  0.96799929783E+02  0.85862298686E+02 0.  0.
         23    2    1    2    0    0 -0.48726453087E+02 -0.10130417804E+02 -0.32960125056E+03  0.34535233357E+03  0.90301480233E+02 0.  0.
        -11    1    4    4    0    0 -0.29106842025E+02 -0.49471757668E+02 -0.15453467924E+03  0.16485032650E+03  0.00000000000E+00 0.  1.
         11    1    4    4    0    0 -0.19619611062E+02  0.39341339864E+02 -0.17506657132E+03  0.18050200707E+03  0.00000000000E+00 0. -1.
        -13    1    3    3    0    0 -0.11447893541E+02  0.31653884377E+02 -0.20502993971E+02  0.39413137713E+02  0.00000000000E+00 0. -1.
         13    1    3    3    0    0  0.26530275360E+02 -0.47397370676E+02 -0.18516955646E+02  0.57386792070E+02  0.00000000000E+00 0.  1.
         21    1    1    2  502  501  0.33644071267E+02  0.25873904103E+02 -0.95765873880E+02  0.10474963029E+03  0.00000000000E+00 0. -1.
<scales pt_clust_5="13000.00000" pt_clust_6="13000.00000" pt_clust_7="13000.00000" pt_clust_8="13000.00000" pt_clust_9="42.44270"></scales>
<clustering>
<clus scale="   42.443">  2  9  1 -1</clus>
<clus scale="   85.862">  7  8 -1 -1</clus>
<clus scale="   89.060">  1  7  2 -1</clus>
<clus scale="   90.301">  5  6 -1 -1</clus>
<clus scale="   42.443">  2  5  1 -1</clus>
</clustering>
</event>
<event>
 9    1  0.1435532E-005  0.1062293E+03  0.7546771E-02  0.1268658E+00
          4   -1    0    0  502    0  0.00000000000E+00  0.00000000000E+00  0.22987971914E+03  0.22987971914E+03  0.00000000000E+00 0. -1.
         -4   -1    0    0    0  501 -0.00000000000E+00 -0.00000000000E+00 -0.71457005346E+02  0.71457005346E+02  0.00000000000E+00 0.  1.
         23    2    1    2    0    0 -0.63922917674E+02  0.41340614046E+01  0.46905512160E+02  0.12362780831E+03  0.94765384231E+02 0.  0.
         23    2    1    2    0    0  0.39878328507E+02  0.61714036722E+01  0.11292302085E+03  0.15151118334E+03  0.92604874225E+02 0.  0.
        -11    1    4    4    0    0 -0.56025161665E+01  0.38494707929E+02  0.73606913698E+02  0.83253879610E+02  0.00000000000E+00 0.  1.
         11    1    4    4    0    0  0.45480844674E+02 -0.32323304257E+02  0.39316107151E+02  0.68257303725E+02  0.00000000000E+00 0. -1.
        -11    1    3    3    0    0 -0.50274571929E+02 -0.36528374538E+02  0.51203524718E+02  0.80521150467E+02  0.00000000000E+00 0. -1.
         11    1    3    3    0    0 -0.13648345745E+02  0.40662435942E+02 -0.42980125571E+01  0.43106657841E+02  0.00000000000E+00 0.  1.
         21    1    1    2  502  501  0.24044589166E+02 -0.10305465077E+02 -0.14058192114E+01  0.26197732846E+02  0.00000000000E+00 0.  1.
<scales pt_clust_5="13000.00000" pt_clust_6="13000.00000" pt_clust_7="13000.00000" pt_clust_8="13000.00000" pt_clust_9="26.15999"></scales>
<clustering>
<clus scale="   26.160">  2  9  1 -1</clus>
<clus scale="   92.605">  5  6 -1 -1</clus>
<clus scale="   94.765">  7  8 -1 -1</clus>
<clus scale="  104.307">  1  5  2 -1</clus>
<clus scale="  104.307">  1  5  2 -1</clus>
</clustering>
</event>
<event>
 9    1  0.1435532E-005  0.9545828E+02  0.7546771E-02  0.1292632E+00
         -2   -1    0    0    0  501 -0.00000000000E+00  0.00000000000E+00  0.23275888104E+03  0.23275888104E+03  0.00000000000E+00 0.  1.
          2   -1    0    0  502    0  0.00000000000E+00 -0.00000000000E+00 -0.73380027069E+02  0.73380027069E+02  0.00000000000E+00 0. -1.
         23    2    1    2    0    0  0.21668994749E+02  0.21802588473E+02  0.15630482591E+03  0.18140326497E+03  0.86781609470E+02 0.  0.
         23    2    1    2    0    0  0.54192375027E+01 -0.25210537543E+02 -0.81000197547E+01  0.95235714526E+02  0.91319722201E+02 0.  0.
        -11    1    3    3    0    0  0.12651029997E+02 -0.33589512606E+02  0.63922866563E+02  0.73310550310E+02  0.00000000000E+00 0.  1.
         11    1    3    3    0    0  0.90179647527E+01  0.55392101079E+02  0.92381959350E+02  0.10809271466E+03  0.00000000000E+00 0. -1.
        -11    1    4    4    0    0  0.19628431107E+02  0.28964186705E+02 -0.16356971902E+02  0.38623178909E+02  0.00000000000E+00 0. -1.
         11    1    4    4    0    0 -0.14209193604E+02 -0.54174724248E+02  0.82569521477E+01  0.56612535617E+02  0.00000000000E+00 0.  1.
         21    1    1    2  502  501 -0.27088232252E+02  0.34079490705E+01  0.11174047814E+02  0.29499928609E+02  0.00000000000E+00 0.  1.
<scales pt_clust_5="13000.00000" pt_clust_6="13000.00000" pt_clust_7="13000.00000" pt_clust_8="13000.00000" pt_clust_9="27.30177"></scales>
<clustering>
<clus scale="   27.302">  2  9  1 -1</clus>
<clus scale="   86.782">  5  6 -1 -1</clus>
<clus scale="   91.127">  1  5  2 -1</clus>
<clus scale="   91.320">  7  8 -1 -1</clus>
<clus scale="   27.302">  2  5  1 -1</clus>
</clustering>
</event>
<event>
 9    1  0.1435532E-005  0.1350478E+03  0.7546771E-02  0.1221726E+00
          1   -1    0    0  502    0  0.00000000000E+00  0.00000000000E+00  0.68876532078E+03  0.68876532078E+03  0.00000000000E+00 0. -1.
         -1   -1    0    0    0  501 -0.00000000000E+00 -0.00000000000E+00 -0.37757702364E+02  0.37757702364E+02  0.00000000000E+00 0.  1.
         23    2    1    2    0    0 -0.17089789779E+02 -0.76666334174E+02  0.11806534621E+03  0.16572716216E+03  0.85768750671E+02 0.  0.
         23    2    1    2    0    0  0.31194025638E+02  0.10266446086E+03  0.47644622718E+03  0.49702568642E+03  0.92306374706E+02 0.  0.
        -13    1    3    3    0    0 -0.12191924606E+02  0.17421581582E+02  0.29926638594E+02  0.36711826813E+02  0.00000000000E+00 0. -1.
         13    1    3    3    0    0 -0.48978651728E+01 -0.94087915756E+02  0.88138707619E+02  0.12901533535E+03  0.00000000000E+00 0.  1.
        -13    1    4    4    0    0 -0.24730223747E+02  0.75275123358E+02  0.27227458550E+03  0.28356900055E+03  0.00000000000E+00 0.  1.
         13    1    4    4    0    0  0.55924249385E+02  0.27389337499E+02  0.20417164167E+03  0.21345668587E+03  0.00000000000E+00 0. -1.
         21    1    1    2  502  501 -0.14104235860E+02 -0.25998126683E+02  0.56496045028E+02  0.63770174565E+02  0.00000000000E+00 0.  1.
<scales pt_clust_5="13000.00000" pt_clust_6="13000.00000" pt_clust_7="13000.00000" pt_clust_8="13000.00000" pt_clust_9="29.57756"></scales>
<clustering>
<clus scale="   29.578">  2  9  1 -1</clus>
<clus scale="   85.769">  5  6 -1 -1</clus>
<clus scale="   92.306">  7  8 -1 -1</clus>
<clus scale="  130.666">  2  5  1 -1</clus>
<clus scale="  135.048">  1  5  2 -1</clus>
</clustering>
</event>
<event>
 9    1  0.1435532E-005  0.9269816E+02  0.7546771E-02  0.1296836E+00
          1   -1    0    0  502    0  0.00000000000E+00  0.00000000000E+00  0.83979681685E+03  0.83979681685E+03  0.00000000000E+00 0. -1.
         -1   -1    0    0    0  501 -0.00000000000E+00 -0.00000000000E+00 -0.14052640120E+02  0.14052640120E+02  0.00000000000E+00 0.  1.
         23    2    1    2    0    0 -0.98149886217E+01 -0.15737360316E+02  0.32291244449E+03  0.33612138470E+03  0.91439269088E+02 0.  0.
         23    2    1    2    0    0 -0.18934269260E+02  0.13625039866E+02  0.35850706570E+03  0.37055269696E+03  0.90762529745E+02 0.  0.
        -11    1    4    4    0    0 -0.50862566442E+02  0.26205459857E+02  0.26054882289E+03  0.26675722277E+03  0.00000000000E+00 0. -1.
         11    1    4    4    0    0  0.31928297182E+02 -0.12580419991E+02  0.97958242808E+02  0.10379547419E+03  0.00000000000E+00 0.  1.
        -11    1    3    3    0    0 -0.18732125527E+02 -0.52350590776E+02  0.18932602168E+03  0.19732161404E+03  0.00000000000E+00 0.  1.
         11    1    3    3    0    0  0.89171369052E+01  0.36613230460E+02  0.13358642281E+03  0.13879977066E+03  0.00000000000E+00 0. -1.
         21    1    1    2  502  501  0.28749257882E+02  0.21123204507E+01  0.14432466654E+03  0.14717537531E+03  0.00000000000E+00 0.  1.
<scales pt_clust_5="13000.00000" pt_clust_6="13000.00000" pt_clust_7="13000.00000" pt_clust_8="13000.00000" pt_clust_9="28.82675"></scales>
<clustering>
<clus scale="   28.827">  1  9  2 -1</clus>
<clus scale="   90.763">  5  6 -1 -1</clus>
<clus scale="   91.439">  7  8 -1 -1</clus>
<clus scale="   92.031">  1  5  2 -1</clus>
<clus scale="   28.827">  1  5  2 -1</clus>
</clustering>
</event>
<event>
 9    1  0.1435532E-005  0.2251948E+03  0.7546771E-02  0.1130646E+00
         -1   -1    0    0    0  501 -0.00000000000E+00  0.00000000000E+00  0.89531791087E+02  0.89531791087E+02  0.00000000000E+00 0.  1.
          1   -1    0    0  502    0  0.00000000000E+00 -0.00000000000E+00 -0.82001128480E+03  0.82001128480E+03  0.00000000000E+00 0. -1.
         23    2    1    2    0    0 -0.94683558233E+02 -0.18449357035E+03 -0.12477398796E+03  0.26111642059E+03  0.98032562613E+02 0.  0.
         23    2    1    2    0    0  0.76876704490E+02  0.17268512443E+03 -0.56124329715E+03  0.59909703509E+03  0.90515407342E+02 0.  0.
        -11    1    3    3    0    0 -0.90233481342E+02 -0.13415088058E+03 -0.13369945352E+03  0.20979533785E+03  0.00000000000E+00 0. -1.
         11    1    3    3    0    0 -0.44500768911E+01 -0.50342689775E+02  0.89254655603E+01  0.51321082739E+02  0.00000000000E+00 0.  1.
        -13    1    4    4    0    0  0.87612397201E+02  0.14386851510E+03 -0.38566710362E+03  0.42084818711E+03  0.00000000000E+00 0.  1.
         13    1    4    4    0    0 -0.10735692711E+02  0.28816609327E+02 -0.17557619353E+03  0.17824884798E+03  0.00000000000E+00 0. -1.
         21    1    1    2  502  501  0.17806853743E+02  0.11808445919E+02 -0.44462208604E+02  0.49329620201E+02  0.00000000000E+00 0.  1.
<scales pt_clust_5="13000.00000" pt_clust_6="13000.00000" pt_clust_7="13000.00000" pt_clust_8="13000.00000" pt_clust_9="21.36641"></scales>
<clustering>
<clus scale="   21.366">  2  9  1 -1</clus>
<clus scale="   90.515">  7  8 -1 -1</clus>
<clus scale="   98.033">  5  6 -1 -1</clus>
<clus scale="  222.026">  2  7  1 -1</clus>
<clus scale="   21.366">  2  5  1 -1</clus>
</clustering>
</event>
<event>
 9    1  0.1435532E-005  0.1360155E+03  0.7546771E-02  0.1228852E+00
          1   -1    0    0  502    0  0.00000000000E+00  0.00000000000E+00  0.16301664865E+03  0.16301664865E+03  0.00000000000E+00 0. -1.
         -1   -1    0    0    0  501 -0.00000000000E+00 -0.00000000000E+00 -0.49105459904E+03  0.49105459904E+03  0.00000000000E+00 0.  1.
         23    2    1    2    0    0 -0.60453809876E+02  0.29586404490E+02 -0.38344581381E+03  0.39898593829E+03  0.87344538288E+02 0.  0.
         23    2    1    2    0    0  0.32662141185E+01  0.79309212260E+02 -0.23249699303E+01  0.11921126293E+03  0.88911756373E+02 0.  0.
        -11    1    3    3    0    0 -0.57558245430E+02 -0.18618470994E+02 -0.24505014028E+03  0.25240675571E+03  0.00000000000E+00 0.  1.
         11    1    3    3    0    0 -0.28955644465E+01  0.48204875484E+02 -0.13839567353E+03  0.14657918258E+03  0.00000000000E+00 0. -1.
        -13    1    4    4    0    0 -0.41822801124E+02  0.47534567968E+02 -0.77418868366E+01  0.63785724559E+02  0.00000000000E+00 0.  1.
         13    1    4    4    0    0  0.45089015242E+02  0.31774644291E+02  0.54169169064E+01  0.55425538375E+02  0.00000000000E+00 0. -1.
         21    1    1    2  502  501  0.57187595758E+02 -0.10889561675E+03  0.57732833349E+02  0.13587404646E+03  0.00000000000E+00 0.  1.
<scales pt_clust_5="13000.00000" pt_clust_6="13000.00000" pt_clust_7="13000.00000" pt_clust_8="13000.00000" pt_clust_9="102.93160"></scales>
<clustering>
<clus scale="   87.345">  5  6 -1 -1</clus>
<clus scale="   88.912">  7  8 -1 -1</clus>
<clus scale="  110.268">  2  5  1 -1</clus>
<clus scale="  102.932">  1  9  2 -1</clus>
<clus scale="  102.932">  1  5  2 -1</clus>
</clustering>
</event>
<event>
 9    1  0.1435532E-005  0.9183066E+02  0.7546771E-02  0.1298620E+00
         -2   -1    0    0    0  501 -0.00000000000E+00  0.00000000000E+00  0.59588534432E+02  0.59588534432E+02  0.00000000000E+00 0.  1.
          2   -1    0    0  502    0  0.00000000000E+00 -0.00000000000E+00 -0.23892834626E+03  0.23892834626E+03  0.00000000000E+00 0. -1.
         23    2    1    2    0    0  0.27723190912E+01  0.13019067879E+02 -0.12124716887E+02  0.92118980121E+02  0.90342215256E+02 0.  0.
         23    2    1    2    0    0 -0.26917193924E+02 -0.82478607868E+01 -0.11826301186E+03  0.15160697216E+03  0.90586817461E+02 0.  0.
        -13    1    4    4    0    0 -0.54792133034E+02 -0.19813594324E+02 -0.10163211275E+03  0.11714880582E+03  0.00000000000E+00 0. -1.
         13    1    4    4    0    0  0.27874939110E+02  0.11565733537E+02 -0.16630899108E+02  0.34458166344E+02  0.00000000000E+00 0.  1.
        -13    1    3    3    0    0  0.24659145033E+02 -0.16503141719E+02  0.25792060781E+02  0.39314851134E+02  0.00000000000E+00 0.  1.
         13    1    3    3    0    0 -0.21886825942E+02  0.29522209598E+02 -0.37916777668E+02  0.52804128987E+02  0.00000000000E+00 0. -1.
         21    1    1    2  502  501  0.24144874833E+02 -0.47712070918E+01 -0.48952083086E+02  0.54790928412E+02  0.00000000000E+00 0.  1.
<scales pt_clust_5="13000.00000" pt_clust_6="13000.00000" pt_clust_7="13000.00000" pt_clust_8="13000.00000" pt_clust_9="24.61177"></scales>
<clustering>
<clus scale="   24.612">  2  9  1 -1</clus>
<clus scale="   90.342">  7  8 -1 -1</clus>
<clus scale="   90.587">  5  6 -1 -1</clus>
<clus scale="   91.589">  1  7  2 -1</clus>
<clus scale="   24.612">  2  5  1 -1</clus>
</clustering>
</event>
<event>
 9    1  0.1435532E-005  0.3580143E+03  0.7546771E-02  0.1059415E+00
         -1   -1    0    0    0  501 -0.00000000000E+00  0.00000000000E+00  0.17463003445E+03  0.17463003445E+03  0.00000000000E+00 0.  1.
          1   -1    0    0  502    0  0.00000000000E+00 -0.00000000000E+00 -0.97230226203E+03  0.97230226203E+03  0.00000000000E+00 0. -1.
         23    2    1    2    0    0 -0.30715717196E+03 -0.17591753886E+03 -0.14061957411E+03  0.39185587945E+03  0.92112197155E+02 0.  0.
         23    2    1    2    0    0  0.27841406712E+03  0.17242201037E+03 -0.57266264458E+03  0.66585725768E+03  0.90441365966E+02 0.  0.
        -11    1    4    4    0    0  0.26105247826E+03  0.12903854396E+03 -0.46745502931E+03  0.55073909127E+03  0.00000000000E+00 0. -1.
         11    1    4    4    0    0  0.17361588862E+02  0.43383466409E+02 -0.10520761527E+03  0.11511816641E+03  0.00000000000E+00 0.  1.
        -11    1    3    3    0    0 -0.28539302348E+03 -0.13121708423E+03 -0.13473945577E+03  0.34179207420E+03  0.00000000000E+00 0.  1.
         11    1    3    3    0    0 -0.21764148478E+02 -0.44700454636E+02 -0.58801183409E+01  0.50063805242E+02  0.00000000000E+00 0. -1.
         21    1    1    2  502  501  0.28743104846E+02  0.34955284972E+01 -0.84390008896E+02  0.89219159361E+02  0.00000000000E+00 0.  1.
<scales pt_clust_5="13000.00000" pt_clust_6="13000.00000" pt_clust_7="13000.00000" pt_clust_8="13000.00000" pt_clust_9="28.95488"></scales>
<clustering>
<clus scale="   28.955">  2  9  1 -1</clus>
<clus scale="   90.441">  5  6 -1 -1</clus>
<clus scale="   92.112">  7  8 -1 -1</clus>
<clus scale="  357.588">  2  5  1 -1</clus>
<clus scale="   28.955">  2  5  1 -1</clus>
</clustering>
</event>
<event>
 9    1  0.1435532E-005  0.1020749E+03  0.7546771E-02  0.1277045E+00
         -1   -1    0    0    0  501 -0.00000000000E+00  0.00000000000E+00  0.13157623083E+03  0.13157623083E+03  0.00000000000E+00 0.  1.
          1   -1    0    0  502    0  0.00000000000E+00 -0.00000000000E+00 -0.13713638621E+03  0.13713638621E+03  0.00000000000E+00 0. -1.
         23    2    1    2    0    0  0.31722824457E+02 -0.36498106858E+02  0.47382230742E+02  0.11544029054E+03  0.93503665672E+02 0.  0.
         23    2    1    2    0    0  0.77643910948E+01  0.38054745761E+02 -0.18618555772E+02  0.10092933607E+03  0.91277767372E+02 0.  0.
        -13    1    4    4    0    0 -0.15462682245E+02 -0.19555086868E+02 -0.28683608511E+02  0.38003228308E+02  0.00000000000E+00 0.  1.
         13    1    4    4    0    0  0.23227073339E+02  0.57609832629E+02  0.10065052739E+02  0.62926107762E+02  0.00000000000E+00 0. -1.
        -13    1    3    3    0    0 -0.30643783470E+02 -0.29449545906E+02  0.19606831158E+02  0.46805395495E+02  0.00000000000E+00 0.  1.
         13    1    3    3    0    0  0.62366607927E+02 -0.70485609517E+01  0.27775399584E+02  0.68634895045E+02  0.00000000000E+00 0. -1.
         21    1    1    2  502  501 -0.39487215552E+02 -0.15566389031E+01 -0.34323830355E+02  0.52342990428E+02  0.00000000000E+00 0. -1.
<scales pt_clust_5="13000.00000" pt_clust_6="13000.00000" pt_clust_7="13000.00000" pt_clust_8="13000.00000" pt_clust_9="39.51789"></scales>
<clustering>
<clus scale="   39.518">  2  9  1 -1</clus>
<clus scale="   91.278">  5  6 -1 -1</clus>
<clus scale="   93.504">  7  8 -1 -1</clus>
<clus scale="  100.040">  2  5  1 -1</clus>
<clus scale="   39.518">  2  5  1 -1</clus>
</clustering>
</event>
<event>
 9    1  0.1435532E-005  0.1664444E+03  0.7546771E-02  0.1199870E+00
          1   -1    0    0  502    0  0.00000000000E+00  0.00000000000E+00  0.16864708941E+04  0.16864708941E+04  0.00000000000E+00 0. -1.
         -1   -1    0    0    0  501 -0.00000000000E+00 -0.00000000000E+00 -0.35697687155E+02  0.35697687155E+02  0.00000000000E+00 0.  1.
         23    2    1    2    0    0  0.62142792665E+02  0.21932625795E+02  0.17265068842E+03  0.20538230908E+03  0.89615098693E+02 0.  0.
         23    2    1    2    0    0  0.41842992585E+02  0.90159299150E+02  0.30787693460E+03  0.33659460560E+03  0.92888031576E+02 0.  0.
        -13    1    4    4    0    0 -0.29620723099E+02  0.28582411590E+02  0.80132892702E+02  0.90086746984E+02  0.00000000000E+00 0. -1.
         13    1    4    4    0    0  0.71463715684E+02  0.61576887560E+02  0.22774404189E+03  0.24650785861E+03  0.00000000000E+00 0.  1.
        -13    1    3    3    0    0  0.15998647770E+02 -0.23851050718E+02  0.11488632840E+03  0.11842169482E+03  0.00000000000E+00 0. -1.
         13    1    3    3    0    0  0.46144144895E+02  0.45783676513E+02  0.57764360030E+02  0.86960614262E+02  0.00000000000E+00 0.  1.
         21    1    1    2  502  501 -0.10398578525E+03 -0.11209192495E+03  0.11702455840E+04  0.11801916666E+04  0.00000000000E+00 0. -1.
<scales pt_clust_5="13000.00000" pt_clust_6="13000.00000" pt_clust_7="13000.00000" pt_clust_8="13000.00000" pt_clust_9="138.11423"></scales>
<clustering>
<clus scale="   89.615">  7  8 -1 -1</clus>
<clus scale="   92.888">  5  6 -1 -1</clus>
<clus scale="  111.237">  2  7  1 -1</clus>
<clus scale="  138.114">  1  9  2 -1</clus>
<clus scale="  138.114">  1  5  2 -1</clus>
</clustering>
</event>
<event>
 9    1  0.1435532E-005  0.1301574E+03  0.7546771E-02  0.1232467E+00
         -1   -1    0    0    0  501 -0.00000000000E+00  0.00000000000E+00  0.12350447262E+03  0.12350447262E+03  0.00000000000E+00 0.  1.
          1   -1    0    0  502    0  0.00000000000E+00 -0.00000000000E+00 -0.53465183994E+03  0.53465183994E+03  0.00000000000E+00 0. -1.
         23    2    1    2    0    0  0.30159193527E+02 -0.72309773339E+02  0.74111059451E+02  0.14118539762E+03  0.91118533211E+02 0.  0.
         23    2    1    2    0    0 -0.27840557834E+02  0.74416135170E+01 -0.34137807495E+03  0.35912665666E+03  0.10771486060E+03 0.  0.
        -13    1    4    4    0    0  0.20956049158E+02 -0.24860745681E+02 -0.37359714211E+02  0.49527375440E+02  0.00000000000E+00 0.  1.
         13    1    4    4    0    0 -0.48796606992E+02  0.32302359198E+02 -0.30401836074E+03  0.30959928122E+03  0.00000000000E+00 0. -1.
        -13    1    3    3    0    0  0.13139645821E+02 -0.91082254935E+02  0.69754903709E+02  0.11547456018E+03  0.00000000000E+00 0.  1.
         13    1    3    3    0    0  0.17019547706E+02  0.18772481596E+02  0.43561557419E+01  0.25710837447E+02  0.00000000000E+00 0. -1.
         21    1    1    2  502  501 -0.23186356933E+01  0.64868159822E+02 -0.14388035181E+03  0.15784425827E+03  0.00000000000E+00 0. -1.
<scales pt_clust_5="13000.00000" pt_clust_6="13000.00000" pt_clust_7="13000.00000" pt_clust_8="13000.00000" pt_clust_9="64.90959"></scales>
<clustering>
<clus scale="   64.910">  2  9  1 -1</clus>
<clus scale="   91.119">  7  8 -1 -1</clus>
<clus scale="  107.715">  5  6 -1 -1</clus>
<clus scale="  116.795">  1  7  2 -1</clus>
<clus scale="   64.910">  2  5  1 -1</clus>
</clustering>
</event>
<event>
 9    1  0.1435532E-005  0.1286203E+03  0.7546771E-02  0.1230438E+00
         -2   -1    0    0    0  501 -0.00000000000E+00  0.00000000000E+00  0.24139767872E+02  0.24139767872E+02  0.00000000000E+00 0.  1.
          2   -1    0    0  502    0  0.00000000000E+00 -0.00000000000E+00 -0.98820553387E+03  0.98820553387E+03  0.00000000000E+00 0. -1.
         23    2    1    2    0    0  0.10239754384E+03 -0.24966828607E+02 -0.34627358648E+03  0.37380987248E+03  0.93380000825E+02 0.  0.
         23    2    1    2    0    0 -0.71781597598E+02  0.44286912825E+01 -0.35651852652E+03  0.37467358473E+03  0.90014578159E+02 0.  0.
        -11    1    3    3    0    0  0.85261959346E+02  0.22034603758E+02 -0.25421567580E+03  0.26903668020E+03  0.00000000000E+00 0.  1.
         11    1    3    3    0    0  0.17135584498E+02 -0.47001432365E+02 -0.92057910679E+02  0.10477319227E+03  0.00000000000E+00 0. -1.
        -11    1    4    4    0    0  0.13171657192E+02 -0.21398921084E+02 -0.10422135631E+03  0.10720773054E+03  0.00000000000E+00 0.  1.
         11    1    4    4    0    0 -0.84953254790E+02  0.25827612366E+02 -0.25229717021E+03  0.26746585419E+03  0.00000000000E+00 0. -1.
         21    1    1    2  502  501 -0.30615946245E+02  0.20538137324E+02 -0.26127365300E+03  0.26386184453E+03  0.00000000000E+00 0. -1.
<scales pt_clust_5="13000.00000" pt_clust_6="13000.00000" pt_clust_7="13000.00000" pt_clust_8="13000.00000" pt_clust_9="36.86667"></scales>
<clustering>
<clus scale="   36.867">  2  9  1 -1</clus>
<clus scale="   90.015">  7  8 -1 -1</clus>
<clus scale="   93.380">  5  6 -1 -1</clus>
<clus scale="  126.198">  2  7  1 -1</clus>
<clus scale="   36.867">  2  5  1 -1</clus>
</clustering>
</event>
<event>
 9    1  0.1435532E-005  0.1165642E+03  0.7546771E-02  0.1248928E+00
          1   -1    0    0  502    0  0.00000000000E+00  0.00000000000E+00  0.41377639046E+03  0.41377639046E+03  0.00000000000E+00 0. -1.
         -1   -1    0    0    0  501 -0.00000000000E+00 -0.00000000000E+00 -0.10417956391E+03  0.10417956391E+03  0.00000000000E+00 0.  1.
         23    2    1    2    0    0 -0.26067591528E+02 -0.69525964043E+02 -0.40630783621E+02  0.12428792713E+03  0.91012357672E+02 0.  0.
         23    2    1    2    0    0 -0.27100381004E+01  0.70797804828E+02  0.13997313711E+03  0.18144947718E+03  0.91168855329E+02 0.  0.
        -11    1    4    4    0    0  0.38735491517E+02  0.57752185051E+02  0.10365193101E+03  0.12481777110E+03  0.00000000000E+00 0.  1.
         11    1    4    4    0    0 -0.41445529617E+02  0.13045619778E+02  0.36321206098E+02  0.56631706076E+02  0.00000000000E+00 0. -1.
        -11    1    3    3    0    0 -0.41064521187E+02 -0.50627214429E+02  0.12099052654E+02  0.66300805547E+02  0.00000000000E+00 0. -1.
         11    1    3    3    0    0  0.14996929659E+02 -0.18898749614E+02 -0.52729836275E+02  0.57987121585E+02  0.00000000000E+00 0.  1.
         21    1    1    2  502  501  0.28777629628E+02 -0.12718407849E+01  0.21025447306E+03  0.21221855005E+03  0.00000000000E+00 0. -1.
<scales pt_clust_5="13000.00000" pt_clust_6="13000.00000" pt_clust_7="13000.00000" pt_clust_8="13000.00000" pt_clust_9="28.80572"></scales>
<clustering>
<clus scale="   28.806">  1  9  2 -1</clus>
<clus scale="   91.012">  7  8 -1 -1</clus>
<clus scale="   91.169">  5  6 -1 -1</clus>
<clus scale="  116.442">  2  7  1 -1</clus>
<clus scale="   28.806">  1  5  2 -1</clus>
</clustering>
</event>
<event>
 9    1  0.1435532E-005  0.9346183E+02  0.7546771E-02  0.1294982E+00
          1   -1    0    0  502    0  0.00000000000E+00  0.00000000000E+00  0.57487326093E+03  0.57487326093E+03  0.00000000000E+00 0. -1.
         -1   -1    0    0    0  501 -0.00000000000E+00 -0.00000000000E+00 -0.37789450510E+02  0.37789450510E+02  0.00000000000E+00 0.  1.
         23    2    1    2    0    0  0.78658903216E+01 -0.14596982878E+02  0.41638301613E+02  0.10180362068E+03  0.91407247433E+02 0.  0.
         23    2    1    2    0    0 -0.32467385523E+02  0.20406058395E+02  0.37207743418E+03  0.38492791606E+03  0.90869935572E+02 0.  0.
        -13    1    4    4    0    0  0.13835832386E+02  0.39745690534E+02  0.10396384761E+03  0.11215895767E+03  0.00000000000E+00 0.  1.
         13    1    4    4    0    0 -0.46303217909E+02 -0.19339632139E+02  0.26811358657E+03  0.27276895839E+03  0.00000000000E+00 0. -1.
        -13    1    3    3    0    0 -0.29783066311E+02  0.50992052159E+01  0.50074002335E+02  0.58484516264E+02  0.00000000000E+00 0. -1.
         13    1    3    3    0    0  0.37648956633E+02 -0.19696188094E+02 -0.84357007222E+01  0.43319104419E+02  0.00000000000E+00 0.  1.
         21    1    1    2  502  501  0.24601495201E+02 -0.58090755173E+01  0.12336807463E+03  0.12593117470E+03  0.00000000000E+00 0. -1.
<scales pt_clust_5="13000.00000" pt_clust_6="13000.00000" pt_clust_7="13000.00000" pt_clust_8="13000.00000" pt_clust_9="25.27803"></scales>
<clustering>
<clus scale="   25.278">  1  9  2 -1</clus>
<clus scale="   90.870">  5  6 -1 -1</clus>
<clus scale="   91.407">  7  8 -1 -1</clus>
<clus scale="   92.936">  1  5  2 -1</clus>
<clus scale="   25.278">  1  5  2 -1</clus>
</clustering>
</event>
<event>
 9    1  0.1435532E-005  0.1110977E+03  0.7546771E-02  0.1259802E+00
          3   -1    0    0  502    0  0.00000000000E+00  0.00000000000E+00  0.91757607865E+02  0.91757607865E+02  0.00000000000E+00 0. -1.
         -3   -1    0    0    0  501 -0.00000000000E+00 -0.00000000000E+00 -0.25462591951E+03  0.25462591951E+03  0.00000000000E+00 0.  1.
         23    2    1    2    0    0  0.67916765292E+01  0.59285525736E+02 -0.18148712797E+03  0.21280514497E+03  0.93741941917E+02 0.  0.
         23    2    1    2    0    0  0.14713948440E+02 -0.60706569271E+02  0.10255227201E+02  0.11045997215E+03  0.90523190021E+02 0.  0.
        -11    1    4    4    0    0 -0.33293107810E+02 -0.64223512862E+01 -0.97528661939E+01  0.35281666949E+02  0.00000000000E+00 0.  1.
         11    1    4    4    0    0  0.48007056249E+02 -0.54284217985E+02  0.20008093394E+02  0.75178305203E+02  0.00000000000E+00 0. -1.
        -11    1    3    3    0    0 -0.19535838249E+02  0.49067857181E+02 -0.17636584480E+03  0.18410381527E+03  0.00000000000E+00 0.  1.
         11    1    3    3    0    0  0.26327514779E+02  0.10217668555E+02 -0.51212831668E+01  0.28701329697E+02  0.00000000000E+00 0. -1.
         21    1    1    2  502  501 -0.21505624969E+02  0.14210435343E+01  0.83635891174E+01  0.23118410260E+02  0.00000000000E+00 0.  1.
<scales pt_clust_5="13000.00000" pt_clust_6="13000.00000" pt_clust_7="13000.00000" pt_clust_8="13000.00000" pt_clust_9="21.55252"></scales>
<clustering>
<clus scale="   21.553">  1  9  2 -1</clus>
<clus scale="   90.523">  5  6 -1 -1</clus>
<clus scale="   93.742">  7  8 -1 -1</clus>
<clus scale="  108.396">  1  5  2 -1</clus>
<clus scale="   21.553">  1  5  2 -1</clus>
</clustering>
</event>
<event>
 9    1  0.1435532E-005  0.1396522E+03  0.7546771E-02  0.1213811E+00
         -1   -1    0    0    0  501 -0.00000000000E+00  0.00000000000E+00  0.14496557015E+03  0.14496557015E+03  0.00000000000E+00 0.  1.
          1   -1    0    0  502    0  0.00000000000E+00 -0.00000000000E+00 -0.21944147929E+03  0.21944147929E+03  0.00000000000E+00 0. -1.
         23    2    1    2    0    0 -0.80472160254E+02  0.50620082486E+02  0.26263834639E+02  0.13434435596E+03  0.91216531628E+02 0.  0.
         23    2    1    2    0    0  0.99877147345E+02 -0.76193154322E+02 -0.38317878294E+02  0.15986992449E+03  0.91155315976E+02 0.  0.
        -13    1    3    3    0    0 -0.95006114065E+00  0.26320812777E+02  0.42136897446E+02  0.49691105117E+02  0.00000000000E+00 0. -1.
         13    1    3    3    0    0 -0.79522099113E+02  0.24299269709E+02 -0.15873062807E+02  0.84653250845E+02  0.00000000000E+00 0.  1.
        -13    1    4    4    0    0  0.63360506180E+02 -0.27499621325E+02  0.23652914716E+02  0.73008515195E+02  0.00000000000E+00 0.  1.
         13    1    4    4    0    0  0.36516641165E+02 -0.48693532997E+02 -0.61970793010E+02  0.86861409291E+02  0.00000000000E+00 0. -1.
         21    1    1    2  502  501 -0.19404987091E+02  0.25573071835E+02 -0.62421865493E+02  0.70192768992E+02  0.00000000000E+00 0. -1.
<scales pt_clust_5="13000.00000" pt_clust_6="13000.00000" pt_clust_7="13000.00000" pt_clust_8="13000.00000" pt_clust_9="32.10196"></scales>
<clustering>
<clus scale="   32.102">  2  9  1 -1</clus>
<clus scale="   91.155">  7  8 -1 -1</clus>
<clus scale="   91.217">  5  6 -1 -1</clus>
<clus scale="  139.612">  2  7  1 -1</clus>
<clus scale="   32.102">  2  5  1 -1</clus>
</clustering>
</event>
<event>
 9    1  0.1435532E-005  0.1691756E+03  0.7546771E-02  0.1179541E+00
          1   -1    0    0  502    0  0.00000000000E+00  0.00000000000E+00  0.13510364464E+04  0.13510364464E+04  0.00000000000E+00 0. -1.
         -1   -1    0    0    0  501 -0.00000000000E+00 -0.00000000000E+00 -0.51584161932E+02  0.51584161932E+02  0.00000000000E+00 0.  1.
         23    2    1    2    0    0 -0.12099613128E+03  0.11385983743E+03  0.18026589824E+03  0.26036835229E+03  0.87702670643E+02 0.  0.
         23    2    1    2    0    0  0.30431259995E+02 -0.82040439092E+02  0.52694431609E+03  0.54228130703E+03  0.93498708362E+02 0.  0.
        -11    1    4    4    0    0 -0.14158883609E+02  0.15295662237E+02  0.76557484339E+02  0.79344058862E+02  0.00000000000E+00 0.  1.
         11    1    4    4    0    0  0.44590143604E+02 -0.97336101330E+02  0.45038683175E+03  0.46293724817E+03  0.00000000000E+00 0. -1.
        -13    1    3    3    0    0 -0.13051160277E+03  0.81734606652E+02  0.14152157580E+03  0.20914631433E+03  0.00000000000E+00 0.  1.
         13    1    3    3    0    0  0.95154714912E+01  0.32125230783E+02  0.38744322442E+02  0.51222037953E+02  0.00000000000E+00 0. -1.
         21    1    1    2  502  501  0.90564871284E+02 -0.31819398342E+02  0.59224207009E+03  0.59997094897E+03  0.00000000000E+00 0. -1.
<scales pt_clust_5="13000.00000" pt_clust_6="13000.00000" pt_clust_7="13000.00000" pt_clust_8="13000.00000" pt_clust_9="95.99203"></scales>
<clustering>
<clus scale="   87.703">  7  8 -1 -1</clus>
<clus scale="   93.499">  5  6 -1 -1</clus>
<clus scale="   95.992">  1  9  2 -1</clus>
<clus scale="  166.043">  2  7  1 -1</clus>
<clus scale="   95.992">  1  5  2 -1</clus>
</clustering>
</event>
<event>
 9    1  0.1435532E-005  0.9914238E+02  0.7546771E-02  0.1283173E+00
         -2   -1    0    0    0  501 -0.00000000000E+00  0.00000000000E+00  0.30789198759E+02  0.30789198759E+02  0.00000000000E+00 0.  1.
          2   -1    0    0  502    0  0.00000000000E+00 -0.00000000000E+00 -0.55005787653E+03  0.55005787653E+03  0.00000000000E+00 0. -1.
         23    2    1    2    0    0 -0.36890319808E+02  0.20977489762E+02 -0.95347339881E+02  0.13782553180E+03  0.90021170964E+02 0.  0.
         23    2    1    2    0    0  0.17424330035E+02 -0.42923596734E+02 -0.33180430051E+03  0.34634628841E+03  0.87838574798E+02 0.  0.
        -13    1    4    4    0    0  0.16027206201E+02 -0.70191131385E+02 -0.24210080596E+03  0.25257962410E+03  0.00000000000E+00 0. -1.
         13    1    4    4    0    0  0.13971238345E+01  0.27267534650E+02 -0.89703494554E+02  0.93766664311E+02  0.00000000000E+00 0.  1.
        -13    1    3    3    0    0 -0.18736979893E+02 -0.25702736308E+02 -0.78962137989E+02  0.85127694113E+02  0.00000000000E+00 0. -1.
         13    1    3    3    0    0 -0.18153339915E+02  0.46680226070E+02 -0.16385201892E+02  0.52697837688E+02  0.00000000000E+00 0.  1.
         21    1    1    2  502  501  0.19465989773E+02  0.21946106973E+02 -0.92117037373E+02  0.96675255073E+02  0.00000000000E+00 0. -1.
<scales pt_clust_5="13000.00000" pt_clust_6="13000.00000" pt_clust_7="13000.00000" pt_clust_8="13000.00000" pt_clust_9="29.33524"></scales>
<clustering>
<clus scale="   29.335">  2  9  1 -1</clus>
<clus scale="   87.839">  5  6 -1 -1</clus>
<clus scale="   90.021">  7  8 -1 -1</clus>
<clus scale="   97.165">  2  5  1 -1</clus>
<clus scale="   29.335">  2  5  1 -1</clus>
</clustering>
</event>
<event>
 9    1  0.1435532E-005  0.2709857E+03  0.7546771E-02  0.1100748E+00
         -2   -1    0    0    0  501 -0.00000000000E+00  0.00000000000E+00  0.45052301683E+03  0.45052301683E+03  0.00000000000E+00 0.  1.
          2   -1    0    0  502    0  0.00000000000E+00 -0.00000000000E+00 -0.47106901496E+03  0.47106901496E+03  0.00000000000E+00 0. -1.
         23    2    1    2    0    0  0.26472951500E+03  0.10266331143E+02  0.34264283039E+03  0.44271841707E+03  0.91697186005E+02 0.  0.
         23    2    1    2    0    0 -0.20467715255E+03 -0.33038382780E+02 -0.19496358170E+03  0.29880533256E+03  0.91047004689E+02 0.  0.
        -11    1    3    3    0    0  0.10441864170E+03  0.50379325469E+01  0.20999820680E+03  0.23458022158E+03  0.00000000000E+00 0.  1.
         11    1    3    3    0    0  0.16031087331E+03  0.52283985960E+01  0.13264462360E+03  0.20813819549E+03  0.00000000000E+00 0. -1.
        -13    1    4    4    0    0 -0.72994980815E+02 -0.49530129895E+02 -0.46662201992E+02  0.99794098455E+02  0.00000000000E+00 0.  1.
         13    1    4    4    0    0 -0.13168217174E+03  0.16491747115E+02 -0.14830137971E+03  0.19901123411E+03  0.00000000000E+00 0. -1.
         21    1    1    2  502  501 -0.60052362453E+02  0.22772051637E+02 -0.16822524682E+03  0.18006828216E+03  0.00000000000E+00 0. -1.
<scales pt_clust_5="13000.00000" pt_clust_6="13000.00000" pt_clust_7="13000.00000" pt_clust_8="13000.00000" pt_clust_9="64.22502"></scales>
<clustering>
<clus scale="   64.225">  2  9  1 -1</clus>
<clus scale="   91.047">  7  8 -1 -1</clus>
<clus scale="   91.697">  5  6 -1 -1</clus>
<clus scale="  270.766">  2  7  1 -1</clus>
<clus scale="   64.225">  2  5  1 -1</clus>
</clustering>
</event>
<event>
 9    1  0.1435532E-005  0.1009008E+03  0.7546771E-02  0.1282077E+00
          4   -1    0    0  502    0  0.00000000000E+00  0.00000000000E+00  0.84582138376E+02  0.84582138376E+02  0.00000000000E+00 0. -1.
         -4   -1    0    0    0  501 -0.00000000000E+00 -0.00000000000E+00 -0.21520849652E+03  0.21520849652E+03  0.00000000000E+00 0.  1.
         23    2    1    2    0    0 -0.44767716538E+02  0.23695848848E+02 -0.13107988037E+03  0.16424132408E+03  0.85015503287E+02 0.  0.
         23    2    1    2    0    0  0.17992352351E+02  0.44032671317E+01 -0.11312528982E+02  0.94991692461E+02  0.92478834444E+02 0.  0.
        -11    1    3    3    0    0  0.94148105219E+00  0.45131960832E+02 -0.41016803875E+02  0.60993101866E+02  0.00000000000E+00 0.  1.
         11    1    3    3    0    0 -0.45709197590E+02 -0.21436111984E+02 -0.90063076498E+02  0.10324822221E+03  0.00000000000E+00 0. -1.
        -13    1    4    4    0    0 -0.53458319833E+01 -0.37759801201E+02  0.13916194192E+02  0.40596070834E+02  0.00000000000E+00 0. -1.
         13    1    4    4    0    0  0.23338184335E+02  0.42163068333E+02 -0.25228723174E+02  0.54395621628E+02  0.00000000000E+00 0.  1.
         21    1    1    2  502  501  0.26775364186E+02 -0.28099115980E+02  0.11766051207E+02  0.40557618362E+02  0.00000000000E+00 0. -1.
<scales pt_clust_5="13000.00000" pt_clust_6="13000.00000" pt_clust_7="13000.00000" pt_clust_8="13000.00000" pt_clust_9="38.81341"></scales>
<clustering>
<clus scale="   38.813">  1  9  2 -1</clus>
<clus scale="   85.016">  5  6 -1 -1</clus>
<clus scale="   92.479">  7  8 -1 -1</clus>
<clus scale="   94.108">  2  5  1 -1</clus>
<clus scale="   38.813">  1  5  2 -1</clus>
</clustering>
</event>
<event>
 9    1  0.1435532E-005  0.3018931E+03  0.7546771E-02  0.1084347E+00
          1   -1    0    0  502    0  0.00000000000E+00  0.00000000000E+00  0.17615669120E+03  0.17615669120E+03  0.00000000000E+00 0. -1.
         -1   -1    0    0    0  501 -0.00000000000E+00 -0.00000000000E+00 -0.74876692121E+03  0.74876692121E+03  0.00000000000E+00 0.  1.
         23    2    1    2    0    0 -0.16207480442E+02  0.28678532221E+03 -0.50481545192E+03  0.58817897055E+03  0.92775845180E+02 0.  0.
         23    2    1    2    0    0 -0.99470087515E+01 -0.28813287336E+03 -0.54371932473E+02  0.30731598263E+03  0.91473003902E+02 0.  0.
        -11    1    3    3    0    0  0.96108048250E+01  0.10109433018E+03 -0.10230037766E+03  0.14414506039E+03  0.00000000000E+00 0. -1.
         11    1    3    3    0    0 -0.25818285267E+02  0.18569099203E+03 -0.40251507425E+03  0.44403391016E+03  0.00000000000E+00 0.  1.
        -11    1    4    4    0    0 -0.45343749811E+01 -0.26004021025E+03 -0.76556374164E+02  0.27111316812E+03  0.00000000000E+00 0. -1.
         11    1    4    4    0    0 -0.54126337704E+01 -0.28092663109E+02  0.22184441691E+02  0.36202814504E+02  0.00000000000E+00 0.  1.
         21    1    1    2  502  501  0.26154489193E+02  0.13475511505E+01 -0.13422845622E+02  0.29428659223E+02  0.00000000000E+00 0. -1.
<scales pt_clust_5="13000.00000" pt_clust_6="13000.00000" pt_clust_7="13000.00000" pt_clust_8="13000.00000" pt_clust_9="26.18918"></scales>
<clustering>
<clus scale="   26.189">  1  9  2 -1</clus>
<clus scale="   91.473">  7  8 -1 -1</clus>
<clus scale="   92.776">  5  6 -1 -1</clus>
<clus scale="  301.495">  1  7  2 -1</clus>
<clus scale="   26.189">  1  5  2 -1</clus>
</clustering>
</event>
<event>
 9    1  0.1435532E-005  0.3599731E+03  0.7546771E-02  0.1058682E+00
         -1   -1    0    0    0  501 -0.00000000000E+00  0.00000000000E+00  0.17994588849E+04  0.17994588849E+04  0.00000000000E+00 0.  1.
          1   -1    0    0  502    0  0.00000000000E+00 -0.00000000000E+00 -0.82269481868E+02  0.82269481868E+02  0.00000000000E+00 0. -1.
         23    2    1    2    0    0  0.26532400326E+03  0.23283611144E+03  0.10559633635E+04  0.11174247701E+04  0.94710138052E+02 0.  0.
         23    2    1    2    0    0 -0.23654434803E+03 -0.24334951538E+03  0.62329922696E+03  0.71554661431E+03  0.91284257695E+02 0.  0.
        -11    1    3    3    0    0  0.10677301140E+03  0.10199878410E+03  0.30546824266E+03  0.33928612585E+03  0.00000000000E+00 0. -1.
         11    1    3    3    0    0  0.15855099186E+03  0.13083732734E+03  0.75049512087E+03  0.77813864427E+03  0.00000000000E+00 0.  1.
        -11    1    4    4    0    0 -0.21676844739E+03 -0.19344751284E+03  0.46407737815E+03  0.54752014841E+03  0.00000000000E+00 0. -1.
         11    1    4    4    0    0 -0.19775900638E+02 -0.49902002543E+02  0.15922184881E+03  0.16802646590E+03  0.00000000000E+00 0.  1.
         21    1    1    2  502  501 -0.28779655235E+02  0.10513403945E+02  0.37926812550E+02  0.48756982353E+02  0.00000000000E+00 0.  1.
<scales pt_clust_5="13000.00000" pt_clust_6="13000.00000" pt_clust_7="13000.00000" pt_clust_8="13000.00000" pt_clust_9="30.63985"></scales>
<clustering>
<clus scale="   30.640">  2  9  1 -1</clus>
<clus scale="   91.284">  7  8 -1 -1</clus>
<clus scale="   94.710">  5  6 -1 -1</clus>
<clus scale="  359.087">  2  7  1 -1</clus>
<clus scale="   30.640">  2  5  1 -1</clus>
</clustering>
</event>
<event>
 9    1  0.1435532E-005  0.1504281E+03  0.7546771E-02  0.1203318E+00
          3   -1    0    0  502    0  0.00000000000E+00  0.00000000000E+00  0.28909011252E+03  0.28909011252E+03  0.00000000000E+00 0. -1.
         -3   -1    0    0    0  501 -0.00000000000E+00 -0.00000000000E+00 -0.12954690796E+03  0.12954690796E+03  0.00000000000E+00 0.  1.
         23    2    1    2    0    0  0.17002794811E+01 -0.66044261052E+02 -0.25131292114E+02  0.12968722102E+03  0.10873112748E+03 0.  0.
         23    2    1    2    0    0 -0.43550036338E+02  0.11155205067E+03  0.16444301340E+03  0.22389848141E+03  0.93533735357E+02 0.  0.
        -11    1    4    4    0    0 -0.28107663372E+02  0.64765800013E+02  0.15944464396E+03  0.17437673033E+03  0.00000000000E+00 0. -1.
         11    1    4    4    0    0 -0.15442372966E+02  0.46786250655E+02  0.49983694324E+01  0.49521751081E+02  0.00000000000E+00 0.  1.
        -13    1    3    3    0    0  0.15773719226E+02  0.20849188018E+02  0.17921863472E+02  0.31696877599E+02  0.00000000000E+00 0. -1.
         13    1    3    3    0    0 -0.14073439745E+02 -0.86893449069E+02 -0.43053155586E+02  0.97990343419E+02  0.00000000000E+00 0.  1.
         21    1    1    2  502  501  0.41849756857E+02 -0.45507789616E+02  0.20231483275E+02  0.65051318052E+02  0.00000000000E+00 0.  1.
<scales pt_clust_5="13000.00000" pt_clust_6="13000.00000" pt_clust_7="13000.00000" pt_clust_8="13000.00000" pt_clust_9="61.82525"></scales>
<clustering>
<clus scale="   61.825">  2  9  1 -1</clus>
<clus scale="   93.534">  5  6 -1 -1</clus>
<clus scale="  108.731">  7  8 -1 -1</clus>
<clus scale="  139.838">  1  5  2 -1</clus>
<clus scale="  139.838">  1  5  2 -1</clus>
</clustering>
</event>
<event>
 9    1  0.1435532E-005  0.1059418E+03  0.7546771E-02  0.1269971E+00
         -2   -1    0    0    0  501 -0.00000000000E+00  0.00000000000E+00  0.12842032799E+03  0.12842032799E+03  0.00000000000E+00 0.  1.
          2   -1    0    0  502    0  0.00000000000E+00 -0.00000000000E+00 -0.14041192922E+03  0.14041192922E+03  0.00000000000E+00 0. -1.
         23    2    1    2    0    0  0.96713934159E+01 -0.30412437799E+02  0.96562196224E+01  0.99176348475E+02  0.93403711361E+02 0.  0.
         23    2    1    2    0    0 -0.48680091457E+02  0.58060891908E+02 -0.23389299730E+00  0.11726629293E+03  0.89501454052E+02 0.  0.
        -11    1    4    4    0    0 -0.27694139813E+02 -0.20088156919E+02 -0.10288910039E+02  0.35726196246E+02  0.00000000000E+00 0.  1.
         11    1    4    4    0    0 -0.20985951644E+02  0.78149048827E+02  0.10055017042E+02  0.81540096681E+02  0.00000000000E+00 0. -1.
        -13    1    3    3    0    0  0.32564194515E+02 -0.12792163055E+02  0.42753829706E+02  0.55244512439E+02  0.00000000000E+00 0.  1.
         13    1    3    3    0    0 -0.22892801099E+02 -0.17620274744E+02 -0.33097610084E+02  0.43931836036E+02  0.00000000000E+00 0. -1.
         21    1    1    2  502  501  0.39008698041E+02 -0.27648454109E+02 -0.21413927856E+02  0.52389615800E+02  0.00000000000E+00 0.  1.
<scales pt_clust_5="13000.00000" pt_clust_6="13000.00000" pt_clust_7="13000.00000" pt_clust_8="13000.00000" pt_clust_9="47.81334"></scales>
<clustering>
<clus scale="   47.813">  2  9  1 -1</clus>
<clus scale="   89.501">  5  6 -1 -1</clus>
<clus scale="   93.404">  7  8 -1 -1</clus>
<clus scale="  102.518">  2  5  1 -1</clus>
<clus scale="   47.813">  2  5  1 -1</clus>
</clustering>
</event>
<event>
 9    1  0.1435532E-005  0.9556580E+02  0.7546771E-02  0.1291727E+00
          2   -1    0    0  502    0  0.00000000000E+00  0.00000000000E+00  0.36381674065E+02  0.36381674065E+02  0.00000000000E+00 0. -1.
         -2   -1    0    0    0  501 -0.00000000000E+00 -0.00000000000E+00 -0.62333894770E+03  0.62333894770E+03  0.00000000000E+00 0.  1.
         23    2    1    2    0    0  0.10979999539E+02  0.18475466275E+01 -0.48437797000E+03  0.49365568900E+03  0.94604162930E+02 0.  0.
         23    2    1    2    0    0  0.99212840926E+01 -0.12879064534E+02 -0.43622924535E+02  0.10254790606E+03  0.91371829963E+02 0.  0.
        -13    1    4    4    0    0  0.44412499901E+02 -0.29854000003E+02 -0.32156689685E+02  0.62432236506E+02  0.00000000000E+00 0.  1.
         13    1    4    4    0    0 -0.34491215808E+02  0.16974935469E+02 -0.11466234851E+02  0.40115669554E+02  0.00000000000E+00 0. -1.
        -13    1    3    3    0    0  0.69062296695E+00  0.47981405436E+02 -0.24609887167E+03  0.25073361734E+03  0.00000000000E+00 0. -1.
         13    1    3    3    0    0  0.10289376572E+02 -0.46133858808E+02 -0.23827909833E+03  0.24292207166E+03  0.00000000000E+00 0.  1.
         21    1    1    2  502  501 -0.20901283632E+02  0.11031517907E+02 -0.58956379102E+02  0.63517026707E+02  0.00000000000E+00 0. -1.
<scales pt_clust_5="13000.00000" pt_clust_6="13000.00000" pt_clust_7="13000.00000" pt_clust_8="13000.00000" pt_clust_9="23.63383"></scales>
<clustering>
<clus scale="   23.634">  2  9  1 -1</clus>
<clus scale="   91.372">  5  6 -1 -1</clus>
<clus scale="   92.367">  1  5  2 -1</clus>
<clus scale="   94.604">  7  8 -1 -1</clus>
<clus scale="   92.367">  1  5  2 -1</clus>
</clustering>
</event>
<event>
 9    1  0.1435532E-005  0.1029717E+03  0.7546771E-02  0.1274944E+00
         -2   -1    0    0    0  501 -0.00000000000E+00  0.00000000000E+00  0.12918001642E+03  0.12918001642E+03  0.00000000000E+00 0.  1.
          2   -1    0    0  502    0  0.00000000000E+00 -0.00000000000E+00 -0.28298997235E+03  0.28298997235E+03  0.00000000000E+00 0. -1.
         23    2    1    2    0    0 -0.57139711801E+02  0.37378799764E+02  0.50233348775E+02  0.12538164965E+03  0.92385320287E+02 0.  0.
         23    2    1    2    0    0 -0.67932267030E+01 -0.21571642520E+02 -0.26086635025E+02  0.97036229433E+02  0.90686457674E+02 0.  0.
        -11    1    3    3    0    0  0.21114557719E+02 -0.10003198110E+02  0.90071528049E+01  0.25040313931E+02  0.00000000000E+00 0. -1.
         11    1    3    3    0    0 -0.78254269520E+02  0.47381997874E+02  0.41226195970E+02  0.10034133572E+03  0.00000000000E+00 0.  1.
        -11    1    4    4    0    0  0.39696440778E+02 -0.17875287396E+02 -0.25382584103E+02  0.50394532300E+02  0.00000000000E+00 0. -1.
         11    1    4    4    0    0 -0.46489667481E+02 -0.36963551241E+01 -0.70405092157E+00  0.46641697133E+02  0.00000000000E+00 0.  1.
         21    1    1    2  502  501  0.63932938504E+02 -0.15807157244E+02 -0.17795666968E+03  0.18975210968E+03  0.00000000000E+00 0. -1.
<scales pt_clust_5="13000.00000" pt_clust_6="13000.00000" pt_clust_7="13000.00000" pt_clust_8="13000.00000" pt_clust_9="65.85808"></scales>
<clustering>
<clus scale="   65.858">  2  9  1 -1</clus>
<clus scale="   90.686">  7  8 -1 -1</clus>
<clus scale="   92.385">  5  6 -1 -1</clus>
<clus scale="  101.450">  2  7  1 -1</clus>
<clus scale="   65.858">  2  5  1 -1</clus>
</clustering>
</event>
<event>
 9    1  0.1435532E-005  0.9282829E+02  0.7546771E-02  0.1296504E+00
          1   -1    0    0  502    0  0.00000000000E+00  0.00000000000E+00  0.39473508282E+03  0.39473508282E+03  0.00000000000E+00 0. -1.
         -1   -1    0    0    0  501 -0.00000000000E+00 -0.00000000000E+00 -0.32512815310E+02  0.32512815310E+02  0.00000000000E+00 0.  1.
         23    2    1    2    0    0 -0.12777472344E+02 -0.11523051975E+02  0.10868746223E+03  0.14312291458E+03  0.91515898649E+02 0.  0.
         23    2    1    2    0    0  0.10329280979E+02 -0.84540046094E+01  0.24530979762E+03  0.26238269338E+03  0.92139116214E+02 0.  0.
        -11    1    4    4    0    0 -0.26672573059E+02  0.27775784762E+02  0.74047342685E+02  0.83462143104E+02  0.00000000000E+00 0.  1.
         11    1    4    4    0    0  0.37001854039E+02 -0.36229789372E+02  0.17126245494E+03  0.17892055028E+03  0.00000000000E+00 0. -1.
        -13    1    3    3    0    0 -0.30103795779E+02  0.33380257193E+02  0.50407445910E+02  0.67538068478E+02  0.00000000000E+00 0.  1.
         13    1    3    3    0    0  0.17326323435E+02 -0.44903309168E+02  0.58280016321E+02  0.75584846103E+02  0.00000000000E+00 0. -1.
         21    1    1    2  502  501  0.24481913647E+01  0.19977056584E+02  0.82250076530E+01  0.21742290165E+02  0.00000000000E+00 0. -1.
<scales pt_clust_5="13000.00000" pt_clust_6="13000.00000" pt_clust_7="13000.00000" pt_clust_8="13000.00000" pt_clust_9="20.12651"></scales>
<clustering>
<clus scale="   20.127">  2  9  1 -1</clus>
<clus scale="   91.516">  7  8 -1 -1</clus>
<clus scale="   92.139">  5  6 -1 -1</clus>
<clus scale="   92.210">  2  7  1 -1</clus>
<clus scale="   92.828">  1  5  2 -1</clus>
</clustering>
</event>
<event>
 9    1  0.1435532E-005  0.1437548E+03  0.7546771E-02  0.1208635E+00
          3   -1    0    0  502    0  0.00000000000E+00  0.00000000000E+00  0.21041766301E+03  0.21041766301E+03  0.00000000000E+00 0. -1.
         -3   -1    0    0    0  501 -0.00000000000E+00 -0.00000000000E+00 -0.20509459406E+03  0.20509459406E+03  0.00000000000E+00 0.  1.
         23    2    1    2    0    0  0.79641518953E+02  0.70064217326E+02 -0.13090449407E+03  0.19198808056E+03  0.92041677611E+02 0.  0.
         23    2    1    2    0    0 -0.93182358880E+02 -0.84986986931E+02  0.11751357492E+03  0.19602405380E+03  0.93328717035E+02 0.  0.
        -11    1    3    3    0    0  0.16459869316E+02 -0.20408089599E+02 -0.45246259050E+02  0.52293798647E+02  0.00000000000E+00 0. -1.
         11    1    3    3    0    0  0.63181649638E+02  0.90472306926E+02 -0.85658235018E+02  0.13969428191E+03  0.00000000000E+00 0.  1.
        -13    1    4    4    0    0 -0.52758480304E+02  0.71318607141E+01  0.59726123376E+02  0.80009565021E+02  0.00000000000E+00 0. -1.
         13    1    4    4    0    0 -0.40423878576E+02 -0.92118847645E+02  0.57787451543E+02  0.11601448878E+03  0.00000000000E+00 0.  1.
         21    1    1    2  502  501  0.13540839926E+02  0.14922769605E+02  0.18713988102E+02  0.27500122713E+02  0.00000000000E+00 0.  1.
<scales pt_clust_5="13000.00000" pt_clust_6="13000.00000" pt_clust_7="13000.00000" pt_clust_8="13000.00000" pt_clust_9="20.15052"></scales>
<clustering>
<clus scale="   20.151">  1  9  2 -1</clus>
<clus scale="   92.042">  5  6 -1 -1</clus>
<clus scale="   93.329">  7  8 -1 -1</clus>
<clus scale="  142.923">  2  5  1 -1</clus>
<clus scale="   20.151">  1  5  2 -1</clus>
</clustering>
</event>
<event>
 9    1  0.1435532E-005  0.1119080E+03  0.7546771E-02  0.1257519E+00
         -3   -1    0    0    0  501 -0.00000000000E+00  0.00000000000E+00  0.16815640595E+03  0.16815640595E+03  0.00000000000E+00 0.  1.
          3   -1    0    0  502    0  0.00000000000E+00 -0.00000000000E+00 -0.11916190498E+03  0.11916190498E+03  0.00000000000E+00 0. -1.
         23    2    1    2    0    0  0.68082555476E+02  0.34409334420E+02  0.64484806073E+02  0.13600198365E+03  0.92298497750E+02 0.  0.
         23    2    1    2    0    0 -0.31141585853E+02 -0.38550534180E+02  0.12928453032E+02  0.10452518938E+03  0.91117661637E+02 0.  0.
        -11    1    4    4    0    0  0.87870237709E+01 -0.33194752766E+02  0.42435907190E+02  0.54588548405E+02  0.00000000000E+00 0.  1.
         11    1    4    4    0    0 -0.39928609624E+02 -0.53557814136E+01 -0.29507454158E+02  0.49936640976E+02  0.00000000000E+00 0. -1.
        -11    1    3    3    0    0 -0.19771067841E+02 -0.82866058468E+01  0.64661189764E+01  0.22391374560E+02  0.00000000000E+00 0.  1.
         11    1    3    3    0    0  0.87853623317E+02  0.42695940267E+02  0.58018687096E+02  0.11361060909E+03  0.00000000000E+00 0. -1.
         21    1    1    2  502  501 -0.36940969622E+02  0.41411997597E+01 -0.28418758140E+02  0.46791137904E+02  0.00000000000E+00 0. -1.
<scales pt_clust_5="13000.00000" pt_clust_6="13000.00000" pt_clust_7="13000.00000" pt_clust_8="13000.00000" pt_clust_9="37.17237"></scales>
<clustering>
<clus scale="   37.172">  2  9  1 -1</clus>
<clus scale="   91.118">  5  6 -1 -1</clus>
<clus scale="   92.298">  7  8 -1 -1</clus>
<clus scale="  110.936">  2  5  1 -1</clus>
<clus scale="   37.172">  2  5  1 -1</clus>
</clustering>
</event>
<event>
 9    1  0.1435532E-005  0.1382260E+03  0.7546771E-02  0.1219124E+00
          2   -1    0    0  502    0  0.00000000000E+00  0.00000000000E+00  0.31170086329E+03  0.31170086329E+03  0.00000000000E+00 0. -1.
         -2   -1    0    0    0  501 -0.00000000000E+00 -0.00000000000E+00 -0.81305645472E+02  0.81305645472E+02  0.00000000000E+00 0.  1.
         23    2    1    2    0    0 -0.60276567230E+02 -0.62729525726E+02  0.54377003647E+02  0.14291108580E+03  0.99491014487E+02 0.  0.
         23    2    1    2    0    0  0.94940448490E+02  0.59716412375E+02  0.12646259387E+03  0.18954442776E+03  0.85758753386E+02 0.  0.
        -11    1    3    3    0    0 -0.77527646138E+02 -0.77260694807E+02  0.42445145469E+02  0.11739395747E+03  0.00000000000E+00 0.  1.
         11    1    3    3    0    0  0.17251078908E+02  0.14531169080E+02  0.11931858178E+02  0.25517128324E+02  0.00000000000E+00 0. -1.
        -13    1    4    4    0    0  0.84803519359E+02  0.51248871448E+01  0.67089664444E+02  0.10825398117E+03  0.00000000000E+00 0.  1.
         13    1    4    4    0    0  0.10136929131E+02  0.54591525230E+02  0.59372929423E+02  0.81290446594E+02  0.00000000000E+00 0. -1.
         21    1    1    2  502  501 -0.34663881260E+02  0.30131133515E+01  0.49555620307E+02  0.60550995203E+02  0.00000000000E+00 0. -1.
<scales pt_clust_5="13000.00000" pt_clust_6="13000.00000" pt_clust_7="13000.00000" pt_clust_8="13000.00000" pt_clust_9="34.79459"></scales>
<clustering>
<clus scale="   34.795">  1  9  2 -1</clus>
<clus scale="   85.759">  7  8 -1 -1</clus>
<clus scale="   99.491">  5  6 -1 -1</clus>
<clus scale="  128.696">  1  7  2 -1</clus>
<clus scale="   34.795">  1  5  2 -1</clus>
</clustering>
</event>
<event>
 9    1  0.1435532E-005  0.1115332E+03  0.7546771E-02  0.1261679E+00
         -2   -1    0    0    0  501 -0.00000000000E+00  0.00000000000E+00  0.10319838758E+03  0.10319838758E+03  0.00000000000E+00 0.  1.
          2   -1    0    0  502    0  0.00000000000E+00 -0.00000000000E+00 -0.31234784416E+03  0.31234784416E+03  0.00000000000E+00 0. -1.
         23    2    1    2    0    0 -0.59131359093E+02  0.19409135662E+02  0.33072401592E+02  0.11479785211E+03  0.90617497900E+02 0.  0.
         23    2    1    2    0    0  0.58825562484E+01 -0.27242247264E+02 -0.83617116617E+02  0.13326030040E+03  0.99948691681E+02 0.  0.
        -11    1    4    4    0    0  0.47070687281E+02 -0.26575028154E+00 -0.65791959644E+02  0.80896861361E+02  0.00000000000E+00 0.  1.
         11    1    4    4    0    0 -0.41188131032E+02 -0.26976496982E+02 -0.17825156972E+02  0.52363439044E+02  0.00000000000E+00 0. -1.
        -13    1    3    3    0    0 -0.28134714216E+02 -0.14027401536E+02  0.55653161158E+02  0.63918733442E+02  0.00000000000E+00 0.  1.
         13    1    3    3    0    0 -0.30996644877E+02  0.33436537198E+02 -0.22580759566E+02  0.50879118664E+02  0.00000000000E+00 0. -1.
         21    1    1    2  502  501  0.53248802845E+02  0.78331116020E+01 -0.15860474155E+03  0.16748807923E+03  0.00000000000E+00 0. -1.
<scales pt_clust_5="13000.00000" pt_clust_6="13000.00000" pt_clust_7="13000.00000" pt_clust_8="13000.00000" pt_clust_9="53.82186"></scales>
<clustering>
<clus scale="   53.822">  2  9  1 -1</clus>
<clus scale="   90.617">  7  8 -1 -1</clus>
<clus scale="   99.949">  5  6 -1 -1</clus>
<clus scale="  103.254">  1  7  2 -1</clus>
<clus scale="   53.822">  2  5  1 -1</clus>
</clustering>
</event>
<event>
 9    1  0.1435532E-005  0.9246526E+02  0.7546771E-02  0.1297394E+00
         -1   -1    0    0    0  501 -0.00000000000E+00  0.00000000000E+00  0.10075920933E+03  0.10075920933E+03  0.00000000000E+00 0.  1.
          1   -1    0    0  502    0  0.00000000000E+00 -0.00000000000E+00 -0.32022298240E+03  0.32022298240E+03  0.00000000000E+00 0. -1.
         23    2    1    2    0    0 -0.25738232518E+02  0.20137372274E+01  0.26593478164E+02  0.96961489382E+02  0.89598022253E+02 0.  0.
         23    2    1    2    0    0  0.68665713816E+01  0.21940199192E+02 -0.19226204488E+02  0.95149003722E+02  0.90305945691E+02 0.  0.
        -11    1    4    4    0    0  0.29673734376E+01 -0.21567705670E+02  0.24888279660E+02  0.33066564645E+02  0.00000000000E+00 0. -1.
         11    1    4    4    0    0  0.38991979440E+01  0.43507904862E+02 -0.44114484148E+02  0.62082439077E+02  0.00000000000E+00 0.  1.
        -11    1    3    3    0    0 -0.35955137665E+01  0.34299596482E+02  0.42475337654E+02  0.54713292233E+02  0.00000000000E+00 0.  1.
         11    1    3    3    0    0 -0.22142718752E+02 -0.32285859255E+02 -0.15881859490E+02  0.42248197150E+02  0.00000000000E+00 0. -1.
         21    1    1    2  502  501  0.18871661137E+02 -0.23953936420E+02 -0.22683104674E+03  0.22887169862E+03  0.00000000000E+00 0. -1.
<scales pt_clust_5="13000.00000" pt_clust_6="13000.00000" pt_clust_7="13000.00000" pt_clust_8="13000.00000" pt_clust_9="30.49476"></scales>
<clustering>
<clus scale="   30.495">  2  9  1 -1</clus>
<clus scale="   89.598">  7  8 -1 -1</clus>
<clus scale="   90.306">  5  6 -1 -1</clus>
<clus scale="   91.774">  1  7  2 -1</clus>
<clus scale="   30.495">  2  5  1 -1</clus>
</clustering>
</event>
<event>
 9    1  0.1435532E-005  0.1175193E+03  0.7546771E-02  0.1250044E+00
          1   -1    0    0  502    0  0.00000000000E+00  0.00000000000E+00  0.51663544144E+03  0.51663544144E+03  0.00000000000E+00 0. -1.
         -1   -1    0    0    0  501 -0.00000000000E+00 -0.00000000000E+00 -0.39142769886E+02  0.39142769886E+02  0.00000000000E+00 0.  1.
         23    2    1    2    0    0 -0.56882515197E+02 -0.88735300391E+01  0.99975893649E+02  0.15122089623E+03  0.97766149939E+02 0.  0.
         23    2    1    2    0    0  0.67140813654E+02 -0.17452241023E+02  0.33284941756E+03  0.35170419798E+03  0.89970209131E+02 0.  0.
        -13    1    4    4    0    0  0.17285722419E+02  0.26767516380E+02  0.38844075582E+02  0.50241002583E+02  0.00000000000E+00 0.  1.
         13    1    4    4    0    0  0.49855091234E+02 -0.44219757403E+02  0.29400534197E+03  0.30146319539E+03  0.00000000000E+00 0. -1.
        -13    1    3    3    0    0  0.19711537428E+02 -0.21901380487E+02  0.52403132500E+02  0.60119077428E+02  0.00000000000E+00 0. -1.
         13    1    3    3    0    0 -0.76594052625E+02  0.13027850448E+02  0.47572761148E+02  0.91101818797E+02  0.00000000000E+00 0.  1.
         21    1    1    2  502  501 -0.10258298457E+02  0.26325771062E+02  0.44667360345E+02  0.52853117121E+02  0.00000000000E+00 0.  1.
<scales pt_clust_5="13000.00000" pt_clust_6="13000.00000" pt_clust_7="13000.00000" pt_clust_8="13000.00000" pt_clust_9="28.25383"></scales>
<clustering>
<clus scale="   28.254">  2  9  1 -1</clus>
<clus scale="   89.970">  5  6 -1 -1</clus>
<clus scale="   97.766">  7  8 -1 -1</clus>
<clus scale="  111.118">  1  5  2 -1</clus>
<clus scale="  111.118">  1  5  2 -1</clus>
</clustering>
</event>
<event>
 9    1  0.1435532E-005  0.1345817E+03  0.7546771E-02  0.1221284E+00
         -1   -1    0    0    0  501 -0.00000000000E+00  0.00000000000E+00  0.17991049163E+03  0.17991049163E+03  0.00000000000E+00 0.  1.
          1   -1    0    0  502    0  0.00000000000E+00 -0.00000000000E+00 -0.22097522559E+03  0.22097522559E+03  0.00000000000E+00 0. -1.
         23    2    1    2    0    0  0.98484400694E+02  0.19873033871E+02  0.10321437095E+03  0.17052970456E+03  0.91285590937E+02 0.  0.
         23    2    1    2    0    0 -0.96857767053E+02  0.11807020084E+02 -0.70163433044E+02  0.14973712794E+03  0.89316669140E+02 0.  0.
        -11    1    4    4    0    0  0.13664029674E+02  0.15567696276E+02 -0.47437544698E+01  0.21249990135E+02  0.00000000000E+00 0.  1.
         11    1    4    4    0    0 -0.11052179673E+03 -0.37606761922E+01 -0.65419678574E+02  0.12848713781E+03  0.00000000000E+00 0. -1.
        -13    1    3    3    0    0  0.59569719179E+02  0.55443947993E+02  0.75305881328E+02  0.11087632107E+03  0.00000000000E+00 0.  1.
         13    1    3    3    0    0  0.38914681515E+02 -0.35570914122E+02  0.27908489620E+02  0.59653383490E+02  0.00000000000E+00 0. -1.
         21    1    1    2  502  501 -0.16266336408E+01 -0.31680053955E+02 -0.74115671865E+02  0.80618884708E+02  0.00000000000E+00 0. -1.
<scales pt_clust_5="13000.00000" pt_clust_6="13000.00000" pt_clust_7="13000.00000" pt_clust_8="13000.00000" pt_clust_9="31.72179"></scales>
<clustering>
<clus scale="   31.722">  2  9  1 -1</clus>
<clus scale="   89.317">  5  6 -1 -1</clus>
<clus scale="   91.286">  7  8 -1 -1</clus>
<clus scale="  133.254">  2  5  1 -1</clus>
<clus scale="   31.722">  2  5  1 -1</clus>
</clustering>
</event>
<event>
 9    1  0.1435532E-005  0.1061986E+03  0.7546771E-02  0.1268514E+00
         -1   -1    0    0    0  501 -0.00000000000E+00  0.00000000000E+00  0.57870619245E+02  0.57870619245E+02  0.00000000000E+00 0.  1.
          1   -1    0    0  502    0  0.00000000000E+00 -0.00000000000E+00 -0.54048149119E+03  0.54048149119E+03  0.00000000000E+00 0. -1.
         23    2    1    2    0    0 -0.17812868305E+02  0.36988518856E+02 -0.34062194026E+02  0.10601426245E+03  0.91615184208E+02 0.  0.
         23    2    1    2    0    0  0.49763065172E+02 -0.88938655447E+02 -0.24877311651E+03  0.28346011651E+03  0.89861710761E+02 0.  0.
        -11    1    3    3    0    0 -0.10286560929E+02 -0.26068748418E+02 -0.31915116639E+02  0.42473140335E+02  0.00000000000E+00 0.  1.
         11    1    3    3    0    0 -0.75263073757E+01  0.63057267274E+02 -0.21470773868E+01  0.63541122119E+02  0.00000000000E+00 0. -1.
        -13    1    4    4    0    0  0.26448220358E+01 -0.81725663892E+02 -0.11239619790E+03  0.13899274990E+03  0.00000000000E+00 0.  1.
         13    1    4    4    0    0  0.47118243136E+02 -0.72129915552E+01 -0.13637691861E+03  0.14446736661E+03  0.00000000000E+00 0. -1.
         21    1    1    2  502  501 -0.31950196867E+02  0.51950136591E+02 -0.19977556141E+03  0.20887773148E+03  0.00000000000E+00 0. -1.
<scales pt_clust_5="13000.00000" pt_clust_6="13000.00000" pt_clust_7="13000.00000" pt_clust_8="13000.00000" pt_clust_9="60.98878"></scales>
<clustering>
<clus scale="   60.989">  2  9  1 -1</clus>
<clus scale="   89.862">  7  8 -1 -1</clus>
<clus scale="   91.615">  5  6 -1 -1</clus>
<clus scale="  104.690">  2  7  1 -1</clus>
<clus scale="   60.989">  2  5  1 -1</clus>
</clustering>
</event>
<event>
 9    1  0.1435532E-005  0.9425586E+02  0.7546771E-02  0.1296455E+00
         -3   -1    0    0    0  501 -0.00000000000E+00  0.00000000000E+00  0.66940532931E+02  0.66940532931E+02  0.00000000000E+00 0.  1.
          3   -1    0    0  502    0  0.00000000000E+00 -0.00000000000E+00 -0.20828403202E+03  0.20828403202E+03  0.00000000000E+00 0. -1.
         23    2    1    2    0    0  0.29093785047E+02 -0.54742616943E+01 -0.17669092786E+01  0.89309863011E+02  0.84241995425E+02 0.  0.
         23    2    1    2    0    0 -0.17239844746E+02 -0.20253824911E+02 -0.10982684609E+03  0.14483553943E+03  0.90597834906E+02 0.  0.
        -11    1    4    4    0    0 -0.93485806186E+01  0.23786566157E+02 -0.93943651786E+02  0.97358134740E+02  0.00000000000E+00 0. -1.
         11    1    4    4    0    0 -0.78912641276E+01 -0.44040391068E+02 -0.15883194307E+02  0.47477404693E+02  0.00000000000E+00 0.  1.
        -13    1    3    3    0    0  0.52083462871E+02 -0.22533422594E+02  0.11263971438E+02  0.57856022080E+02  0.00000000000E+00 0.  1.
         13    1    3    3    0    0 -0.22989677824E+02  0.17059160900E+02 -0.13030880717E+02  0.31453840931E+02  0.00000000000E+00 0. -1.
         21    1    1    2  502  501 -0.11853940301E+02  0.25728086605E+02 -0.29749743716E+02  0.41079162506E+02  0.00000000000E+00 0. -1.
<scales pt_clust_5="13000.00000" pt_clust_6="13000.00000" pt_clust_7="13000.00000" pt_clust_8="13000.00000" pt_clust_9="28.32755"></scales>
<clustering>
<clus scale="   28.328">  2  9  1 -1</clus>
<clus scale="   84.242">  7  8 -1 -1</clus>
<clus scale="   88.164">  1  7  2 -1</clus>
<clus scale="   90.598">  5  6 -1 -1</clus>
<clus scale="   28.328">  2  5  1 -1</clus>
</clustering>
</event>
<event>
 9    1  0.1435532E-005  0.1647655E+03  0.7546771E-02  0.1184601E+00
         -1   -1    0    0    0  501 -0.00000000000E+00  0.00000000000E+00  0.41004101982E+03  0.41004101982E+03  0.00000000000E+00 0.  1.
          1   -1    0    0  502    0  0.00000000000E+00 -0.00000000000E+00 -0.15176048131E+03  0.15176048131E+03  0.00000000000E+00 0. -1.
         23    2    1    2    0    0 -0.98534102051E+02 -0.83658843942E+02  0.27930110582E+03  0.32383886670E+03  0.10077069236E+03 0.  0.
         23    2    1    2    0    0  0.14122081407E+03  0.37377001133E+02 -0.80461885421E+01  0.17367811948E+03  0.93589473214E+02 0.  0.
        -11    1    3    3    0    0  0.25531727914E+01 -0.59274521449E+02  0.11484885544E+03  0.12926812129E+03  0.00000000000E+00 0. -1.
         11    1    3    3    0    0 -0.10108727484E+03 -0.24384322493E+02  0.16445225038E+03  0.19457074542E+03  0.00000000000E+00 0.  1.
        -13    1    4    4    0    0  0.84371196143E+02 -0.76432095004E+01 -0.40891886286E+02  0.94069462389E+02  0.00000000000E+00 0. -1.
         13    1    4    4    0    0  0.56849617929E+02  0.45020210633E+02  0.32845697744E+02  0.79608657095E+02  0.00000000000E+00 0.  1.
         21    1    1    2  502  501 -0.42686712021E+02  0.46281842809E+02 -0.12974378763E+02  0.64284514941E+02  0.00000000000E+00 0. -1.
<scales pt_clust_5="13000.00000" pt_clust_6="13000.00000" pt_clust_7="13000.00000" pt_clust_8="13000.00000" pt_clust_9="62.96161"></scales>
<clustering>
<clus scale="   62.962">  2  9  1 -1</clus>
<clus scale="   93.589">  7  8 -1 -1</clus>
<clus scale="  100.771">  5  6 -1 -1</clus>
<clus scale="  160.474">  2  7  1 -1</clus>
<clus scale="   62.962">  2  5  1 -1</clus>
</clustering>
</event>
<event>
 9    1  0.1435532E-005  0.1766656E+03  0.7546771E-02  0.1175644E+00
          2   -1    0    0  502    0  0.00000000000E+00  0.00000000000E+00  0.14491519340E+03  0.14491519340E+03  0.00000000000E+00 0. -1.
         -2   -1    0    0    0  501 -0.00000000000E+00 -0.00000000000E+00 -0.43580275546E+03  0.43580275546E+03  0.00000000000E+00 0.  1.
         23    2    1    2    0    0  0.10314357450E+03 -0.74997068153E+02 -0.29781288217E+03  0.33611988867E+03  0.89559530916E+02 0.  0.
         23    2    1    2    0    0 -0.14668979756E+03  0.59270560106E+02  0.14002409120E+02  0.19776130340E+03  0.11782431692E+03 0.  0.
        -13    1    3    3    0    0  0.61475704537E+01 -0.56541320078E+02 -0.11761431724E+03  0.13064394788E+03  0.00000000000E+00 0. -1.
         13    1    3    3    0    0  0.96996004042E+02 -0.18455748075E+02 -0.18019856493E+03  0.20547594078E+03  0.00000000000E+00 0.  1.
        -13    1    4    4    0    0 -0.11631412498E+03  0.27355318944E+02  0.60307260062E+02  0.13384414354E+03  0.00000000000E+00 0. -1.
         13    1    4    4    0    0 -0.30375672578E+02  0.31915241161E+02 -0.46304850942E+02  0.63917159854E+02  0.00000000000E+00 0.  1.
         21    1    1    2  502  501  0.43546223062E+02  0.15726508047E+02 -0.70770890086E+01  0.46836756796E+02  0.00000000000E+00 0.  1.
<scales pt_clust_5="13000.00000" pt_clust_6="13000.00000" pt_clust_7="13000.00000" pt_clust_8="13000.00000" pt_clust_9="46.29899"></scales>
<clustering>
<clus scale="   46.299">  1  9  2 -1</clus>
<clus scale="   89.560">  5  6 -1 -1</clus>
<clus scale="  117.824">  7  8 -1 -1</clus>
<clus scale="  159.214">  2  5  1 -1</clus>
<clus scale="   46.299">  1  5  2 -1</clus>
</clustering>
</event>
<event>
 9    1  0.1435532E-005  0.1298156E+03  0.7546771E-02  0.1229950E+00
         -1   -1    0    0    0  501 -0.00000000000E+00  0.00000000000E+00  0.21068217572E+03  0.21068217572E+03  0.00000000000E+00 0.  1.
          1   -1    0    0  502    0  0.00000000000E+00 -0.00000000000E+00 -0.98836585745E+02  0.98836585745E+02  0.00000000000E+00 0. -1.
         23    2    1    2    0    0  0.28484611390E+01 -0.76228978652E+02  0.69455061442E+02  0.13933195977E+03  0.93650512746E+02 0.  0.
         23    2    1    2    0    0 -0.29226547194E+02  0.85622393839E+02  0.42212905008E+02  0.14218552988E+03  0.10123937065E+03 0.  0.
        -11    1    4    4    0    0 -0.65990781134E+02  0.64057619738E+02  0.37439465818E+02  0.99296905500E+02  0.00000000000E+00 0. -1.
         11    1    4    4    0    0  0.36764233940E+02  0.21564774101E+02  0.47734391900E+01  0.42888624377E+02  0.00000000000E+00 0.  1.
        -13    1    3    3    0    0  0.32897188130E+02  0.33780917001E+01  0.33138196668E+02  0.46816413455E+02  0.00000000000E+00 0.  1.
         13    1    3    3    0    0 -0.30048726991E+02 -0.79607070352E+02  0.36316864774E+02  0.92515546319E+02  0.00000000000E+00 0. -1.
         21    1    1    2  502  501  0.26378086055E+02 -0.93934151876E+01  0.17762352060E+00  0.28001271809E+02  0.00000000000E+00 0. -1.
<scales pt_clust_5="13000.00000" pt_clust_6="13000.00000" pt_clust_7="13000.00000" pt_clust_8="13000.00000" pt_clust_9="28.00071"></scales>
<clustering>
<clus scale="   28.001">  2  9  1 -1</clus>
<clus scale="   93.651">  7  8 -1 -1</clus>
<clus scale="  101.239">  5  6 -1 -1</clus>
<clus scale="  123.988">  1  7  2 -1</clus>
<clus scale="   28.001">  2  5  1 -1</clus>
</clustering>
</event>
<event>
 9    1  0.1435532E-005  0.1166842E+03  0.7546771E-02  0.1251214E+00
         -2   -1    0    0    0  501 -0.00000000000E+00  0.00000000000E+00  0.12158819554E+03  0.12158819554E+03  0.00000000000E+00 0.  1.
          2   -1    0    0  502    0  0.00000000000E+00 -0.00000000000E+00 -0.54928327843E+03  0.54928327843E+03  0.00000000000E+00 0. -1.
         23    2    1    2    0    0 -0.21108217943E+02 -0.61007931871E+02  0.80156954146E+02  0.13697036981E+03  0.90378206958E+02 0.  0.
         23    2    1    2    0    0  0.58199384777E+02  0.43106180142E+02 -0.33807499107E+03  0.35920000883E+03  0.97389093872E+02 0.  0.
        -13    1    4    4    0    0 -0.17658565373E+02 -0.13463750489E+02 -0.32917570245E+02  0.39707227794E+02  0.00000000000E+00 0.  1.
         13    1    4    4    0    0  0.75857950150E+02  0.56569930632E+02 -0.30515742082E+03  0.31949278104E+03  0.00000000000E+00 0. -1.
        -13    1    3    3    0    0 -0.33194993398E+01 -0.77761516044E+02  0.81244417351E+02  0.11251012312E+03  0.00000000000E+00 0.  1.
         13    1    3    3    0    0 -0.17788718603E+02  0.16753584173E+02 -0.10874632051E+01  0.24460246695E+02  0.00000000000E+00 0. -1.
         21    1    1    2  502  501 -0.37091166834E+02  0.17901751729E+02 -0.16977704597E+03  0.17470109533E+03  0.00000000000E+00 0. -1.
<scales pt_clust_5="13000.00000" pt_clust_6="13000.00000" pt_clust_7="13000.00000" pt_clust_8="13000.00000" pt_clust_9="41.18528"></scales>
<clustering>
<clus scale="   41.185">  2  9  1 -1</clus>
<clus scale="   90.378">  7  8 -1 -1</clus>
<clus scale="   97.389">  5  6 -1 -1</clus>
<clus scale="  110.900">  1  7  2 -1</clus>
<clus scale="   41.185">  2  5  1 -1</clus>
</clustering>
</event>
<event>
 9    1  0.1435532E-005  0.1431830E+03  0.7546771E-02  0.1209151E+00
         -2   -1    0    0    0  501 -0.00000000000E+00  0.00000000000E+00  0.50263284853E+02  0.50263284853E+02  0.00000000000E+00 0.  1.
          2   -1    0    0  502    0  0.00000000000E+00 -0.00000000000E+00 -0.54975284744E+03  0.54975284744E+03  0.00000000000E+00 0. -1.
         23    2    1    2    0    0  0.31569946560E+02  0.10710001513E+03 -0.13724684196E+03  0.19950033979E+03  0.92177086006E+02 0.  0.
         23    2    1    2    0    0 -0.53782450476E+02 -0.93007904008E+02 -0.27445497707E+03  0.30887153002E+03  0.92374593000E+02 0.  0.
        -11    1    4    4    0    0 -0.36175727820E+02  0.70763584998E+01 -0.46864911139E+02  0.59624475084E+02  0.00000000000E+00 0.  1.
         11    1    4    4    0    0 -0.17606722655E+02 -0.10008426251E+03 -0.22759006593E+03  0.24924705494E+03  0.00000000000E+00 0. -1.
        -11    1    3    3    0    0  0.38667049688E+02  0.68980300190E+02 -0.13982747987E+03  0.16063980413E+03  0.00000000000E+00 0. -1.
         11    1    3    3    0    0 -0.70971031279E+01  0.38119714936E+02  0.25806379124E+01  0.38860535658E+02  0.00000000000E+00 0.  1.
         21    1    1    2  502  501  0.22212503916E+02 -0.14092111118E+02 -0.87787743559E+02  0.91644262478E+02  0.00000000000E+00 0. -1.
<scales pt_clust_5="13000.00000" pt_clust_6="13000.00000" pt_clust_7="13000.00000" pt_clust_8="13000.00000" pt_clust_9="26.30557"></scales>
<clustering>
<clus scale="   26.306">  2  9  1 -1</clus>
<clus scale="   92.177">  7  8 -1 -1</clus>
<clus scale="   92.375">  5  6 -1 -1</clus>
<clus scale="  143.056">  1  7  2 -1</clus>
<clus scale="   26.306">  2  5  1 -1</clus>
</clustering>
</event>
<event>
 9    1  0.1435532E-005  0.1417056E+03  0.7546771E-02  0.1211456E+00
         -2   -1    0    0    0  501 -0.00000000000E+00  0.00000000000E+00  0.23876567248E+02  0.23876567248E+02  0.00000000000E+00 0.  1.
          2   -1    0    0  502    0  0.00000000000E+00 -0.00000000000E+00 -0.12843399587E+04  0.12843399587E+04  0.00000000000E+00 0. -1.
         23    2    1    2    0    0  0.75000347719E+02 -0.40652929123E+02 -0.43409557012E+03  0.45186866681E+03  0.92025079459E+02 0.  0.
         23    2    1    2    0    0 -0.13236966955E+03  0.38055966601E+02 -0.55132946103E+03  0.57537796227E+03  0.90142325586E+02 0.  0.
        -11    1    3    3    0    0 -0.21816807008E+02 -0.57415724020E+01 -0.76434231117E+02  0.79693979748E+02  0.00000000000E+00 0.  1.
         11    1    3    3    0    0  0.96817154727E+02 -0.34911356722E+02 -0.35766133900E+03  0.37217468707E+03  0.00000000000E+00 0. -1.
        -11    1    4    4    0    0 -0.11075261239E+03  0.50480458384E+02 -0.52575859845E+03  0.53966334105E+03  0.00000000000E+00 0.  1.
         11    1    4    4    0    0 -0.21617057154E+02 -0.12424491783E+02 -0.25570862580E+02  0.35714621224E+02  0.00000000000E+00 0. -1.
         21    1    1    2  502  501  0.57369321828E+02  0.25969625221E+01 -0.27503836032E+03  0.28096989688E+03  0.00000000000E+00 0. -1.
<scales pt_clust_5="13000.00000" pt_clust_6="13000.00000" pt_clust_7="13000.00000" pt_clust_8="13000.00000" pt_clust_9="57.42807"></scales>
<clustering>
<clus scale="   57.428">  2  9  1 -1</clus>
<clus scale="   90.142">  7  8 -1 -1</clus>
<clus scale="   92.025">  5  6 -1 -1</clus>
<clus scale="  140.490">  2  7  1 -1</clus>
<clus scale="   57.428">  2  5  1 -1</clus>
</clustering>
</event>
<event>
 9    1  0.1435532E-005  0.9143907E+02  0.7546771E-02  0.1303599E+00
         -2   -1    0    0    0  501 -0.00000000000E+00  0.00000000000E+00  0.94860445508E+02  0.94860445508E+02  0.00000000000E+00 0.  1.
          2   -1    0    0  502    0  0.00000000000E+00 -0.00000000000E+00 -0.64897971368E+03  0.64897971368E+03  0.00000000000E+00 0. -1.
         23    2    1    2    0    0 -0.41150171355E+01  0.14217468447E+02  0.41271190881E+02  0.10135790102E+03  0.91384041972E+02 0.  0.
         23    2    1    2    0    0 -0.75179360212E+00  0.47745158219E+02 -0.87291654075E+02  0.13059609058E+03  0.84589246812E+02 0.  0.
        -11    1    4    4    0    0 -0.21724243258E+02  0.10781453104E+02 -0.84604876794E+02  0.88012315351E+02  0.00000000000E+00 0. -1.
         11    1    4    4    0    0  0.20972449655E+02  0.36963705115E+02 -0.26867772807E+01  0.42583775227E+02  0.00000000000E+00 0.  1.
        -13    1    3    3    0    0  0.27974555440E+02 -0.27944042068E+02  0.15989413669E+02  0.42650985788E+02  0.00000000000E+00 0. -1.
         13    1    3    3    0    0 -0.32089572575E+02  0.42161510515E+02  0.25281777212E+02  0.58706915231E+02  0.00000000000E+00 0.  1.
         21    1    1    2  502  501  0.48668107376E+01 -0.61962626666E+02 -0.50809880498E+03  0.51188616759E+03  0.00000000000E+00 0. -1.
<scales pt_clust_5="13000.00000" pt_clust_6="13000.00000" pt_clust_7="13000.00000" pt_clust_8="13000.00000" pt_clust_9="62.15346"></scales>
<clustering>
<clus scale="   62.153">  2  9  1 -1</clus>
<clus scale="   84.589">  5  6 -1 -1</clus>
<clus scale="   84.649">  2  5  1 -1</clus>
<clus scale="   91.384">  7  8 -1 -1</clus>
<clus scale="   62.153">  2  5  1 -1</clus>
</clustering>
</event>
<event>
 9    1  0.1435532E-005  0.9521284E+02  0.7546771E-02  0.1292198E+00
          1   -1    0    0  502    0  0.00000000000E+00  0.00000000000E+00  0.11389744386E+03  0.11389744386E+03  0.00000000000E+00 0. -1.
         -1   -1    0    0    0  501 -0.00000000000E+00 -0.00000000000E+00 -0.19675695134E+03  0.19675695134E+03  0.00000000000E+00 0.  1.
         23    2    1    2    0    0 -0.66842305111E-01 -0.94877810187E+01 -0.61760226227E+02  0.10862462751E+03  0.88853597005E+02 0.  0.
         23    2    1    2    0    0  0.44757391289E+02  0.21522360785E+02 -0.76926507316E+02  0.12951249079E+03  0.91593458575E+02 0.  0.
        -11    1    3    3    0    0  0.30788705798E+02  0.20810237356E+02 -0.53483367288E+01  0.37544841048E+02  0.00000000000E+00 0.  1.
         11    1    3    3    0    0 -0.30855548103E+02 -0.30298018375E+02 -0.56411889498E+02  0.71079786458E+02  0.00000000000E+00 0. -1.
        -11    1    4    4    0    0  0.55267905742E+02  0.49315144165E+02 -0.49604854736E+02  0.89146881395E+02  0.00000000000E+00 0.  1.
         11    1    4    4    0    0 -0.10510514453E+02 -0.27792783379E+02 -0.27321652581E+02  0.40365609394E+02  0.00000000000E+00 0. -1.
         21    1    1    2  502  501 -0.44690548984E+02 -0.12034579767E+02  0.55827226070E+02  0.72517276902E+02  0.00000000000E+00 0. -1.
<scales pt_clust_5="13000.00000" pt_clust_6="13000.00000" pt_clust_7="13000.00000" pt_clust_8="13000.00000" pt_clust_9="46.28257"></scales>
<clustering>
<clus scale="   46.283">  1  9  2 -1</clus>
<clus scale="   88.854">  5  6 -1 -1</clus>
<clus scale="   91.593">  7  8 -1 -1</clus>
<clus scale="   92.580">  2  5  1 -1</clus>
<clus scale="   46.283">  1  5  2 -1</clus>
</clustering>
</event>
<event>
 9    1  0.1435532E-005  0.1383088E+03  0.7546771E-02  0.1216427E+00
          2   -1    0    0  502    0  0.00000000000E+00  0.00000000000E+00  0.47694087966E+02  0.47694087966E+02  0.00000000000E+00 0. -1.
         -2   -1    0    0    0  501 -0.00000000000E+00 -0.00000000000E+00 -0.51030707707E+03  0.51030707707E+03  0.00000000000E+00 0.  1.
         23    2    1    2    0    0 -0.10517603572E+03 -0.46883725932E+02 -0.28418326841E+03  0.31982344127E+03  0.90922061668E+02 0.  0.
         23    2    1    2    0    0  0.83845979685E+02  0.36668067981E+02 -0.17229240243E+03  0.21374418874E+03  0.87333903886E+02 0.  0.
        -11    1    4    4    0    0  0.63388968413E+02  0.61154206431E+02 -0.15275847394E+03  0.17633249741E+03  0.00000000000E+00 0. -1.
         11    1    4    4    0    0  0.20457011272E+02 -0.24486138450E+02 -0.19533928482E+02  0.37411691332E+02  0.00000000000E+00 0.  1.
        -13    1    3    3    0    0 -0.57755152237E+02 -0.70632743999E+02 -0.20654605834E+03  0.22580061193E+03  0.00000000000E+00 0.  1.
         13    1    3    3    0    0 -0.47420883486E+02  0.23749018067E+02 -0.77637210070E+02  0.94022829341E+02  0.00000000000E+00 0. -1.
         21    1    1    2  502  501  0.21330056037E+02  0.10215657952E+02 -0.61373182674E+01  0.24433535018E+02  0.00000000000E+00 0.  1.
<scales pt_clust_5="13000.00000" pt_clust_6="13000.00000" pt_clust_7="13000.00000" pt_clust_8="13000.00000" pt_clust_9="23.65018"></scales>
<clustering>
<clus scale="   23.650">  1  9  2 -1</clus>
<clus scale="   87.334">  5  6 -1 -1</clus>
<clus scale="   90.922">  7  8 -1 -1</clus>
<clus scale="  135.977">  1  5  2 -1</clus>
<clus scale="   23.650">  1  5  2 -1</clus>
</clustering>
</event>
<event>
 9    1  0.1435532E-005  0.9412574E+02  0.7546771E-02  0.1298680E+00
         -1   -1    0    0    0  501 -0.00000000000E+00  0.00000000000E+00  0.44971361753E+02  0.44971361753E+02  0.00000000000E+00 0.  1.
          1   -1    0    0  502    0  0.00000000000E+00 -0.00000000000E+00 -0.37206449726E+03  0.37206449726E+03  0.00000000000E+00 0. -1.
         23    2    1    2    0    0  0.17010279975E+02  0.16783906609E+02 -0.32004207142E+02  0.95245964550E+02  0.86466614033E+02 0.  0.
         23    2    1    2    0    0 -0.46367990008E+01 -0.40745799333E+02 -0.27448587740E+03  0.28785228931E+03  0.76385361838E+02 0.  0.
        -13    1    4    4    0    0 -0.21217800376E+02  0.12998611784E+02 -0.43466599977E+02  0.50084970547E+02  0.00000000000E+00 0.  1.
         13    1    4    4    0    0  0.16581001376E+02 -0.53744411117E+02 -0.23101927742E+03  0.23776731876E+03  0.00000000000E+00 0. -1.
        -13    1    3    3    0    0  0.14314266456E+02 -0.27973033360E+02 -0.38765017500E+02  0.49901056115E+02  0.00000000000E+00 0. -1.
         13    1    3    3    0    0  0.26960135192E+01  0.44756939969E+02  0.67608103582E+01  0.45344908435E+02  0.00000000000E+00 0.  1.
         21    1    1    2  502  501 -0.12373480974E+02  0.23961892724E+02 -0.20603050970E+02  0.33937605154E+02  0.00000000000E+00 0. -1.
<scales pt_clust_5="13000.00000" pt_clust_6="13000.00000" pt_clust_7="13000.00000" pt_clust_8="13000.00000" pt_clust_9="26.96804"></scales>
<clustering>
<clus scale="   26.968">  1  9  2 -1</clus>
<clus scale="   76.385">  5  6 -1 -1</clus>
<clus scale="   84.958">  2  5  1 -1</clus>
<clus scale="   86.467">  7  8 -1 -1</clus>
<clus scale="   84.958">  2  5  1 -1</clus>
</clustering>
</event>
<event>
 9    1  0.1435532E-005  0.1815789E+03  0.7546771E-02  0.1166453E+00
          2   -1    0    0  502    0  0.00000000000E+00  0.00000000000E+00  0.34166632235E+03  0.34166632235E+03  0.00000000000E+00 0. -1.
         -2   -1    0    0    0  501 -0.00000000000E+00 -0.00000000000E+00 -0.24647735591E+03  0.24647735591E+03  0.00000000000E+00 0.  1.
         23    2    1    2    0    0 -0.52936585990E+02  0.13865334529E+03 -0.13799296223E+03  0.22281447090E+03  0.92613166026E+02 0.  0.
         23    2    1    2    0    0  0.86262746736E+02 -0.18382937421E+03  0.20452227838E+03  0.30229840430E+03  0.91216569714E+02 0.  0.
        -11    1    3    3    0    0 -0.58757464458E+02  0.34453783285E+02 -0.73132393125E+02  0.99939230217E+02  0.00000000000E+00 0.  1.
         11    1    3    3    0    0  0.58208784683E+01  0.10419956201E+03 -0.64860569103E+02  0.12287524068E+03  0.00000000000E+00 0. -1.
        -13    1    4    4    0    0  0.10984002239E+02 -0.95889309035E+02  0.48485508669E+02  0.10801042748E+03  0.00000000000E+00 0.  1.
         13    1    4    4    0    0  0.75278744497E+02 -0.87940065176E+02  0.15603676971E+03  0.19428797683E+03  0.00000000000E+00 0. -1.
         21    1    1    2  502  501 -0.33326160747E+02  0.45176028918E+02  0.28659650287E+02  0.63030803053E+02  0.00000000000E+00 0.  1.
<scales pt_clust_5="13000.00000" pt_clust_6="13000.00000" pt_clust_7="13000.00000" pt_clust_8="13000.00000" pt_clust_9="56.13828"></scales>
<clustering>
<clus scale="   56.138">  1  9  2 -1</clus>
<clus scale="   91.217">  7  8 -1 -1</clus>
<clus scale="   92.613">  5  6 -1 -1</clus>
<clus scale="  180.871">  1  7  2 -1</clus>
<clus scale="   56.138">  1  5  2 -1</clus>
</clustering>
</event>
<event>
 9    1  0.1435532E-005  0.1398797E+03  0.7546771E-02  0.1214859E+00
         -1   -1    0    0    0  501 -0.00000000000E+00  0.00000000000E+00  0.19586122709E+03  0.19586122709E+03  0.00000000000E+00 0.  1.
          1   -1    0    0  502    0  0.00000000000E+00 -0.00000000000E+00 -0.25616822801E+03  0.25616822801E+03  0.00000000000E+00 0. -1.
         23    2    1    2    0    0 -0.60817374098E+02 -0.73294428054E+00  0.12187500381E+03  0.16383680823E+03  0.91047751078E+02 0.  0.
         23    2    1    2    0    0  0.10662135458E+03 -0.16401518741E+02 -0.18963097035E+03  0.23872466187E+03  0.96914581973E+02 0.  0.
        -13    1    3    3    0    0 -0.22060081107E+02  0.27216543576E+02  0.10879254276E+03  0.11429437774E+03  0.00000000000E+00 0.  1.
         13    1    3    3    0    0 -0.38757292991E+02 -0.27949487856E+02  0.13082461051E+02  0.49542430487E+02  0.00000000000E+00 0. -1.
        -13    1    4    4    0    0  0.56170419205E+02  0.25121580738E+02 -0.34847601331E+02  0.70714674085E+02  0.00000000000E+00 0.  1.
         13    1    4    4    0    0  0.50450935379E+02 -0.41523099479E+02 -0.15478336902E+03  0.16800998778E+03  0.00000000000E+00 0. -1.
         21    1    1    2  502  501 -0.45803980486E+02  0.17134463021E+02  0.74489656168E+01  0.49467985002E+02  0.00000000000E+00 0.  1.
<scales pt_clust_5="13000.00000" pt_clust_6="13000.00000" pt_clust_7="13000.00000" pt_clust_8="13000.00000" pt_clust_9="48.90393"></scales>
<clustering>
<clus scale="   48.904">  1  9  2 -1</clus>
<clus scale="   91.048">  5  6 -1 -1</clus>
<clus scale="   96.915">  7  8 -1 -1</clus>
<clus scale="  135.881">  1  5  2 -1</clus>
<clus scale="  139.880">  2  5  1 -1</clus>
</clustering>
</event>
<event>
 9    1  0.1435532E-005  0.1022486E+03  0.7546771E-02  0.1276253E+00
          2   -1    0    0  502    0  0.00000000000E+00  0.00000000000E+00  0.78196928202E+02  0.78196928202E+02  0.00000000000E+00 0. -1.
         -2   -1    0    0    0  501 -0.00000000000E+00 -0.00000000000E+00 -0.31005843659E+03  0.31005843659E+03  0.00000000000E+00 0.  1.
         23    2    1    2    0    0 -0.46730529088E+02  0.25911947652E+02 -0.17310569704E+03  0.20296730765E+03  0.91514885396E+02 0.  0.
         23    2    1    2    0    0  0.30276912049E+02 -0.23802526125E+01 -0.96870262507E+02  0.13756831728E+03  0.92837692542E+02 0.  0.
        -11    1    3    3    0    0  0.18608517775E+02  0.35280560665E+02 -0.61466573637E+02  0.73274378669E+02  0.00000000000E+00 0. -1.
         11    1    3    3    0    0 -0.65339046863E+02 -0.93686130134E+01 -0.11163912340E+03  0.12969292899E+03  0.00000000000E+00 0.  1.
        -13    1    4    4    0    0  0.50911239012E+02  0.45838613816E+00 -0.14980908828E+02  0.53071574358E+02  0.00000000000E+00 0. -1.
         13    1    4    4    0    0 -0.20634326963E+02 -0.28386387507E+01 -0.81889353679E+02  0.84496742926E+02  0.00000000000E+00 0.  1.
         21    1    1    2  502  501  0.16453617039E+02 -0.23531695039E+02  0.38114451155E+02  0.47719739856E+02  0.00000000000E+00 0. -1.
<scales pt_clust_5="13000.00000" pt_clust_6="13000.00000" pt_clust_7="13000.00000" pt_clust_8="13000.00000" pt_clust_9="28.71345"></scales>
<clustering>
<clus scale="   28.713">  1  9  2 -1</clus>
<clus scale="   91.515">  5  6 -1 -1</clus>
<clus scale="   92.838">  7  8 -1 -1</clus>
<clus scale="  101.049">  2  5  1 -1</clus>
<clus scale="   28.713">  1  5  2 -1</clus>
</clustering>
</event>
<event>
 9    1  0.1435532E-005  0.9849016E+02  0.7546771E-02  0.1284747E+00
          2   -1    0    0  502    0  0.00000000000E+00  0.00000000000E+00  0.36075828243E+03  0.36075828243E+03  0.00000000000E+00 0. -1.
         -2   -1    0    0    0  501 -0.00000000000E+00 -0.00000000000E+00 -0.52093278326E+02  0.52093278326E+02  0.00000000000E+00 0.  1.
         23    2    1    2    0    0  0.33569291960E+02  0.15317726167E+02  0.28779957267E+02  0.10257742566E+03  0.91281499864E+02 0.  0.
         23    2    1    2    0    0 -0.43666864749E+02  0.13803235923E+02  0.18165712296E+03  0.20732406740E+03  0.88806723853E+02 0.  0.
        -11    1    4    4    0    0 -0.47127424011E+02 -0.18042235130E+02  0.47175371767E+02  0.69079896089E+02  0.00000000000E+00 0. -1.
         11    1    4    4    0    0  0.34605592612E+01  0.31845471053E+02  0.13448175119E+03  0.13824417131E+03  0.00000000000E+00 0.  1.
        -11    1    3    3    0    0  0.55306826782E+02 -0.11506745871E+02 -0.17076486496E+01  0.56516956333E+02  0.00000000000E+00 0.  1.
         11    1    3    3    0    0 -0.21737534822E+02  0.26824472038E+02  0.30487605917E+02  0.46060469329E+02  0.00000000000E+00 0. -1.
         21    1    1    2  502  501  0.10097572790E+02 -0.29120962090E+02  0.98227923879E+02  0.10295006770E+03  0.00000000000E+00 0. -1.
<scales pt_clust_5="13000.00000" pt_clust_6="13000.00000" pt_clust_7="13000.00000" pt_clust_8="13000.00000" pt_clust_9="30.82193"></scales>
<clustering>
<clus scale="   30.822">  1  9  2 -1</clus>
<clus scale="   88.807">  5  6 -1 -1</clus>
<clus scale="   91.281">  7  8 -1 -1</clus>
<clus scale="   96.201">  1  5  2 -1</clus>
<clus scale="   30.822">  1  5  2 -1</clus>
</clustering>
</event>
<event>
 9    1  0.1435532E-005  0.9964503E+02  0.7546771E-02  0.1282512E+00
          2   -1    0    0  502    0  0.00000000000E+00  0.00000000000E+00  0.76689290578E+03  0.76689290578E+03  0.00000000000E+00 0. -1.
         -2   -1    0    0    0  501 -0.00000000000E+00 -0.00000000000E+00 -0.17576002267E+02  0.17576002267E+02  0.00000000000E+00 0.  1.
         23    2    1    2    0    0 -0.20089701013E+02  0.60793271061E+01  0.25334359742E+03  0.27031696435E+03  0.91911525714E+02 0.  0.
         23    2    1    2    0    0  0.37101038296E+02 -0.22486432932E+02  0.31886951690E+03  0.33547813234E+03  0.94792836018E+02 0.  0.
        -11    1    3    3    0    0 -0.46559742849E+02 -0.13928589232E+02  0.21098412274E+03  0.21650892661E+03  0.00000000000E+00 0. -1.
         11    1    3    3    0    0  0.26470041836E+02  0.20007916338E+02  0.42359474678E+02  0.53808037745E+02  0.00000000000E+00 0.  1.
        -11    1    4    4    0    0  0.50849783070E+02  0.22677629657E+02  0.14528845610E+03  0.15559148691E+03  0.00000000000E+00 0.  1.
         11    1    4    4    0    0 -0.13748744774E+02 -0.45164062589E+02  0.17358106081E+03  0.17988664543E+03  0.00000000000E+00 0. -1.
         21    1    1    2  502  501 -0.17011337283E+02  0.16407105826E+02  0.17710378919E+03  0.17867381136E+03  0.00000000000E+00 0. -1.
<scales pt_clust_5="13000.00000" pt_clust_6="13000.00000" pt_clust_7="13000.00000" pt_clust_8="13000.00000" pt_clust_9="23.63427"></scales>
<clustering>
<clus scale="   23.634">  1  9  2 -1</clus>
<clus scale="   91.912">  5  6 -1 -1</clus>
<clus scale="   94.793">  7  8 -1 -1</clus>
<clus scale="   96.908">  2  5  1 -1</clus>
<clus scale="   23.634">  1  5  2 -1</clus>
</clustering>
</event>
<event>
 9    1  0.1435532E-005  0.9894681E+02  0.7546771E-02  0.1283136E+00
          1   -1    0    0  502    0  0.00000000000E+00  0.00000000000E+00  0.49872115572E+03  0.49872115572E+03  0.00000000000E+00 0. -1.
         -1   -1    0    0    0  501 -0.00000000000E+00 -0.00000000000E+00 -0.34641645473E+02  0.34641645473E+02  0.00000000000E+00 0.  1.
         23    2    1    2    0    0 -0.13356390537E+02 -0.33007796250E+02  0.12493518200E+03  0.15794709177E+03  0.89836386366E+02 0.  0.
         23    2    1    2    0    0 -0.29344348415E+02  0.45189570999E+02  0.16753817652E+03  0.19815764881E+03  0.91072636277E+02 0.  0.
        -11    1    4    4    0    0 -0.26871016573E+02  0.65573744025E+02  0.74265520223E+02  0.10265152182E+03  0.00000000000E+00 0.  1.
         11    1    4    4    0    0 -0.24733318421E+01 -0.20384173026E+02  0.93272656296E+02  0.95506126991E+02  0.00000000000E+00 0. -1.
        -13    1    3    3    0    0 -0.44463537904E+02 -0.31044940369E+02  0.11153515351E+03  0.12401969600E+03  0.00000000000E+00 0.  1.
         13    1    3    3    0    0  0.31107147368E+02 -0.19628558805E+01  0.13400028490E+02  0.33927395775E+02  0.00000000000E+00 0. -1.
         21    1    1    2  502  501  0.42700738952E+02 -0.12181774749E+02  0.17160615172E+03  0.17725806061E+03  0.00000000000E+00 0. -1.
<scales pt_clust_5="13000.00000" pt_clust_6="13000.00000" pt_clust_7="13000.00000" pt_clust_8="13000.00000" pt_clust_9="44.40438"></scales>
<clustering>
<clus scale="   44.404">  1  9  2 -1</clus>
<clus scale="   89.836">  7  8 -1 -1</clus>
<clus scale="   91.073">  5  6 -1 -1</clus>
<clus scale="   97.810">  2  7  1 -1</clus>
<clus scale="   44.404">  1  5  2 -1</clus>
</clustering>
</event>
<event>
 9    1  0.1435532E-005  0.9657382E+02  0.7546771E-02  0.1289821E+00
          1   -1    0    0  502    0  0.00000000000E+00  0.00000000000E+00  0.19844395785E+03  0.19844395785E+03  0.00000000000E+00 0. -1.
         -1   -1    0    0    0  501 -0.00000000000E+00 -0.00000000000E+00 -0.10794508991E+03  0.10794508991E+03  0.00000000000E+00 0.  1.
         23    2    1    2    0    0  0.74134978935E+01  0.14517335379E+02 -0.60408896970E+02  0.11390273878E+03  0.95178180747E+02 0.  0.
         23    2    1    2    0    0  0.15093317842E+02 -0.23135562698E+02  0.11994913099E+03  0.15325280785E+03  0.91299324114E+02 0.  0.
        -11    1    4    4    0    0  0.24143299905E+02  0.82995748670E+01  0.11772931349E+03  0.12046565124E+03  0.00000000000E+00 0. -1.
         11    1    4    4    0    0 -0.90499820630E+01 -0.31435137565E+02  0.22198175015E+01  0.32787156614E+02  0.00000000000E+00 0.  1.
        -13    1    3    3    0    0  0.38411770178E+02 -0.23067397157E+02 -0.43183764043E+02  0.62228662019E+02  0.00000000000E+00 0. -1.
         13    1    3    3    0    0 -0.30998272285E+02  0.37584732536E+02 -0.17225132927E+02  0.51674076758E+02  0.00000000000E+00 0.  1.
         21    1    1    2  502  501 -0.22506815735E+02  0.86182273195E+01  0.30958633919E+02  0.39233501129E+02  0.00000000000E+00 0.  1.
<scales pt_clust_5="13000.00000" pt_clust_6="13000.00000" pt_clust_7="13000.00000" pt_clust_8="13000.00000" pt_clust_9="24.10043"></scales>
<clustering>
<clus scale="   24.100">  1  9  2 -1</clus>
<clus scale="   91.299">  5  6 -1 -1</clus>
<clus scale="   92.753">  1  5  2 -1</clus>
<clus scale="   95.178">  7  8 -1 -1</clus>
<clus scale="   24.100">  1  5  2 -1</clus>
</clustering>
</event>
<event>
 9    1  0.1435532E-005  0.1004023E+03  0.7546771E-02  0.1281629E+00
         -1   -1    0    0    0  501 -0.00000000000E+00  0.00000000000E+00  0.49935114572E+02  0.49935114572E+02  0.00000000000E+00 0.  1.
          1   -1    0    0  502    0  0.00000000000E+00 -0.00000000000E+00 -0.26886812895E+03  0.26886812895E+03  0.00000000000E+00 0. -1.
         23    2    1    2    0    0 -0.32053705506E+02  0.78041750425E+01 -0.86190642140E+02  0.13068151548E+03  0.92522897221E+02 0.  0.
         23    2    1    2    0    0  0.30863443902E+02 -0.38994106226E+02 -0.91503175838E+02  0.13640229408E+03  0.88088944550E+02 0.  0.
        -13    1    4    4    0    0 -0.24543444786E+02  0.34264777529E+01 -0.50330041922E+01  0.25287399292E+02  0.00000000000E+00 0. -1.
         13    1    4    4    0    0  0.55406888688E+02 -0.42420583979E+02 -0.86470171645E+02  0.11111489479E+03  0.00000000000E+00 0.  1.
        -13    1    3    3    0    0  0.28551329797E+02 -0.13635775861E+02 -0.15843862299E+02  0.35385601437E+02  0.00000000000E+00 0.  1.
         13    1    3    3    0    0 -0.60605035303E+02  0.21439950903E+02 -0.70346779841E+02  0.95295914040E+02  0.00000000000E+00 0. -1.
         21    1    1    2  502  501  0.11902616046E+01  0.31189931184E+02 -0.41239196400E+02  0.51719433965E+02  0.00000000000E+00 0. -1.
<scales pt_clust_5="13000.00000" pt_clust_6="13000.00000" pt_clust_7="13000.00000" pt_clust_8="13000.00000" pt_clust_9="31.21263"></scales>
<clustering>
<clus scale="   31.213">  2  9  1 -1</clus>
<clus scale="   88.089">  5  6 -1 -1</clus>
<clus scale="   92.523">  7  8 -1 -1</clus>
<clus scale="   96.332">  2  5  1 -1</clus>
<clus scale="   31.213">  2  5  1 -1</clus>
</clustering>
</event>
<event>
 9    1  0.1435532E-005  0.1025299E+03  0.7546771E-02  0.1277620E+00
         -4   -1    0    0    0  501 -0.00000000000E+00  0.00000000000E+00  0.32034992568E+03  0.32034992568E+03  0.00000000000E+00 0.  1.
          4   -1    0    0  502    0  0.00000000000E+00 -0.00000000000E+00 -0.69055347160E+02  0.69055347160E+02  0.00000000000E+00 0. -1.
         23    2    1    2    0    0 -0.38694181255E+02 -0.26727286172E+02  0.21622691522E+03  0.23987627097E+03  0.92601074629E+02 0.  0.
         23    2    1    2    0    0  0.47349796366E+02 -0.14184408388E+02  0.39029418933E+02  0.10752445530E+03  0.87149367680E+02 0.  0.
        -11    1    3    3    0    0 -0.15844713849E+02  0.29659003566E+02  0.13044599868E+03  0.13471031891E+03  0.00000000000E+00 0.  1.
         11    1    3    3    0    0 -0.22849467406E+02 -0.56386289738E+02  0.85780916538E+02  0.10516595206E+03  0.00000000000E+00 0. -1.
        -11    1    4    4    0    0  0.42533844186E+02  0.31731099911E+02  0.13447840545E+02  0.54743355926E+02  0.00000000000E+00 0.  1.
         11    1    4    4    0    0  0.48159521801E+01 -0.45915508299E+02  0.25581578387E+02  0.52781099369E+02  0.00000000000E+00 0. -1.
         21    1    1    2  502  501 -0.86556151108E+01  0.40911694560E+02 -0.39617556337E+01  0.42004546569E+02  0.00000000000E+00 0.  1.
<scales pt_clust_5="13000.00000" pt_clust_6="13000.00000" pt_clust_7="13000.00000" pt_clust_8="13000.00000" pt_clust_9="41.81730"></scales>
<clustering>
<clus scale="   41.817">  2  9  1 -1</clus>
<clus scale="   87.149">  7  8 -1 -1</clus>
<clus scale="   92.601">  5  6 -1 -1</clus>
<clus scale="   97.634">  2  7  1 -1</clus>
<clus scale="   41.817">  2  5  1 -1</clus>
</clustering>
</event>
<event>
 9    1  0.1435532E-005  0.1476346E+03  0.7546771E-02  0.1206380E+00
          1   -1    0    0  502    0  0.00000000000E+00  0.00000000000E+00  0.82987015337E+02  0.82987015337E+02  0.00000000000E+00 0. -1.
         -1   -1    0    0    0  501 -0.00000000000E+00 -0.00000000000E+00 -0.75252694616E+03  0.75252694616E+03  0.00000000000E+00 0.  1.
         23    2    1    2    0    0  0.12737192449E+03 -0.17838105185E+02 -0.57513111208E+03  0.59616809170E+03  0.89993290538E+02 0.  0.
         23    2    1    2    0    0 -0.10071527666E+03 -0.21313429315E+02 -0.14840114254E+02  0.14674674312E+03  0.10352076314E+03 0.  0.
        -11    1    4    4    0    0 -0.72942165673E+02 -0.14959332245E+02 -0.58445782867E+02  0.94658600715E+02  0.00000000000E+00 0.  1.
         11    1    4    4    0    0 -0.27773110988E+02 -0.63540970704E+01  0.43605668614E+02  0.52088142401E+02  0.00000000000E+00 0. -1.
        -13    1    3    3    0    0  0.21848169764E+02 -0.29409021291E+02 -0.60710087977E+02  0.70908023788E+02  0.00000000000E+00 0. -1.
         13    1    3    3    0    0  0.10552375472E+03  0.11570916105E+02 -0.51442102410E+03  0.52526006792E+03  0.00000000000E+00 0.  1.
         21    1    1    2  502  501 -0.26656647825E+02  0.39151534500E+02 -0.79568704496E+02  0.92599126682E+02  0.00000000000E+00 0. -1.
<scales pt_clust_5="13000.00000" pt_clust_6="13000.00000" pt_clust_7="13000.00000" pt_clust_8="13000.00000" pt_clust_9="47.36475"></scales>
<clustering>
<clus scale="   47.365">  2  9  1 -1</clus>
<clus scale="   89.993">  7  8 -1 -1</clus>
<clus scale="  103.521">  5  6 -1 -1</clus>
<clus scale="  138.485">  2  7  1 -1</clus>
<clus scale="  147.635">  1  5  2 -1</clus>
</clustering>
</event>
<event>
 9    1  0.1435532E-005  0.9140373E+02  0.7546771E-02  0.1301658E+00
          2   -1    0    0  502    0  0.00000000000E+00  0.00000000000E+00  0.74491889992E+02  0.74491889992E+02  0.00000000000E+00 0. -1.
         -2   -1    0    0    0  501 -0.00000000000E+00 -0.00000000000E+00 -0.14717406693E+03  0.14717406693E+03  0.00000000000E+00 0.  1.
         23    2    1    2    0    0  0.23903248776E+01  0.12924849897E+02 -0.46451386049E+02  0.10217530982E+03  0.90051636700E+02 0.  0.
         23    2    1    2    0    0 -0.24161916403E+02  0.18965089778E+01 -0.15629814846E+02  0.91099529313E+02  0.86414340120E+02 0.  0.
        -11    1    4    4    0    0 -0.73629786217E+01  0.37410297767E+02  0.15315540753E+02  0.41089045034E+02  0.00000000000E+00 0. -1.
         11    1    4    4    0    0 -0.16798937781E+02 -0.35513788790E+02 -0.30945355599E+02  0.50010484280E+02  0.00000000000E+00 0.  1.
        -13    1    3    3    0    0  0.39909182071E+02  0.28458894042E+02 -0.34169040374E+02  0.59750939605E+02  0.00000000000E+00 0. -1.
         13    1    3    3    0    0 -0.37518857193E+02 -0.15534044145E+02 -0.12282345674E+02  0.42424370211E+02  0.00000000000E+00 0.  1.
         21    1    1    2  502  501  0.21771591525E+02 -0.14821358875E+02 -0.10600976044E+02  0.28391117793E+02  0.00000000000E+00 0.  1.
<scales pt_clust_5="13000.00000" pt_clust_6="13000.00000" pt_clust_7="13000.00000" pt_clust_8="13000.00000" pt_clust_9="26.33771"></scales>
<clustering>
<clus scale="   26.338">  2  9  1 -1</clus>
<clus scale="   86.414">  5  6 -1 -1</clus>
<clus scale="   87.822">  1  5  2 -1</clus>
<clus scale="   90.052">  7  8 -1 -1</clus>
<clus scale="   87.822">  1  5  2 -1</clus>
</clustering>
</event>
<event>
 9    1  0.1435532E-005  0.9724695E+02  0.7546771E-02  0.1286394E+00
          1   -1    0    0  502    0  0.00000000000E+00  0.00000000000E+00  0.74898403504E+02  0.74898403504E+02  0.00000000000E+00 0. -1.
         -1   -1    0    0    0  501 -0.00000000000E+00 -0.00000000000E+00 -0.26092371083E+03  0.26092371083E+03  0.00000000000E+00 0.  1.
         23    2    1    2    0    0  0.34546667381E+02  0.15394850433E+02 -0.19574940645E+03  0.21932407369E+03  0.91404297083E+02 0.  0.
         23    2    1    2    0    0 -0.12208310970E+02 -0.75425388189E+01  0.44978117790E+01  0.92249843931E+02  0.91015771413E+02 0.  0.
        -11    1    3    3    0    0  0.22554931634E+02  0.50343698482E+02 -0.15394841383E+03  0.16353387123E+03  0.00000000000E+00 0.  1.
         11    1    3    3    0    0  0.11991735747E+02 -0.34948848049E+02 -0.41800992617E+02  0.55790202455E+02  0.00000000000E+00 0. -1.
        -11    1    4    4    0    0 -0.22986002569E+02  0.34234319177E+02 -0.16317441409E+02  0.44346407045E+02  0.00000000000E+00 0. -1.
         11    1    4    4    0    0  0.10777691599E+02 -0.41776857996E+02  0.20815253188E+02  0.47903436886E+02  0.00000000000E+00 0.  1.
         21    1    1    2  502  501 -0.22338356411E+02 -0.78523116138E+01  0.52262873425E+01  0.24248196720E+02  0.00000000000E+00 0. -1.
<scales pt_clust_5="13000.00000" pt_clust_6="13000.00000" pt_clust_7="13000.00000" pt_clust_8="13000.00000" pt_clust_9="23.67828"></scales>
<clustering>
<clus scale="   23.678">  1  9  2 -1</clus>
<clus scale="   91.016">  7  8 -1 -1</clus>
<clus scale="   91.404">  5  6 -1 -1</clus>
<clus scale="   96.882">  1  7  2 -1</clus>
<clus scale="   23.678">  1  5  2 -1</clus>
</clustering>
</event>
<event>
 9    1  0.1435532E-005  0.1899386E+03  0.7546771E-02  0.1186863E+00
          1   -1    0    0  502    0  0.00000000000E+00  0.00000000000E+00  0.69417268568E+03  0.69417268568E+03  0.00000000000E+00 0. -1.
         -1   -1    0    0    0  501 -0.00000000000E+00 -0.00000000000E+00 -0.15923284118E+03  0.15923284118E+03  0.00000000000E+00 0.  1.
         23    2    1    2    0    0  0.13249635885E+03  0.10039073875E+03 -0.64074873899E+02  0.20263334520E+03  0.96545831532E+02 0.  0.
         23    2    1    2    0    0 -0.33163727549E+02  0.16410997226E+02  0.26986385485E+03  0.28766075504E+03  0.92482734517E+02 0.  0.
        -11    1    3    3    0    0  0.94606758617E+02  0.10515707644E+03 -0.78545140480E+02  0.16179551475E+03  0.00000000000E+00 0.  1.
         11    1    3    3    0    0  0.37889600231E+02 -0.47663376876E+01  0.14470266581E+02  0.40837830446E+02  0.00000000000E+00 0. -1.
        -13    1    4    4    0    0 -0.60238175545E+01 -0.37707549094E+02  0.86303583022E+02  0.94374011672E+02  0.00000000000E+00 0. -1.
         13    1    4    4    0    0 -0.27139909995E+02  0.54118546320E+02  0.18356027182E+03  0.19328674337E+03  0.00000000000E+00 0.  1.
         21    1    1    2  502  501 -0.99332631298E+02 -0.11680173597E+03  0.32915086355E+03  0.36311142662E+03  0.00000000000E+00 0. -1.
<scales pt_clust_5="13000.00000" pt_clust_6="13000.00000" pt_clust_7="13000.00000" pt_clust_8="13000.00000" pt_clust_9="163.57127"></scales>
<clustering>
<clus scale="   92.483">  7  8 -1 -1</clus>
<clus scale="   96.546">  5  6 -1 -1</clus>
<clus scale="   99.610">  1  7  2 -1</clus>
<clus scale="  163.571">  1  9  2 -1</clus>
<clus scale="   99.610">  1  5  2 -1</clus>
</clustering>
</event>
<event>
 9    1  0.1435532E-005  0.1164261E+03  0.7546771E-02  0.1249448E+00
         -1   -1    0    0    0  501 -0.00000000000E+00  0.00000000000E+00  0.40004913750E+03  0.40004913750E+03  0.00000000000E+00 0.  1.
          1   -1    0    0  502    0  0.00000000000E+00 -0.00000000000E+00 -0.89371671088E+02  0.89371671088E+02  0.00000000000E+00 0. -1.
         23    2    1    2    0    0  0.49929310016E+02 -0.51529918566E+02  0.18566937986E+03  0.21894323400E+03  0.91185265220E+02 0.  0.
         23    2    1    2    0    0  0.24629488414E+02  0.95183496943E+02  0.12539053150E+03  0.18407852603E+03  0.92171625587E+02 0.  0.
        -13    1    3    3    0    0  0.72068764832E+02 -0.15629488451E+02  0.12261166720E+03  0.14307972850E+03  0.00000000000E+00 0.  1.
         13    1    3    3    0    0 -0.22139454815E+02 -0.35900430115E+02  0.63057712655E+02  0.75863505503E+02  0.00000000000E+00 0. -1.
        -13    1    4    4    0    0  0.47132372860E+02  0.23071130285E+02  0.80839069800E+02  0.96377864835E+02  0.00000000000E+00 0.  1.
         13    1    4    4    0    0 -0.22502884446E+02  0.72112366658E+02  0.44551461702E+02  0.87700661190E+02  0.00000000000E+00 0. -1.
         21    1    1    2  502  501 -0.74558798430E+02 -0.43653578377E+02 -0.38244494447E+00  0.86399048563E+02  0.00000000000E+00 0. -1.
<scales pt_clust_5="13000.00000" pt_clust_6="13000.00000" pt_clust_7="13000.00000" pt_clust_8="13000.00000" pt_clust_9="86.39820"></scales>
<clustering>
<clus scale="   86.398">  2  9  1 -1</clus>
<clus scale="   91.185">  5  6 -1 -1</clus>
<clus scale="   92.172">  7  8 -1 -1</clus>
<clus scale="  115.647">  1  5  2 -1</clus>
<clus scale="   86.398">  2  5  1 -1</clus>
</clustering>
</event>
<event>
 9    1  0.1435532E-005  0.1023432E+03  0.7546771E-02  0.1275933E+00
         -2   -1    0    0    0  501 -0.00000000000E+00  0.00000000000E+00  0.50373787386E+03  0.50373787386E+03  0.00000000000E+00 0.  1.
          2   -1    0    0  502    0  0.00000000000E+00 -0.00000000000E+00 -0.33490696005E+02  0.33490696005E+02  0.00000000000E+00 0. -1.
         23    2    1    2    0    0  0.14432816302E+02 -0.47259034735E+02  0.35682564609E+03  0.37161634675E+03  0.91282226735E+02 0.  0.
         23    2    1    2    0    0 -0.17895187948E+02  0.24191780555E+02  0.87267428730E+02  0.13056763240E+03  0.92340795504E+02 0.  0.
        -13    1    4    4    0    0  0.35631977479E+02  0.20601378088E+02  0.24109135836E+02  0.47700157536E+02  0.00000000000E+00 0. -1.
         13    1    4    4    0    0 -0.53527165426E+02  0.35904024671E+01  0.63158292893E+02  0.82867474860E+02  0.00000000000E+00 0.  1.
        -13    1    3    3    0    0  0.39885596259E+02 -0.60886010851E+02  0.21832652879E+03  0.23014004493E+03  0.00000000000E+00 0.  1.
         13    1    3    3    0    0 -0.25452779958E+02  0.13626976116E+02  0.13849911730E+03  0.14147630183E+03  0.00000000000E+00 0. -1.
         21    1    1    2  502  501  0.34623716461E+01  0.23067254180E+02  0.26154103044E+02  0.35044590722E+02  0.00000000000E+00 0. -1.
<scales pt_clust_5="13000.00000" pt_clust_6="13000.00000" pt_clust_7="13000.00000" pt_clust_8="13000.00000" pt_clust_9="23.32566"></scales>
<clustering>
<clus scale="   23.326">  2  9  1 -1</clus>
<clus scale="   91.282">  7  8 -1 -1</clus>
<clus scale="   92.341">  5  6 -1 -1</clus>
<clus scale="  101.389">  1  7  2 -1</clus>
<clus scale="   23.326">  2  5  1 -1</clus>
</clustering>
</event>
<event>
 9    1  0.1435532E-005  0.9863568E+02  0.7546771E-02  0.1283372E+00
          2   -1    0    0  502    0  0.00000000000E+00  0.00000000000E+00  0.24424965053E+03  0.24424965053E+03  0.00000000000E+00 0. -1.
         -2   -1    0    0    0  501 -0.00000000000E+00 -0.00000000000E+00 -0.59705680969E+02  0.59705680969E+02  0.00000000000E+00 0.  1.
         23    2    1    2    0    0 -0.30339107787E+02  0.29578804855E+02  0.59030079357E+02  0.11712423719E+03  0.91859509636E+02 0.  0.
         23    2    1    2    0    0  0.35683691987E+02  0.83112373850E+01  0.80704211324E+02  0.12790633548E+03  0.92219620422E+02 0.  0.
        -13    1    4    4    0    0 -0.16665878016E+02  0.30287703347E+02  0.56390991710E+02  0.66144088248E+02  0.00000000000E+00 0. -1.
         13    1    4    4    0    0  0.52349570003E+02 -0.21976465962E+02  0.24313219614E+02  0.61762247236E+02  0.00000000000E+00 0.  1.
        -13    1    3    3    0    0 -0.47209453084E+02  0.51632687618E+02  0.27661335349E+02  0.75231751039E+02  0.00000000000E+00 0. -1.
         13    1    3    3    0    0  0.16870345297E+02 -0.22053882762E+02  0.31368744008E+02  0.41892486151E+02  0.00000000000E+00 0.  1.
         21    1    1    2  502  501 -0.53445841996E+01 -0.37890042241E+02  0.44809678881E+02  0.58924758826E+02  0.00000000000E+00 0. -1.
<scales pt_clust_5="13000.00000" pt_clust_6="13000.00000" pt_clust_7="13000.00000" pt_clust_8="13000.00000" pt_clust_9="38.26513"></scales>
<clustering>
<clus scale="   38.265">  1  9  2 -1</clus>
<clus scale="   91.860">  7  8 -1 -1</clus>
<clus scale="   92.220">  5  6 -1 -1</clus>
<clus scale="   98.299">  2  7  1 -1</clus>
<clus scale="   38.265">  1  5  2 -1</clus>
</clustering>
</event>
<event>
 9    1  0.1435532E-005  0.9564585E+02  0.7546771E-02  0.1294141E+00
          2   -1    0    0  502    0  0.00000000000E+00  0.00000000000E+00  0.44248464349E+03  0.44248464349E+03  0.00000000000E+00 0. -1.
         -2   -1    0    0    0  501 -0.00000000000E+00 -0.00000000000E+00 -0.57942360176E+02  0.57942360176E+02  0.00000000000E+00 0.  1.
         23    2    1    2    0    0  0.20294677618E+02 -0.12290521038E+02  0.28968443212E+01  0.96255723497E+02  0.93240773012E+02 0.  0.
         23    2    1    2    0    0 -0.16243493883E+02 -0.16288322680E+02  0.35135325910E+03  0.36232897430E+03  0.85463514951E+02 0.  0.
        -13    1    3    3    0    0 -0.20547375079E+02  0.25725971738E+02  0.19214972507E+02  0.38121324911E+02  0.00000000000E+00 0. -1.
         13    1    3    3    0    0  0.40842052696E+02 -0.38016492776E+02 -0.16318128186E+02  0.58134398586E+02  0.00000000000E+00 0.  1.
        -13    1    4    4    0    0 -0.40619754111E+01  0.33486333619E+02  0.19195495782E+03  0.19489622884E+03  0.00000000000E+00 0. -1.
         13    1    4    4    0    0 -0.12181518472E+02 -0.49774656300E+02  0.15939830128E+03  0.16743274546E+03  0.00000000000E+00 0.  1.
         21    1    1    2  502  501 -0.40511837346E+01  0.28578843718E+02  0.30292179895E+02  0.41842305872E+02  0.00000000000E+00 0. -1.
<scales pt_clust_5="13000.00000" pt_clust_6="13000.00000" pt_clust_7="13000.00000" pt_clust_8="13000.00000" pt_clust_9="28.86455"></scales>
<clustering>
<clus scale="   28.865">  2  9  1 -1</clus>
<clus scale="   85.464">  7  8 -1 -1</clus>
<clus scale="   88.081">  1  7  2 -1</clus>
<clus scale="   93.241">  5  6 -1 -1</clus>
<clus scale="   88.081">  1  5  2 -1</clus>
</clustering>
</event>
<event>
 9    1  0.1435532E-005  0.1572774E+03  0.7546771E-02  0.1192106E+00
         -2   -1    0    0    0  501 -0.00000000000E+00  0.00000000000E+00  0.48424198550E+03  0.48424198550E+03  0.00000000000E+00 0.  1.
          2   -1    0    0  502    0  0.00000000000E+00 -0.00000000000E+00 -0.84961184532E+02  0.84961184532E+02  0.00000000000E+00 0. -1.
         23    2    1    2    0    0  0.63657794689E+02  0.92771251669E+02  0.17596558870E+03  0.22737379167E+03  0.89867306463E+02 0.  0.
         23    2    1    2    0    0 -0.68883916328E+02 -0.12643524551E+03  0.24707354995E+03  0.30029583243E+03  0.91659056573E+02 0.  0.
        -11    1    3    3    0    0  0.92184428847E+01  0.60424998557E+02  0.14400714594E+03  0.15644237988E+03  0.00000000000E+00 0.  1.
         11    1    3    3    0    0  0.54439351804E+02  0.32346253112E+02  0.31958442758E+02  0.70931411792E+02  0.00000000000E+00 0. -1.
        -11    1    4    4    0    0 -0.76657737788E+02 -0.10003455865E+03  0.24122000579E+03  0.27215880085E+03  0.00000000000E+00 0.  1.
         11    1    4    4    0    0  0.77738214602E+01 -0.26400686858E+02  0.58535441616E+01  0.28137031576E+02  0.00000000000E+00 0. -1.
         21    1    1    2  502  501  0.52261216391E+01  0.33663993838E+02 -0.23758337683E+02  0.41533545936E+02  0.00000000000E+00 0. -1.
<scales pt_clust_5="13000.00000" pt_clust_6="13000.00000" pt_clust_7="13000.00000" pt_clust_8="13000.00000" pt_clust_9="34.06724"></scales>
<clustering>
<clus scale="   34.067">  2  9  1 -1</clus>
<clus scale="   89.867">  5  6 -1 -1</clus>
<clus scale="   91.659">  7  8 -1 -1</clus>
<clus scale="  156.240">  1  5  2 -1</clus>
<clus scale="   34.067">  2  5  1 -1</clus>
</clustering>
</event>
<event>
 9    1  0.1435532E-005  0.1372022E+03  0.7546771E-02  0.1220909E+00
          1   -1    0    0  502    0  0.00000000000E+00  0.00000000000E+00  0.78262273098E+02  0.78262273098E+02  0.00000000000E+00 0. -1.
         -1   -1    0    0    0  501 -0.00000000000E+00 -0.00000000000E+00 -0.60726952518E+03  0.60726952518E+03  0.00000000000E+00 0.  1.
         23    2    1    2    0    0  0.73035436410E+02 -0.62756266127E+02 -0.36086717556E+03  0.38447289590E+03  0.91223710608E+02 0.  0.
         23    2    1    2    0    0 -0.59729185797E+02  0.46039762976E+02 -0.21419423944E+03  0.25028997778E+03  0.10525523908E+03 0.  0.
        -13    1    4    4    0    0 -0.36366198945E+02  0.66590258457E+02 -0.71540624962E+02  0.10428242406E+03  0.00000000000E+00 0.  1.
         13    1    4    4    0    0 -0.23362986852E+02 -0.20550495481E+02 -0.14265361448E+03  0.14600755372E+03  0.00000000000E+00 0. -1.
        -13    1    3    3    0    0  0.24717568366E+02 -0.14483641323E+02 -0.15810581539E+02  0.32721683033E+02  0.00000000000E+00 0. -1.
         13    1    3    3    0    0  0.48317868044E+02 -0.48272624804E+02 -0.34505659402E+03  0.35175121287E+03  0.00000000000E+00 0.  1.
         21    1    1    2  502  501 -0.13306250612E+02  0.16716503151E+02  0.46054162918E+02  0.50768924600E+02  0.00000000000E+00 0. -1.
<scales pt_clust_5="13000.00000" pt_clust_6="13000.00000" pt_clust_7="13000.00000" pt_clust_8="13000.00000" pt_clust_9="21.36581"></scales>
<clustering>
<clus scale="   21.366">  1  9  2 -1</clus>
<clus scale="   91.224">  7  8 -1 -1</clus>
<clus scale="  105.255">  5  6 -1 -1</clus>
<clus scale="  126.758">  2  7  1 -1</clus>
<clus scale="   21.366">  1  5  2 -1</clus>
</clustering>
</event>
<event>
 9    1  0.1435532E-005  0.1107597E+03  0.7546771E-02  0.1260009E+00
         -2   -1    0    0    0  501 -0.00000000000E+00  0.00000000000E+00  0.91235227434E+02  0.91235227434E+02  0.00000000000E+00 0.  1.
          2   -1    0    0  502    0  0.00000000000E+00 -0.00000000000E+00 -0.56603456472E+03  0.56603456472E+03  0.00000000000E+00 0. -1.
         23    2    1    2    0    0  0.65437356406E+02  0.13864926632E+02  0.34909569077E+02  0.12038027358E+03  0.93800045038E+02 0.  0.
         23    2    1    2    0    0 -0.41585887441E+01  0.25515398042E+02 -0.31085683972E+03  0.32511595615E+03  0.91651954380E+02 0.  0.
        -13    1    3    3    0    0  0.41377739661E+01 -0.19998896636E+02  0.45197447131E+02  0.49597240520E+02  0.00000000000E+00 0.  1.
         13    1    3    3    0    0  0.61299582440E+02  0.33863823268E+02 -0.10287878054E+02  0.70783033055E+02  0.00000000000E+00 0. -1.
        -13    1    4    4    0    0 -0.14008740772E+02 -0.32328097579E+02 -0.91560649094E+02  0.98105571573E+02  0.00000000000E+00 0.  1.
         13    1    4    4    0    0  0.98501520280E+01  0.57843495621E+02 -0.21929619063E+03  0.22701038457E+03  0.00000000000E+00 0. -1.
         21    1    1    2  502  501 -0.61278767662E+02 -0.39380324674E+02 -0.19885206664E+03  0.21177356243E+03  0.00000000000E+00 0. -1.
<scales pt_clust_5="13000.00000" pt_clust_6="13000.00000" pt_clust_7="13000.00000" pt_clust_8="13000.00000" pt_clust_9="72.84159"></scales>
<clustering>
<clus scale="   72.842">  2  9  1 -1</clus>
<clus scale="   91.652">  7  8 -1 -1</clus>
<clus scale="   93.800">  5  6 -1 -1</clus>
<clus scale="  108.946">  2  7  1 -1</clus>
<clus scale="   72.842">  2  5  1 -1</clus>
</clustering>
</event>
<event>
 9    1  0.1435532E-005  0.1060525E+03  0.7546771E-02  0.1270489E+00
          1   -1    0    0  502    0  0.00000000000E+00  0.00000000000E+00  0.21060170396E+03  0.21060170396E+03  0.00000000000E+00 0. -1.
         -1   -1    0    0    0  501 -0.00000000000E+00 -0.00000000000E+00 -0.18368491764E+03  0.18368491764E+03  0.00000000000E+00 0.  1.
         23    2    1    2    0    0 -0.33280685863E+02  0.11977979225E+02 -0.14255729628E+03  0.17434604092E+03  0.93930203997E+02 0.  0.
         23    2    1    2    0    0  0.54500388087E+02 -0.22424235907E+02  0.12890432588E+03  0.17297990351E+03  0.99159382449E+02 0.  0.
        -11    1    4    4    0    0  0.37562391461E+02 -0.52166876311E+02  0.35351596181E+02  0.73362467167E+02  0.00000000000E+00 0.  1.
         11    1    4    4    0    0  0.16937996626E+02  0.29742640404E+02  0.93552729703E+02  0.99617436339E+02  0.00000000000E+00 0. -1.
        -13    1    3    3    0    0  0.17393804198E+01 -0.28946865412E+02 -0.90432305511E+01  0.30376413222E+02  0.00000000000E+00 0. -1.
         13    1    3    3    0    0 -0.35020066282E+02  0.40924844637E+02 -0.13351406573E+03  0.14396962769E+03  0.00000000000E+00 0.  1.
         21    1    1    2  502  501 -0.21219702225E+02  0.10446256682E+02  0.40569756710E+02  0.46960677175E+02  0.00000000000E+00 0. -1.
<scales pt_clust_5="13000.00000" pt_clust_6="13000.00000" pt_clust_7="13000.00000" pt_clust_8="13000.00000" pt_clust_9="23.65164"></scales>
<clustering>
<clus scale="   23.652">  1  9  2 -1</clus>
<clus scale="   93.930">  7  8 -1 -1</clus>
<clus scale="   99.159">  5  6 -1 -1</clus>
<clus scale="  101.180">  2  7  1 -1</clus>
<clus scale="   23.652">  1  5  2 -1</clus>
</clustering>
</event>
<event>
 9    1  0.1435532E-005  0.1246184E+03  0.7546771E-02  0.1236786E+00
         -1   -1    0    0    0  501 -0.00000000000E+00  0.00000000000E+00  0.74062931360E+02  0.74062931360E+02  0.00000000000E+00 0.  1.
          1   -1    0    0  502    0  0.00000000000E+00 -0.00000000000E+00 -0.41166823435E+03  0.41166823435E+03  0.00000000000E+00 0. -1.
         23    2    1    2    0    0 -0.16479140585E+02 -0.73538943503E+02 -0.18139241724E+02  0.11839170674E+03  0.89487573709E+02 0.  0.
         23    2    1    2    0    0  0.17475217114E+02  0.10710253874E+03 -0.22081841869E+03  0.26313358352E+03  0.93285431455E+02 0.  0.
        -11    1    4    4    0    0 -0.20050029976E+02 -0.82757437375E+01 -0.36838450725E+02  0.42750006880E+02  0.00000000000E+00 0.  1.
         11    1    4    4    0    0  0.37525247091E+02  0.11537828248E+03 -0.18397996797E+03  0.22038357664E+03  0.00000000000E+00 0. -1.
        -13    1    3    3    0    0  0.27674226533E+02 -0.66498011790E+02 -0.14987570738E+02  0.73569529446E+02  0.00000000000E+00 0. -1.
         13    1    3    3    0    0 -0.44153367118E+02 -0.70409317122E+01 -0.31516709855E+01  0.44822177293E+02  0.00000000000E+00 0.  1.
         21    1    1    2  502  501 -0.99607652938E+00 -0.33563595240E+02 -0.98647642570E+02  0.10420587545E+03  0.00000000000E+00 0. -1.
<scales pt_clust_5="13000.00000" pt_clust_6="13000.00000" pt_clust_7="13000.00000" pt_clust_8="13000.00000" pt_clust_9="33.57837"></scales>
<clustering>
<clus scale="   33.578">  2  9  1 -1</clus>
<clus scale="   89.488">  7  8 -1 -1</clus>
<clus scale="   93.285">  5  6 -1 -1</clus>
<clus scale="  121.801">  1  7  2 -1</clus>
<clus scale="   33.578">  2  5  1 -1</clus>
</clustering>
</event>
<event>
 9    1  0.1435532E-005  0.1108458E+03  0.7546771E-02  0.1259865E+00
         -1   -1    0    0    0  501 -0.00000000000E+00  0.00000000000E+00  0.24638843622E+03  0.24638843622E+03  0.00000000000E+00 0.  1.
          1   -1    0    0  502    0  0.00000000000E+00 -0.00000000000E+00 -0.39939580210E+03  0.39939580210E+03  0.00000000000E+00 0. -1.
         23    2    1    2    0    0  0.52477910111E+02  0.27576437866E+01  0.16778535902E+03  0.19755476594E+03  0.90080093220E+02 0.  0.
         23    2    1    2    0    0 -0.12617074670E+03  0.27107678019E+02 -0.50534842517E+02  0.16651703992E+03  0.92305312652E+02 0.  0.
        -11    1    3    3    0    0  0.38140360283E+02 -0.42328391100E+02  0.91714076422E+02  0.10797153139E+03  0.00000000000E+00 0.  1.
         11    1    3    3    0    0  0.14337549829E+02  0.45086034887E+02  0.76071282599E+02  0.89583234554E+02  0.00000000000E+00 0. -1.
        -13    1    4    4    0    0 -0.86270094293E+02  0.52028539267E+02 -0.61738966367E+02  0.11815751367E+03  0.00000000000E+00 0. -1.
         13    1    4    4    0    0 -0.39900652407E+02 -0.24920861249E+02  0.11204123850E+02  0.48359526250E+02  0.00000000000E+00 0.  1.
         21    1    1    2  502  501  0.73692836589E+02 -0.29865321805E+02 -0.27025788239E+03  0.28171243246E+03  0.00000000000E+00 0. -1.
<scales pt_clust_5="13000.00000" pt_clust_6="13000.00000" pt_clust_7="13000.00000" pt_clust_8="13000.00000" pt_clust_9="79.51460"></scales>
<clustering>
<clus scale="   79.515">  2  9  1 -1</clus>
<clus scale="   90.080">  5  6 -1 -1</clus>
<clus scale="   92.305">  7  8 -1 -1</clus>
<clus scale="  109.000">  1  5  2 -1</clus>
<clus scale="   79.515">  2  5  1 -1</clus>
</clustering>
</event>
<event>
 9    1  0.1435532E-005  0.1631849E+03  0.7546771E-02  0.1200299E+00
         -1   -1    0    0    0  501 -0.00000000000E+00  0.00000000000E+00  0.10444718168E+03  0.10444718168E+03  0.00000000000E+00 0.  1.
          1   -1    0    0  502    0  0.00000000000E+00 -0.00000000000E+00 -0.61070469317E+03  0.61070469317E+03  0.00000000000E+00 0. -1.
         23    2    1    2    0    0  0.64757090208E+02 -0.35607486708E+02 -0.18252883754E+02  0.11835532789E+03  0.90628042199E+02 0.  0.
         23    2    1    2    0    0  0.18150878138E+02 -0.90741092080E+02 -0.59459459444E+02  0.14238631838E+03  0.90415906656E+02 0.  0.
        -11    1    4    4    0    0  0.42085364051E+02 -0.96008162676E+02 -0.49614590654E+02  0.11597565595E+03  0.00000000000E+00 0.  1.
         11    1    4    4    0    0 -0.23934485913E+02  0.52670705963E+01 -0.98448687895E+01  0.26410662431E+02  0.00000000000E+00 0. -1.
        -11    1    3    3    0    0  0.86296104463E+02 -0.32802553917E+02 -0.40617932259E+01  0.92409541462E+02  0.00000000000E+00 0.  1.
         11    1    3    3    0    0 -0.21539014255E+02 -0.28049327907E+01 -0.14191090528E+02  0.25945786429E+02  0.00000000000E+00 0. -1.
         21    1    1    2  502  501 -0.82907968346E+02  0.12634857879E+03 -0.42854516829E+03  0.45441022858E+03  0.00000000000E+00 0. -1.
<scales pt_clust_5="13000.00000" pt_clust_6="13000.00000" pt_clust_7="13000.00000" pt_clust_8="13000.00000" pt_clust_9="135.84653"></scales>
<clustering>
<clus scale="   90.416">  5  6 -1 -1</clus>
<clus scale="   90.628">  7  8 -1 -1</clus>
<clus scale="  116.939">  1  7  2 -1</clus>
<clus scale="  135.847">  2  9  1 -1</clus>
<clus scale="  135.847">  2  5  1 -1</clus>
</clustering>
</event>
<event>
 9    1  0.1435532E-005  0.9698832E+02  0.7546771E-02  0.1289687E+00
          4   -1    0    0  502    0  0.00000000000E+00  0.00000000000E+00  0.66023019934E+02  0.66023019934E+02  0.00000000000E+00 0. -1.
         -4   -1    0    0    0  501 -0.00000000000E+00 -0.00000000000E+00 -0.49707185298E+03  0.49707185298E+03  0.00000000000E+00 0.  1.
         23    2    1    2    0    0 -0.52023557959E+02  0.35490517182E+02 -0.24261165746E+03  0.26592799697E+03  0.88832740840E+02 0.  0.
         23    2    1    2    0    0 -0.30998043308E+02 -0.12625893162E+02 -0.11789859913E+02  0.10064804366E+03  0.94184584876E+02 0.  0.
        -11    1    4    4    0    0  0.25593501486E+02 -0.27760898233E+02 -0.17830986966E+02  0.41756902246E+02  0.00000000000E+00 0.  1.
         11    1    4    4    0    0 -0.56591544793E+02  0.15135005072E+02  0.60411270534E+01  0.58891141411E+02  0.00000000000E+00 0. -1.
        -13    1    3    3    0    0  0.34149101010E+01  0.21803190347E+02 -0.64956414950E+01  0.23005088106E+02  0.00000000000E+00 0. -1.
         13    1    3    3    0    0 -0.55438468060E+02  0.13687326834E+02 -0.23611601596E+03  0.24292290886E+03  0.00000000000E+00 0.  1.
         21    1    1    2  502  501  0.83021601266E+02 -0.22864624020E+02 -0.17664731568E+03  0.19651883229E+03  0.00000000000E+00 0. -1.
<scales pt_clust_5="13000.00000" pt_clust_6="13000.00000" pt_clust_7="13000.00000" pt_clust_8="13000.00000" pt_clust_9="86.11259"></scales>
<clustering>
<clus scale="   86.113">  2  9  1 -1</clus>
<clus scale="   88.833">  7  8 -1 -1</clus>
<clus scale="   91.800">  2  7  1 -1</clus>
<clus scale="   94.185">  5  6 -1 -1</clus>
<clus scale="   96.988">  1  5  2 -1</clus>
</clustering>
</event>
<event>
 9    1  0.1435532E-005  0.1519895E+03  0.7546771E-02  0.1198401E+00
         -1   -1    0    0    0  501 -0.00000000000E+00  0.00000000000E+00  0.26941508613E+03  0.26941508613E+03  0.00000000000E+00 0.  1.
          1   -1    0    0  502    0  0.00000000000E+00 -0.00000000000E+00 -0.28254176758E+03  0.28254176758E+03  0.00000000000E+00 0. -1.
         23    2    1    2    0    0 -0.68481363357E+02 -0.99866519644E+02  0.20544336481E+03  0.25660576333E+03  0.94744513081E+02 0.  0.
         23    2    1    2    0    0  0.88343163479E+02  0.58760821026E+02 -0.20289752793E+03  0.24708311556E+03  0.92872549930E+02 0.  0.
        -13    1    3    3    0    0  0.76748464154E+01 -0.71639448907E+02  0.10675962070E+03  0.12879724577E+03  0.00000000000E+00 0. -1.
         13    1    3    3    0    0 -0.76156209772E+02 -0.28227070737E+02  0.98683744113E+02  0.12780851756E+03  0.00000000000E+00 0.  1.
        -13    1    4    4    0    0  0.34143666070E+02  0.18050394263E+01 -0.55347929469E+01  0.34636426389E+02  0.00000000000E+00 0.  1.
         13    1    4    4    0    0  0.54199497410E+02  0.56955781599E+02 -0.19736273499E+03  0.21244668917E+03  0.00000000000E+00 0. -1.
         21    1    1    2  502  501 -0.19861800122E+02  0.41105698618E+02 -0.15672518319E+02  0.48267974822E+02  0.00000000000E+00 0. -1.
<scales pt_clust_5="13000.00000" pt_clust_6="13000.00000" pt_clust_7="13000.00000" pt_clust_8="13000.00000" pt_clust_9="45.65271"></scales>
<clustering>
<clus scale="   45.653">  2  9  1 -1</clus>
<clus scale="   92.873">  7  8 -1 -1</clus>
<clus scale="   94.745">  5  6 -1 -1</clus>
<clus scale="  150.830">  2  7  1 -1</clus>
<clus scale="   45.653">  2  5  1 -1</clus>
</clustering>
</event>
<event>
 9    1  0.1435532E-005  0.9333404E+02  0.7546771E-02  0.1296692E+00
          1   -1    0    0  502    0  0.00000000000E+00  0.00000000000E+00  0.17866423992E+03  0.17866423992E+03  0.00000000000E+00 0. -1.
         -1   -1    0    0    0  501 -0.00000000000E+00 -0.00000000000E+00 -0.87338296104E+02  0.87338296104E+02  0.00000000000E+00 0.  1.
         23    2    1    2    0    0 -0.28288217993E+02  0.29224814293E+02  0.83217004875E+01  0.92796941329E+02  0.82992219957E+02 0.  0.
         23    2    1    2    0    0  0.37337955998E+02  0.53319999094E+00  0.10736824956E+02  0.94528934049E+02  0.86174431835E+02 0.  0.
        -11    1    4    4    0    0  0.36092630830E+02 -0.35460561651E+02  0.24190201628E+02  0.56082932231E+02  0.00000000000E+00 0. -1.
         11    1    4    4    0    0  0.12453251673E+01  0.35993761642E+02 -0.13453376672E+02  0.38446001818E+02  0.00000000000E+00 0.  1.
        -13    1    3    3    0    0  0.19343286232E+02  0.37091444871E+02 -0.64145216805E+01  0.42321201462E+02  0.00000000000E+00 0.  1.
         13    1    3    3    0    0 -0.47631504224E+02 -0.78666305778E+01  0.14736222168E+02  0.50475739867E+02  0.00000000000E+00 0. -1.
         21    1    1    2  502  501 -0.90497380049E+01 -0.29758014284E+02  0.72267418368E+02  0.78676660641E+02  0.00000000000E+00 0. -1.
<scales pt_clust_5="13000.00000" pt_clust_6="13000.00000" pt_clust_7="13000.00000" pt_clust_8="13000.00000" pt_clust_9="31.10365"></scales>
<clustering>
<clus scale="   31.104">  1  9  2 -1</clus>
<clus scale="   82.992">  7  8 -1 -1</clus>
<clus scale="   86.174">  5  6 -1 -1</clus>
<clus scale="   90.404">  2  7  1 -1</clus>
<clus scale="   31.104">  1  5  2 -1</clus>
</clustering>
</event>
<event>
 9    1  0.1435532E-005  0.3022288E+03  0.7546771E-02  0.1095000E+00
          2   -1    0    0  502    0  0.00000000000E+00  0.00000000000E+00  0.12571089806E+04  0.12571089806E+04  0.00000000000E+00 0. -1.
         -2   -1    0    0    0  501 -0.00000000000E+00 -0.00000000000E+00 -0.29826930006E+03  0.29826930006E+03  0.00000000000E+00 0.  1.
         23    2    1    2    0    0  0.32772701765E+02  0.20545682367E+03 -0.64186469308E+02  0.23561415693E+03  0.90042055331E+02 0.  0.
         23    2    1    2    0    0  0.10504956348E+03 -0.42852435624E+03  0.27852308050E+03  0.53043597830E+03  0.95491811325E+02 0.  0.
        -13    1    4    4    0    0  0.50170677535E+02 -0.22309507030E+03  0.19992593903E+03  0.30374148280E+03  0.00000000000E+00 0. -1.
         13    1    4    4    0    0  0.54878885945E+02 -0.20542928594E+03  0.78597141469E+02  0.22669449551E+03  0.00000000000E+00 0.  1.
        -13    1    3    3    0    0 -0.15631176678E+02  0.14737451126E+03 -0.24462833187E+02  0.15020655932E+03  0.00000000000E+00 0.  1.
         13    1    3    3    0    0  0.48403878443E+02  0.58082312413E+02 -0.39723636121E+02  0.85407597614E+02  0.00000000000E+00 0. -1.
         21    1    1    2  502  501 -0.13782226524E+03  0.22306753257E+03  0.74450306934E+03  0.78932814541E+03  0.00000000000E+00 0. -1.
<scales pt_clust_5="13000.00000" pt_clust_6="13000.00000" pt_clust_7="13000.00000" pt_clust_8="13000.00000" pt_clust_9="286.74654"></scales>
<clustering>
<clus scale="   90.042">  7  8 -1 -1</clus>
<clus scale="   95.492">  5  6 -1 -1</clus>
<clus scale="  226.703">  2  7  1 -1</clus>
<clus scale="  286.747">  1  9  2 -1</clus>
<clus scale="  286.747">  1  5  2 -1</clus>
</clustering>
</event>
<event>
 9    1  0.1435532E-005  0.1026082E+03  0.7546771E-02  0.1275148E+00
         -1   -1    0    0    0  501 -0.00000000000E+00  0.00000000000E+00  0.17630985927E+03  0.17630985927E+03  0.00000000000E+00 0.  1.
          1   -1    0    0  502    0  0.00000000000E+00 -0.00000000000E+00 -0.96586495564E+02  0.96586495564E+02  0.00000000000E+00 0. -1.
         23    2    1    2    0    0 -0.33825071851E+02  0.16831725123E+01  0.54577505070E+02  0.11204328906E+03  0.91804280990E+02 0.  0.
         23    2    1    2    0    0  0.56570128427E+02 -0.31208215289E+02  0.42645050120E+02  0.11967919722E+03  0.91270903442E+02 0.  0.
        -13    1    3    3    0    0 -0.43056242047E+02  0.25441188559E+02  0.67066124967E+02  0.83659782289E+02  0.00000000000E+00 0. -1.
         13    1    3    3    0    0  0.92311701962E+01 -0.23758016047E+02 -0.12488619896E+02  0.28383506771E+02  0.00000000000E+00 0.  1.
        -13    1    4    4    0    0  0.74419765691E+02  0.15319379974E+01  0.30764870436E+02  0.80542694346E+02  0.00000000000E+00 0.  1.
         13    1    4    4    0    0 -0.17849637264E+02 -0.32740153287E+02  0.11880179683E+02  0.39136502872E+02  0.00000000000E+00 0. -1.
         21    1    1    2  502  501 -0.22745056575E+02  0.29525042777E+02 -0.17499191482E+02  0.41173868559E+02  0.00000000000E+00 0. -1.
<scales pt_clust_5="13000.00000" pt_clust_6="13000.00000" pt_clust_7="13000.00000" pt_clust_8="13000.00000" pt_clust_9="37.27017"></scales>
<clustering>
<clus scale="   37.270">  2  9  1 -1</clus>
<clus scale="   91.271">  7  8 -1 -1</clus>
<clus scale="   91.804">  5  6 -1 -1</clus>
<clus scale="  102.131">  2  7  1 -1</clus>
<clus scale="   37.270">  2  5  1 -1</clus>
</clustering>
</event>
<event>
 9    1  0.1435532E-005  0.1059694E+03  0.7546771E-02  0.1270041E+00
         -1   -1    0    0    0  501 -0.00000000000E+00  0.00000000000E+00  0.15692277322E+03  0.15692277322E+03  0.00000000000E+00 0.  1.
          1   -1    0    0  502    0  0.00000000000E+00 -0.00000000000E+00 -0.10212600387E+03  0.10212600387E+03  0.00000000000E+00 0. -1.
         23    2    1    2    0    0 -0.36716911612E+02 -0.65393462880E+01  0.40336658660E+02  0.10770428608E+03  0.92640555697E+02 0.  0.
         23    2    1    2    0    0  0.72178644770E+02  0.32776496855E+01  0.17844074963E+02  0.11557265296E+03  0.88420175037E+02 0.  0.
        -11    1    4    4    0    0  0.51043582150E+02  0.88083805361E+01  0.53046867212E+02  0.74141789616E+02  0.00000000000E+00 0.  1.
         11    1    4    4    0    0  0.21135062619E+02 -0.55307308506E+01 -0.35202792249E+02  0.41430863348E+02  0.00000000000E+00 0. -1.
        -13    1    3    3    0    0 -0.20078450790E+01  0.40305797726E+02  0.24800576189E+02  0.47367260334E+02  0.00000000000E+00 0.  1.
         13    1    3    3    0    0 -0.34709066533E+02 -0.46845144014E+02  0.15536082471E+02  0.60337025746E+02  0.00000000000E+00 0. -1.
         21    1    1    2  502  501 -0.35461733157E+02  0.32616966025E+01 -0.33839642700E+01  0.35771838049E+02  0.00000000000E+00 0.  1.
<scales pt_clust_5="13000.00000" pt_clust_6="13000.00000" pt_clust_7="13000.00000" pt_clust_8="13000.00000" pt_clust_9="35.61142"></scales>
<clustering>
<clus scale="   35.611">  2  9  1 -1</clus>
<clus scale="   88.420">  5  6 -1 -1</clus>
<clus scale="   92.641">  7  8 -1 -1</clus>
<clus scale="  102.300">  2  5  1 -1</clus>
<clus scale="   35.611">  2  5  1 -1</clus>
</clustering>
</event>
<event>
 9    1  0.1435532E-005  0.1052243E+03  0.7546771E-02  0.1270376E+00
          1   -1    0    0  502    0  0.00000000000E+00  0.00000000000E+00  0.58257085169E+03  0.58257085169E+03  0.00000000000E+00 0. -1.
         -1   -1    0    0    0  501 -0.00000000000E+00 -0.00000000000E+00 -0.41677093667E+02  0.41677093667E+02  0.00000000000E+00 0.  1.
         23    2    1    2    0    0  0.49356105281E+02 -0.34865820282E+02  0.76728353700E+02  0.13321374431E+03  0.90592554108E+02 0.  0.
         23    2    1    2    0    0 -0.40243093708E+01  0.40881204994E+02  0.21260079708E+03  0.23534707154E+03  0.92204539901E+02 0.  0.
        -11    1    4    4    0    0  0.28721204596E+02 -0.10191579189E+02  0.29335068630E+02  0.42300379802E+02  0.00000000000E+00 0.  1.
         11    1    4    4    0    0 -0.32745513967E+02  0.51072784183E+02  0.18326572845E+03  0.19304669174E+03  0.00000000000E+00 0. -1.
        -11    1    3    3    0    0  0.58255842845E+02  0.32451897640E+01  0.15200472600E+02  0.60293688305E+02  0.00000000000E+00 0.  1.
         11    1    3    3    0    0 -0.88997375639E+01 -0.38111010046E+02  0.61527881100E+02  0.72920056007E+02  0.00000000000E+00 0. -1.
         21    1    1    2  502  501 -0.45331795910E+02 -0.60153847117E+01  0.25156460725E+03  0.25568712950E+03  0.00000000000E+00 0.  1.
<scales pt_clust_5="13000.00000" pt_clust_6="13000.00000" pt_clust_7="13000.00000" pt_clust_8="13000.00000" pt_clust_9="45.72917"></scales>
<clustering>
<clus scale="   45.729">  1  9  2 -1</clus>
<clus scale="   90.593">  7  8 -1 -1</clus>
<clus scale="   92.205">  5  6 -1 -1</clus>
<clus scale="  103.815">  2  7  1 -1</clus>
<clus scale="   45.729">  1  5  2 -1</clus>
</clustering>
</event>
<event>
 9    1  0.1435532E-005  0.1043781E+03  0.7546771E-02  0.1271464E+00
         -1   -1    0    0    0  501 -0.00000000000E+00  0.00000000000E+00  0.11710212852E+03  0.11710212852E+03  0.00000000000E+00 0.  1.
          1   -1    0    0  502    0  0.00000000000E+00 -0.00000000000E+00 -0.14558621200E+03  0.14558621200E+03  0.00000000000E+00 0. -1.
         23    2    1    2    0    0  0.26631787224E+02  0.41054051406E+02  0.43698885793E+02  0.11255748948E+03  0.91459874208E+02 0.  0.
         23    2    1    2    0    0 -0.86703698323E+01 -0.56743117140E+02 -0.57829385417E+02  0.12229589698E+03  0.91198091777E+02 0.  0.
        -11    1    4    4    0    0 -0.37593763757E+02 -0.60636387830E+02 -0.19202770394E+02  0.73883753243E+02  0.00000000000E+00 0. -1.
         11    1    4    4    0    0  0.28923393925E+02  0.38932706897E+01 -0.38626615023E+02  0.48412143734E+02  0.00000000000E+00 0.  1.
        -11    1    3    3    0    0  0.58275252349E+02  0.42302228896E+02  0.28731853850E+02  0.77530658656E+02  0.00000000000E+00 0.  1.
         11    1    3    3    0    0 -0.31643465125E+02 -0.12481774903E+01  0.14967031943E+02  0.35026830821E+02  0.00000000000E+00 0. -1.
         21    1    1    2  502  501 -0.17961417392E+02  0.15689065734E+02 -0.14353583851E+02  0.27834954063E+02  0.00000000000E+00 0.  1.
<scales pt_clust_5="13000.00000" pt_clust_6="13000.00000" pt_clust_7="13000.00000" pt_clust_8="13000.00000" pt_clust_9="23.84867"></scales>
<clustering>
<clus scale="   23.849">  2  9  1 -1</clus>
<clus scale="   91.198">  5  6 -1 -1</clus>
<clus scale="   91.460">  7  8 -1 -1</clus>
<clus scale="  104.149">  2  5  1 -1</clus>
<clus scale="   23.849">  2  5  1 -1</clus>
</clustering>
</event>
<event>
 9    1  0.1435532E-005  0.1200053E+03  0.7546771E-02  0.1249154E+00
          2   -1    0    0  502    0  0.00000000000E+00  0.00000000000E+00  0.27842144914E+03  0.27842144914E+03  0.00000000000E+00 0. -1.
         -2   -1    0    0    0  501 -0.00000000000E+00 -0.00000000000E+00 -0.77786883523E+02  0.77786883523E+02  0.00000000000E+00 0.  1.
         23    2    1    2    0    0 -0.66363894851E+02 -0.35015918331E+02  0.61416659354E+02  0.14465362343E+03  0.10734236652E+03 0.  0.
         23    2    1    2    0    0  0.17335303262E+02  0.45678719038E+02  0.11761839294E+03  0.15692836862E+03  0.91680796290E+02 0.  0.
        -11    1    3    3    0    0  0.29570719853E+02 -0.41754507338E+01  0.97841122674E+01  0.31425956061E+02  0.00000000000E+00 0.  1.
         11    1    3    3    0    0 -0.95934614705E+02 -0.30840467597E+02  0.51632547087E+02  0.11322766737E+03  0.00000000000E+00 0. -1.
        -13    1    4    4    0    0  0.50578146147E+02  0.13250750921E+02  0.86340260336E+02  0.10093746491E+03  0.00000000000E+00 0.  1.
         13    1    4    4    0    0 -0.33242842885E+02  0.32427968117E+02  0.31278132607E+02  0.55990903714E+02  0.00000000000E+00 0. -1.
         21    1    1    2  502  501  0.49028591590E+02 -0.10662800707E+02  0.21599513319E+02  0.54626340604E+02  0.00000000000E+00 0.  1.
<scales pt_clust_5="13000.00000" pt_clust_6="13000.00000" pt_clust_7="13000.00000" pt_clust_8="13000.00000" pt_clust_9="50.17468"></scales>
<clustering>
<clus scale="   50.175">  2  9  1 -1</clus>
<clus scale="   91.681">  7  8 -1 -1</clus>
<clus scale="  106.227">  1  7  2 -1</clus>
<clus scale="  107.342">  5  6 -1 -1</clus>
<clus scale="  106.227">  1  5  2 -1</clus>
</clustering>
</event>
<event>
 9    1  0.1435532E-005  0.1213563E+03  0.7546771E-02  0.1240968E+00
         -1   -1    0    0    0  501 -0.00000000000E+00  0.00000000000E+00  0.52506357835E+02  0.52506357835E+02  0.00000000000E+00 0.  1.
          1   -1    0    0  502    0  0.00000000000E+00 -0.00000000000E+00 -0.81737043243E+03  0.81737043243E+03  0.00000000000E+00 0. -1.
         23    2    1    2    0    0 -0.36622559770E+01  0.63000417633E+02 -0.73603052422E+02  0.13228640833E+03  0.89998998681E+02 0.  0.
         23    2    1    2    0    0  0.51116571628E+02 -0.69569329156E+02 -0.67580013322E+03  0.68725051940E+03  0.90303161109E+02 0.  0.
        -11    1    4    4    0    0  0.37116029289E+02 -0.90327479368E+02 -0.58345693606E+03  0.59157302964E+03  0.00000000000E+00 0. -1.
         11    1    4    4    0    0  0.14000542339E+02  0.20758150212E+02 -0.92343197151E+02  0.95677489757E+02  0.00000000000E+00 0.  1.
        -13    1    3    3    0    0 -0.11476506231E+02  0.81708579036E+02 -0.36964419125E+02  0.90412224641E+02  0.00000000000E+00 0.  1.
         13    1    3    3    0    0  0.78142502539E+01 -0.18708161403E+02 -0.36638633297E+02  0.41874183694E+02  0.00000000000E+00 0. -1.
         21    1    1    2  502  501 -0.47454315651E+02  0.65689115233E+01 -0.15460888962E+02  0.50339862535E+02  0.00000000000E+00 0.  1.
<scales pt_clust_5="13000.00000" pt_clust_6="13000.00000" pt_clust_7="13000.00000" pt_clust_8="13000.00000" pt_clust_9="47.90681"></scales>
<clustering>
<clus scale="   47.907">  1  9  2 -1</clus>
<clus scale="   89.999">  7  8 -1 -1</clus>
<clus scale="   90.303">  5  6 -1 -1</clus>
<clus scale="  121.130">  1  7  2 -1</clus>
<clus scale="  121.356">  2  5  1 -1</clus>
</clustering>
</event>
<event>
 9    1  0.1435532E-005  0.1023299E+03  0.7546771E-02  0.1277395E+00
         -1   -1    0    0    0  501 -0.00000000000E+00  0.00000000000E+00  0.79257170445E+02  0.79257170445E+02  0.00000000000E+00 0.  1.
          1   -1    0    0  502    0  0.00000000000E+00 -0.00000000000E+00 -0.30137213353E+03  0.30137213353E+03  0.00000000000E+00 0. -1.
         23    2    1    2    0    0  0.29090181572E+02 -0.35447870105E+02 -0.34963552775E+02  0.10362301170E+03  0.86095809257E+02 0.  0.
         23    2    1    2    0    0 -0.80098085307E+02 -0.26782657419E+02 -0.11781268923E+03  0.17078810626E+03  0.90309099706E+02 0.  0.
        -11    1    3    3    0    0  0.52364883488E+02  0.13004276752E+00 -0.31168906577E+02  0.60939303172E+02  0.00000000000E+00 0.  1.
         11    1    3    3    0    0 -0.23274701917E+02 -0.35577912873E+02 -0.37946461979E+01  0.42683708525E+02  0.00000000000E+00 0. -1.
        -13    1    4    4    0    0 -0.93991637379E+02 -0.86295715613E+01 -0.69096961529E+02  0.11697558504E+03  0.00000000000E+00 0. -1.
         13    1    4    4    0    0  0.13893552072E+02 -0.18153085857E+02 -0.48715727699E+02  0.53812521225E+02  0.00000000000E+00 0.  1.
         21    1    1    2  502  501  0.51007903735E+02  0.62230527524E+02 -0.69338721086E+02  0.10621818602E+03  0.00000000000E+00 0.  1.
<scales pt_clust_5="13000.00000" pt_clust_6="13000.00000" pt_clust_7="13000.00000" pt_clust_8="13000.00000" pt_clust_9="80.46393"></scales>
<clustering>
<clus scale="   80.464">  2  9  1 -1</clus>
<clus scale="   86.096">  5  6 -1 -1</clus>
<clus scale="   90.309">  7  8 -1 -1</clus>
<clus scale="   98.631">  1  5  2 -1</clus>
<clus scale="   80.464">  2  5  1 -1</clus>
</clustering>
</event>
<event>
 9    1  0.1435532E-005  0.1005732E+03  0.7546771E-02  0.1281617E+00
         -3   -1    0    0    0  501 -0.00000000000E+00  0.00000000000E+00  0.47583700051E+03  0.47583700051E+03  0.00000000000E+00 0.  1.
          3   -1    0    0  502    0  0.00000000000E+00 -0.00000000000E+00 -0.69075659890E+02  0.69075659890E+02  0.00000000000E+00 0. -1.
         23    2    1    2    0    0 -0.29291625248E+02  0.44369134989E+02  0.35656650672E+03  0.37192920142E+03  0.91460580052E+02 0.  0.
         23    2    1    2    0    0  0.28992832187E+02  0.20870162255E+02  0.53604679213E+02  0.10765442847E+03  0.86254659845E+02 0.  0.
        -11    1    3    3    0    0 -0.57900915617E+01  0.69881639612E+02  0.26126528313E+03  0.27051158364E+03  0.00000000000E+00 0.  1.
         11    1    3    3    0    0 -0.23501533687E+02 -0.25512504622E+02  0.95301223594E+02  0.10141761778E+03  0.00000000000E+00 0. -1.
        -11    1    4    4    0    0  0.54954810835E+02  0.14714298136E+02  0.11863996846E+02  0.58114509588E+02  0.00000000000E+00 0.  1.
         11    1    4    4    0    0 -0.25961978648E+02  0.61558641193E+01  0.41740682367E+02  0.49539918882E+02  0.00000000000E+00 0. -1.
         21    1    1    2  502  501  0.29879306166E+00 -0.65239297244E+02 -0.34098453155E+01  0.65329030510E+02  0.00000000000E+00 0. -1.
<scales pt_clust_5="13000.00000" pt_clust_6="13000.00000" pt_clust_7="13000.00000" pt_clust_8="13000.00000" pt_clust_9="65.23998"></scales>
<clustering>
<clus scale="   65.240">  2  9  1 -1</clus>
<clus scale="   86.255">  7  8 -1 -1</clus>
<clus scale="   91.461">  5  6 -1 -1</clus>
<clus scale="   95.863">  2  7  1 -1</clus>
<clus scale="   65.240">  2  5  1 -1</clus>
</clustering>
</event>
<event>
 9    1  0.1435532E-005  0.2277814E+03  0.7546771E-02  0.1128230E+00
          2   -1    0    0  502    0  0.00000000000E+00  0.00000000000E+00  0.80125974536E+03  0.80125974536E+03  0.00000000000E+00 0. -1.
         -2   -1    0    0    0  501 -0.00000000000E+00 -0.00000000000E+00 -0.89204087086E+02  0.89204087086E+02  0.00000000000E+00 0.  1.
         23    2    1    2    0    0  0.14880987033E+03 -0.13888419462E+03  0.16583784937E+03  0.27790532064E+03  0.91082259150E+02 0.  0.
         23    2    1    2    0    0 -0.17692638735E+03  0.11641725668E+03  0.51729018339E+03  0.56638374221E+03  0.91353628371E+02 0.  0.
        -11    1    4    4    0    0 -0.17104520774E+03  0.94600139412E+02  0.50301311671E+03  0.53965530207E+03  0.00000000000E+00 0. -1.
         11    1    4    4    0    0 -0.58811796050E+01  0.21817117266E+02  0.14277066675E+02  0.26728440137E+02  0.00000000000E+00 0.  1.
        -13    1    3    3    0    0  0.14789883867E+03 -0.94311923699E+02  0.14933035126E+03  0.23036570760E+03  0.00000000000E+00 0.  1.
         13    1    3    3    0    0  0.91103166471E+00 -0.44572270922E+02  0.16507498107E+02  0.47539613036E+02  0.00000000000E+00 0. -1.
         21    1    1    2  502  501  0.28116517014E+02  0.22466937943E+02  0.28927625521E+02  0.46174769602E+02  0.00000000000E+00 0.  1.
<scales pt_clust_5="13000.00000" pt_clust_6="13000.00000" pt_clust_7="13000.00000" pt_clust_8="13000.00000" pt_clust_9="35.99030"></scales>
<clustering>
<clus scale="   35.990">  2  9  1 -1</clus>
<clus scale="   91.082">  7  8 -1 -1</clus>
<clus scale="   91.354">  5  6 -1 -1</clus>
<clus scale="  227.673">  2  7  1 -1</clus>
<clus scale="  227.781">  1  5  2 -1</clus>
</clustering>
</event>
<event>
 9    1  0.1435532E-005  0.1941968E+03  0.7546771E-02  0.1157371E+00
         -2   -1    0    0    0  501 -0.00000000000E+00  0.00000000000E+00  0.43248342067E+03  0.43248342067E+03  0.00000000000E+00 0.  1.
          2   -1    0    0  502    0  0.00000000000E+00 -0.00000000000E+00 -0.33539970665E+03  0.33539970665E+03  0.00000000000E+00 0. -1.
         23    2    1    2    0    0  0.70457980911E+02  0.14026120955E+03  0.35479091147E+03  0.39859580007E+03  0.91457569348E+02 0.  0.
         23    2    1    2    0    0 -0.11298810035E+03 -0.13448708446E+03 -0.24989165503E+03  0.32566125383E+03  0.11294390768E+03 0.  0.
        -11    1    3    3    0    0  0.38211179048E+02  0.61490865620E+02  0.26567857708E+03  0.27536580594E+03  0.00000000000E+00 0.  1.
         11    1    3    3    0    0  0.32246801864E+02  0.78770343932E+02  0.89112334389E+02  0.12322999413E+03  0.00000000000E+00 0. -1.
        -11    1    4    4    0    0 -0.59589150311E+02 -0.18905218838E+00 -0.10670445460E+03  0.12221596952E+03  0.00000000000E+00 0.  1.
         11    1    4    4    0    0 -0.53398950036E+02 -0.13429803227E+03 -0.14318720043E+03  0.20344528430E+03  0.00000000000E+00 0. -1.
         21    1    1    2  502  501  0.42530119435E+02 -0.57741250898E+01 -0.78155424174E+01  0.43626073431E+02  0.00000000000E+00 0.  1.
<scales pt_clust_5="13000.00000" pt_clust_6="13000.00000" pt_clust_7="13000.00000" pt_clust_8="13000.00000" pt_clust_9="42.92029"></scales>
<clustering>
<clus scale="   42.920">  2  9  1 -1</clus>
<clus scale="   91.458">  5  6 -1 -1</clus>
<clus scale="  112.944">  7  8 -1 -1</clus>
<clus scale="  182.539">  1  5  2 -1</clus>
<clus scale="   42.920">  2  5  1 -1</clus>
</clustering>
</event>
<event>
 9    1  0.1435532E-005  0.1104128E+03  0.7546771E-02  0.1260525E+00
         -1   -1    0    0    0  501 -0.00000000000E+00  0.00000000000E+00  0.21642003451E+02  0.21642003451E+02  0.00000000000E+00 0.  1.
          1   -1    0    0  502    0  0.00000000000E+00 -0.00000000000E+00 -0.93090984788E+03  0.93090984788E+03  0.00000000000E+00 0. -1.
         23    2    1    2    0    0  0.69606131513E+02 -0.33260580216E+02 -0.27504247456E+03  0.29988617809E+03  0.91280212839E+02 0.  0.
         23    2    1    2    0    0 -0.20496905350E+02  0.45380837222E+02 -0.38572176991E+03  0.39906627278E+03  0.89403930387E+02 0.  0.
        -13    1    4    4    0    0 -0.42259797245E+02 -0.43478473806E+01 -0.10733288771E+03  0.11543458331E+03  0.00000000000E+00 0. -1.
         13    1    4    4    0    0  0.21762891896E+02  0.49728684603E+02 -0.27838888220E+03  0.28363168946E+03  0.00000000000E+00 0.  1.
        -13    1    3    3    0    0  0.12928187365E+02 -0.33149910289E+02 -0.24964570909E+02  0.43465899063E+02  0.00000000000E+00 0.  1.
         13    1    3    3    0    0  0.56677944148E+02 -0.11066992630E+00 -0.25007790365E+03  0.25642027903E+03  0.00000000000E+00 0. -1.
         21    1    1    2  502  501 -0.49109226163E+02 -0.12120257007E+02 -0.24850359996E+03  0.25359940046E+03  0.00000000000E+00 0. -1.
<scales pt_clust_5="13000.00000" pt_clust_6="13000.00000" pt_clust_7="13000.00000" pt_clust_8="13000.00000" pt_clust_9="50.58277"></scales>
<clustering>
<clus scale="   50.583">  2  9  1 -1</clus>
<clus scale="   89.404">  5  6 -1 -1</clus>
<clus scale="   91.280">  7  8 -1 -1</clus>
<clus scale="  108.867">  2  5  1 -1</clus>
<clus scale="   50.583">  2  5  1 -1</clus>
</clustering>
</event>
<event>
 9    1  0.1435532E-005  0.1137956E+03  0.7546771E-02  0.1253795E+00
         -1   -1    0    0    0  501 -0.00000000000E+00  0.00000000000E+00  0.58631295089E+03  0.58631295089E+03  0.00000000000E+00 0.  1.
          1   -1    0    0  502    0  0.00000000000E+00 -0.00000000000E+00 -0.32567529414E+02  0.32567529414E+02  0.00000000000E+00 0. -1.
         23    2    1    2    0    0  0.97057544789E+01 -0.75942718950E+02  0.40086683841E+03  0.41786103365E+03  0.89733622867E+02 0.  0.
         23    2    1    2    0    0 -0.14033944932E+02  0.53533173669E+02  0.13786964412E+03  0.17370298274E+03  0.90010750191E+02 0.  0.
        -11    1    3    3    0    0  0.40648671939E+02 -0.76916663758E+02  0.29629633096E+03  0.30880415061E+03  0.00000000000E+00 0. -1.
         11    1    3    3    0    0 -0.30942917460E+02  0.97394480748E+00  0.10457050745E+03  0.10905688304E+03  0.00000000000E+00 0.  1.
        -13    1    4    4    0    0  0.14382223282E+02  0.68760833483E+02  0.11270391956E+03  0.13280464620E+03  0.00000000000E+00 0.  1.
         13    1    4    4    0    0 -0.28416168213E+02 -0.15227659814E+02  0.25165724563E+02  0.40898336545E+02  0.00000000000E+00 0. -1.
         21    1    1    2  502  501  0.43281904528E+01  0.22409545282E+02  0.15008938935E+02  0.27316463905E+02  0.00000000000E+00 0. -1.
<scales pt_clust_5="13000.00000" pt_clust_6="13000.00000" pt_clust_7="13000.00000" pt_clust_8="13000.00000" pt_clust_9="22.82369"></scales>
<clustering>
<clus scale="   22.824">  2  9  1 -1</clus>
<clus scale="   89.734">  5  6 -1 -1</clus>
<clus scale="   90.011">  7  8 -1 -1</clus>
<clus scale="  113.576">  1  5  2 -1</clus>
<clus scale="   22.824">  2  5  1 -1</clus>
</clustering>
</event>
<event>
 9    1  0.1435532E-005  0.9920549E+02  0.7546771E-02  0.1283598E+00
          2   -1    0    0  502    0  0.00000000000E+00  0.00000000000E+00  0.58214235231E+03  0.58214235231E+03  0.00000000000E+00 0. -1.
         -2   -1    0    0    0  501 -0.00000000000E+00 -0.00000000000E+00 -0.39762539468E+02  0.39762539468E+02  0.00000000000E+00 0.  1.
         23    2    1    2    0    0  0.35035477361E+02  0.41726742533E+01  0.49765167971E+02  0.10883870519E+03  0.90135430996E+02 0.  0.
         23    2    1    2    0    0 -0.27940123688E+02  0.28259201115E+02  0.27863739176E+03  0.29652881006E+03  0.93334378170E+02 0.  0.
        -13    1    4    4    0    0 -0.43841389446E+02  0.53892693296E+02  0.16667846159E+03  0.18057740550E+03  0.00000000000E+00 0.  1.
         13    1    4    4    0    0  0.15901265758E+02 -0.25633492181E+02  0.11195893017E+03  0.11595140456E+03  0.00000000000E+00 0. -1.
        -13    1    3    3    0    0  0.71123300883E+01  0.44384530809E+02  0.10700376220E+02  0.46206816225E+02  0.00000000000E+00 0.  1.
         13    1    3    3    0    0  0.27923147272E+02 -0.40211856556E+02  0.39064791750E+02  0.62631888968E+02  0.00000000000E+00 0. -1.
         21    1    1    2  502  501 -0.70953536728E+01 -0.32431875368E+02  0.21397725311E+03  0.21653737652E+03  0.00000000000E+00 0. -1.
<scales pt_clust_5="13000.00000" pt_clust_6="13000.00000" pt_clust_7="13000.00000" pt_clust_8="13000.00000" pt_clust_9="33.19895"></scales>
<clustering>
<clus scale="   33.199">  1  9  2 -1</clus>
<clus scale="   90.135">  7  8 -1 -1</clus>
<clus scale="   93.334">  5  6 -1 -1</clus>
<clus scale="   96.202">  2  7  1 -1</clus>
<clus scale="   33.199">  1  5  2 -1</clus>
</clustering>
</event>
<event>
 9    1  0.1435532E-005  0.9836059E+02  0.7546771E-02  0.1286512E+00
          2   -1    0    0  502    0  0.00000000000E+00  0.00000000000E+00  0.26477009910E+03  0.26477009910E+03  0.00000000000E+00 0. -1.
         -2   -1    0    0    0  501 -0.00000000000E+00 -0.00000000000E+00 -0.62895755415E+02  0.62895755415E+02  0.00000000000E+00 0.  1.
         23    2    1    2    0    0 -0.18496721895E+02 -0.86275361867E+01  0.30378362057E+02  0.10071018916E+03  0.93825019145E+02 0.  0.
         23    2    1    2    0    0  0.46526928762E+02 -0.95478138514E+01  0.76770225216E+02  0.12651162734E+03  0.88631870805E+02 0.  0.
        -11    1    3    3    0    0 -0.17172159069E+02  0.30989251345E+02  0.46036146234E+02  0.58090821186E+02  0.00000000000E+00 0.  1.
         11    1    3    3    0    0 -0.13245628259E+01 -0.39616787531E+02 -0.15657784177E+02  0.42619367972E+02  0.00000000000E+00 0. -1.
        -13    1    4    4    0    0  0.44952847810E+02  0.30851169443E+02  0.64083321217E+02  0.84138131905E+02  0.00000000000E+00 0.  1.
         13    1    4    4    0    0  0.15740809519E+01 -0.40398983294E+02  0.12686903999E+02  0.42373495432E+02  0.00000000000E+00 0. -1.
         21    1    1    2  502  501 -0.28030206867E+02  0.18175350038E+02  0.94725756410E+02  0.10044403802E+03  0.00000000000E+00 0. -1.
<scales pt_clust_5="13000.00000" pt_clust_6="13000.00000" pt_clust_7="13000.00000" pt_clust_8="13000.00000" pt_clust_9="33.40712"></scales>
<clustering>
<clus scale="   33.407">  1  9  2 -1</clus>
<clus scale="   88.632">  7  8 -1 -1</clus>
<clus scale="   93.420">  1  7  2 -1</clus>
<clus scale="   93.825">  5  6 -1 -1</clus>
<clus scale="   33.407">  1  5  2 -1</clus>
</clustering>
</event>
<event>
 9    1  0.1435532E-005  0.1285867E+03  0.7546771E-02  0.1264261E+00
          2   -1    0    0  502    0  0.00000000000E+00  0.00000000000E+00  0.46893464914E+03  0.46893464914E+03  0.00000000000E+00 0. -1.
         -2   -1    0    0    0  501 -0.00000000000E+00 -0.00000000000E+00 -0.52702139375E+02  0.52702139375E+02  0.00000000000E+00 0.  1.
         23    2    1    2    0    0 -0.23481292911E+02 -0.10903851401E+02  0.16366785710E+02  0.66119456927E+02  0.58597319202E+02 0.  0.
         23    2    1    2    0    0  0.94297246716E+02  0.32852539183E+02  0.30729273296E+03  0.33691546445E+03  0.95456515679E+02 0.  0.
        -11    1    3    3    0    0 -0.38594524938E+02  0.74729134066E+01  0.46119073272E+01  0.39580948437E+02  0.00000000000E+00 0.  1.
         11    1    3    3    0    0  0.15113232026E+02 -0.18376764808E+02  0.11754878383E+02  0.26538508490E+02  0.00000000000E+00 0. -1.
        -13    1    4    4    0    0  0.62321930093E+02 -0.26356368698E+02  0.11809000891E+03  0.13610265003E+03  0.00000000000E+00 0.  1.
         13    1    4    4    0    0  0.31975316622E+02  0.59208907881E+02  0.18920272406E+03  0.20081281442E+03  0.00000000000E+00 0. -1.
         21    1    1    2  502  501 -0.70815953804E+02 -0.21948687782E+02  0.92572991095E+02  0.11860186714E+03  0.00000000000E+00 0.  1.
<scales pt_clust_5="13000.00000" pt_clust_6="13000.00000" pt_clust_7="13000.00000" pt_clust_8="13000.00000" pt_clust_9="86.15454"></scales>
<clustering>
<clus scale="   58.597">  5  6 -1 -1</clus>
<clus scale="   64.062">  2  5  1 -1</clus>
<clus scale="   86.155">  2  9  1 -1</clus>
<clus scale="   95.457">  7  8 -1 -1</clus>
<clus scale="  128.587">  1  5  2 -1</clus>
</clustering>
</event>
<event>
 9    1  0.1435532E-005  0.1105046E+03  0.7546771E-02  0.1259730E+00
         -3   -1    0    0    0  501 -0.00000000000E+00  0.00000000000E+00  0.25375790343E+03  0.25375790343E+03  0.00000000000E+00 0.  1.
          3   -1    0    0  502    0  0.00000000000E+00 -0.00000000000E+00 -0.21509956553E+03  0.21509956553E+03  0.00000000000E+00 0. -1.
         23    2    1    2    0    0 -0.23361495897E+02  0.57893761635E+02  0.15377165105E+03  0.18898137171E+03  0.90392428111E+02 0.  0.
         23    2    1    2    0    0  0.32445801403E+01 -0.68622715333E+02  0.42181552816E+02  0.12093750657E+03  0.90149834926E+02 0.  0.
        -11    1    3    3    0    0  0.21966442739E+02 -0.62291658651E+00  0.85519608810E+02  0.88297882890E+02  0.00000000000E+00 0.  1.
         11    1    3    3    0    0 -0.45327938637E+02  0.58516678221E+02  0.68252042242E+02  0.10068348882E+03  0.00000000000E+00 0. -1.
        -13    1    4    4    0    0  0.14287739401E+02 -0.24048328651E+02  0.64185492705E+02  0.70015991615E+02  0.00000000000E+00 0.  1.
         13    1    4    4    0    0 -0.11043159261E+02 -0.44574386683E+02 -0.22003939888E+02  0.50921514954E+02  0.00000000000E+00 0. -1.
         21    1    1    2  502  501  0.20116915757E+02  0.10728953699E+02 -0.15729486597E+03  0.15893859068E+03  0.00000000000E+00 0. -1.
<scales pt_clust_5="13000.00000" pt_clust_6="13000.00000" pt_clust_7="13000.00000" pt_clust_8="13000.00000" pt_clust_9="22.79914"></scales>
<clustering>
<clus scale="   22.799">  2  9  1 -1</clus>
<clus scale="   90.150">  7  8 -1 -1</clus>
<clus scale="   90.392">  5  6 -1 -1</clus>
<clus scale="  110.306">  2  7  1 -1</clus>
<clus scale="   22.799">  2  5  1 -1</clus>
</clustering>
</event>
<event>
 9    1  0.1435532E-005  0.2957011E+03  0.7546771E-02  0.1087474E+00
         -2   -1    0    0    0  501 -0.00000000000E+00  0.00000000000E+00  0.63412952817E+03  0.63412952817E+03  0.00000000000E+00 0.  1.
          2   -1    0    0  502    0  0.00000000000E+00 -0.00000000000E+00 -0.15892497831E+03  0.15892497831E+03  0.00000000000E+00 0. -1.
         23    2    1    2    0    0  0.18864506095E+03 -0.22449954002E+03  0.26559440390E+03  0.40637397735E+03  0.92803122765E+02 0.  0.
         23    2    1    2    0    0 -0.18706303086E+03  0.19270376535E+03  0.21295675878E+03  0.35467000080E+03  0.91175159267E+02 0.  0.
        -11    1    3    3    0    0  0.36478774364E+02 -0.49385731365E+02  0.11328615752E+03  0.12885420027E+03  0.00000000000E+00 0.  1.
         11    1    3    3    0    0  0.15216628659E+03 -0.17511380865E+03  0.15230824637E+03  0.27751977708E+03  0.00000000000E+00 0. -1.
        -13    1    4    4    0    0 -0.70025207360E+02  0.13414520514E+03  0.96394737610E+02  0.17941686422E+03  0.00000000000E+00 0.  1.
         13    1    4    4    0    0 -0.11703782350E+03  0.58558560205E+02  0.11656202117E+03  0.17525313658E+03  0.00000000000E+00 0. -1.
         21    1    1    2  502  501 -0.15820300904E+01  0.31795774671E+02 -0.33466128167E+01  0.32010528323E+02  0.00000000000E+00 0.  1.
<scales pt_clust_5="13000.00000" pt_clust_6="13000.00000" pt_clust_7="13000.00000" pt_clust_8="13000.00000" pt_clust_9="31.83511"></scales>
<clustering>
<clus scale="   31.835">  2  9  1 -1</clus>
<clus scale="   91.175">  7  8 -1 -1</clus>
<clus scale="   92.803">  5  6 -1 -1</clus>
<clus scale="  295.194">  2  7  1 -1</clus>
<clus scale="   31.835">  2  5  1 -1</clus>
</clustering>
</event>
<event>
 9    1  0.1435532E-005  0.1021204E+03  0.7546771E-02  0.1276245E+00
         -1   -1    0    0    0  501 -0.00000000000E+00  0.00000000000E+00  0.20967208780E+03  0.20967208780E+03  0.00000000000E+00 0.  1.
          1   -1    0    0  502    0  0.00000000000E+00 -0.00000000000E+00 -0.10092316528E+03  0.10092316528E+03  0.00000000000E+00 0. -1.
         23    2    1    2    0    0  0.36354723124E+02  0.75533741254E+02  0.93100902529E+02  0.15512419624E+03  0.91480742489E+02 0.  0.
         23    2    1    2    0    0 -0.93680503734E+01 -0.30859146164E+02 -0.10918785819E+02  0.96905750358E+02  0.90727378993E+02 0.  0.
        -13    1    3    3    0    0  0.23402471724E+02  0.40130815155E+02  0.10563362786E+03  0.11539766610E+03  0.00000000000E+00 0.  1.
         13    1    3    3    0    0  0.12952251401E+02  0.35402926099E+02 -0.12532725327E+02  0.39726530138E+02  0.00000000000E+00 0. -1.
        -13    1    4    4    0    0  0.39205861202E+02 -0.10092320178E+01 -0.28106805761E+01  0.39319435743E+02  0.00000000000E+00 0. -1.
         13    1    4    4    0    0 -0.48573911576E+02 -0.29849914146E+02 -0.81081052427E+01  0.57586314615E+02  0.00000000000E+00 0.  1.
         21    1    1    2  502  501 -0.26986672751E+02 -0.44674595090E+02  0.26566805807E+02  0.58565306482E+02  0.00000000000E+00 0.  1.
<scales pt_clust_5="13000.00000" pt_clust_6="13000.00000" pt_clust_7="13000.00000" pt_clust_8="13000.00000" pt_clust_9="52.19291"></scales>
<clustering>
<clus scale="   52.193">  1  9  2 -1</clus>
<clus scale="   90.727">  7  8 -1 -1</clus>
<clus scale="   91.481">  5  6 -1 -1</clus>
<clus scale="  101.446">  2  7  1 -1</clus>
<clus scale="  101.446">  2  5  1 -1</clus>
</clustering>
</event>
<event>
 9    1  0.1435532E-005  0.9610165E+02  0.7546771E-02  0.1289845E+00
         -1   -1    0    0    0  501 -0.00000000000E+00  0.00000000000E+00  0.17010719892E+03  0.17010719892E+03  0.00000000000E+00 0.  1.
          1   -1    0    0  502    0  0.00000000000E+00 -0.00000000000E+00 -0.70384890811E+02  0.70384890811E+02  0.00000000000E+00 0. -1.
         23    2    1    2    0    0  0.26826124563E+02 -0.68457654342E+01  0.67240620444E+02  0.11766560182E+03  0.92506147641E+02 0.  0.
         23    2    1    2    0    0 -0.14337987243E+02  0.25245160075E+02  0.33158438178E+02  0.10057903214E+03  0.90408869573E+02 0.  0.
        -13    1    4    4    0    0 -0.38663697090E+02 -0.15983905046E+02 -0.87011537027E+00  0.41846431078E+02  0.00000000000E+00 0. -1.
         13    1    4    4    0    0  0.24325709847E+02  0.41229065121E+02  0.34028553548E+02  0.58732601057E+02  0.00000000000E+00 0.  1.
        -13    1    3    3    0    0 -0.57964796719E+01 -0.34667274418E+02 -0.31031899980E+01  0.35285250181E+02  0.00000000000E+00 0. -1.
         13    1    3    3    0    0  0.32622604235E+02  0.27821508984E+02  0.70343810442E+02  0.82380351642E+02  0.00000000000E+00 0.  1.
         21    1    1    2  502  501 -0.12488137320E+02 -0.18399394641E+02 -0.67675051701E+00  0.22247455768E+02  0.00000000000E+00 0. -1.
<scales pt_clust_5="13000.00000" pt_clust_6="13000.00000" pt_clust_7="13000.00000" pt_clust_8="13000.00000" pt_clust_9="22.23716"></scales>
<clustering>
<clus scale="   22.237">  2  9  1 -1</clus>
<clus scale="   90.409">  5  6 -1 -1</clus>
<clus scale="   92.506">  7  8 -1 -1</clus>
<clus scale="   94.085">  2  5  1 -1</clus>
<clus scale="   22.237">  2  5  1 -1</clus>
</clustering>
</event>
<event>
 9    1  0.1435532E-005  0.1896381E+03  0.7546771E-02  0.1158853E+00
          1   -1    0    0  502    0  0.00000000000E+00  0.00000000000E+00  0.41896190350E+03  0.41896190350E+03  0.00000000000E+00 0. -1.
         -1   -1    0    0    0  501 -0.00000000000E+00 -0.00000000000E+00 -0.16921340707E+03  0.16921340707E+03  0.00000000000E+00 0.  1.
         23    2    1    2    0    0  0.15208998828E+03 -0.87341570312E+02 -0.19310182895E+02  0.19876403066E+03  0.91511432511E+02 0.  0.
         23    2    1    2    0    0 -0.12748683366E+03  0.83741968537E+02  0.73336950417E+02  0.19211640538E+03  0.90910917220E+02 0.  0.
        -11    1    4    4    0    0 -0.66516997048E+02  0.54880135334E+02 -0.78169905393E+01  0.86587790661E+02  0.00000000000E+00 0. -1.
         11    1    4    4    0    0 -0.60969836611E+02  0.28861833203E+02  0.81153940956E+02  0.10552861472E+03  0.00000000000E+00 0.  1.
        -11    1    3    3    0    0  0.10810846855E+03 -0.39898762361E+02 -0.51832162893E+02  0.12635634262E+03  0.00000000000E+00 0.  1.
         11    1    3    3    0    0  0.43981519735E+02 -0.47442807951E+02  0.32521979998E+02  0.72407688041E+02  0.00000000000E+00 0. -1.
         21    1    1    2  502  501 -0.24603154625E+02  0.35996017752E+01  0.19572172891E+03  0.19729487453E+03  0.00000000000E+00 0.  1.
<scales pt_clust_5="13000.00000" pt_clust_6="13000.00000" pt_clust_7="13000.00000" pt_clust_8="13000.00000" pt_clust_9="24.86508"></scales>
<clustering>
<clus scale="   24.865">  1  9  2 -1</clus>
<clus scale="   90.911">  5  6 -1 -1</clus>
<clus scale="   91.511">  7  8 -1 -1</clus>
<clus scale="  189.349">  1  5  2 -1</clus>
<clus scale="   24.865">  1  5  2 -1</clus>
</clustering>
</event>
<event>
 9    1  0.1435532E-005  0.1772161E+03  0.7546771E-02  0.1175801E+00
          1   -1    0    0  502    0  0.00000000000E+00  0.00000000000E+00  0.15750794009E+03  0.15750794009E+03  0.00000000000E+00 0. -1.
         -1   -1    0    0    0  501 -0.00000000000E+00 -0.00000000000E+00 -0.28776780931E+03  0.28776780931E+03  0.00000000000E+00 0.  1.
         23    2    1    2    0    0  0.25365810279E+02  0.12562956120E+03 -0.88951247016E+02  0.18025010499E+03  0.90286017890E+02 0.  0.
         23    2    1    2    0    0  0.32349282898E+02 -0.12979681047E+03  0.18379280333E+02  0.18189295736E+03  0.12187518976E+03 0.  0.
        -11    1    3    3    0    0 -0.26783722653E+02  0.76203791792E+02 -0.26376657171E+02  0.84971252351E+02  0.00000000000E+00 0.  1.
         11    1    3    3    0    0  0.52149532932E+02  0.49425769404E+02 -0.62574589845E+02  0.95278852641E+02  0.00000000000E+00 0. -1.
        -13    1    4    4    0    0 -0.42192109391E+02 -0.16632273480E+02  0.19770696797E+01  0.45395103486E+02  0.00000000000E+00 0.  1.
         13    1    4    4    0    0  0.74541392290E+02 -0.11316453699E+03  0.16402210653E+02  0.13649785387E+03  0.00000000000E+00 0. -1.
         21    1    1    2  502  501 -0.57715093178E+02  0.41672492768E+01 -0.59687902534E+02  0.83132687049E+02  0.00000000000E+00 0.  1.
<scales pt_clust_5="13000.00000" pt_clust_6="13000.00000" pt_clust_7="13000.00000" pt_clust_8="13000.00000" pt_clust_9="57.86534"></scales>
<clustering>
<clus scale="   57.865">  2  9  1 -1</clus>
<clus scale="   90.286">  5  6 -1 -1</clus>
<clus scale="  121.875">  7  8 -1 -1</clus>
<clus scale="  157.174">  2  5  1 -1</clus>
<clus scale="  177.216">  1  5  2 -1</clus>
</clustering>
</event>
<event>
 9    1  0.2562222E-005  0.9326370E+02  0.7546771E-02  0.1295919E+00
          3   -1    0    0  502    0  0.00000000000E+00  0.00000000000E+00  0.41317810690E+03  0.41317810690E+03  0.00000000000E+00 0. -1.
         -3   -1    0    0    0  501 -0.00000000000E+00 -0.00000000000E+00 -0.69854099803E+02  0.69854099803E+02  0.00000000000E+00 0.  1.
         23    2    1    2    0    0  0.13332731498E+01  0.72599909847E+01 -0.24923445484E+02  0.96660230398E+02  0.93099607515E+02 0.  0.
         23    2    1    2    0    0  0.14529479300E+02  0.79898992883E+01  0.26853975156E+03  0.28426511213E+03  0.91750267290E+02 0.  0.
        -13    1    4    4    0    0  0.36734626981E+02 -0.19048656026E+02  0.22315728157E+03  0.22696135449E+03  0.00000000000E+00 0. -1.
         13    1    4    4    0    0 -0.22205147681E+02  0.27038555315E+02  0.45382469991E+02  0.57303757639E+02  0.00000000000E+00 0.  1.
        -13    1    3    3    0    0 -0.36156558446E+02  0.28309412938E+02 -0.27608994374E+02  0.53581490740E+02  0.00000000000E+00 0.  1.
         13    1    3    3    0    0  0.37489831596E+02 -0.21049421954E+02  0.26855488905E+01  0.43078739658E+02  0.00000000000E+00 0. -1.
         21    1    1    2  502  501 -0.15862752450E+02 -0.15249890273E+02  0.99707701019E+02  0.10210686417E+03  0.00000000000E+00 0. -1.
<scales pt_clust_5="13000.00000" pt_clust_6="13000.00000" pt_clust_7="13000.00000" pt_clust_8="13000.00000" pt_clust_9="22.00423"></scales>
<clustering>
<clus scale="   22.004">  1  9  2 -1</clus>
<clus scale="   91.750">  5  6 -1 -1</clus>
<clus scale="   91.917">  1  5  2 -1</clus>
<clus scale="   93.100">  7  8 -1 -1</clus>
<clus scale="   22.004">  1  5  2 -1</clus>
</clustering>
</event>
<event>
 9    1  0.1435532E-005  0.1211834E+03  0.7546771E-02  0.1241260E+00
         -1   -1    0    0    0  501 -0.00000000000E+00  0.00000000000E+00  0.10236723573E+03  0.10236723573E+03  0.00000000000E+00 0.  1.
          1   -1    0    0  502    0  0.00000000000E+00 -0.00000000000E+00 -0.40641665791E+03  0.40641665791E+03  0.00000000000E+00 0. -1.
         23    2    1    2    0    0  0.68758536261E+02  0.44736721138E+02  0.48281700038E+02  0.13147787233E+03  0.90698389325E+02 0.  0.
         23    2    1    2    0    0 -0.62225330621E+02 -0.24577375321E+02 -0.27994583475E+03  0.30188247166E+03  0.91034703010E+02 0.  0.
        -13    1    4    4    0    0  0.21963711271E+02 -0.17080984889E+01 -0.93137020531E+02  0.95706984106E+02  0.00000000000E+00 0.  1.
         13    1    4    4    0    0 -0.84189041893E+02 -0.22869276832E+02 -0.18680881422E+03  0.20617548755E+03  0.00000000000E+00 0. -1.
        -13    1    3    3    0    0  0.19133507749E+02  0.54572001067E+02  0.55765919136E+02  0.80336991208E+02  0.00000000000E+00 0. -1.
         13    1    3    3    0    0  0.49625028512E+02 -0.98352799292E+01 -0.74842190984E+01  0.51140881119E+02  0.00000000000E+00 0.  1.
         21    1    1    2  502  501 -0.65332056397E+01 -0.20159345817E+02 -0.72385287467E+02  0.75423549647E+02  0.00000000000E+00 0. -1.
<scales pt_clust_5="13000.00000" pt_clust_6="13000.00000" pt_clust_7="13000.00000" pt_clust_8="13000.00000" pt_clust_9="21.19155"></scales>
<clustering>
<clus scale="   21.192">  2  9  1 -1</clus>
<clus scale="   90.698">  7  8 -1 -1</clus>
<clus scale="   91.035">  5  6 -1 -1</clus>
<clus scale="  120.931">  1  7  2 -1</clus>
<clus scale="   21.192">  2  5  1 -1</clus>
</clustering>
</event>
<event>
 9    1  0.1435532E-005  0.1051514E+03  0.7546771E-02  0.1269892E+00
         -3   -1    0    0    0  501 -0.00000000000E+00  0.00000000000E+00  0.58495805756E+02  0.58495805756E+02  0.00000000000E+00 0.  1.
          3   -1    0    0  502    0  0.00000000000E+00 -0.00000000000E+00 -0.61489271316E+03  0.61489271316E+03  0.00000000000E+00 0. -1.
         23    2    1    2    0    0  0.62171090889E+01  0.20110055353E+02 -0.72883091381E+02  0.11904315430E+03  0.91740180966E+02 0.  0.
         23    2    1    2    0    0 -0.30795675888E+02  0.67101149761E+02 -0.43688233013E+03  0.45244150934E+03  0.91576258102E+02 0.  0.
        -13    1    4    4    0    0  0.29392110241E+02  0.15006590848E+02 -0.75522729897E+02  0.82418302848E+02  0.00000000000E+00 0.  1.
         13    1    4    4    0    0 -0.60187786128E+02  0.52094558913E+02 -0.36135960023E+03  0.37002320649E+03  0.00000000000E+00 0. -1.
        -13    1    3    3    0    0  0.14591344847E+02 -0.35065826798E+02 -0.34495956589E+02  0.51307802276E+02  0.00000000000E+00 0.  1.
         13    1    3    3    0    0 -0.83742357580E+01  0.55175882150E+02 -0.38387134792E+02  0.67735352019E+02  0.00000000000E+00 0. -1.
         21    1    1    2  502  501  0.24578566799E+02 -0.87211205113E+02 -0.46631485893E+02  0.10190385527E+03  0.00000000000E+00 0.  1.
<scales pt_clust_5="13000.00000" pt_clust_6="13000.00000" pt_clust_7="13000.00000" pt_clust_8="13000.00000" pt_clust_9="90.60850"></scales>
<clustering>
<clus scale="   90.608">  1  9  2 -1</clus>
<clus scale="   91.576">  5  6 -1 -1</clus>
<clus scale="   91.740">  7  8 -1 -1</clus>
<clus scale="  105.008">  2  5  1 -1</clus>
<clus scale="  105.008">  2  5  1 -1</clus>
</clustering>
</event>
<event>
 9    1  0.1435532E-005  0.9635279E+02  0.7546771E-02  0.1289416E+00
         -2   -1    0    0    0  501 -0.00000000000E+00  0.00000000000E+00  0.31999953143E+02  0.31999953143E+02  0.00000000000E+00 0.  1.
          2   -1    0    0  502    0  0.00000000000E+00 -0.00000000000E+00 -0.47686426423E+03  0.47686426423E+03  0.00000000000E+00 0. -1.
         23    2    1    2    0    0 -0.16861172816E+02 -0.16402889894E+02 -0.81659386417E+02  0.12623384031E+03  0.93345450367E+02 0.  0.
         23    2    1    2    0    0  0.11750513722E+01  0.31284555544E+02 -0.32224232506E+03  0.33631134268E+03  0.91022519186E+02 0.  0.
        -11    1    4    4    0    0 -0.37690063497E+02 -0.25844473781E+01 -0.77739833204E+02  0.86433222324E+02  0.00000000000E+00 0.  1.
         11    1    4    4    0    0  0.38865114870E+02  0.33869002922E+02 -0.24450249185E+03  0.24987812036E+03  0.00000000000E+00 0. -1.
        -13    1    3    3    0    0 -0.41597301592E+02 -0.36066513152E+02 -0.76444802459E+02  0.94206882412E+02  0.00000000000E+00 0.  1.
         13    1    3    3    0    0  0.24736128776E+02  0.19663623259E+02 -0.52145839575E+01  0.32026957900E+02  0.00000000000E+00 0. -1.
         21    1    1    2  502  501  0.15686121444E+02 -0.14881665651E+02 -0.40962599616E+02  0.46319034378E+02  0.00000000000E+00 0.  1.
<scales pt_clust_5="13000.00000" pt_clust_6="13000.00000" pt_clust_7="13000.00000" pt_clust_8="13000.00000" pt_clust_9="21.62217"></scales>
<clustering>
<clus scale="   21.622">  2  9  1 -1</clus>
<clus scale="   91.023">  5  6 -1 -1</clus>
<clus scale="   93.345">  7  8 -1 -1</clus>
<clus scale="   94.104">  2  5  1 -1</clus>
<clus scale="   21.622">  2  5  1 -1</clus>
</clustering>
</event>
<event>
 9    1  0.1435532E-005  0.1094995E+03  0.7546771E-02  0.1268037E+00
         -3   -1    0    0    0  501 -0.00000000000E+00  0.00000000000E+00  0.12646319826E+03  0.12646319826E+03  0.00000000000E+00 0.  1.
          3   -1    0    0  502    0  0.00000000000E+00 -0.00000000000E+00 -0.12479395147E+03  0.12479395147E+03  0.00000000000E+00 0. -1.
         23    2    1    2    0    0  0.14574594083E+02  0.32094355872E+02  0.26102367840E+02  0.10070453607E+03  0.90650998379E+02 0.  0.
         23    2    1    2    0    0  0.20237371896E+02 -0.33784659785E+02 -0.77890997036E+01  0.11192938814E+03  0.10448235926E+03 0.  0.
        -11    1    4    4    0    0 -0.39041846578E+02  0.69436614565E+01 -0.72703627230E+00  0.39661174975E+02  0.00000000000E+00 0. -1.
         11    1    4    4    0    0  0.59279218474E+02 -0.40728321241E+02 -0.70620634313E+01  0.72268213164E+02  0.00000000000E+00 0.  1.
        -13    1    3    3    0    0 -0.24499429007E+02  0.47082121999E+02  0.36205459153E+01  0.53198276159E+02  0.00000000000E+00 0.  1.
         13    1    3    3    0    0  0.39074023090E+02 -0.14987766127E+02  0.22481821925E+02  0.47506259914E+02  0.00000000000E+00 0. -1.
         21    1    1    2  502  501 -0.34811965980E+02  0.16903039131E+01 -0.16644021346E+02  0.38623225516E+02  0.00000000000E+00 0. -1.
<scales pt_clust_5="13000.00000" pt_clust_6="13000.00000" pt_clust_7="13000.00000" pt_clust_8="13000.00000" pt_clust_9="34.85298"></scales>
<clustering>
<clus scale="   34.853">  2  9  1 -1</clus>
<clus scale="   90.651">  7  8 -1 -1</clus>
<clus scale="   96.391">  1  7  2 -1</clus>
<clus scale="  104.482">  5  6 -1 -1</clus>
<clus scale="   34.853">  2  5  1 -1</clus>
</clustering>
</event>
<event>
 9    1  0.1435532E-005  0.9737208E+02  0.7546771E-02  0.1286122E+00
         -3   -1    0    0    0  501 -0.00000000000E+00  0.00000000000E+00  0.13468616389E+03  0.13468616389E+03  0.00000000000E+00 0.  1.
          3   -1    0    0  502    0  0.00000000000E+00 -0.00000000000E+00 -0.13122262621E+03  0.13122262621E+03  0.00000000000E+00 0. -1.
         23    2    1    2    0    0  0.25213125904E+02 -0.33246912521E+02  0.56483859717E+02  0.11514605992E+03  0.91253108423E+02 0.  0.
         23    2    1    2    0    0 -0.27633472378E+02  0.16280641578E+01 -0.74908356615E+01  0.95278103671E+02  0.90860029890E+02 0.  0.
        -11    1    3    3    0    0 -0.28705968780E+02  0.84860279166E+00 -0.17465425699E+01  0.28771568974E+02  0.00000000000E+00 0. -1.
         11    1    3    3    0    0  0.53919094684E+02 -0.34095515313E+02  0.58230402287E+02  0.86374490948E+02  0.00000000000E+00 0.  1.
        -13    1    4    4    0    0 -0.18000211875E+01  0.30688708949E+02 -0.35795308080E+02  0.47184118237E+02  0.00000000000E+00 0. -1.
         13    1    4    4    0    0 -0.25833451190E+02 -0.29060644791E+02  0.28304472419E+02  0.48093985434E+02  0.00000000000E+00 0.  1.
         21    1    1    2  502  501  0.24203464738E+01  0.31618848363E+02 -0.45529486375E+02  0.55484626505E+02  0.00000000000E+00 0. -1.
<scales pt_clust_5="13000.00000" pt_clust_6="13000.00000" pt_clust_7="13000.00000" pt_clust_8="13000.00000" pt_clust_9="31.71135"></scales>
<clustering>
<clus scale="   31.711">  2  9  1 -1</clus>
<clus scale="   90.860">  7  8 -1 -1</clus>
<clus scale="   91.253">  5  6 -1 -1</clus>
<clus scale="   97.004">  2  7  1 -1</clus>
<clus scale="   31.711">  2  5  1 -1</clus>
</clustering>
</event>
<event>
 9    1  0.1435532E-005  0.1261974E+03  0.7546771E-02  0.1237250E+00
         -4   -1    0    0    0  501 -0.00000000000E+00  0.00000000000E+00  0.68321530638E+03  0.68321530638E+03  0.00000000000E+00 0.  1.
          4   -1    0    0  502    0  0.00000000000E+00 -0.00000000000E+00 -0.11598098849E+03  0.11598098849E+03  0.00000000000E+00 0. -1.
         23    2    1    2    0    0  0.33199423466E+02  0.68952632990E+02  0.61552581585E+03  0.62652639260E+03  0.88355097917E+02 0.  0.
         23    2    1    2    0    0 -0.43080484228E+02 -0.40324273434E+02 -0.69046337818E+02  0.13595503185E+03  0.10116520534E+03 0.  0.
        -11    1    3    3    0    0 -0.43044101886E+01  0.78114673014E+02  0.42068450609E+03  0.42789704808E+03  0.00000000000E+00 0.  1.
         11    1    3    3    0    0  0.37503833655E+02 -0.91620400240E+01  0.19484130976E+03  0.19862934452E+03  0.00000000000E+00 0. -1.
        -13    1    4    4    0    0 -0.16908178571E+02 -0.59482861947E+02 -0.24591004843E+01  0.61888161575E+02  0.00000000000E+00 0. -1.
         13    1    4    4    0    0 -0.26172305657E+02  0.19158588512E+02 -0.66587237333E+02  0.74066870279E+02  0.00000000000E+00 0.  1.
         21    1    1    2  502  501  0.98810607619E+01 -0.28628359556E+02  0.20754839852E+02  0.36714870419E+02  0.00000000000E+00 0. -1.
<scales pt_clust_5="13000.00000" pt_clust_6="13000.00000" pt_clust_7="13000.00000" pt_clust_8="13000.00000" pt_clust_9="30.28561"></scales>
<clustering>
<clus scale="   30.286">  2  9  1 -1</clus>
<clus scale="   88.355">  5  6 -1 -1</clus>
<clus scale="  101.165">  7  8 -1 -1</clus>
<clus scale="  116.181">  1  5  2 -1</clus>
<clus scale="   30.286">  2  5  1 -1</clus>
</clustering>
</event>
<event>
 9    1  0.1435532E-005  0.9991696E+02  0.7546771E-02  0.1282308E+00
          1   -1    0    0  502    0  0.00000000000E+00  0.00000000000E+00  0.89664578946E+03  0.89664578946E+03  0.00000000000E+00 0. -1.
         -1   -1    0    0    0  501 -0.00000000000E+00 -0.00000000000E+00 -0.32626837605E+02  0.32626837605E+02  0.00000000000E+00 0.  1.
         23    2    1    2    0    0  0.52040994083E+02 -0.92801460470E+01  0.12436314922E+03  0.16506856065E+03  0.94800056198E+02 0.  0.
         23    2    1    2    0    0  0.24923061686E+02  0.33804355731E+02  0.27881906636E+03  0.29634147950E+03  0.91182823122E+02 0.  0.
        -13    1    3    3    0    0 -0.19992399784E+02 -0.17106965049E+02  0.69104885151E+02  0.73944773000E+02  0.00000000000E+00 0. -1.
         13    1    3    3    0    0  0.72033393867E+02  0.78268190022E+01  0.55258264073E+02  0.91123787653E+02  0.00000000000E+00 0.  1.
        -13    1    4    4    0    0 -0.36545760861E+00  0.55861226250E+02  0.10132970232E+03  0.11570790262E+03  0.00000000000E+00 0.  1.
         13    1    4    4    0    0  0.25288519295E+02 -0.22056870519E+02  0.17748936405E+03  0.18063357688E+03  0.00000000000E+00 0. -1.
         21    1    1    2  502  501 -0.76964055770E+02 -0.24524209684E+02  0.46083673627E+03  0.46786258692E+03  0.00000000000E+00 0. -1.
<scales pt_clust_5="13000.00000" pt_clust_6="13000.00000" pt_clust_7="13000.00000" pt_clust_8="13000.00000" pt_clust_9="80.77687"></scales>
<clustering>
<clus scale="   80.777">  1  9  2 -1</clus>
<clus scale="   91.183">  7  8 -1 -1</clus>
<clus scale="   94.800">  5  6 -1 -1</clus>
<clus scale="   96.492">  1  7  2 -1</clus>
<clus scale="   80.777">  1  5  2 -1</clus>
</clustering>
</event>
<event>
 9    1  0.1435532E-005  0.1012778E+03  0.7546771E-02  0.1279169E+00
          2   -1    0    0  502    0  0.00000000000E+00  0.00000000000E+00  0.83712155699E+02  0.83712155699E+02  0.00000000000E+00 0. -1.
         -2   -1    0    0    0  501 -0.00000000000E+00 -0.00000000000E+00 -0.27014251071E+03  0.27014251071E+03  0.00000000000E+00 0.  1.
         23    2    1    2    0    0 -0.53466021244E+01  0.48440603520E+02 -0.16225282232E+03  0.19266884447E+03  0.91761795196E+02 0.  0.
         23    2    1    2    0    0 -0.28090438970E+02 -0.31036793057E+02 -0.55164724344E+02  0.11238895336E+03  0.88519911554E+02 0.  0.
        -13    1    4    4    0    0 -0.57488674310E+02 -0.82311729047E+01 -0.45958553013E+02  0.74060032922E+02  0.00000000000E+00 0.  1.
         13    1    4    4    0    0  0.29398235341E+02 -0.22805620152E+02 -0.92061713304E+01  0.38328920442E+02  0.00000000000E+00 0. -1.
        -13    1    3    3    0    0 -0.45201922368E+02  0.35650256959E+02 -0.12050993359E+03  0.13355447840E+03  0.00000000000E+00 0.  1.
         13    1    3    3    0    0  0.39855320244E+02  0.12790346561E+02 -0.41742888721E+02  0.59114366068E+02  0.00000000000E+00 0. -1.
         21    1    1    2  502  501  0.33437041094E+02 -0.17403810463E+02  0.30987191651E+02  0.48796868570E+02  0.00000000000E+00 0. -1.
<scales pt_clust_5="13000.00000" pt_clust_6="13000.00000" pt_clust_7="13000.00000" pt_clust_8="13000.00000" pt_clust_9="37.69520"></scales>
<clustering>
<clus scale="   37.695">  1  9  2 -1</clus>
<clus scale="   88.520">  5  6 -1 -1</clus>
<clus scale="   91.762">  7  8 -1 -1</clus>
<clus scale="   98.350">  1  5  2 -1</clus>
<clus scale="   37.695">  1  5  2 -1</clus>
</clustering>
</event>
<event>
 9    1  0.1435532E-005  0.1037426E+03  0.7546771E-02  0.1272792E+00
          2   -1    0    0  502    0  0.00000000000E+00  0.00000000000E+00  0.17553793298E+03  0.17553793298E+03  0.00000000000E+00 0. -1.
         -2   -1    0    0    0  501 -0.00000000000E+00 -0.00000000000E+00 -0.10282815741E+03  0.10282815741E+03  0.00000000000E+00 0.  1.
         23    2    1    2    0    0  0.48349199497E+02  0.16852063943E+02 -0.35902934315E+01  0.10534532428E+03  0.91995162863E+02 0.  0.
         23    2    1    2    0    0 -0.17891182198E+02 -0.53475739327E+02  0.55543910651E+02  0.12106114211E+03  0.91601992456E+02 0.  0.
        -11    1    3    3    0    0 -0.20201215250E+02 -0.87174373476E+01  0.18685205182E+02  0.28865545277E+02  0.00000000000E+00 0.  1.
         11    1    3    3    0    0  0.68550414747E+02  0.25569501291E+02 -0.22275498613E+02  0.76479779005E+02  0.00000000000E+00 0. -1.
        -11    1    4    4    0    0 -0.66504513914E+01  0.25829668288E+02  0.76973283424E+01  0.27760567919E+02  0.00000000000E+00 0.  1.
         11    1    4    4    0    0 -0.11240730806E+02 -0.79305407615E+02  0.47846582309E+02  0.93300574193E+02  0.00000000000E+00 0. -1.
         21    1    1    2  502  501 -0.30458017300E+02  0.36623675384E+02  0.20756158346E+02  0.51959623995E+02  0.00000000000E+00 0.  1.
<scales pt_clust_5="13000.00000" pt_clust_6="13000.00000" pt_clust_7="13000.00000" pt_clust_8="13000.00000" pt_clust_9="47.63386"></scales>
<clustering>
<clus scale="   47.634">  1  9  2 -1</clus>
<clus scale="   91.602">  7  8 -1 -1</clus>
<clus scale="   91.995">  5  6 -1 -1</clus>
<clus scale="  103.394">  1  7  2 -1</clus>
<clus scale="   47.634">  1  5  2 -1</clus>
</clustering>
</event>
<event>
 9    1  0.1435532E-005  0.1116579E+03  0.7546771E-02  0.1257644E+00
         -2   -1    0    0    0  501 -0.00000000000E+00  0.00000000000E+00  0.95794605130E+02  0.95794605130E+02  0.00000000000E+00 0.  1.
          2   -1    0    0  502    0  0.00000000000E+00 -0.00000000000E+00 -0.33046673311E+03  0.33046673311E+03  0.00000000000E+00 0. -1.
         23    2    1    2    0    0  0.26726345556E+02  0.44848909792E+02 -0.40382109875E+02  0.11278500893E+03  0.91455022747E+02 0.  0.
         23    2    1    2    0    0 -0.50535680401E+02 -0.46053700704E+02 -0.23777904324E+03  0.26388165970E+03  0.91759787401E+02 0.  0.
        -11    1    3    3    0    0 -0.16848690994E+02 -0.20171588583E+02 -0.44375174644E+01  0.26654510602E+02  0.00000000000E+00 0. -1.
         11    1    3    3    0    0  0.43575036549E+02  0.65020498375E+02 -0.35944592411E+02  0.86130498331E+02  0.00000000000E+00 0.  1.
        -13    1    4    4    0    0 -0.69985368352E+02 -0.57108239726E+02 -0.20682160851E+03  0.22568668675E+03  0.00000000000E+00 0. -1.
         13    1    4    4    0    0  0.19449687951E+02  0.11054539022E+02 -0.30957434724E+02  0.38194972956E+02  0.00000000000E+00 0.  1.
         21    1    1    2  502  501  0.23809334845E+02  0.12047909119E+01  0.43489025127E+02  0.49594669607E+02  0.00000000000E+00 0.  1.
<scales pt_clust_5="13000.00000" pt_clust_6="13000.00000" pt_clust_7="13000.00000" pt_clust_8="13000.00000" pt_clust_9="23.83980"></scales>
<clustering>
<clus scale="   23.840">  1  9  2 -1</clus>
<clus scale="   91.455">  5  6 -1 -1</clus>
<clus scale="   91.760">  7  8 -1 -1</clus>
<clus scale="  111.408">  1  5  2 -1</clus>
<clus scale="  111.658">  2  5  1 -1</clus>
</clustering>
</event>
<event>
 9    1  0.1435532E-005  0.1417420E+03  0.7546771E-02  0.1215671E+00
          1   -1    0    0  502    0  0.00000000000E+00  0.00000000000E+00  0.39386474175E+03  0.39386474175E+03  0.00000000000E+00 0. -1.
         -1   -1    0    0    0  501 -0.00000000000E+00 -0.00000000000E+00 -0.74651111815E+02  0.74651111815E+02  0.00000000000E+00 0.  1.
         23    2    1    2    0    0  0.79630201228E+02  0.60551715355E+02  0.37142455431E+02  0.14121812758E+03  0.92496045223E+02 0.  0.
         23    2    1    2    0    0 -0.45561419857E+02 -0.41992366503E+02  0.20251616549E+03  0.23878710090E+03  0.11030539627E+03 0.  0.
        -11    1    3    3    0    0  0.91625872204E+02  0.21268467337E+02  0.17447617023E+02  0.95666438732E+02  0.00000000000E+00 0. -1.
         11    1    3    3    0    0 -0.11995670976E+02  0.39283248018E+02  0.19694838408E+02  0.45551688848E+02  0.00000000000E+00 0.  1.
        -13    1    4    4    0    0 -0.62382468091E+02 -0.66126106352E+02  0.18030577417E+03  0.20192673539E+03  0.00000000000E+00 0. -1.
         13    1    4    4    0    0  0.16821048234E+02  0.24133739849E+02  0.22210391324E+02  0.36860365510E+02  0.00000000000E+00 0.  1.
         21    1    1    2  502  501 -0.34068781371E+02 -0.18559348851E+02  0.79555009010E+02  0.88510625083E+02  0.00000000000E+00 0. -1.
<scales pt_clust_5="13000.00000" pt_clust_6="13000.00000" pt_clust_7="13000.00000" pt_clust_8="13000.00000" pt_clust_9="38.79602"></scales>
<clustering>
<clus scale="   38.796">  1  9  2 -1</clus>
<clus scale="   92.496">  5  6 -1 -1</clus>
<clus scale="  110.305">  7  8 -1 -1</clus>
<clus scale="  128.371">  2  5  1 -1</clus>
<clus scale="   38.796">  1  5  2 -1</clus>
</clustering>
</event>
<event>
 9    1  0.1435532E-005  0.9689318E+02  0.7546771E-02  0.1289516E+00
          1   -1    0    0  502    0  0.00000000000E+00  0.00000000000E+00  0.63274681540E+03  0.63274681540E+03  0.00000000000E+00 0. -1.
         -1   -1    0    0    0  501 -0.00000000000E+00 -0.00000000000E+00 -0.21258152622E+02  0.21258152622E+02  0.00000000000E+00 0.  1.
         23    2    1    2    0    0 -0.36800969397E+02 -0.88576673731E+01  0.15054963921E+03  0.17702992760E+03  0.85097777753E+02 0.  0.
         23    2    1    2    0    0  0.34006617768E+02 -0.13838132710E+02  0.32851254153E+03  0.34258872830E+03  0.89992237693E+02 0.  0.
        -13    1    4    4    0    0  0.48489058779E+02  0.23299334400E+02  0.14164169108E+03  0.15151375006E+03  0.00000000000E+00 0. -1.
         13    1    4    4    0    0 -0.14482441011E+02 -0.37137467110E+02  0.18687085045E+03  0.19107497824E+03  0.00000000000E+00 0.  1.
        -13    1    3    3    0    0 -0.57417171427E+02  0.17142684189E+02  0.94628335132E+02  0.11200502223E+03  0.00000000000E+00 0.  1.
         13    1    3    3    0    0  0.20616202030E+02 -0.26000351562E+02  0.55921304078E+02  0.65024905362E+02  0.00000000000E+00 0. -1.
         21    1    1    2  502  501  0.27943516285E+01  0.22695800083E+02  0.13242648204E+03  0.13438631213E+03  0.00000000000E+00 0.  1.
<scales pt_clust_5="13000.00000" pt_clust_6="13000.00000" pt_clust_7="13000.00000" pt_clust_8="13000.00000" pt_clust_9="22.86718"></scales>
<clustering>
<clus scale="   22.867">  1  9  2 -1</clus>
<clus scale="   85.098">  7  8 -1 -1</clus>
<clus scale="   89.992">  5  6 -1 -1</clus>
<clus scale="   92.365">  2  7  1 -1</clus>
<clus scale="   22.867">  1  5  2 -1</clus>
</clustering>
</event>
<event>
 9    1  0.1435532E-005  0.1253085E+03  0.7546771E-02  0.1235122E+00
         -1   -1    0    0    0  501 -0.00000000000E+00  0.00000000000E+00  0.37443227664E+02  0.37443227664E+02  0.00000000000E+00 0.  1.
          1   -1    0    0  502    0  0.00000000000E+00 -0.00000000000E+00 -0.60865343213E+03  0.60865343213E+03  0.00000000000E+00 0. -1.
         23    2    1    2    0    0  0.33020633799E+02  0.61297589259E+02 -0.17475295969E+03  0.20961245008E+03  0.92471755699E+02 0.  0.
         23    2    1    2    0    0 -0.43841661231E+02 -0.10021385762E+03 -0.30096839014E+03  0.33280348857E+03  0.90616122317E+02 0.  0.
        -11    1    4    4    0    0 -0.32738615538E+02 -0.43732496284E+02 -0.45995728274E+02  0.71413970608E+02  0.00000000000E+00 0.  1.
         11    1    4    4    0    0 -0.11103045693E+02 -0.56481361332E+02 -0.25497266187E+03  0.26138951797E+03  0.00000000000E+00 0. -1.
        -13    1    3    3    0    0  0.30840276302E+02 -0.18115624429E+02 -0.45174713924E+02  0.57619903410E+02  0.00000000000E+00 0. -1.
         13    1    3    3    0    0  0.21803574968E+01  0.79413213688E+02 -0.12957824577E+03  0.15199254667E+03  0.00000000000E+00 0.  1.
         21    1    1    2  502  501  0.10821027432E+02  0.38916268356E+02 -0.95488854627E+02  0.10368072114E+03  0.00000000000E+00 0. -1.
<scales pt_clust_5="13000.00000" pt_clust_6="13000.00000" pt_clust_7="13000.00000" pt_clust_8="13000.00000" pt_clust_9="40.39270"></scales>
<clustering>
<clus scale="   40.393">  2  9  1 -1</clus>
<clus scale="   90.616">  5  6 -1 -1</clus>
<clus scale="   92.472">  7  8 -1 -1</clus>
<clus scale="  123.945">  2  5  1 -1</clus>
<clus scale="   40.393">  2  5  1 -1</clus>
</clustering>
</event>
<event>
 9    1  0.1435532E-005  0.1296044E+03  0.7546771E-02  0.1228134E+00
         -1   -1    0    0    0  501 -0.00000000000E+00  0.00000000000E+00  0.54572977288E+02  0.54572977288E+02  0.00000000000E+00 0.  1.
          1   -1    0    0  502    0  0.00000000000E+00 -0.00000000000E+00 -0.43097428186E+03  0.43097428186E+03  0.00000000000E+00 0. -1.
         23    2    1    2    0    0 -0.70150434697E+02 -0.33068810710E+02 -0.12877478559E+03  0.17544080215E+03  0.90453855220E+02 0.  0.
         23    2    1    2    0    0  0.93225825132E+02  0.65493645968E+02 -0.17634561959E+03  0.22846816817E+03  0.90108013986E+02 0.  0.
        -11    1    3    3    0    0 -0.46708234636E+02  0.25358651994E+02 -0.39581363409E+02  0.66267674949E+02  0.00000000000E+00 0. -1.
         11    1    3    3    0    0 -0.23442200061E+02 -0.58427462705E+02 -0.89193422181E+02  0.10917312720E+03  0.00000000000E+00 0.  1.
        -11    1    4    4    0    0  0.39110786226E+02  0.21095753748E+02 -0.66878397554E+01  0.44937864057E+02  0.00000000000E+00 0.  1.
         11    1    4    4    0    0  0.54115038906E+02  0.44397892220E+02 -0.16965777983E+03  0.18353030411E+03  0.00000000000E+00 0. -1.
         21    1    1    2  502  501 -0.23075390435E+02 -0.32424835258E+02 -0.71280899398E+02  0.81638288836E+02  0.00000000000E+00 0.  1.
<scales pt_clust_5="13000.00000" pt_clust_6="13000.00000" pt_clust_7="13000.00000" pt_clust_8="13000.00000" pt_clust_9="39.79753"></scales>
<clustering>
<clus scale="   39.798">  2  9  1 -1</clus>
<clus scale="   90.108">  7  8 -1 -1</clus>
<clus scale="   90.454">  5  6 -1 -1</clus>
<clus scale="  129.363">  2  7  1 -1</clus>
<clus scale="   39.798">  2  5  1 -1</clus>
</clustering>
</event>
<event>
 9    1  0.1435532E-005  0.1019209E+03  0.7546771E-02  0.1277240E+00
          2   -1    0    0  502    0  0.00000000000E+00  0.00000000000E+00  0.11314345263E+03  0.11314345263E+03  0.00000000000E+00 0. -1.
         -2   -1    0    0    0  501 -0.00000000000E+00 -0.00000000000E+00 -0.11538402209E+03  0.11538402209E+03  0.00000000000E+00 0.  1.
         23    2    1    2    0    0 -0.29643256064E+02 -0.18999803786E+02 -0.32734077953E+00  0.96959755881E+02  0.90340311791E+02 0.  0.
         23    2    1    2    0    0  0.49610127104E+02  0.33337017324E+02 -0.52596265130E+01  0.10675985699E+03  0.88303351908E+02 0.  0.
        -13    1    3    3    0    0 -0.22163051550E+02  0.35540518881E+02  0.91823177619E+00  0.41894778743E+02  0.00000000000E+00 0.  1.
         13    1    3    3    0    0 -0.74802045141E+01 -0.54540322667E+02 -0.12455725557E+01  0.55064977138E+02  0.00000000000E+00 0. -1.
        -13    1    4    4    0    0  0.33454270998E+02  0.54480505951E+02 -0.29823401299E+02  0.70546077436E+02  0.00000000000E+00 0.  1.
         13    1    4    4    0    0  0.16155856107E+02 -0.21143488627E+02  0.24563774786E+02  0.36213779554E+02  0.00000000000E+00 0. -1.
         21    1    1    2  502  501 -0.19966871040E+02 -0.14337213538E+02  0.33463978333E+01  0.24807861851E+02  0.00000000000E+00 0.  1.
<scales pt_clust_5="13000.00000" pt_clust_6="13000.00000" pt_clust_7="13000.00000" pt_clust_8="13000.00000" pt_clust_9="24.58112"></scales>
<clustering>
<clus scale="   24.581">  1  9  2 -1</clus>
<clus scale="   88.303">  7  8 -1 -1</clus>
<clus scale="   90.340">  5  6 -1 -1</clus>
<clus scale="  100.120">  1  7  2 -1</clus>
<clus scale="   24.581">  1  5  2 -1</clus>
</clustering>
</event>
<event>
 9    1  0.1435532E-005  0.1171192E+03  0.7546771E-02  0.1249820E+00
         -2   -1    0    0    0  501 -0.00000000000E+00  0.00000000000E+00  0.15221813833E+03  0.15221813833E+03  0.00000000000E+00 0.  1.
          2   -1    0    0  502    0  0.00000000000E+00 -0.00000000000E+00 -0.21584125844E+03  0.21584125844E+03  0.00000000000E+00 0. -1.
         23    2    1    2    0    0 -0.64927480739E+02 -0.93743281678E+01  0.82620073177E+02  0.13981887638E+03  0.91759391441E+02 0.  0.
         23    2    1    2    0    0  0.67801938691E+02 -0.31966174384E+02 -0.69338989189E+02  0.14088174139E+03  0.97060962488E+02 0.  0.
        -13    1    3    3    0    0 -0.86798758882E+02 -0.12911122324E+02  0.77506351999E+02  0.11708098148E+03  0.00000000000E+00 0.  1.
         13    1    3    3    0    0  0.21871278144E+02  0.35367941558E+01  0.51137211784E+01  0.22737894908E+02  0.00000000000E+00 0. -1.
        -13    1    4    4    0    0  0.89429491704E+01 -0.54550103826E+02 -0.14066754570E+02  0.57040018859E+02  0.00000000000E+00 0. -1.
         13    1    4    4    0    0  0.58858989521E+02  0.22583929442E+02 -0.55272234618E+02  0.83841722526E+02  0.00000000000E+00 0.  1.
         21    1    1    2  502  501 -0.28744579527E+01  0.41340502552E+02 -0.76904204106E+02  0.87358779003E+02  0.00000000000E+00 0.  1.
<scales pt_clust_5="13000.00000" pt_clust_6="13000.00000" pt_clust_7="13000.00000" pt_clust_8="13000.00000" pt_clust_9="41.44031"></scales>
<clustering>
<clus scale="   41.440">  2  9  1 -1</clus>
<clus scale="   91.759">  5  6 -1 -1</clus>
<clus scale="   97.061">  7  8 -1 -1</clus>
<clus scale="  112.765">  1  5  2 -1</clus>
<clus scale="   41.440">  2  5  1 -1</clus>
</clustering>
</event>
<event>
 9    1  0.1435532E-005  0.9520520E+02  0.7546771E-02  0.1293020E+00
         -2   -1    0    0    0  501 -0.00000000000E+00  0.00000000000E+00  0.41436875473E+03  0.41436875473E+03  0.00000000000E+00 0.  1.
          2   -1    0    0  502    0  0.00000000000E+00 -0.00000000000E+00 -0.20838921731E+03  0.20838921731E+03  0.00000000000E+00 0. -1.
         23    2    1    2    0    0  0.23784564062E+02 -0.66419154900E+01  0.33966596761E+03  0.35250920912E+03  0.90994243969E+02 0.  0.
         23    2    1    2    0    0 -0.10571032164E+03  0.22749257999E+02 -0.12433043155E+03  0.18623203275E+03  0.86787746673E+02 0.  0.
        -11    1    4    4    0    0 -0.34518647111E+02 -0.33239945434E+02 -0.47320606791E+02  0.67347388946E+02  0.00000000000E+00 0.  1.
         11    1    4    4    0    0 -0.71191674531E+02  0.55989203433E+02 -0.77009824760E+02  0.11888464381E+03  0.00000000000E+00 0. -1.
        -13    1    3    3    0    0  0.47912394689E+00 -0.47338756853E+02  0.17619036198E+03  0.18243966432E+03  0.00000000000E+00 0. -1.
         13    1    3    3    0    0  0.23305440115E+02  0.40696841363E+02  0.16347560562E+03  0.17006954481E+03  0.00000000000E+00 0.  1.
         21    1    1    2  502  501  0.81925757580E+02 -0.16107342509E+02 -0.93559986387E+01  0.84016730169E+02  0.00000000000E+00 0.  1.
<scales pt_clust_5="13000.00000" pt_clust_6="13000.00000" pt_clust_7="13000.00000" pt_clust_8="13000.00000" pt_clust_9="83.49417"></scales>
<clustering>
<clus scale="   83.494">  2  9  1 -1</clus>
<clus scale="   86.788">  5  6 -1 -1</clus>
<clus scale="   90.994">  7  8 -1 -1</clus>
<clus scale="   91.193">  2  5  1 -1</clus>
<clus scale="   83.494">  2  5  1 -1</clus>
</clustering>
</event>
<event>
 9    1  0.1782288E-005  0.1392505E+03  0.7546771E-02  0.1214766E+00
          1   -1    0    0  502    0  0.00000000000E+00  0.00000000000E+00  0.26670293938E+03  0.26670293938E+03  0.00000000000E+00 0. -1.
         -1   -1    0    0    0  501 -0.00000000000E+00 -0.00000000000E+00 -0.27228710470E+03  0.27228710470E+03  0.00000000000E+00 0.  1.
         23    2    1    2    0    0 -0.93528837192E+02  0.54989972268E+02 -0.22664488189E+03  0.26699714985E+03  0.90266467240E+02 0.  0.
         23    2    1    2    0    0  0.52434225064E+02 -0.39747816922E+02  0.17471509097E+03  0.20820412204E+03  0.92164833399E+02 0.  0.
        -11    1    3    3    0    0 -0.50815368289E+02  0.91633293944E+01 -0.28062929266E+02  0.58768156845E+02  0.00000000000E+00 0. -1.
         11    1    3    3    0    0 -0.42713468903E+02  0.45826642873E+02 -0.19858195262E+03  0.20822899301E+03  0.00000000000E+00 0.  1.
        -13    1    4    4    0    0 -0.13398951782E+02 -0.42956074603E+02  0.50896804481E+02  0.67935564769E+02  0.00000000000E+00 0.  1.
         13    1    4    4    0    0  0.65833176846E+02  0.32082576806E+01  0.12381828649E+03  0.14026855727E+03  0.00000000000E+00 0. -1.
         21    1    1    2  502  501  0.41094612128E+02 -0.15242155346E+02  0.46345625594E+02  0.63788772188E+02  0.00000000000E+00 0. -1.
<scales pt_clust_5="13000.00000" pt_clust_6="13000.00000" pt_clust_7="13000.00000" pt_clust_8="13000.00000" pt_clust_9="43.83025"></scales>
<clustering>
<clus scale="   43.830">  1  9  2 -1</clus>
<clus scale="   90.266">  5  6 -1 -1</clus>
<clus scale="   92.165">  7  8 -1 -1</clus>
<clus scale="  138.001">  2  5  1 -1</clus>
<clus scale="   43.830">  1  5  2 -1</clus>
</clustering>
</event>
<event>
 9    1  0.1435532E-005  0.9614906E+02  0.7546771E-02  0.1288839E+00
         -2   -1    0    0    0  501 -0.00000000000E+00  0.00000000000E+00  0.30037668342E+03  0.30037668342E+03  0.00000000000E+00 0.  1.
          2   -1    0    0  502    0  0.00000000000E+00 -0.00000000000E+00 -0.73090058118E+02  0.73090058118E+02  0.00000000000E+00 0. -1.
         23    2    1    2    0    0  0.20417649485E+02  0.50690305094E+01  0.14893096091E+03  0.17503054899E+03  0.89513610593E+02 0.  0.
         23    2    1    2    0    0 -0.58239371384E+02  0.21241873879E+02  0.99476145298E+02  0.14775265427E+03  0.89957221927E+02 0.  0.
        -11    1    3    3    0    0  0.14718295015E+02 -0.36059644909E+02  0.11497398337E+03  0.12139169268E+03  0.00000000000E+00 0. -1.
         11    1    3    3    0    0  0.56993544702E+01  0.41128675418E+02  0.33956977545E+02  0.53638856317E+02  0.00000000000E+00 0.  1.
        -13    1    4    4    0    0  0.22520936520E+02  0.14037850530E+01  0.38524878528E+02  0.44646718355E+02  0.00000000000E+00 0.  1.
         13    1    4    4    0    0 -0.80760307904E+02  0.19838088826E+02  0.60951266770E+02  0.10310593592E+03  0.00000000000E+00 0. -1.
         21    1    1    2  502  501  0.37821721899E+02 -0.26310904388E+02 -0.21120480913E+02  0.50683538266E+02  0.00000000000E+00 0.  1.
<scales pt_clust_5="13000.00000" pt_clust_6="13000.00000" pt_clust_7="13000.00000" pt_clust_8="13000.00000" pt_clust_9="46.07327"></scales>
<clustering>
<clus scale="   46.073">  2  9  1 -1</clus>
<clus scale="   89.514">  5  6 -1 -1</clus>
<clus scale="   89.957">  7  8 -1 -1</clus>
<clus scale="   95.734">  1  5  2 -1</clus>
<clus scale="   46.073">  2  5  1 -1</clus>
</clustering>
</event>
<event>
 9    1  0.1435532E-005  0.1129201E+03  0.7546771E-02  0.1258088E+00
         -1   -1    0    0    0  501 -0.00000000000E+00  0.00000000000E+00  0.58315670928E+02  0.58315670928E+02  0.00000000000E+00 0.  1.
          1   -1    0    0  502    0  0.00000000000E+00 -0.00000000000E+00 -0.62716635007E+03  0.62716635007E+03  0.00000000000E+00 0. -1.
         23    2    1    2    0    0 -0.45783326150E+02  0.31692606230E+02 -0.16092557230E+02  0.11346398172E+03  0.97542659930E+02 0.  0.
         23    2    1    2    0    0  0.70345219636E+02 -0.11041343522E+02 -0.43837285935E+03  0.45321673645E+03  0.90356434132E+02 0.  0.
        -11    1    3    3    0    0  0.68077355586E+01 -0.19861213495E+02  0.22117938571E+02  0.30496168145E+02  0.00000000000E+00 0. -1.
         11    1    3    3    0    0 -0.52591061709E+02  0.51553819724E+02 -0.38210495800E+02  0.82967813573E+02  0.00000000000E+00 0.  1.
        -13    1    4    4    0    0 -0.46000123881E+01  0.21227840224E+02 -0.31628648169E+02  0.38368642138E+02  0.00000000000E+00 0.  1.
         13    1    4    4    0    0  0.74945232024E+02 -0.32269183745E+02 -0.40674421118E+03  0.41484809431E+03  0.00000000000E+00 0. -1.
         21    1    1    2  502  501 -0.24561893486E+02 -0.20651262708E+02 -0.11438526256E+03  0.11880130283E+03  0.00000000000E+00 0. -1.
<scales pt_clust_5="13000.00000" pt_clust_6="13000.00000" pt_clust_7="13000.00000" pt_clust_8="13000.00000" pt_clust_9="32.08989"></scales>
<clustering>
<clus scale="   32.090">  2  9  1 -1</clus>
<clus scale="   90.356">  7  8 -1 -1</clus>
<clus scale="   97.543">  5  6 -1 -1</clus>
<clus scale="  106.774">  2  7  1 -1</clus>
<clus scale="   32.090">  2  5  1 -1</clus>
</clustering>
</event>
<event>
 9    1  0.1435532E-005  0.9229796E+02  0.7546771E-02  0.1297751E+00
         -3   -1    0    0    0  501 -0.00000000000E+00  0.00000000000E+00  0.26672849109E+03  0.26672849109E+03  0.00000000000E+00 0.  1.
          3   -1    0    0  502    0  0.00000000000E+00 -0.00000000000E+00 -0.44466337063E+02  0.44466337063E+02  0.00000000000E+00 0. -1.
         23    2    1    2    0    0 -0.23992167368E+01  0.50322450159E-01  0.14489980130E+03  0.17105975422E+03  0.90883047496E+02 0.  0.
         23    2    1    2    0    0  0.14965343018E+02 -0.18011011165E+02  0.52526448687E+02  0.10700931359E+03  0.90241937975E+02 0.  0.
        -11    1    4    4    0    0 -0.35831869639E+02  0.68658898027E+01  0.23911516252E+02  0.43621370154E+02  0.00000000000E+00 0.  1.
         11    1    4    4    0    0  0.50797212657E+02 -0.24876900968E+02  0.28614932435E+02  0.63387943441E+02  0.00000000000E+00 0. -1.
        -13    1    3    3    0    0 -0.25939556712E+02  0.37953881413E+02  0.80746031435E+02  0.92915441716E+02  0.00000000000E+00 0.  1.
         13    1    3    3    0    0  0.23540339975E+02 -0.37903558963E+02  0.64153769866E+02  0.78144312501E+02  0.00000000000E+00 0. -1.
         21    1    1    2  502  501 -0.12566126281E+02  0.17960688715E+02  0.24835904043E+02  0.33125760345E+02  0.00000000000E+00 0.  1.
<scales pt_clust_5="13000.00000" pt_clust_6="13000.00000" pt_clust_7="13000.00000" pt_clust_8="13000.00000" pt_clust_9="21.92017"></scales>
<clustering>
<clus scale="   21.920">  1  9  2 -1</clus>
<clus scale="   90.242">  5  6 -1 -1</clus>
<clus scale="   90.883">  7  8 -1 -1</clus>
<clus scale="   91.667">  2  5  1 -1</clus>
<clus scale="   91.667">  2  5  1 -1</clus>
</clustering>
</event>
<event>
 9    1  0.1435532E-005  0.2490877E+03  0.7546771E-02  0.1113981E+00
         -1   -1    0    0    0  501 -0.00000000000E+00  0.00000000000E+00  0.71330811440E+03  0.71330811440E+03  0.00000000000E+00 0.  1.
          1   -1    0    0  502    0  0.00000000000E+00 -0.00000000000E+00 -0.26069568592E+03  0.26069568592E+03  0.00000000000E+00 0. -1.
         23    2    1    2    0    0 -0.26698474788E+03  0.27450545486E+01  0.58457292367E+03  0.64853548663E+03  0.87088365465E+02 0.  0.
         23    2    1    2    0    0  0.12320446729E+03  0.16985586235E+02 -0.50499745278E+02  0.15904138964E+03  0.85299990882E+02 0.  0.
        -11    1    3    3    0    0 -0.15963998338E+03  0.28571302787E+02  0.26785904535E+03  0.31312890607E+03  0.00000000000E+00 0.  1.
         11    1    3    3    0    0 -0.10734476450E+03 -0.25826248239E+02  0.31671387832E+03  0.33540658056E+03  0.00000000000E+00 0. -1.
        -13    1    4    4    0    0  0.79579431013E+01 -0.24389290350E+02  0.21685925677E+01  0.25746245083E+02  0.00000000000E+00 0.  1.
         13    1    4    4    0    0  0.11524652419E+03  0.41374876585E+02 -0.52668337846E+02  0.13329514456E+03  0.00000000000E+00 0. -1.
         21    1    1    2  502  501  0.14378028059E+03 -0.19730640783E+02 -0.81460749909E+02  0.16642692405E+03  0.00000000000E+00 0. -1.
<scales pt_clust_5="13000.00000" pt_clust_6="13000.00000" pt_clust_7="13000.00000" pt_clust_8="13000.00000" pt_clust_9="145.12776"></scales>
<clustering>
<clus scale="   85.300">  7  8 -1 -1</clus>
<clus scale="   87.088">  5  6 -1 -1</clus>
<clus scale="  145.128">  2  9  1 -1</clus>
<clus scale="  248.468">  2  7  1 -1</clus>
<clus scale="  145.128">  2  5  1 -1</clus>
</clustering>
</event>
<event>
 9    1  0.1435532E-005  0.9886695E+02  0.7546771E-02  0.1284273E+00
         -2   -1    0    0    0  501 -0.00000000000E+00  0.00000000000E+00  0.15401530328E+03  0.15401530328E+03  0.00000000000E+00 0.  1.
          2   -1    0    0  502    0  0.00000000000E+00 -0.00000000000E+00 -0.35964794534E+03  0.35964794534E+03  0.00000000000E+00 0. -1.
         23    2    1    2    0    0 -0.30784547086E+02  0.10844095098E+02  0.11970290038E+03  0.15293282534E+03  0.89411307832E+02 0.  0.
         23    2    1    2    0    0  0.56384547975E+02 -0.17168802117E+02 -0.16434599585E+03  0.19759552181E+03  0.92522423602E+02 0.  0.
        -11    1    4    4    0    0  0.23731179897E+02  0.21286048402E+02 -0.13608851372E+03  0.13977248771E+03  0.00000000000E+00 0. -1.
         11    1    4    4    0    0  0.32653368079E+02 -0.38454850519E+02 -0.28257482138E+02  0.57823034097E+02  0.00000000000E+00 0.  1.
        -13    1    3    3    0    0  0.20036392570E+02 -0.24160052218E+02  0.26112730473E+02  0.40829399251E+02  0.00000000000E+00 0. -1.
         13    1    3    3    0    0 -0.50820939656E+02  0.35004147317E+02  0.93590169910E+02  0.11210342609E+03  0.00000000000E+00 0.  1.
         21    1    1    2  502  501 -0.25600000890E+02  0.63247070189E+01 -0.16098954660E+03  0.16313490147E+03  0.00000000000E+00 0. -1.
<scales pt_clust_5="13000.00000" pt_clust_6="13000.00000" pt_clust_7="13000.00000" pt_clust_8="13000.00000" pt_clust_9="26.36972"></scales>
<clustering>
<clus scale="   26.370">  2  9  1 -1</clus>
<clus scale="   89.411">  7  8 -1 -1</clus>
<clus scale="   92.522">  5  6 -1 -1</clus>
<clus scale="   95.962">  1  7  2 -1</clus>
<clus scale="   26.370">  2  5  1 -1</clus>
</clustering>
</event>
<event>
 9    1  0.1435532E-005  0.2050773E+03  0.7546771E-02  0.1164025E+00
          3   -1    0    0  502    0  0.00000000000E+00  0.00000000000E+00  0.18753738762E+03  0.18753738762E+03  0.00000000000E+00 0. -1.
         -3   -1    0    0    0  501 -0.00000000000E+00 -0.00000000000E+00 -0.48158603155E+03  0.48158603155E+03  0.00000000000E+00 0.  1.
         23    2    1    2    0    0  0.12505351727E+03 -0.10535267880E+03 -0.18962896572E+03  0.26613009654E+03  0.90158274908E+02 0.  0.
         23    2    1    2    0    0  0.91142685017E+02  0.33347626406E+02  0.33094384196E+02  0.13684366020E+03  0.90619511437E+02 0.  0.
        -11    1    4    4    0    0 -0.85992645449E+01  0.31798437934E+02  0.10365633861E+02  0.34533090957E+02  0.00000000000E+00 0.  1.
         11    1    4    4    0    0  0.99741949562E+02  0.15491884720E+01  0.22728750334E+02  0.10231056924E+03  0.00000000000E+00 0. -1.
        -13    1    3    3    0    0  0.10991644814E+02 -0.31440503978E+02 -0.94589052566E+02  0.10028165541E+03  0.00000000000E+00 0.  1.
         13    1    3    3    0    0  0.11406187245E+03 -0.73912174821E+02 -0.95039913156E+02  0.16584844113E+03  0.00000000000E+00 0. -1.
         21    1    1    2  502  501 -0.21619620228E+03  0.72005052393E+02 -0.13751406240E+03  0.26614966242E+03  0.00000000000E+00 0.  1.
<scales pt_clust_5="13000.00000" pt_clust_6="13000.00000" pt_clust_7="13000.00000" pt_clust_8="13000.00000" pt_clust_9="184.19604"></scales>
<clustering>
<clus scale="   90.158">  7  8 -1 -1</clus>
<clus scale="   90.620">  5  6 -1 -1</clus>
<clus scale="  132.782">  1  5  2 -1</clus>
<clus scale="  184.196">  1  9  2 -1</clus>
<clus scale="  132.782">  1  5  2 -1</clus>
</clustering>
</event>
<event>
 9    1  0.1435532E-005  0.1205240E+03  0.7546771E-02  0.1245701E+00
          1   -1    0    0  502    0  0.00000000000E+00  0.00000000000E+00  0.34553950918E+03  0.34553950918E+03  0.00000000000E+00 0. -1.
         -1   -1    0    0    0  501 -0.00000000000E+00 -0.00000000000E+00 -0.84385604393E+02  0.84385604393E+02  0.00000000000E+00 0.  1.
         23    2    1    2    0    0  0.53057110396E+02  0.50310774263E+02 -0.11937910506E+02  0.12349385846E+03  0.98802775267E+02 0.  0.
         23    2    1    2    0    0 -0.55335721343E+02 -0.17482097899E+02  0.20327398764E+03  0.22924678052E+03  0.88691073530E+02 0.  0.
        -11    1    3    3    0    0  0.75482150948E+02  0.91973534159E+01 -0.89824679417E+01  0.76569126623E+02  0.00000000000E+00 0.  1.
         11    1    3    3    0    0 -0.22425040552E+02  0.41113420847E+02 -0.29554425647E+01  0.46924731840E+02  0.00000000000E+00 0. -1.
        -11    1    4    4    0    0 -0.38273640920E+02  0.26757300695E+02  0.15374254857E+03  0.16067854857E+03  0.00000000000E+00 0. -1.
         11    1    4    4    0    0 -0.17062080423E+02 -0.44239398595E+02  0.49531439073E+02  0.68568231952E+02  0.00000000000E+00 0.  1.
         21    1    1    2  502  501  0.22786109478E+01 -0.32828676364E+02  0.69817827654E+02  0.77184474591E+02  0.00000000000E+00 0. -1.
<scales pt_clust_5="13000.00000" pt_clust_6="13000.00000" pt_clust_7="13000.00000" pt_clust_8="13000.00000" pt_clust_9="32.90766"></scales>
<clustering>
<clus scale="   32.908">  1  9  2 -1</clus>
<clus scale="   88.691">  7  8 -1 -1</clus>
<clus scale="   98.803">  5  6 -1 -1</clus>
<clus scale="  112.384">  1  7  2 -1</clus>
<clus scale="   32.908">  1  5  2 -1</clus>
</clustering>
</event>
<event>
 9    1  0.1435532E-005  0.1737322E+03  0.7546771E-02  0.1176674E+00
          1   -1    0    0  502    0  0.00000000000E+00  0.00000000000E+00  0.30801730238E+03  0.30801730238E+03  0.00000000000E+00 0. -1.
         -1   -1    0    0    0  501 -0.00000000000E+00 -0.00000000000E+00 -0.17005252088E+03  0.17005252088E+03  0.00000000000E+00 0.  1.
         23    2    1    2    0    0  0.13748883974E+03 -0.54275648964E+02 -0.46175917607E+02  0.17023498019E+03  0.70701527501E+02 0.  0.
         23    2    1    2    0    0 -0.12716648876E+03  0.75964018417E+02  0.64537509769E+02  0.18584361716E+03  0.91819997345E+02 0.  0.
        -11    1    3    3    0    0  0.50516922872E+02  0.14922521933E+02 -0.16520633149E+02  0.55204822950E+02  0.00000000000E+00 0. -1.
         11    1    3    3    0    0  0.86971916871E+02 -0.69198170896E+02 -0.29655284458E+02  0.11503015725E+03  0.00000000000E+00 0.  1.
        -13    1    4    4    0    0 -0.53941269336E+02  0.77812497000E+02  0.60755600030E+02  0.11249750291E+03  0.00000000000E+00 0. -1.
         13    1    4    4    0    0 -0.73225219428E+02 -0.18484785830E+01  0.37819097389E+01  0.73346114243E+02  0.00000000000E+00 0.  1.
         21    1    1    2  502  501 -0.10322350979E+02 -0.21688369453E+02  0.11960318933E+03  0.12199122591E+03  0.00000000000E+00 0.  1.
<scales pt_clust_5="13000.00000" pt_clust_6="13000.00000" pt_clust_7="13000.00000" pt_clust_8="13000.00000" pt_clust_9="24.01950"></scales>
<clustering>
<clus scale="   24.019">  1  9  2 -1</clus>
<clus scale="   70.702">  5  6 -1 -1</clus>
<clus scale="   91.820">  7  8 -1 -1</clus>
<clus scale="  163.556">  2  5  1 -1</clus>
<clus scale="   24.019">  1  5  2 -1</clus>
</clustering>
</event>
<event>
 9    1  0.1435532E-005  0.1881120E+03  0.7546771E-02  0.1182704E+00
          3   -1    0    0  502    0  0.00000000000E+00  0.00000000000E+00  0.11271691793E+03  0.11271691793E+03  0.00000000000E+00 0. -1.
         -3   -1    0    0    0  501 -0.00000000000E+00 -0.00000000000E+00 -0.56129482392E+03  0.56129482392E+03  0.00000000000E+00 0.  1.
         23    2    1    2    0    0 -0.86019543140E+00  0.66166824905E+02 -0.19681723678E+03  0.22670194300E+03  0.90983282043E+02 0.  0.
         23    2    1    2    0    0 -0.12233829495E+03 -0.15264946239E+03 -0.17759056517E+03  0.27950539202E+03  0.91193961165E+02 0.  0.
        -13    1    3    3    0    0 -0.86854389201E+01  0.85974519905E+02 -0.17963207884E+03  0.19933574359E+03  0.00000000000E+00 0.  1.
         13    1    3    3    0    0  0.78252434887E+01 -0.19807695000E+02 -0.17185157937E+02  0.27366199411E+02  0.00000000000E+00 0. -1.
        -13    1    4    4    0    0 -0.25959171423E+02 -0.19991171065E+02  0.60432765149E+01  0.33317363229E+02  0.00000000000E+00 0.  1.
         13    1    4    4    0    0 -0.96379123526E+02 -0.13265829132E+03 -0.18363384169E+03  0.24618802879E+03  0.00000000000E+00 0. -1.
         21    1    1    2  502  501  0.12319849038E+03  0.86482637483E+02 -0.74170104041E+02  0.16780440683E+03  0.00000000000E+00 0.  1.
<scales pt_clust_5="13000.00000" pt_clust_6="13000.00000" pt_clust_7="13000.00000" pt_clust_8="13000.00000" pt_clust_9="164.52894"></scales>
<clustering>
<clus scale="   90.983">  5  6 -1 -1</clus>
<clus scale="   91.194">  7  8 -1 -1</clus>
<clus scale="  112.502">  2  5  1 -1</clus>
<clus scale="  164.529">  1  9  2 -1</clus>
<clus scale="  164.529">  1  5  2 -1</clus>
</clustering>
</event>
<event>
 9    1  0.1435532E-005  0.1057700E+03  0.7546771E-02  0.1268818E+00
          1   -1    0    0  502    0  0.00000000000E+00  0.00000000000E+00  0.25433707129E+03  0.25433707129E+03  0.00000000000E+00 0. -1.
         -1   -1    0    0    0  501 -0.00000000000E+00 -0.00000000000E+00 -0.98515504043E+02  0.98515504043E+02  0.00000000000E+00 0.  1.
         23    2    1    2    0    0  0.65241619852E+02 -0.26379507319E+02  0.35760500496E+02  0.12070534081E+03  0.91316036580E+02 0.  0.
         23    2    1    2    0    0 -0.34971238165E+02 -0.54255588355E+02  0.61261011379E+02  0.12786031697E+03  0.91807912368E+02 0.  0.
        -11    1    3    3    0    0  0.26157924429E+02  0.32748037989E+02  0.13943644077E+01  0.41935846893E+02  0.00000000000E+00 0.  1.
         11    1    3    3    0    0  0.39083695422E+02 -0.59127545308E+02  0.34366136089E+02  0.78769493915E+02  0.00000000000E+00 0. -1.
        -13    1    4    4    0    0 -0.49973118360E+02  0.22372234505E+01  0.12054816690E+02  0.51455187618E+02  0.00000000000E+00 0.  1.
         13    1    4    4    0    0  0.15001880195E+02 -0.56492811806E+02  0.49206194690E+02  0.76405129350E+02  0.00000000000E+00 0. -1.
         21    1    1    2  502  501 -0.30270381687E+02  0.80635095675E+02  0.58800055373E+02  0.10428691756E+03  0.00000000000E+00 0.  1.
<scales pt_clust_5="13000.00000" pt_clust_6="13000.00000" pt_clust_7="13000.00000" pt_clust_8="13000.00000" pt_clust_9="86.12964"></scales>
<clustering>
<clus scale="   86.130">  1  9  2 -1</clus>
<clus scale="   91.316">  5  6 -1 -1</clus>
<clus scale="   91.808">  7  8 -1 -1</clus>
<clus scale="  105.343">  2  5  1 -1</clus>
<clus scale="   86.130">  1  5  2 -1</clus>
</clustering>
</event>
<event>
 9    1  0.1435532E-005  0.1035008E+03  0.7546771E-02  0.1274283E+00
          1   -1    0    0  502    0  0.00000000000E+00  0.00000000000E+00  0.33820720740E+03  0.33820720740E+03  0.00000000000E+00 0. -1.
         -1   -1    0    0    0  501 -0.00000000000E+00 -0.00000000000E+00 -0.10286301243E+03  0.10286301243E+03  0.00000000000E+00 0.  1.
         23    2    1    2    0    0  0.48283077099E+02 -0.12094170759E+02 -0.40499059723E+02  0.11178166876E+03  0.91528373376E+02 0.  0.
         23    2    1    2    0    0 -0.48274570500E+02 -0.53358976022E+02  0.17770621571E+03  0.21132672284E+03  0.88892464289E+02 0.  0.
        -11    1    4    4    0    0 -0.20739166975E+02 -0.55801702339E+02  0.42054625576E+02  0.72887135786E+02  0.00000000000E+00 0.  1.
         11    1    4    4    0    0 -0.27535403525E+02  0.24427263170E+01  0.13565159013E+03  0.13843958706E+03  0.00000000000E+00 0. -1.
        -13    1    3    3    0    0  0.17375559735E+02  0.27299601909E+02  0.16157879146E+02  0.36169813367E+02  0.00000000000E+00 0. -1.
         13    1    3    3    0    0  0.30907517363E+02 -0.39393772669E+02 -0.56656938868E+02  0.75611855397E+02  0.00000000000E+00 0.  1.
         21    1    1    2  502  501 -0.85065983937E-02  0.65453146781E+02  0.98137038989E+02  0.11796182822E+03  0.00000000000E+00 0. -1.
<scales pt_clust_5="13000.00000" pt_clust_6="13000.00000" pt_clust_7="13000.00000" pt_clust_8="13000.00000" pt_clust_9="65.45315"></scales>
<clustering>
<clus scale="   65.453">  1  9  2 -1</clus>
<clus scale="   88.892">  5  6 -1 -1</clus>
<clus scale="   91.528">  7  8 -1 -1</clus>
<clus scale="  101.177">  1  5  2 -1</clus>
<clus scale="   65.453">  1  5  2 -1</clus>
</clustering>
</event>
<event>
 9    1  0.1435532E-005  0.1731216E+03  0.7546771E-02  0.1174718E+00
         -1   -1    0    0    0  501 -0.00000000000E+00  0.00000000000E+00  0.30787678698E+03  0.30787678698E+03  0.00000000000E+00 0.  1.
          1   -1    0    0  502    0  0.00000000000E+00 -0.00000000000E+00 -0.19810836093E+03  0.19810836093E+03  0.00000000000E+00 0. -1.
         23    2    1    2    0    0  0.10415626100E+03 -0.14402658661E+02  0.32234285167E+02  0.14353750898E+03  0.92238842475E+02 0.  0.
         23    2    1    2    0    0 -0.20588927949E+03 -0.42470157691E+02  0.87571742809E+02  0.24546525674E+03  0.91598430247E+02 0.  0.
        -11    1    3    3    0    0  0.67851137847E+02  0.31529247548E+02 -0.35802878538E+01  0.74904531366E+02  0.00000000000E+00 0. -1.
         11    1    3    3    0    0  0.36305123155E+02 -0.45931906209E+02  0.35814573021E+02  0.68632977613E+02  0.00000000000E+00 0.  1.
        -13    1    4    4    0    0 -0.17685342219E+03 -0.44044562958E+01  0.47872490738E+02  0.18327113124E+03  0.00000000000E+00 0.  1.
         13    1    4    4    0    0 -0.29035857300E+02 -0.38065701395E+02  0.39699252071E+02  0.62194125501E+02  0.00000000000E+00 0. -1.
         21    1    1    2  502  501  0.10173301849E+03  0.56872816352E+02 -0.10037601930E+02  0.11698238219E+03  0.00000000000E+00 0. -1.
<scales pt_clust_5="13000.00000" pt_clust_6="13000.00000" pt_clust_7="13000.00000" pt_clust_8="13000.00000" pt_clust_9="116.55095"></scales>
<clustering>
<clus scale="   91.598">  7  8 -1 -1</clus>
<clus scale="   92.239">  5  6 -1 -1</clus>
<clus scale="  116.551">  2  9  1 -1</clus>
<clus scale="  172.781">  2  7  1 -1</clus>
<clus scale="  116.551">  2  5  1 -1</clus>
</clustering>
</event>
<event>
 9    1  0.1435532E-005  0.1597888E+03  0.7546771E-02  0.1189681E+00
         -2   -1    0    0    0  501 -0.00000000000E+00  0.00000000000E+00  0.44030680663E+03  0.44030680663E+03  0.00000000000E+00 0.  1.
          2   -1    0    0  502    0  0.00000000000E+00 -0.00000000000E+00 -0.98410248687E+02  0.98410248687E+02  0.00000000000E+00 0. -1.
         23    2    1    2    0    0  0.74161144764E+02  0.11344335212E+03  0.32201823261E+03  0.36113737407E+03  0.91406735444E+02 0.  0.
         23    2    1    2    0    0 -0.80274086349E+02 -0.87064186272E+02  0.27703150474E+02  0.14939357947E+03  0.86757567802E+02 0.  0.
        -13    1    3    3    0    0  0.77871571630E+02  0.54970825262E+02  0.25437532856E+03  0.27164789909E+03  0.00000000000E+00 0.  1.
         13    1    3    3    0    0 -0.37104268659E+01  0.58472526854E+02  0.67642904042E+02  0.89489474976E+02  0.00000000000E+00 0. -1.
        -13    1    4    4    0    0 -0.31531196761E+02 -0.21296264051E+02  0.51603536178E+02  0.64114523923E+02  0.00000000000E+00 0.  1.
         13    1    4    4    0    0 -0.48742889588E+02 -0.65767922221E+02 -0.23900385704E+02  0.85279055550E+02  0.00000000000E+00 0. -1.
         21    1    1    2  502  501  0.61129415851E+01 -0.26379165843E+02 -0.78248251324E+01  0.28186101784E+02  0.00000000000E+00 0. -1.
<scales pt_clust_5="13000.00000" pt_clust_6="13000.00000" pt_clust_7="13000.00000" pt_clust_8="13000.00000" pt_clust_9="27.07819"></scales>
<clustering>
<clus scale="   27.078">  2  9  1 -1</clus>
<clus scale="   86.758">  7  8 -1 -1</clus>
<clus scale="   91.407">  5  6 -1 -1</clus>
<clus scale="  157.176">  2  7  1 -1</clus>
<clus scale="   27.078">  2  5  1 -1</clus>
</clustering>
</event>
<event>
 9    1  0.1435532E-005  0.9896123E+02  0.7546771E-02  0.1285526E+00
          2   -1    0    0  502    0  0.00000000000E+00  0.00000000000E+00  0.18072056306E+03  0.18072056306E+03  0.00000000000E+00 0. -1.
         -2   -1    0    0    0  501 -0.00000000000E+00 -0.00000000000E+00 -0.77871888265E+02  0.77871888265E+02  0.00000000000E+00 0.  1.
         23    2    1    2    0    0 -0.89641232102E+01  0.10179511855E+02  0.23546836854E+01  0.97571292466E+02  0.96595210086E+02 0.  0.
         23    2    1    2    0    0  0.17824329675E+02 -0.34903986274E+02  0.85164459202E+02  0.13061067642E+03  0.90940467874E+02 0.  0.
        -13    1    4    4    0    0 -0.34753010482E+02 -0.19200732624E+02  0.17225841116E+02  0.43280127923E+02  0.00000000000E+00 0.  1.
         13    1    4    4    0    0  0.52577340157E+02 -0.15703253650E+02  0.67938618086E+02  0.87330548496E+02  0.00000000000E+00 0. -1.
        -13    1    3    3    0    0  0.93579367461E+01  0.27127884800E+02  0.41914024011E+02  0.50796442027E+02  0.00000000000E+00 0. -1.
         13    1    3    3    0    0 -0.18322059956E+02 -0.16948372945E+02 -0.39559340326E+02  0.46774850438E+02  0.00000000000E+00 0.  1.
         21    1    1    2  502  501 -0.88602064645E+01  0.24724474419E+02  0.15329531911E+02  0.30410482445E+02  0.00000000000E+00 0.  1.
<scales pt_clust_5="13000.00000" pt_clust_6="13000.00000" pt_clust_7="13000.00000" pt_clust_8="13000.00000" pt_clust_9="26.26410"></scales>
<clustering>
<clus scale="   26.264">  1  9  2 -1</clus>
<clus scale="   90.940">  5  6 -1 -1</clus>
<clus scale="   93.450">  1  5  2 -1</clus>
<clus scale="   96.595">  7  8 -1 -1</clus>
<clus scale="   26.264">  1  5  2 -1</clus>
</clustering>
</event>
<event>
 9    1  0.1435532E-005  0.1054161E+03  0.7546771E-02  0.1273810E+00
          1   -1    0    0  502    0  0.00000000000E+00  0.00000000000E+00  0.47816654296E+02  0.47816654296E+02  0.00000000000E+00 0. -1.
         -1   -1    0    0    0  501 -0.00000000000E+00 -0.00000000000E+00 -0.39761057463E+03  0.39761057463E+03  0.00000000000E+00 0.  1.
         23    2    1    2    0    0 -0.12659691808E+02  0.59354274557E+02 -0.19211268476E+03  0.21666429163E+03  0.79705294163E+02 0.  0.
         23    2    1    2    0    0 -0.33469242495E+02 -0.46959023699E+02 -0.14335886221E+03  0.17889660394E+03  0.90149273024E+02 0.  0.
        -11    1    3    3    0    0  0.29808272649E+02  0.43418682654E+02 -0.12520128044E+03  0.13582737480E+03  0.00000000000E+00 0.  1.
         11    1    3    3    0    0 -0.42467964457E+02  0.15935591903E+02 -0.66911404321E+02  0.80836916831E+02  0.00000000000E+00 0. -1.
        -13    1    4    4    0    0 -0.89346203773E+01 -0.35756196774E+02 -0.14711833146E+03  0.15166455255E+03  0.00000000000E+00 0.  1.
         13    1    4    4    0    0 -0.24534622117E+02 -0.11202826925E+02  0.37594692536E+01  0.27232051385E+02  0.00000000000E+00 0. -1.
         21    1    1    2  502  501  0.46128934302E+02 -0.12395250858E+02 -0.14322373366E+02  0.49866333358E+02  0.00000000000E+00 0.  1.
<scales pt_clust_5="13000.00000" pt_clust_6="13000.00000" pt_clust_7="13000.00000" pt_clust_8="13000.00000" pt_clust_9="47.76527"></scales>
<clustering>
<clus scale="   47.765">  1  9  2 -1</clus>
<clus scale="   79.705">  5  6 -1 -1</clus>
<clus scale="   90.149">  7  8 -1 -1</clus>
<clus scale="   96.636">  2  5  1 -1</clus>
<clus scale="   47.765">  1  5  2 -1</clus>
</clustering>
</event>
<event>
 9    1  0.1435532E-005  0.1026189E+03  0.7546771E-02  0.1275406E+00
          2   -1    0    0  502    0  0.00000000000E+00  0.00000000000E+00  0.38949705818E+03  0.38949705818E+03  0.00000000000E+00 0. -1.
         -2   -1    0    0    0  501 -0.00000000000E+00 -0.00000000000E+00 -0.63711278655E+02  0.63711278655E+02  0.00000000000E+00 0.  1.
         23    2    1    2    0    0  0.51522096200E+02 -0.27849373515E+02  0.30220446091E+02  0.11212666988E+03  0.90713839815E+02 0.  0.
         23    2    1    2    0    0 -0.15038667567E+02 -0.25965608469E+02  0.22636840965E+03  0.24613269586E+03  0.91860071524E+02 0.  0.
        -11    1    3    3    0    0  0.65106487862E+02  0.53854971595E+01  0.20522218775E+00  0.65329170035E+02  0.00000000000E+00 0.  1.
         11    1    3    3    0    0 -0.13584391662E+02 -0.33234870674E+02  0.30015223904E+02  0.46797499843E+02  0.00000000000E+00 0. -1.
        -13    1    4    4    0    0 -0.41841126298E+02  0.17664815281E+02  0.10850507044E+03  0.11762685008E+03  0.00000000000E+00 0. -1.
         13    1    4    4    0    0  0.26802458731E+02 -0.43630423750E+02  0.11786333920E+03  0.12850584578E+03  0.00000000000E+00 0.  1.
         21    1    1    2  502  501 -0.36483428633E+02  0.53814981984E+02  0.69196923787E+02  0.94948971097E+02  0.00000000000E+00 0. -1.
<scales pt_clust_5="13000.00000" pt_clust_6="13000.00000" pt_clust_7="13000.00000" pt_clust_8="13000.00000" pt_clust_9="65.01610"></scales>
<clustering>
<clus scale="   65.016">  1  9  2 -1</clus>
<clus scale="   90.714">  5  6 -1 -1</clus>
<clus scale="   91.860">  7  8 -1 -1</clus>
<clus scale="  101.594">  2  5  1 -1</clus>
<clus scale="   65.016">  1  5  2 -1</clus>
</clustering>
</event>
<event>
 9    1  0.1435532E-005  0.2306397E+03  0.7546771E-02  0.1127250E+00
          1   -1    0    0  502    0  0.00000000000E+00  0.00000000000E+00  0.94240925607E+03  0.94240925607E+03  0.00000000000E+00 0. -1.
         -1   -1    0    0    0  501 -0.00000000000E+00 -0.00000000000E+00 -0.80095917846E+02  0.80095917846E+02  0.00000000000E+00 0.  1.
         23    2    1    2    0    0  0.19785865000E+03 -0.62869476476E+02  0.18644007021E+03  0.29403153688E+03  0.92703982895E+02 0.  0.
         23    2    1    2    0    0 -0.20132538934E+03  0.88898641991E+02  0.51249405954E+03  0.56299765237E+03  0.76689729282E+02 0.  0.
        -11    1    4    4    0    0 -0.19826961723E+02 -0.57454251917E+01  0.10467723124E+03  0.10669321001E+03  0.00000000000E+00 0.  1.
         11    1    4    4    0    0 -0.18149842762E+03  0.94644067183E+02  0.40781682829E+03  0.45630444236E+03  0.00000000000E+00 0. -1.
        -13    1    3    3    0    0  0.18630823427E+03 -0.25249811173E+02  0.15402615382E+03  0.24304807586E+03  0.00000000000E+00 0.  1.
         13    1    3    3    0    0  0.11550415735E+02 -0.37619665303E+02  0.32413916394E+02  0.50983461016E+02  0.00000000000E+00 0. -1.
         21    1    1    2  502  501  0.34667393370E+01 -0.26029165515E+02  0.16337920847E+03  0.16547598466E+03  0.00000000000E+00 0.  1.
<scales pt_clust_5="13000.00000" pt_clust_6="13000.00000" pt_clust_7="13000.00000" pt_clust_8="13000.00000" pt_clust_9="26.25901"></scales>
<clustering>
<clus scale="   26.259">  1  9  2 -1</clus>
<clus scale="   76.690">  5  6 -1 -1</clus>
<clus scale="   92.704">  7  8 -1 -1</clus>
<clus scale="  224.682">  1  5  2 -1</clus>
<clus scale="   26.259">  1  5  2 -1</clus>
</clustering>
</event>
<event>
 9    1  0.1435532E-005  0.1601628E+03  0.7546771E-02  0.1188887E+00
         -2   -1    0    0    0  501 -0.00000000000E+00  0.00000000000E+00  0.20724375320E+03  0.20724375320E+03  0.00000000000E+00 0.  1.
          2   -1    0    0  502    0  0.00000000000E+00 -0.00000000000E+00 -0.40451571644E+03  0.40451571644E+03  0.00000000000E+00 0. -1.
         23    2    1    2    0    0  0.30888149534E+02 -0.16699040741E+03  0.96462404836E+02  0.21536147802E+03  0.90750739496E+02 0.  0.
         23    2    1    2    0    0 -0.41735118406E+02  0.63721267330E+02 -0.47726569626E+02  0.12937363145E+03  0.93045639593E+02 0.  0.
        -11    1    4    4    0    0  0.23282853101E+02  0.42579418058E+02 -0.34990899043E+02  0.59828597731E+02  0.00000000000E+00 0.  1.
         11    1    4    4    0    0 -0.65017971507E+02  0.21141849272E+02 -0.12735670584E+02  0.69545033717E+02  0.00000000000E+00 0. -1.
        -11    1    3    3    0    0  0.22034942166E+02  0.23732262100E+01  0.51741712567E+01  0.22758359499E+02  0.00000000000E+00 0. -1.
         11    1    3    3    0    0  0.88532073686E+01 -0.16936363362E+03  0.91288233580E+02  0.19260311852E+03  0.00000000000E+00 0.  1.
         21    1    1    2  502  501  0.10846968872E+02  0.10326914008E+03 -0.24600779845E+03  0.26702436017E+03  0.00000000000E+00 0. -1.
<scales pt_clust_5="13000.00000" pt_clust_6="13000.00000" pt_clust_7="13000.00000" pt_clust_8="13000.00000" pt_clust_9="103.83724"></scales>
<clustering>
<clus scale="   90.751">  7  8 -1 -1</clus>
<clus scale="   93.046">  5  6 -1 -1</clus>
<clus scale="  103.837">  2  9  1 -1</clus>
<clus scale="  158.841">  1  7  2 -1</clus>
<clus scale="  103.837">  2  5  1 -1</clus>
</clustering>
</event>
<event>
 9    1  0.1435532E-005  0.1255391E+03  0.7546771E-02  0.1236209E+00
         -2   -1    0    0    0  501 -0.00000000000E+00  0.00000000000E+00  0.45597338771E+03  0.45597338771E+03  0.00000000000E+00 0.  1.
          2   -1    0    0  502    0  0.00000000000E+00 -0.00000000000E+00 -0.10239024357E+03  0.10239024357E+03  0.00000000000E+00 0. -1.
         23    2    1    2    0    0 -0.43459817724E+02  0.76332202548E+02  0.33899951918E+03  0.36115714767E+03  0.88308835376E+02 0.  0.
         23    2    1    2    0    0  0.93764154727E+02 -0.57751599857E+02 -0.12160473298E+02  0.13728143117E+03  0.81063865165E+02 0.  0.
        -11    1    4    4    0    0  0.16470766697E+02  0.19171502749E+02  0.77377083393E+01  0.26433024866E+02  0.00000000000E+00 0.  1.
         11    1    4    4    0    0  0.77293388030E+02 -0.76923102605E+02 -0.19898181637E+02  0.11084840630E+03  0.00000000000E+00 0. -1.
        -11    1    3    3    0    0  0.46251999467E+01  0.59780568179E+02  0.26275360737E+03  0.26950800915E+03  0.00000000000E+00 0.  1.
         11    1    3    3    0    0 -0.48085017671E+02  0.16551634368E+02  0.76245911810E+02  0.91649138525E+02  0.00000000000E+00 0. -1.
         21    1    1    2  502  501 -0.50304337002E+02 -0.18580602691E+02  0.26744098261E+02  0.59925052436E+02  0.00000000000E+00 0. -1.
<scales pt_clust_5="13000.00000" pt_clust_6="13000.00000" pt_clust_7="13000.00000" pt_clust_8="13000.00000" pt_clust_9="53.62616"></scales>
<clustering>
<clus scale="   53.626">  2  9  1 -1</clus>
<clus scale="   81.064">  5  6 -1 -1</clus>
<clus scale="   88.309">  7  8 -1 -1</clus>
<clus scale="  120.553">  2  5  1 -1</clus>
<clus scale="   53.626">  2  5  1 -1</clus>
</clustering>
</event>
<event>
 9    1  0.1435532E-005  0.1004945E+03  0.7546771E-02  0.1281695E+00
          2   -1    0    0  502    0  0.00000000000E+00  0.00000000000E+00  0.64249438459E+02  0.64249438459E+02  0.00000000000E+00 0. -1.
         -2   -1    0    0    0  501 -0.00000000000E+00 -0.00000000000E+00 -0.47476417398E+03  0.47476417398E+03  0.00000000000E+00 0.  1.
         23    2    1    2    0    0  0.11877402867E+02 -0.28523278121E+02 -0.35136706534E+03  0.36579963496E+03  0.96932493185E+02 0.  0.
         23    2    1    2    0    0  0.49663678473E+01  0.17309552599E+02 -0.94007454406E+02  0.13290684651E+03  0.92209234590E+02 0.  0.
        -11    1    3    3    0    0 -0.11085000875E+02 -0.60974015017E+02 -0.21142740875E+03  0.22032307397E+03  0.00000000000E+00 0. -1.
         11    1    3    3    0    0  0.22962403742E+02  0.32450736896E+02 -0.13993965659E+03  0.14547656099E+03  0.00000000000E+00 0.  1.
        -13    1    4    4    0    0 -0.11095029777E+02 -0.35747572270E+02 -0.28209477287E+02  0.46869640683E+02  0.00000000000E+00 0. -1.
         13    1    4    4    0    0  0.16061397624E+02  0.53057124869E+02 -0.65797977119E+02  0.86037205824E+02  0.00000000000E+00 0.  1.
         21    1    1    2  502  501 -0.16843770714E+02  0.11213725523E+02  0.34859784221E+02  0.40307130981E+02  0.00000000000E+00 0. -1.
<scales pt_clust_5="13000.00000" pt_clust_6="13000.00000" pt_clust_7="13000.00000" pt_clust_8="13000.00000" pt_clust_9="20.23512"></scales>
<clustering>
<clus scale="   20.235">  1  9  2 -1</clus>
<clus scale="   92.209">  7  8 -1 -1</clus>
<clus scale="   95.947">  1  7  2 -1</clus>
<clus scale="   96.932">  5  6 -1 -1</clus>
<clus scale="   20.235">  1  5  2 -1</clus>
</clustering>
</event>
<event>
 9    1  0.1435532E-005  0.1390166E+03  0.7546771E-02  0.1214905E+00
          2   -1    0    0  502    0  0.00000000000E+00  0.00000000000E+00  0.31964487651E+03  0.31964487651E+03  0.00000000000E+00 0. -1.
         -2   -1    0    0    0  501 -0.00000000000E+00 -0.00000000000E+00 -0.14844357405E+03  0.14844357405E+03  0.00000000000E+00 0.  1.
         23    2    1    2    0    0 -0.72679275431E+02  0.80885619845E+02 -0.81869403257E+02  0.16426768885E+03  0.91959305317E+02 0.  0.
         23    2    1    2    0    0  0.42854730707E+02 -0.70348549799E+02  0.14376169386E+03  0.19002711784E+03  0.93045335675E+02 0.  0.
        -11    1    3    3    0    0 -0.65889687079E+02  0.11741227074E+02 -0.63833339841E+02  0.92487850834E+02  0.00000000000E+00 0.  1.
         11    1    3    3    0    0 -0.67895883518E+01  0.69144392771E+02 -0.18036063416E+02  0.71779838013E+02  0.00000000000E+00 0. -1.
        -13    1    4    4    0    0  0.75879503060E+01 -0.66932912312E+02  0.13875697798E+03  0.15424360823E+03  0.00000000000E+00 0. -1.
         13    1    4    4    0    0  0.35266780401E+02 -0.34156374876E+01  0.50047158781E+01  0.35783509614E+02  0.00000000000E+00 0.  1.
         21    1    1    2  502  501  0.29824544724E+02 -0.10537070046E+02  0.10930901186E+03  0.11379364387E+03  0.00000000000E+00 0. -1.
<scales pt_clust_5="13000.00000" pt_clust_6="13000.00000" pt_clust_7="13000.00000" pt_clust_8="13000.00000" pt_clust_9="31.63121"></scales>
<clustering>
<clus scale="   31.631">  1  9  2 -1</clus>
<clus scale="   91.959">  5  6 -1 -1</clus>
<clus scale="   93.045">  7  8 -1 -1</clus>
<clus scale="  138.292">  2  5  1 -1</clus>
<clus scale="   31.631">  1  5  2 -1</clus>
</clustering>
</event>
<event>
 9    1  0.1435532E-005  0.9950259E+02  0.7546771E-02  0.1282259E+00
          1   -1    0    0  502    0  0.00000000000E+00  0.00000000000E+00  0.84431546585E+02  0.84431546585E+02  0.00000000000E+00 0. -1.
         -1   -1    0    0    0  501 -0.00000000000E+00 -0.00000000000E+00 -0.14816447989E+03  0.14816447989E+03  0.00000000000E+00 0.  1.
         23    2    1    2    0    0  0.39662087134E+02  0.57841941776E+01 -0.43889395847E+02  0.10811601009E+03  0.90311984315E+02 0.  0.
         23    2    1    2    0    0 -0.36021231362E+02 -0.27189317443E+02 -0.76318453106E+01  0.99568963462E+02  0.88424800425E+02 0.  0.
        -11    1    3    3    0    0  0.45772954902E+02 -0.27036033049E+02 -0.51346271324E+02  0.73909066171E+02  0.00000000000E+00 0.  1.
         11    1    3    3    0    0 -0.61108677680E+01  0.32820227227E+02  0.74568754761E+01  0.34206943914E+02  0.00000000000E+00 0. -1.
        -13    1    4    4    0    0 -0.22787249649E+02 -0.38213991140E+01  0.39246744443E+02  0.45543043235E+02  0.00000000000E+00 0. -1.
         13    1    4    4    0    0 -0.13233981713E+02 -0.23367918329E+02 -0.46878589754E+02  0.54025920226E+02  0.00000000000E+00 0.  1.
         21    1    1    2  502  501 -0.36408557720E+01  0.21405123266E+02 -0.12211692144E+02  0.24911052924E+02  0.00000000000E+00 0. -1.
<scales pt_clust_5="13000.00000" pt_clust_6="13000.00000" pt_clust_7="13000.00000" pt_clust_8="13000.00000" pt_clust_9="21.71256"></scales>
<clustering>
<clus scale="   21.713">  2  9  1 -1</clus>
<clus scale="   88.425">  7  8 -1 -1</clus>
<clus scale="   90.312">  5  6 -1 -1</clus>
<clus scale="   97.793">  1  7  2 -1</clus>
<clus scale="   97.793">  1  5  2 -1</clus>
</clustering>
</event>
<event>
 9    1  0.1435532E-005  0.9728515E+02  0.7546771E-02  0.1286904E+00
         -1   -1    0    0    0  501 -0.00000000000E+00  0.00000000000E+00  0.29032256912E+03  0.29032256912E+03  0.00000000000E+00 0.  1.
          1   -1    0    0  502    0  0.00000000000E+00 -0.00000000000E+00 -0.10137313929E+03  0.10137313929E+03  0.00000000000E+00 0. -1.
         23    2    1    2    0    0  0.43146985797E+02 -0.17014852347E+02  0.18112578151E+03  0.20836639728E+03  0.91971947931E+02 0.  0.
         23    2    1    2    0    0 -0.95868366364E+01 -0.10112961153E+02  0.64599019112E+02  0.11201560553E+03  0.90444918004E+02 0.  0.
        -11    1    4    4    0    0  0.31018544502E+02 -0.30857919540E+02  0.43761049368E+02  0.61882071258E+02  0.00000000000E+00 0.  1.
         11    1    4    4    0    0 -0.40605381139E+02  0.20744958387E+02  0.20837969743E+02  0.50133534275E+02  0.00000000000E+00 0. -1.
        -11    1    3    3    0    0  0.68167720275E+02 -0.29845738985E+02  0.13997039260E+03  0.15852229190E+03  0.00000000000E+00 0.  1.
         11    1    3    3    0    0 -0.25020734478E+02  0.12830886638E+02  0.41155388902E+02  0.49844105383E+02  0.00000000000E+00 0. -1.
         21    1    1    2  502  501 -0.33560149160E+02  0.27127813500E+02 -0.56775370789E+02  0.71313705591E+02  0.00000000000E+00 0. -1.
<scales pt_clust_5="13000.00000" pt_clust_6="13000.00000" pt_clust_7="13000.00000" pt_clust_8="13000.00000" pt_clust_9="43.15324"></scales>
<clustering>
<clus scale="   43.153">  2  9  1 -1</clus>
<clus scale="   90.445">  5  6 -1 -1</clus>
<clus scale="   91.972">  7  8 -1 -1</clus>
<clus scale="   95.843">  2  5  1 -1</clus>
<clus scale="   43.153">  2  5  1 -1</clus>
</clustering>
</event>
<event>
 9    1  0.1435532E-005  0.1003364E+03  0.7546771E-02  0.1285460E+00
         -2   -1    0    0    0  501 -0.00000000000E+00  0.00000000000E+00  0.46832549614E+02  0.46832549614E+02  0.00000000000E+00 0.  1.
          2   -1    0    0  502    0  0.00000000000E+00 -0.00000000000E+00 -0.43813841209E+03  0.43813841209E+03  0.00000000000E+00 0. -1.
         23    2    1    2    0    0  0.16775762730E+00 -0.38274868644E+02 -0.37407851807E+02  0.10728792805E+03  0.92985796857E+02 0.  0.
         23    2    1    2    0    0 -0.35074820723E+02  0.31967075266E+02 -0.28496237061E+03  0.30015617520E+03  0.81474167043E+02 0.  0.
        -11    1    4    4    0    0 -0.19470974143E+02 -0.24985613468E+02 -0.14176409746E+03  0.14525997054E+03  0.00000000000E+00 0.  1.
         11    1    4    4    0    0 -0.15603846580E+02  0.56952688734E+02 -0.14319827316E+03  0.15489620466E+03  0.00000000000E+00 0. -1.
        -13    1    3    3    0    0  0.42893644707E+02 -0.81898668453E+01 -0.33214423480E+02  0.54864711813E+02  0.00000000000E+00 0. -1.
         13    1    3    3    0    0 -0.42725887080E+02 -0.30085001799E+02 -0.41934283267E+01  0.52423216241E+02  0.00000000000E+00 0.  1.
         21    1    1    2  502  501  0.34907063095E+02  0.63077933779E+01 -0.68935640056E+02  0.77526858450E+02  0.00000000000E+00 0. -1.
<scales pt_clust_5="13000.00000" pt_clust_6="13000.00000" pt_clust_7="13000.00000" pt_clust_8="13000.00000" pt_clust_9="35.47240"></scales>
<clustering>
<clus scale="   35.472">  2  9  1 -1</clus>
<clus scale="   81.474">  5  6 -1 -1</clus>
<clus scale="   89.772">  2  5  1 -1</clus>
<clus scale="   92.986">  7  8 -1 -1</clus>
<clus scale="   35.472">  2  5  1 -1</clus>
</clustering>
</event>
<event>
 9    1  0.1435532E-005  0.9649617E+02  0.7546771E-02  0.1289766E+00
         -2   -1    0    0    0  501 -0.00000000000E+00  0.00000000000E+00  0.52652395486E+02  0.52652395486E+02  0.00000000000E+00 0.  1.
          2   -1    0    0  502    0  0.00000000000E+00 -0.00000000000E+00 -0.31411634742E+03  0.31411634742E+03  0.00000000000E+00 0. -1.
         23    2    1    2    0    0 -0.34969771715E+02 -0.21946215189E+02 -0.51224707427E+02  0.11085736578E+03  0.89223671752E+02 0.  0.
         23    2    1    2    0    0 -0.29929708823E+01  0.13661584405E+02 -0.91847664548E+02  0.13130651712E+03  0.92789068281E+02 0.  0.
        -11    1    3    3    0    0  0.13159971333E+02 -0.17307507893E+02  0.16745213320E+02  0.27443338793E+02  0.00000000000E+00 0. -1.
         11    1    3    3    0    0 -0.48129743047E+02 -0.46387072963E+01 -0.67969920748E+02  0.83414026983E+02  0.00000000000E+00 0.  1.
        -11    1    4    4    0    0 -0.28146835835E+02  0.15023579664E+02  0.40445687406E+01  0.32160703502E+02  0.00000000000E+00 0.  1.
         11    1    4    4    0    0  0.25153864953E+02 -0.13619952588E+01 -0.95892233289E+02  0.99145813620E+02  0.00000000000E+00 0. -1.
         21    1    1    2  502  501  0.37962742597E+02  0.82846307846E+01 -0.11839157996E+03  0.12460486001E+03  0.00000000000E+00 0. -1.
<scales pt_clust_5="13000.00000" pt_clust_6="13000.00000" pt_clust_7="13000.00000" pt_clust_8="13000.00000" pt_clust_9="38.85621"></scales>
<clustering>
<clus scale="   38.856">  2  9  1 -1</clus>
<clus scale="   89.224">  5  6 -1 -1</clus>
<clus scale="   92.789">  7  8 -1 -1</clus>
<clus scale="   93.073">  1  5  2 -1</clus>
<clus scale="   38.856">  2  5  1 -1</clus>
</clustering>
</event>
<event>
 9    1  0.1435532E-005  0.1090166E+03  0.7546771E-02  0.1262776E+00
          2   -1    0    0  502    0  0.00000000000E+00  0.00000000000E+00  0.19792142729E+03  0.19792142729E+03  0.00000000000E+00 0. -1.
         -2   -1    0    0    0  501 -0.00000000000E+00 -0.00000000000E+00 -0.14311947471E+03  0.14311947471E+03  0.00000000000E+00 0.  1.
         23    2    1    2    0    0 -0.44196276689E+02 -0.53030986134E+02 -0.79905301458E+02  0.14035736712E+03  0.92464787574E+02 0.  0.
         23    2    1    2    0    0  0.24962649612E+02  0.28173851706E+01  0.82951878127E+02  0.12605138987E+03  0.91525227504E+02 0.  0.
        -13    1    4    4    0    0 -0.22710514069E+02  0.22192578346E+02  0.42751128128E+01  0.32039890332E+02  0.00000000000E+00 0.  1.
         13    1    4    4    0    0  0.47673163681E+02 -0.19375193175E+02  0.78676765315E+02  0.94011499543E+02  0.00000000000E+00 0. -1.
        -13    1    3    3    0    0  0.20987615469E+02 -0.17761722917E+02  0.46864654783E+01  0.27891248856E+02  0.00000000000E+00 0. -1.
         13    1    3    3    0    0 -0.65183892158E+02 -0.35269263217E+02 -0.84591766936E+02  0.11246611827E+03  0.00000000000E+00 0.  1.
         21    1    1    2  502  501  0.19233627077E+02  0.50213600964E+02  0.51755375908E+02  0.74632145002E+02  0.00000000000E+00 0.  1.
<scales pt_clust_5="13000.00000" pt_clust_6="13000.00000" pt_clust_7="13000.00000" pt_clust_8="13000.00000" pt_clust_9="53.77116"></scales>
<clustering>
<clus scale="   53.771">  1  9  2 -1</clus>
<clus scale="   91.525">  5  6 -1 -1</clus>
<clus scale="   92.465">  7  8 -1 -1</clus>
<clus scale="  108.221">  1  5  2 -1</clus>
<clus scale="   53.771">  1  5  2 -1</clus>
</clustering>
</event>
<event>
 9    1  0.1435532E-005  0.9496396E+02  0.7546771E-02  0.1293732E+00
          1   -1    0    0  502    0  0.00000000000E+00  0.00000000000E+00  0.10093727570E+03  0.10093727570E+03  0.00000000000E+00 0. -1.
         -1   -1    0    0    0  501 -0.00000000000E+00 -0.00000000000E+00 -0.20224716722E+03  0.20224716722E+03  0.00000000000E+00 0.  1.
         23    2    1    2    0    0  0.26282209985E+02 -0.20303322084E+02 -0.12179745661E+03  0.15625141010E+03  0.92070099768E+02 0.  0.
         23    2    1    2    0    0  0.21613017957E+02  0.17666299205E+02 -0.59269502978E+01  0.92173254039E+02  0.87644505518E+02 0.  0.
        -11    1    3    3    0    0  0.18188680760E+01 -0.25221974514E+02 -0.12805329454E+03  0.13052625223E+03  0.00000000000E+00 0.  1.
         11    1    3    3    0    0  0.24463341909E+02  0.49186524301E+01  0.62558379279E+01  0.25725157866E+02  0.00000000000E+00 0. -1.
        -13    1    4    4    0    0  0.42479939661E+02  0.68733406687E+01 -0.34519711638E+02  0.55167006237E+02  0.00000000000E+00 0.  1.
         13    1    4    4    0    0 -0.20866921703E+02  0.10792958536E+02  0.28592761340E+02  0.37006247802E+02  0.00000000000E+00 0. -1.
         21    1    1    2  502  501 -0.47895227942E+02  0.26370228794E+01  0.26414515394E+02  0.54759778786E+02  0.00000000000E+00 0. -1.
<scales pt_clust_5="13000.00000" pt_clust_6="13000.00000" pt_clust_7="13000.00000" pt_clust_8="13000.00000" pt_clust_9="47.96777"></scales>
<clustering>
<clus scale="   47.968">  1  9  2 -1</clus>
<clus scale="   87.645">  7  8 -1 -1</clus>
<clus scale="   90.680">  1  7  2 -1</clus>
<clus scale="   92.070">  5  6 -1 -1</clus>
<clus scale="   47.968">  1  5  2 -1</clus>
</clustering>
</event>
<event>
 9    1  0.1435532E-005  0.1557936E+03  0.7546771E-02  0.1193764E+00
         -2   -1    0    0    0  501 -0.00000000000E+00  0.00000000000E+00  0.14218166403E+03  0.14218166403E+03  0.00000000000E+00 0.  1.
          2   -1    0    0  502    0  0.00000000000E+00 -0.00000000000E+00 -0.23311421770E+03  0.23311421770E+03  0.00000000000E+00 0. -1.
         23    2    1    2    0    0 -0.73242231625E+02  0.89904240275E+02 -0.11047180222E+02  0.14750217193E+03  0.90485654228E+02 0.  0.
         23    2    1    2    0    0  0.10081676376E+03 -0.98354512686E+02 -0.28803659333E+02  0.16913279058E+03  0.89098933989E+02 0.  0.
        -11    1    3    3    0    0 -0.66668777628E+02  0.66398146753E+02  0.30843874283E+02  0.99019111203E+02  0.00000000000E+00 0.  1.
         11    1    3    3    0    0 -0.65734539973E+01  0.23506093521E+02 -0.41891054505E+02  0.48483060729E+02  0.00000000000E+00 0. -1.
        -11    1    4    4    0    0  0.93421031915E+02 -0.30353379117E+02 -0.18597958333E+02  0.99973500899E+02  0.00000000000E+00 0.  1.
         11    1    4    4    0    0  0.73957318412E+01 -0.68001133568E+02 -0.10205700999E+02  0.69159289679E+02  0.00000000000E+00 0. -1.
         21    1    1    2  502  501 -0.27574532130E+02  0.84502724109E+01 -0.51081714116E+02  0.58660919214E+02  0.00000000000E+00 0. -1.
<scales pt_clust_5="13000.00000" pt_clust_6="13000.00000" pt_clust_7="13000.00000" pt_clust_8="13000.00000" pt_clust_9="28.84028"></scales>
<clustering>
<clus scale="   28.840">  2  9  1 -1</clus>
<clus scale="   89.099">  7  8 -1 -1</clus>
<clus scale="   90.486">  5  6 -1 -1</clus>
<clus scale="  154.992">  2  7  1 -1</clus>
<clus scale="   28.840">  2  5  1 -1</clus>
</clustering>
</event>
<event>
 9    1  0.1435532E-005  0.1039774E+03  0.7546771E-02  0.1273179E+00
          1   -1    0    0  502    0  0.00000000000E+00  0.00000000000E+00  0.36652644600E+03  0.36652644600E+03  0.00000000000E+00 0. -1.
         -1   -1    0    0    0  501 -0.00000000000E+00 -0.00000000000E+00 -0.28448994957E+03  0.28448994957E+03  0.00000000000E+00 0.  1.
         23    2    1    2    0    0  0.32758457462E+02 -0.69861397732E+02 -0.20064168675E+03  0.23374586924E+03  0.91794953527E+02 0.  0.
         23    2    1    2    0    0 -0.47326396299E+01 -0.11256534925E+02 -0.28326956920E+02  0.94641075358E+02  0.89472952338E+02 0.  0.
        -11    1    4    4    0    0 -0.33234866887E+02 -0.35580047027E+02 -0.17806148690E+01  0.48720290566E+02  0.00000000000E+00 0.  1.
         11    1    4    4    0    0  0.28502227258E+02  0.24323512102E+02 -0.26546342051E+02  0.45920784792E+02  0.00000000000E+00 0. -1.
        -13    1    3    3    0    0  0.42150032406E+02  0.67356563874E+01 -0.67905325825E+02  0.80206780101E+02  0.00000000000E+00 0. -1.
         13    1    3    3    0    0 -0.93915749436E+01 -0.76597054120E+02 -0.13273636093E+03  0.15353908913E+03  0.00000000000E+00 0.  1.
         21    1    1    2  502  501 -0.28025817832E+02  0.81117932657E+02  0.31100514011E+03  0.32262945098E+03  0.00000000000E+00 0. -1.
<scales pt_clust_5="13000.00000" pt_clust_6="13000.00000" pt_clust_7="13000.00000" pt_clust_8="13000.00000" pt_clust_9="85.82287"></scales>
<clustering>
<clus scale="   85.823">  1  9  2 -1</clus>
<clus scale="   89.473">  5  6 -1 -1</clus>
<clus scale="   91.795">  7  8 -1 -1</clus>
<clus scale="  101.933">  1  5  2 -1</clus>
<clus scale="   85.823">  1  5  2 -1</clus>
</clustering>
</event>
<event>
 9    1  0.1435532E-005  0.3377752E+03  0.7546771E-02  0.1067780E+00
         -2   -1    0    0    0  501 -0.00000000000E+00  0.00000000000E+00  0.52181496423E+03  0.52181496423E+03  0.00000000000E+00 0.  1.
          2   -1    0    0  502    0  0.00000000000E+00 -0.00000000000E+00 -0.28151104645E+03  0.28151104645E+03  0.00000000000E+00 0. -1.
         23    2    1    2    0    0 -0.20169222109E+03  0.27282214484E+03  0.16711897395E+03  0.38925473899E+03  0.92080538694E+02 0.  0.
         23    2    1    2    0    0  0.20675830154E+03 -0.23276452691E+03  0.12567374938E+03  0.34784927661E+03  0.90977512124E+02 0.  0.
        -13    1    4    4    0    0  0.14166557927E+03 -0.21362482680E+03  0.94669418433E+02  0.27325263359E+03  0.00000000000E+00 0.  1.
         13    1    4    4    0    0  0.65092722270E+02 -0.19139700107E+02  0.31004330944E+02  0.74596643021E+02  0.00000000000E+00 0. -1.
        -13    1    3    3    0    0 -0.64008486737E+02  0.99410852653E+02  0.10785291103E+03  0.16003704077E+03  0.00000000000E+00 0.  1.
         13    1    3    3    0    0 -0.13768373435E+03  0.17341129218E+03  0.59266062921E+02  0.22921769822E+03  0.00000000000E+00 0. -1.
         21    1    1    2  502  501 -0.50660804448E+01 -0.40057617925E+02 -0.52488805550E+02  0.66221995085E+02  0.00000000000E+00 0. -1.
<scales pt_clust_5="13000.00000" pt_clust_6="13000.00000" pt_clust_7="13000.00000" pt_clust_8="13000.00000" pt_clust_9="40.37670"></scales>
<clustering>
<clus scale="   40.377">  2  9  1 -1</clus>
<clus scale="   90.978">  5  6 -1 -1</clus>
<clus scale="   92.081">  7  8 -1 -1</clus>
<clus scale="  337.476">  2  5  1 -1</clus>
<clus scale="   40.377">  2  5  1 -1</clus>
</clustering>
</event>
<event>
 9    1  0.1435532E-005  0.1065406E+03  0.7546771E-02  0.1269736E+00
         -1   -1    0    0    0  501 -0.00000000000E+00  0.00000000000E+00  0.30540602245E+02  0.30540602245E+02  0.00000000000E+00 0.  1.
          1   -1    0    0  502    0  0.00000000000E+00 -0.00000000000E+00 -0.63363057984E+03  0.63363057984E+03  0.00000000000E+00 0. -1.
         23    2    1    2    0    0  0.49265447433E+02  0.69853944554E+01 -0.17850246269E+03  0.20622844431E+03  0.90505038582E+02 0.  0.
         23    2    1    2    0    0 -0.30201374256E+02  0.46662396221E+02 -0.32108487532E+03  0.33981432996E+03  0.96378314282E+02 0.  0.
        -11    1    3    3    0    0  0.31918046673E+02 -0.28208224905E+02 -0.15442713997E+03  0.16019427960E+03  0.00000000000E+00 0.  1.
         11    1    3    3    0    0  0.17347400759E+02  0.35193619361E+02 -0.24075322724E+02  0.46034164715E+02  0.00000000000E+00 0. -1.
        -13    1    4    4    0    0  0.15306570515E+01 -0.26869992549E+02 -0.45860227809E+02  0.53174240994E+02  0.00000000000E+00 0.  1.
         13    1    4    4    0    0 -0.31732031307E+02  0.73532388770E+02 -0.27522464751E+03  0.28664008897E+03  0.00000000000E+00 0. -1.
         21    1    1    2  502  501 -0.19064073177E+02 -0.53647790677E+02 -0.10350263958E+03  0.11812840781E+03  0.00000000000E+00 0.  1.
<scales pt_clust_5="13000.00000" pt_clust_6="13000.00000" pt_clust_7="13000.00000" pt_clust_8="13000.00000" pt_clust_9="56.93439"></scales>
<clustering>
<clus scale="   56.934">  1  9  2 -1</clus>
<clus scale="   90.505">  5  6 -1 -1</clus>
<clus scale="   96.378">  7  8 -1 -1</clus>
<clus scale="  101.258">  1  5  2 -1</clus>
<clus scale="  106.541">  2  5  1 -1</clus>
</clustering>
</event>
<event>
 9    1  0.1435532E-005  0.1784633E+03  0.7546771E-02  0.1169929E+00
          1   -1    0    0  502    0  0.00000000000E+00  0.00000000000E+00  0.10598956640E+04  0.10598956640E+04  0.00000000000E+00 0. -1.
         -1   -1    0    0    0  501 -0.00000000000E+00 -0.00000000000E+00 -0.53350801956E+02  0.53350801956E+02  0.00000000000E+00 0.  1.
         23    2    1    2    0    0 -0.96197066481E+01  0.11482063547E+03  0.30498893043E+03  0.33846469671E+03  0.90905369221E+02 0.  0.
         23    2    1    2    0    0  0.24825836941E+02 -0.19402786966E+03  0.31959882480E+03  0.38440215426E+03  0.85781530643E+02 0.  0.
        -11    1    4    4    0    0  0.48825065908E+02 -0.12932864352E+03  0.16605982783E+03  0.21606862686E+03  0.00000000000E+00 0.  1.
         11    1    4    4    0    0 -0.23999228967E+02 -0.64699226140E+02  0.15353899697E+03  0.16833352740E+03  0.00000000000E+00 0. -1.
        -13    1    3    3    0    0  0.30799114563E+02  0.11051221407E+02  0.45091919114E+02  0.55713518304E+02  0.00000000000E+00 0.  1.
         13    1    3    3    0    0 -0.40418821211E+02  0.10376941406E+03  0.25989701131E+03  0.28275117841E+03  0.00000000000E+00 0. -1.
         21    1    1    2  502  501 -0.15206130293E+02  0.79207234194E+02  0.38195710680E+03  0.39037961497E+03  0.00000000000E+00 0. -1.
<scales pt_clust_5="13000.00000" pt_clust_6="13000.00000" pt_clust_7="13000.00000" pt_clust_8="13000.00000" pt_clust_9="80.65366"></scales>
<clustering>
<clus scale="   80.654">  1  9  2 -1</clus>
<clus scale="   85.782">  5  6 -1 -1</clus>
<clus scale="   90.905">  7  8 -1 -1</clus>
<clus scale="  175.909">  1  5  2 -1</clus>
<clus scale="   80.654">  1  5  2 -1</clus>
</clustering>
</event>
<event>
 9    1  0.1435532E-005  0.1516346E+03  0.7546771E-02  0.1217199E+00
         -2   -1    0    0    0  501 -0.00000000000E+00  0.00000000000E+00  0.16378535986E+03  0.16378535986E+03  0.00000000000E+00 0.  1.
          2   -1    0    0  502    0  0.00000000000E+00 -0.00000000000E+00 -0.83647786200E+03  0.83647786200E+03  0.00000000000E+00 0. -1.
         23    2    1    2    0    0 -0.42420748243E+02 -0.91104925545E+00  0.12074135849E+03  0.15774852619E+03  0.92226742184E+02 0.  0.
         23    2    1    2    0    0  0.93504363741E+02 -0.94424430630E+02 -0.59521871073E+03  0.61671027776E+03  0.91581733720E+02 0.  0.
        -11    1    4    4    0    0  0.29217364844E+02 -0.28440870375E+02 -0.53775224715E+02  0.67485645209E+02  0.00000000000E+00 0.  1.
         11    1    4    4    0    0  0.64286998897E+02 -0.65983560255E+02 -0.54144348602E+03  0.54922463255E+03  0.00000000000E+00 0. -1.
        -13    1    3    3    0    0 -0.43982815210E+02  0.32478138147E+02  0.10965935239E+03  0.12253363236E+03  0.00000000000E+00 0.  1.
         13    1    3    3    0    0  0.15620669679E+01 -0.33389187403E+02  0.11082006094E+02  0.35214893833E+02  0.00000000000E+00 0. -1.
         21    1    1    2  502  501 -0.51083615498E+02  0.95335479885E+02 -0.19821514990E+03  0.22580441791E+03  0.00000000000E+00 0. -1.
<scales pt_clust_5="13000.00000" pt_clust_6="13000.00000" pt_clust_7="13000.00000" pt_clust_8="13000.00000" pt_clust_9="120.85464"></scales>
<clustering>
<clus scale="   91.582">  5  6 -1 -1</clus>
<clus scale="   92.227">  7  8 -1 -1</clus>
<clus scale="  101.519">  1  7  2 -1</clus>
<clus scale="  120.855">  1  9  2 -1</clus>
<clus scale="  151.635">  2  5  1 -1</clus>
</clustering>
</event>
<event>
 9    1  0.1435532E-005  0.1041659E+03  0.7546771E-02  0.1272957E+00
         -2   -1    0    0    0  501 -0.00000000000E+00  0.00000000000E+00  0.10340788545E+03  0.10340788545E+03  0.00000000000E+00 0.  1.
          2   -1    0    0  502    0  0.00000000000E+00 -0.00000000000E+00 -0.38512768143E+03  0.38512768143E+03  0.00000000000E+00 0. -1.
         23    2    1    2    0    0  0.40420205886E+02 -0.26298258963E+02  0.54810441089E+02  0.11886594308E+03  0.93805844720E+02 0.  0.
         23    2    1    2    0    0 -0.39757179399E+02 -0.89741346269E+01 -0.15256164018E+03  0.18234897360E+03  0.91186214485E+02 0.  0.
        -11    1    3    3    0    0  0.61437951782E+02  0.83005644796E+01  0.46605926597E+02  0.77560516268E+02  0.00000000000E+00 0.  1.
         11    1    3    3    0    0 -0.21017745895E+02 -0.34598823442E+02  0.82045144919E+01  0.41305426813E+02  0.00000000000E+00 0. -1.
        -11    1    4    4    0    0 -0.66946697971E+02 -0.17363198885E+02 -0.12429323269E+03  0.14223975793E+03  0.00000000000E+00 0. -1.
         11    1    4    4    0    0  0.27189518572E+02  0.83890642578E+01 -0.28268407498E+02  0.40109215671E+02  0.00000000000E+00 0.  1.
         21    1    1    2  502  501 -0.66302648713E+00  0.35272393590E+02 -0.18396859688E+03  0.18732065021E+03  0.00000000000E+00 0. -1.
<scales pt_clust_5="13000.00000" pt_clust_6="13000.00000" pt_clust_7="13000.00000" pt_clust_8="13000.00000" pt_clust_9="35.27862"></scales>
<clustering>
<clus scale="   35.279">  2  9  1 -1</clus>
<clus scale="   91.186">  7  8 -1 -1</clus>
<clus scale="   93.806">  5  6 -1 -1</clus>
<clus scale="  101.813">  2  7  1 -1</clus>
<clus scale="   35.279">  2  5  1 -1</clus>
</clustering>
</event>
<event>
 9    1  0.1435532E-005  0.1005359E+03  0.7546771E-02  0.1280536E+00
          1   -1    0    0  502    0  0.00000000000E+00  0.00000000000E+00  0.58955765679E+03  0.58955765679E+03  0.00000000000E+00 0. -1.
         -1   -1    0    0    0  501 -0.00000000000E+00 -0.00000000000E+00 -0.32116406202E+02  0.32116406202E+02  0.00000000000E+00 0.  1.
         23    2    1    2    0    0 -0.38856406027E+02  0.23114855431E+02  0.10502763948E+03  0.14707692033E+03  0.92502424886E+02 0.  0.
         23    2    1    2    0    0  0.44991615702E+01 -0.68132799213E+01  0.23180997070E+03  0.25073975999E+03  0.95225529599E+02 0.  0.
        -11    1    3    3    0    0  0.27385765879E+02  0.24255128996E+02  0.33922386881E+02  0.49890077040E+02  0.00000000000E+00 0. -1.
         11    1    3    3    0    0 -0.66242171906E+02 -0.11402735651E+01  0.71105252596E+02  0.97186843294E+02  0.00000000000E+00 0.  1.
        -13    1    4    4    0    0  0.31992106860E+02 -0.40804511819E+02  0.12717980771E+03  0.13734338926E+03  0.00000000000E+00 0. -1.
         13    1    4    4    0    0 -0.27492945289E+02  0.33991231898E+02  0.10463016300E+03  0.11339637073E+03  0.00000000000E+00 0.  1.
         21    1    1    2  502  501  0.34357244457E+02 -0.16301575510E+02  0.22060364041E+03  0.22385738266E+03  0.00000000000E+00 0. -1.
<scales pt_clust_5="13000.00000" pt_clust_6="13000.00000" pt_clust_7="13000.00000" pt_clust_8="13000.00000" pt_clust_9="38.02843"></scales>
<clustering>
<clus scale="   38.028">  1  9  2 -1</clus>
<clus scale="   92.502">  5  6 -1 -1</clus>
<clus scale="   95.226">  7  8 -1 -1</clus>
<clus scale="   97.961">  2  5  1 -1</clus>
<clus scale="   38.028">  1  5  2 -1</clus>
</clustering>
</event>
<event>
 9    1  0.1435532E-005  0.1173930E+03  0.7546771E-02  0.1249326E+00
          2   -1    0    0  502    0  0.00000000000E+00  0.00000000000E+00  0.53080444955E+03  0.53080444955E+03  0.00000000000E+00 0. -1.
         -2   -1    0    0    0  501 -0.00000000000E+00 -0.00000000000E+00 -0.30822265972E+03  0.30822265972E+03  0.00000000000E+00 0.  1.
         23    2    1    2    0    0 -0.67459794490E+02  0.10358133545E+02 -0.22835148667E+03  0.25722482214E+03  0.96757908505E+02 0.  0.
         23    2    1    2    0    0  0.46041857907E+02 -0.62240695428E+02 -0.73700820879E+01  0.12007455705E+03  0.91486743812E+02 0.  0.
        -11    1    3    3    0    0 -0.92046504293E+02  0.14814159715E+02 -0.17394434533E+03  0.19735413234E+03  0.00000000000E+00 0.  1.
         11    1    3    3    0    0  0.24586709803E+02 -0.44560261698E+01 -0.54407141340E+02  0.59870689798E+02  0.00000000000E+00 0. -1.
        -13    1    4    4    0    0  0.58955120847E+02 -0.78077337987E+02  0.13816093249E+01  0.97845213606E+02  0.00000000000E+00 0.  1.
         13    1    4    4    0    0 -0.12913262940E+02  0.15836642559E+02 -0.87516914128E+01  0.22229343442E+02  0.00000000000E+00 0. -1.
         21    1    1    2  502  501  0.21417936583E+02  0.51882561883E+02  0.45830335858E+03  0.46172773008E+03  0.00000000000E+00 0. -1.
<scales pt_clust_5="13000.00000" pt_clust_6="13000.00000" pt_clust_7="13000.00000" pt_clust_8="13000.00000" pt_clust_9="56.12957"></scales>
<clustering>
<clus scale="   56.130">  1  9  2 -1</clus>
<clus scale="   91.487">  7  8 -1 -1</clus>
<clus scale="   96.758">  5  6 -1 -1</clus>
<clus scale="  113.088">  1  7  2 -1</clus>
<clus scale="   56.130">  1  5  2 -1</clus>
</clustering>
</event>
<event>
 9    1  0.1435532E-005  0.2150119E+03  0.7546771E-02  0.1137851E+00
          1   -1    0    0  502    0  0.00000000000E+00  0.00000000000E+00  0.49852204274E+02  0.49852204274E+02  0.00000000000E+00 0. -1.
         -1   -1    0    0    0  501 -0.00000000000E+00 -0.00000000000E+00 -0.12825968457E+04  0.12825968457E+04  0.00000000000E+00 0.  1.
         23    2    1    2    0    0  0.83799387775E+02 -0.15725453993E+03 -0.53393719020E+03  0.57027692788E+03  0.91517887134E+02 0.  0.
         23    2    1    2    0    0 -0.66685268242E+02  0.20318506438E+03 -0.66052999740E+03  0.69998153089E+03  0.89124467673E+02 0.  0.
        -11    1    4    4    0    0 -0.54708338750E+02  0.44819286374E+02 -0.24969300734E+03  0.25951564245E+03  0.00000000000E+00 0.  1.
         11    1    4    4    0    0 -0.11976929492E+02  0.15836577800E+03 -0.41083699006E+03  0.44046588845E+03  0.00000000000E+00 0. -1.
        -13    1    3    3    0    0 -0.13119567296E+02 -0.61620710742E+02 -0.19851689879E+03  0.20827432425E+03  0.00000000000E+00 0.  1.
         13    1    3    3    0    0  0.96918955071E+02 -0.95633829193E+02 -0.33542029142E+03  0.36200260363E+03  0.00000000000E+00 0. -1.
         21    1    1    2  502  501 -0.17114119533E+02 -0.45930524442E+02 -0.38277453812E+02  0.62190591195E+02  0.00000000000E+00 0. -1.
<scales pt_clust_5="13000.00000" pt_clust_6="13000.00000" pt_clust_7="13000.00000" pt_clust_8="13000.00000" pt_clust_9="49.01537"></scales>
<clustering>
<clus scale="   49.015">  1  9  2 -1</clus>
<clus scale="   89.124">  5  6 -1 -1</clus>
<clus scale="   91.518">  7  8 -1 -1</clus>
<clus scale="  214.004">  1  5  2 -1</clus>
<clus scale="   49.015">  1  5  2 -1</clus>
</clustering>
</event>
<event>
 9    1  0.1435532E-005  0.1494891E+03  0.7546771E-02  0.1201351E+00
          2   -1    0    0  502    0  0.00000000000E+00  0.00000000000E+00  0.39606002463E+03  0.39606002463E+03  0.00000000000E+00 0. -1.
         -2   -1    0    0    0  501 -0.00000000000E+00 -0.00000000000E+00 -0.18701353009E+03  0.18701353009E+03  0.00000000000E+00 0.  1.
         23    2    1    2    0    0 -0.26068773830E+02  0.39663363524E+02 -0.11464231703E+03  0.15442006706E+03  0.91923516480E+02 0.  0.
         23    2    1    2    0    0  0.61886279805E+01 -0.12914300228E+03  0.29149157336E+03  0.33150160605E+03  0.90607744274E+02 0.  0.
        -11    1    4    4    0    0  0.30236643073E+02 -0.99554128595E+02  0.26603168545E+03  0.28565387581E+03  0.00000000000E+00 0. -1.
         11    1    4    4    0    0 -0.24048015093E+02 -0.29588873684E+02  0.25459887912E+02  0.45847730241E+02  0.00000000000E+00 0.  1.
        -13    1    3    3    0    0 -0.60800269115E+01  0.43387017397E+02 -0.12438407152E+03  0.13187417205E+03  0.00000000000E+00 0.  1.
         13    1    3    3    0    0 -0.19988746919E+02 -0.37236538733E+01  0.97417544863E+01  0.22545895015E+02  0.00000000000E+00 0. -1.
         21    1    1    2  502  501  0.19880145850E+02  0.89479638755E+02  0.32197238210E+02  0.97151881603E+02  0.00000000000E+00 0.  1.
<scales pt_clust_5="13000.00000" pt_clust_6="13000.00000" pt_clust_7="13000.00000" pt_clust_8="13000.00000" pt_clust_9="91.66147"></scales>
<clustering>
<clus scale="   90.608">  5  6 -1 -1</clus>
<clus scale="   91.661">  2  9  1 -1</clus>
<clus scale="   91.924">  7  8 -1 -1</clus>
<clus scale="  148.684">  1  5  2 -1</clus>
<clus scale="  148.684">  1  5  2 -1</clus>
</clustering>
</event>
<event>
 9    1  0.1435532E-005  0.1132869E+03  0.7546771E-02  0.1255734E+00
          2   -1    0    0  502    0  0.00000000000E+00  0.00000000000E+00  0.47266595377E+03  0.47266595377E+03  0.00000000000E+00 0. -1.
         -2   -1    0    0    0  501 -0.00000000000E+00 -0.00000000000E+00 -0.18447751591E+03  0.18447751591E+03  0.00000000000E+00 0.  1.
         23    2    1    2    0    0 -0.35642181982E+02  0.57505561212E+02 -0.14845225547E+03  0.18792276622E+03  0.93271856432E+02 0.  0.
         23    2    1    2    0    0 -0.28910246277E+02 -0.31919722879E+02  0.29501107054E+03  0.31148484461E+03  0.90203135381E+02 0.  0.
        -11    1    4    4    0    0 -0.39355283223E+02 -0.58544797797E+02  0.19090675192E+03  0.20352326549E+03  0.00000000000E+00 0. -1.
         11    1    4    4    0    0  0.10445036945E+02  0.26625074918E+02  0.10410431862E+03  0.10796157912E+03  0.00000000000E+00 0.  1.
        -13    1    3    3    0    0 -0.46195590624E+02 -0.78676024274E+01 -0.79777372048E+02  0.92522218152E+02  0.00000000000E+00 0.  1.
         13    1    3    3    0    0  0.10553408642E+02  0.65373163639E+02 -0.68674883423E+02  0.95400548066E+02  0.00000000000E+00 0. -1.
         21    1    1    2  502  501  0.64552428259E+02 -0.25585838332E+02  0.14162962280E+03  0.15773585886E+03  0.00000000000E+00 0. -1.
<scales pt_clust_5="13000.00000" pt_clust_6="13000.00000" pt_clust_7="13000.00000" pt_clust_8="13000.00000" pt_clust_9="69.43811"></scales>
<clustering>
<clus scale="   69.438">  1  9  2 -1</clus>
<clus scale="   90.203">  5  6 -1 -1</clus>
<clus scale="   93.272">  7  8 -1 -1</clus>
<clus scale="  110.774">  1  5  2 -1</clus>
<clus scale="   69.438">  1  5  2 -1</clus>
</clustering>
</event>
<event>
 9    1  0.1435532E-005  0.1887342E+03  0.7546771E-02  0.1161191E+00
          2   -1    0    0  502    0  0.00000000000E+00  0.00000000000E+00  0.12274437745E+04  0.12274437745E+04  0.00000000000E+00 0. -1.
         -2   -1    0    0    0  501 -0.00000000000E+00 -0.00000000000E+00 -0.65656144554E+02  0.65656144554E+02  0.00000000000E+00 0.  1.
         23    2    1    2    0    0  0.11906547952E+03  0.14981453863E+02  0.27367986247E+03  0.31641438036E+03  0.10400173365E+03 0.  0.
         23    2    1    2    0    0 -0.17318722553E+03 -0.12376609602E+03  0.31550763378E+03  0.39133592106E+03  0.91032271913E+02 0.  0.
        -11    1    3    3    0    0  0.82721196959E+01  0.24305046169E+02  0.57208442130E+01  0.26303826566E+02  0.00000000000E+00 0.  1.
         11    1    3    3    0    0  0.11079335983E+03 -0.93235923060E+01  0.26795901826E+03  0.29011055379E+03  0.00000000000E+00 0. -1.
        -13    1    4    4    0    0 -0.33774442329E+02 -0.41363013527E+02  0.15241115984E+03  0.16149542869E+03  0.00000000000E+00 0. -1.
         13    1    4    4    0    0 -0.13941278320E+03 -0.82403082491E+02  0.16309647393E+03  0.22984049237E+03  0.00000000000E+00 0.  1.
         21    1    1    2  502  501  0.54121746004E+02  0.10878464215E+03  0.57260013369E+03  0.58534961763E+03  0.00000000000E+00 0. -1.
<scales pt_clust_5="13000.00000" pt_clust_6="13000.00000" pt_clust_7="13000.00000" pt_clust_8="13000.00000" pt_clust_9="121.50416"></scales>
<clustering>
<clus scale="   91.032">  7  8 -1 -1</clus>
<clus scale="  104.002">  5  6 -1 -1</clus>
<clus scale="  121.504">  1  9  2 -1</clus>
<clus scale="  181.910">  1  7  2 -1</clus>
<clus scale="  121.504">  1  5  2 -1</clus>
</clustering>
</event>
<event>
 9    1  0.1435532E-005  0.9337568E+02  0.7546771E-02  0.1296395E+00
          3   -1    0    0  502    0  0.00000000000E+00  0.00000000000E+00  0.48621576787E+02  0.48621576787E+02  0.00000000000E+00 0. -1.
         -3   -1    0    0    0  501 -0.00000000000E+00 -0.00000000000E+00 -0.31122526476E+03  0.31122526476E+03  0.00000000000E+00 0.  1.
         23    2    1    2    0    0 -0.46188380866E+01  0.22005522571E+02 -0.20676929922E+03  0.22750079672E+03  0.92181845933E+02 0.  0.
         23    2    1    2    0    0  0.51365445139E+01  0.51789874794E+01 -0.54580826578E+02  0.10512772334E+03  0.89552027241E+02 0.  0.
        -13    1    4    4    0    0 -0.28360123834E+02 -0.88822386827E+01 -0.61354749453E+02  0.68173279724E+02  0.00000000000E+00 0. -1.
         13    1    4    4    0    0  0.33496668348E+02  0.14061226162E+02  0.67739228747E+01  0.36954443612E+02  0.00000000000E+00 0.  1.
        -13    1    3    3    0    0 -0.27129470885E+02  0.50941201059E+02 -0.11472965853E+03  0.12842861325E+03  0.00000000000E+00 0.  1.
         13    1    3    3    0    0  0.22510632798E+02 -0.28935678488E+02 -0.92039640693E+02  0.99072183470E+02  0.00000000000E+00 0. -1.
         21    1    1    2  502  501 -0.51770642729E+00 -0.27184510050E+02 -0.12535621756E+01  0.27218321490E+02  0.00000000000E+00 0. -1.
<scales pt_clust_5="13000.00000" pt_clust_6="13000.00000" pt_clust_7="13000.00000" pt_clust_8="13000.00000" pt_clust_9="27.18944"></scales>
<clustering>
<clus scale="   27.189">  1  9  2 -1</clus>
<clus scale="   89.552">  5  6 -1 -1</clus>
<clus scale="   90.780">  1  5  2 -1</clus>
<clus scale="   92.182">  7  8 -1 -1</clus>
<clus scale="   27.189">  1  5  2 -1</clus>
</clustering>
</event>
<event>
 9    1  0.1435532E-005  0.1091376E+03  0.7546771E-02  0.1263937E+00
         -3   -1    0    0    0  501 -0.00000000000E+00  0.00000000000E+00  0.24694940508E+03  0.24694940508E+03  0.00000000000E+00 0.  1.
          3   -1    0    0  502    0  0.00000000000E+00 -0.00000000000E+00 -0.57653381850E+02  0.57653381850E+02  0.00000000000E+00 0. -1.
         23    2    1    2    0    0 -0.24886652734E+02  0.39701086660E+02  0.82593798492E+02  0.13005437236E+03  0.88864404873E+02 0.  0.
         23    2    1    2    0    0  0.32663199831E+02 -0.59472823312E+02  0.98931118950E+02  0.15192571933E+03  0.93221009220E+02 0.  0.
        -11    1    3    3    0    0 -0.15779642691E+02 -0.26315955339E+02  0.11927783780E+02  0.32921097411E+02  0.00000000000E+00 0.  1.
         11    1    3    3    0    0 -0.91070100430E+01  0.66017041999E+02  0.70666014712E+02  0.97133274945E+02  0.00000000000E+00 0. -1.
        -11    1    4    4    0    0  0.22166274474E+02 -0.32873320982E+02  0.11321796053E+03  0.11995959963E+03  0.00000000000E+00 0.  1.
         11    1    4    4    0    0  0.10496925357E+02 -0.26599502330E+02 -0.14286841580E+02  0.31966119697E+02  0.00000000000E+00 0. -1.
         21    1    1    2  502  501 -0.77765470977E+01  0.19771736652E+02  0.77711057844E+01  0.22622695244E+02  0.00000000000E+00 0. -1.
<scales pt_clust_5="13000.00000" pt_clust_6="13000.00000" pt_clust_7="13000.00000" pt_clust_8="13000.00000" pt_clust_9="21.24609"></scales>
<clustering>
<clus scale="   21.246">  2  9  1 -1</clus>
<clus scale="   88.864">  5  6 -1 -1</clus>
<clus scale="   93.221">  7  8 -1 -1</clus>
<clus scale="  105.441">  1  5  2 -1</clus>
<clus scale="   21.246">  2  5  1 -1</clus>
</clustering>
</event>
<event>
 9    1  0.1435532E-005  0.2380307E+03  0.7546771E-02  0.1121127E+00
         -2   -1    0    0    0  501 -0.00000000000E+00  0.00000000000E+00  0.64135354289E+02  0.64135354289E+02  0.00000000000E+00 0.  1.
          2   -1    0    0  502    0  0.00000000000E+00 -0.00000000000E+00 -0.10871031016E+04  0.10871031016E+04  0.00000000000E+00 0. -1.
         23    2    1    2    0    0  0.10145013405E+03 -0.19104391195E+03 -0.44077531655E+03  0.49941976594E+03  0.91363652185E+02 0.  0.
         23    2    1    2    0    0 -0.64243834243E+02  0.21542538173E+03 -0.53191521978E+03  0.58468775255E+03  0.91600227124E+02 0.  0.
        -11    1    3    3    0    0  0.13415293713E+02 -0.10205209069E+03 -0.25908052274E+03  0.27877825701E+03  0.00000000000E+00 0.  1.
         11    1    3    3    0    0  0.88034840341E+02 -0.88991821262E+02 -0.18169479382E+03  0.22064150893E+03  0.00000000000E+00 0. -1.
        -13    1    4    4    0    0 -0.41300784032E+02  0.20147289385E+03 -0.39680999805E+03  0.44693987993E+03  0.00000000000E+00 0.  1.
         13    1    4    4    0    0 -0.22943050210E+02  0.13952487877E+02 -0.13510522174E+03  0.13774787262E+03  0.00000000000E+00 0. -1.
         21    1    1    2  502  501 -0.37206299811E+02 -0.24381469778E+02 -0.50277211012E+02  0.67130937438E+02  0.00000000000E+00 0.  1.
<scales pt_clust_5="13000.00000" pt_clust_6="13000.00000" pt_clust_7="13000.00000" pt_clust_8="13000.00000" pt_clust_9="44.48331"></scales>
<clustering>
<clus scale="   44.483">  1  9  2 -1</clus>
<clus scale="   91.364">  5  6 -1 -1</clus>
<clus scale="   91.600">  7  8 -1 -1</clus>
<clus scale="  237.940">  1  5  2 -1</clus>
<clus scale="  238.031">  2  5  1 -1</clus>
</clustering>
</event>
<event>
 9    1  0.1435532E-005  0.1008519E+03  0.7546771E-02  0.1279327E+00
          1   -1    0    0  502    0  0.00000000000E+00  0.00000000000E+00  0.97726466007E+02  0.97726466007E+02  0.00000000000E+00 0. -1.
         -1   -1    0    0    0  501 -0.00000000000E+00 -0.00000000000E+00 -0.32861574767E+03  0.32861574767E+03  0.00000000000E+00 0.  1.
         23    2    1    2    0    0  0.40005006006E+02 -0.73971326166E+01 -0.22645726456E+03  0.24673422019E+03  0.89105357087E+02 0.  0.
         23    2    1    2    0    0 -0.46085680096E+02  0.37352760303E+02 -0.54147373039E+02  0.12124764014E+03  0.90829145213E+02 0.  0.
        -13    1    4    4    0    0 -0.16539829936E+02  0.59466623381E+02 -0.57283610132E+02  0.84209603136E+02  0.00000000000E+00 0. -1.
         13    1    4    4    0    0 -0.29545850161E+02 -0.22113863078E+02  0.31362370929E+01  0.37038037003E+02  0.00000000000E+00 0.  1.
        -13    1    3    3    0    0  0.62853929127E+02 -0.17783748819E+02 -0.11288828369E+03  0.13042485470E+03  0.00000000000E+00 0.  1.
         13    1    3    3    0    0 -0.22848923121E+02  0.10386616203E+02 -0.11356898087E+03  0.11630936548E+03  0.00000000000E+00 0. -1.
         21    1    1    2  502  501  0.60806740903E+01 -0.29955627686E+02  0.49715355937E+02  0.58360353353E+02  0.00000000000E+00 0.  1.
<scales pt_clust_5="13000.00000" pt_clust_6="13000.00000" pt_clust_7="13000.00000" pt_clust_8="13000.00000" pt_clust_9="30.56655"></scales>
<clustering>
<clus scale="   30.567">  1  9  2 -1</clus>
<clus scale="   89.105">  7  8 -1 -1</clus>
<clus scale="   90.829">  5  6 -1 -1</clus>
<clus scale="   99.302">  2  7  1 -1</clus>
<clus scale="   30.567">  1  5  2 -1</clus>
</clustering>
</event>
<event>
 9    1  0.1435532E-005  0.1149327E+03  0.7546771E-02  0.1252955E+00
          2   -1    0    0  502    0  0.00000000000E+00  0.00000000000E+00  0.63615655726E+02  0.63615655726E+02  0.00000000000E+00 0. -1.
         -2   -1    0    0    0  501 -0.00000000000E+00 -0.00000000000E+00 -0.61980302486E+03  0.61980302486E+03  0.00000000000E+00 0.  1.
         23    2    1    2    0    0  0.58509814749E+02 -0.77198899869E+01 -0.44625217085E+03  0.45975128818E+03  0.93526744115E+02 0.  0.
         23    2    1    2    0    0 -0.10640465207E+03  0.17605971294E+02 -0.10317504611E+03  0.17429787040E+03  0.90015205823E+02 0.  0.
        -13    1    3    3    0    0 -0.17294246553E+02 -0.27282852250E+02 -0.13086537507E+03  0.13479314294E+03  0.00000000000E+00 0. -1.
         13    1    3    3    0    0  0.75804061302E+02  0.19562962263E+02 -0.31538679579E+03  0.32495814524E+03  0.00000000000E+00 0.  1.
        -13    1    4    4    0    0 -0.83263050664E+02 -0.28979084622E+02 -0.59314982340E+02  0.10625812948E+03  0.00000000000E+00 0. -1.
         13    1    4    4    0    0 -0.23141601408E+02  0.46585055916E+02 -0.43860063769E+02  0.68039740918E+02  0.00000000000E+00 0.  1.
         21    1    1    2  502  501  0.47894837324E+02 -0.98860813067E+01 -0.67601521712E+01  0.49369522007E+02  0.00000000000E+00 0. -1.
<scales pt_clust_5="13000.00000" pt_clust_6="13000.00000" pt_clust_7="13000.00000" pt_clust_8="13000.00000" pt_clust_9="48.90450"></scales>
<clustering>
<clus scale="   48.904">  1  9  2 -1</clus>
<clus scale="   90.015">  7  8 -1 -1</clus>
<clus scale="   93.527">  5  6 -1 -1</clus>
<clus scale="  112.094">  1  7  2 -1</clus>
<clus scale="   48.904">  1  5  2 -1</clus>
</clustering>
</event>
<event>
 9    1  0.1435532E-005  0.1670017E+03  0.7546771E-02  0.1202228E+00
         -2   -1    0    0    0  501 -0.00000000000E+00  0.00000000000E+00  0.67943059291E+03  0.67943059291E+03  0.00000000000E+00 0.  1.
          2   -1    0    0  502    0  0.00000000000E+00 -0.00000000000E+00 -0.88633580790E+02  0.88633580790E+02  0.00000000000E+00 0. -1.
         23    2    1    2    0    0  0.64655259709E+02 -0.11174229790E+03  0.39486029910E+03  0.42515153096E+03  0.90402017248E+02 0.  0.
         23    2    1    2    0    0  0.50056941678E+02 -0.15933720020E+02  0.43371654737E+02  0.11326911091E+03  0.90494255115E+02 0.  0.
        -11    1    3    3    0    0 -0.88905834769E+01 -0.34169477012E+02  0.34861700066E+02  0.49617877477E+02  0.00000000000E+00 0.  1.
         11    1    3    3    0    0  0.73545843186E+02 -0.77572820892E+02  0.35999859903E+03  0.37553365348E+03  0.00000000000E+00 0. -1.
        -11    1    4    4    0    0  0.50450009669E+01  0.35062062884E+02  0.23113673649E+02  0.42297070797E+02  0.00000000000E+00 0.  1.
         11    1    4    4    0    0  0.45011940712E+02 -0.50995782904E+02  0.20257981088E+02  0.70972040117E+02  0.00000000000E+00 0. -1.
         21    1    1    2  502  501 -0.11471220139E+03  0.12767601792E+03  0.15256505828E+03  0.22964353182E+03  0.00000000000E+00 0.  1.
<scales pt_clust_5="13000.00000" pt_clust_6="13000.00000" pt_clust_7="13000.00000" pt_clust_8="13000.00000" pt_clust_9="140.41737"></scales>
<clustering>
<clus scale="   90.402">  5  6 -1 -1</clus>
<clus scale="   90.494">  7  8 -1 -1</clus>
<clus scale="  104.636">  2  7  1 -1</clus>
<clus scale="  140.417">  2  9  1 -1</clus>
<clus scale="  104.636">  2  5  1 -1</clus>
</clustering>
</event>
<event>
 9    1  0.1435532E-005  0.9781508E+02  0.7546771E-02  0.1285101E+00
          1   -1    0    0  502    0  0.00000000000E+00  0.00000000000E+00  0.36626033193E+03  0.36626033193E+03  0.00000000000E+00 0. -1.
         -1   -1    0    0    0  501 -0.00000000000E+00 -0.00000000000E+00 -0.48830723335E+02  0.48830723335E+02  0.00000000000E+00 0.  1.
         23    2    1    2    0    0 -0.46570850911E+02  0.88214722401E+01  0.98217607209E+02  0.14384965196E+03  0.93804911796E+02 0.  0.
         23    2    1    2    0    0 -0.68534645985E+00  0.29794742376E+02  0.13285762617E+03  0.16549908283E+03  0.94077633956E+02 0.  0.
        -11    1    4    4    0    0 -0.11444682181E+02 -0.32673974343E+02  0.37944357929E+02  0.51364809435E+02  0.00000000000E+00 0.  1.
         11    1    4    4    0    0  0.10759335722E+02  0.62468716719E+02  0.94913268244E+02  0.11413427339E+03  0.00000000000E+00 0. -1.
        -13    1    3    3    0    0 -0.71930566046E+02  0.18443698116E+02  0.87302513659E+02  0.11461197679E+03  0.00000000000E+00 0.  1.
         13    1    3    3    0    0  0.25359715135E+02 -0.96222258762E+01  0.10915093550E+02  0.29237675177E+02  0.00000000000E+00 0. -1.
         21    1    1    2  502  501  0.47256197371E+02 -0.38616214616E+02  0.86354375216E+02  0.10574232048E+03  0.00000000000E+00 0.  1.
<scales pt_clust_5="13000.00000" pt_clust_6="13000.00000" pt_clust_7="13000.00000" pt_clust_8="13000.00000" pt_clust_9="61.02754"></scales>
<clustering>
<clus scale="   61.028">  1  9  2 -1</clus>
<clus scale="   93.805">  7  8 -1 -1</clus>
<clus scale="   94.078">  5  6 -1 -1</clus>
<clus scale="   97.553">  2  7  1 -1</clus>
<clus scale="   61.028">  1  5  2 -1</clus>
</clustering>
</event>
<event>
 9    1  0.1435532E-005  0.1080102E+03  0.7546771E-02  0.1265151E+00
          2   -1    0    0  502    0  0.00000000000E+00  0.00000000000E+00  0.49773944438E+03  0.49773944438E+03  0.00000000000E+00 0. -1.
         -2   -1    0    0    0  501 -0.00000000000E+00 -0.00000000000E+00 -0.10317460258E+03  0.10317460258E+03  0.00000000000E+00 0.  1.
         23    2    1    2    0    0  0.68161973294E+02 -0.49587111487E+01 -0.50408864331E+02  0.12332481792E+03  0.89427700923E+02 0.  0.
         23    2    1    2    0    0 -0.30555511886E+02 -0.85261616298E+01  0.12814807482E+03  0.15825465780E+03  0.87271260414E+02 0.  0.
        -13    1    4    4    0    0  0.18908135913E+02  0.15821335607E+02  0.77653579332E+01  0.25848269728E+02  0.00000000000E+00 0.  1.
         13    1    4    4    0    0 -0.49463647799E+02 -0.24347497237E+02  0.12038271689E+03  0.13240638807E+03  0.00000000000E+00 0. -1.
        -13    1    3    3    0    0  0.85924310078E+02 -0.21171802595E+02 -0.40258016919E+02  0.97221089346E+02  0.00000000000E+00 0.  1.
         13    1    3    3    0    0 -0.17762336784E+02  0.16213091446E+02 -0.10150847412E+02  0.26103728574E+02  0.00000000000E+00 0. -1.
         21    1    1    2  502  501 -0.37606461408E+02  0.13484872779E+02  0.31682563131E+03  0.31933457124E+03  0.00000000000E+00 0. -1.
<scales pt_clust_5="13000.00000" pt_clust_6="13000.00000" pt_clust_7="13000.00000" pt_clust_8="13000.00000" pt_clust_9="39.95107"></scales>
<clustering>
<clus scale="   39.951">  1  9  2 -1</clus>
<clus scale="   87.271">  5  6 -1 -1</clus>
<clus scale="   89.428">  7  8 -1 -1</clus>
<clus scale="  106.232">  1  5  2 -1</clus>
<clus scale="   39.951">  1  5  2 -1</clus>
</clustering>
</event>
<event>
 9    1  0.1435532E-005  0.1434321E+03  0.7546771E-02  0.1210432E+00
         -2   -1    0    0    0  501 -0.00000000000E+00  0.00000000000E+00  0.44520213199E+03  0.44520213199E+03  0.00000000000E+00 0.  1.
          2   -1    0    0  502    0  0.00000000000E+00 -0.00000000000E+00 -0.63320536582E+02  0.63320536582E+02  0.00000000000E+00 0. -1.
         23    2    1    2    0    0  0.72844229157E+02 -0.59411673497E+02  0.17819014594E+03  0.21846044802E+03  0.84482013291E+02 0.  0.
         23    2    1    2    0    0 -0.10820888257E+03  0.79350407402E+02  0.18112257517E+03  0.24361261444E+03  0.92390850516E+02 0.  0.
        -11    1    3    3    0    0 -0.14045520066E+02 -0.30298314769E+02  0.62619931741E+02  0.70968446249E+02  0.00000000000E+00 0. -1.
         11    1    3    3    0    0  0.86889749222E+02 -0.29113358728E+02  0.11557021419E+03  0.14749200177E+03  0.00000000000E+00 0.  1.
        -13    1    4    4    0    0 -0.60468780627E+02 -0.93904929418E+01  0.81469340825E+02  0.10189164972E+03  0.00000000000E+00 0.  1.
         13    1    4    4    0    0 -0.47740101941E+02  0.88740900344E+02  0.99653234344E+02  0.14172096472E+03  0.00000000000E+00 0. -1.
         21    1    1    2  502  501  0.35364653412E+02 -0.19938733905E+02  0.22568874305E+02  0.46449606114E+02  0.00000000000E+00 0.  1.
<scales pt_clust_5="13000.00000" pt_clust_6="13000.00000" pt_clust_7="13000.00000" pt_clust_8="13000.00000" pt_clust_9="40.59818"></scales>
<clustering>
<clus scale="   40.598">  2  9  1 -1</clus>
<clus scale="   84.482">  5  6 -1 -1</clus>
<clus scale="   92.391">  7  8 -1 -1</clus>
<clus scale="  138.470">  1  5  2 -1</clus>
<clus scale="   40.598">  2  5  1 -1</clus>
</clustering>
</event>
<event>
 9    1  0.1435532E-005  0.9499514E+02  0.7546771E-02  0.1292968E+00
          1   -1    0    0  502    0  0.00000000000E+00  0.00000000000E+00  0.73040471248E+03  0.73040471248E+03  0.00000000000E+00 0. -1.
         -1   -1    0    0    0  501 -0.00000000000E+00 -0.00000000000E+00 -0.23053944623E+02  0.23053944623E+02  0.00000000000E+00 0.  1.
         23    2    1    2    0    0  0.22498271694E+02 -0.37202676938E+01  0.10666842469E+03  0.14070967962E+03  0.88887842208E+02 0.  0.
         23    2    1    2    0    0 -0.19258798100E+02  0.24189086302E+02  0.43142078830E+03  0.44222349353E+03  0.92096191255E+02 0.  0.
        -11    1    4    4    0    0  0.33968912855E+02  0.19939661573E+02  0.12117450183E+03  0.12741560751E+03  0.00000000000E+00 0.  1.
         11    1    4    4    0    0 -0.53227710955E+02  0.42494247297E+01  0.31024628647E+03  0.31480788601E+03  0.00000000000E+00 0. -1.
        -13    1    3    3    0    0  0.19667976986E+02 -0.24971409421E+02 -0.12352252551E+00  0.31787039262E+02  0.00000000000E+00 0.  1.
         13    1    3    3    0    0  0.28302947084E+01  0.21251141727E+02  0.10679194722E+03  0.10892264036E+03  0.00000000000E+00 0. -1.
         21    1    1    2  502  501 -0.32394735939E+01 -0.20468818608E+02  0.16926155486E+03  0.17052548395E+03  0.00000000000E+00 0.  1.
<scales pt_clust_5="13000.00000" pt_clust_6="13000.00000" pt_clust_7="13000.00000" pt_clust_8="13000.00000" pt_clust_9="20.72358"></scales>
<clustering>
<clus scale="   20.724">  1  9  2 -1</clus>
<clus scale="   88.888">  7  8 -1 -1</clus>
<clus scale="   91.888">  2  7  1 -1</clus>
<clus scale="   92.096">  5  6 -1 -1</clus>
<clus scale="   20.724">  1  5  2 -1</clus>
</clustering>
</event>
<event>
 9    1  0.1435532E-005  0.1258502E+03  0.7546771E-02  0.1250899E+00
          1   -1    0    0  502    0  0.00000000000E+00  0.00000000000E+00  0.39082553058E+03  0.39082553058E+03  0.00000000000E+00 0. -1.
         -1   -1    0    0    0  501 -0.00000000000E+00 -0.00000000000E+00 -0.67913212317E+02  0.67913212317E+02  0.00000000000E+00 0.  1.
         23    2    1    2    0    0 -0.35565138170E+01  0.57515237360E+01  0.18533086929E+02  0.12672189871E+03  0.12517681689E+03 0.  0.
         23    2    1    2    0    0  0.21261019870E+01 -0.28158377578E+02  0.15122912891E+03  0.17722967725E+03  0.87992582236E+02 0.  0.
        -11    1    3    3    0    0 -0.31213686497E+02 -0.46032895996E+02 -0.16927024789E+02  0.58136442157E+02  0.00000000000E+00 0. -1.
         11    1    3    3    0    0  0.27657172680E+02  0.51784419732E+02  0.35460111717E+02  0.68585456553E+02  0.00000000000E+00 0.  1.
        -13    1    4    4    0    0 -0.24993850427E+02  0.21645190835E+01  0.12789306998E+03  0.13033040724E+03  0.00000000000E+00 0. -1.
         13    1    4    4    0    0  0.27119952414E+02 -0.30322896661E+02  0.23336058929E+02  0.46899270007E+02  0.00000000000E+00 0.  1.
         21    1    1    2  502  501  0.14304118301E+01  0.22406853842E+02  0.15315010242E+03  0.15478716694E+03  0.00000000000E+00 0.  1.
<scales pt_clust_5="13000.00000" pt_clust_6="13000.00000" pt_clust_7="13000.00000" pt_clust_8="13000.00000" pt_clust_9="22.45246"></scales>
<clustering>
<clus scale="   22.452">  1  9  2 -1</clus>
<clus scale="   87.993">  7  8 -1 -1</clus>
<clus scale="   88.948">  1  7  2 -1</clus>
<clus scale="  125.177">  5  6 -1 -1</clus>
<clus scale="   22.452">  1  5  2 -1</clus>
</clustering>
</event>
<event>
 9    1  0.1435532E-005  0.1388285E+03  0.7546771E-02  0.1220887E+00
          1   -1    0    0  502    0  0.00000000000E+00  0.00000000000E+00  0.53389218744E+03  0.53389218744E+03  0.00000000000E+00 0. -1.
         -1   -1    0    0    0  501 -0.00000000000E+00 -0.00000000000E+00 -0.87061589184E+02  0.87061589184E+02  0.00000000000E+00 0.  1.
         23    2    1    2    0    0 -0.87389501867E+02  0.10822529356E+02 -0.58281369735E-01  0.12891269697E+03  0.94151090624E+02 0.  0.
         23    2    1    2    0    0  0.33242898713E+02  0.44379443210E+02  0.30303957735E+03  0.32872624819E+03  0.11468799204E+03 0.  0.
        -11    1    3    3    0    0 -0.19223327212E+02 -0.31371047220E+02 -0.25544839007E+02  0.44790821746E+02  0.00000000000E+00 0. -1.
         11    1    3    3    0    0 -0.68166174655E+02  0.42193576576E+02  0.25486557637E+02  0.84121875226E+02  0.00000000000E+00 0.  1.
        -11    1    4    4    0    0 -0.27840136881E+02  0.22455264346E+01  0.15870255386E+02  0.32124455117E+02  0.00000000000E+00 0.  1.
         11    1    4    4    0    0  0.61083035595E+02  0.42133916776E+02  0.28716932196E+03  0.29660179308E+03  0.00000000000E+00 0. -1.
         21    1    1    2  502  501  0.54146603153E+02 -0.55201972566E+02  0.14384930228E+03  0.16331483146E+03  0.00000000000E+00 0. -1.
<scales pt_clust_5="13000.00000" pt_clust_6="13000.00000" pt_clust_7="13000.00000" pt_clust_8="13000.00000" pt_clust_9="77.32472"></scales>
<clustering>
<clus scale="   77.325">  1  9  2 -1</clus>
<clus scale="   94.151">  5  6 -1 -1</clus>
<clus scale="  114.688">  7  8 -1 -1</clus>
<clus scale="  122.411">  2  5  1 -1</clus>
<clus scale="   77.325">  1  5  2 -1</clus>
</clustering>
</event>
<event>
 9    1  0.1435532E-005  0.1171789E+03  0.7546771E-02  0.1247898E+00
         -2   -1    0    0    0  501 -0.00000000000E+00  0.00000000000E+00  0.45906061051E+03  0.45906061051E+03  0.00000000000E+00 0.  1.
          2   -1    0    0  502    0  0.00000000000E+00 -0.00000000000E+00 -0.46065519590E+02  0.46065519590E+02  0.00000000000E+00 0. -1.
         23    2    1    2    0    0  0.56812600158E+02  0.69190262228E+02  0.21169405611E+03  0.24666594727E+03  0.89525148579E+02 0.  0.
         23    2    1    2    0    0 -0.62837494678E+02 -0.19011646596E+02  0.13009634766E+03  0.17114294345E+03  0.89748838285E+02 0.  0.
        -11    1    4    4    0    0 -0.45464085247E+02  0.26901529882E+02  0.32847732487E+02  0.62206501966E+02  0.00000000000E+00 0. -1.
         11    1    4    4    0    0 -0.17373409432E+02 -0.45913176478E+02  0.97248615171E+02  0.10893644148E+03  0.00000000000E+00 0.  1.
        -13    1    3    3    0    0  0.20775297370E+02  0.77915519624E+02  0.18233903900E+03  0.19937393591E+03  0.00000000000E+00 0. -1.
         13    1    3    3    0    0  0.36037302788E+02 -0.87252573959E+01  0.29355017114E+02  0.47292011361E+02  0.00000000000E+00 0.  1.
         21    1    1    2  502  501  0.60248945203E+01 -0.50178615631E+02  0.71204687149E+02  0.87317239378E+02  0.00000000000E+00 0.  1.
<scales pt_clust_5="13000.00000" pt_clust_6="13000.00000" pt_clust_7="13000.00000" pt_clust_8="13000.00000" pt_clust_9="50.53902"></scales>
<clustering>
<clus scale="   50.539">  2  9  1 -1</clus>
<clus scale="   89.525">  7  8 -1 -1</clus>
<clus scale="   89.749">  5  6 -1 -1</clus>
<clus scale="  117.008">  1  7  2 -1</clus>
<clus scale="   50.539">  2  5  1 -1</clus>
</clustering>
</event>
<event>
 9    1  0.1435532E-005  0.1176460E+03  0.7546771E-02  0.1248479E+00
          2   -1    0    0  502    0  0.00000000000E+00  0.00000000000E+00  0.42945718707E+03  0.42945718707E+03  0.00000000000E+00 0. -1.
         -2   -1    0    0    0  501 -0.00000000000E+00 -0.00000000000E+00 -0.27989549061E+03  0.27989549061E+03  0.00000000000E+00 0.  1.
         23    2    1    2    0    0  0.23557253676E+02  0.66079877403E+02 -0.24939120476E+03  0.27594004522E+03  0.95002321792E+02 0.  0.
         23    2    1    2    0    0 -0.25818544571E+01 -0.48414800524E+02  0.39176598511E+03  0.40506348650E+03  0.90802985192E+02 0.  0.
        -11    1    3    3    0    0 -0.52654180137E+01  0.81450932016E+02 -0.20635763609E+03  0.22191316528E+03  0.00000000000E+00 0.  1.
         11    1    3    3    0    0  0.28822671690E+02 -0.15371054613E+02 -0.43033568670E+02  0.54026879937E+02  0.00000000000E+00 0. -1.
        -11    1    4    4    0    0  0.14307068536E+02  0.24048377451E+02  0.12664687855E+03  0.12970138208E+03  0.00000000000E+00 0.  1.
         11    1    4    4    0    0 -0.16888922993E+02 -0.72463177975E+02  0.26511910656E+03  0.27536210441E+03  0.00000000000E+00 0. -1.
         21    1    1    2  502  501 -0.20975399219E+02 -0.17665076879E+02  0.71869161176E+01  0.28349145963E+02  0.00000000000E+00 0.  1.
<scales pt_clust_5="13000.00000" pt_clust_6="13000.00000" pt_clust_7="13000.00000" pt_clust_8="13000.00000" pt_clust_9="27.42303"></scales>
<clustering>
<clus scale="   27.423">  1  9  2 -1</clus>
<clus scale="   90.803">  7  8 -1 -1</clus>
<clus scale="   95.002">  5  6 -1 -1</clus>
<clus scale="  114.282">  1  7  2 -1</clus>
<clus scale="   27.423">  1  5  2 -1</clus>
</clustering>
</event>
<event>
 9    1  0.1435532E-005  0.9645454E+02  0.7546771E-02  0.1288348E+00
          1   -1    0    0  502    0  0.00000000000E+00  0.00000000000E+00  0.81735629627E+02  0.81735629627E+02  0.00000000000E+00 0. -1.
         -1   -1    0    0    0  501 -0.00000000000E+00 -0.00000000000E+00 -0.24025129659E+03  0.24025129659E+03  0.00000000000E+00 0.  1.
         23    2    1    2    0    0  0.27075239693E+02 -0.24375147153E+02 -0.15092297364E+03  0.17988847747E+03  0.90856501962E+02 0.  0.
         23    2    1    2    0    0 -0.18919681985E+01  0.29742042876E+02 -0.38054627112E+02  0.10221198308E+03  0.90060902630E+02 0.  0.
        -13    1    3    3    0    0 -0.24982720959E+02 -0.83764480127E+01 -0.89497832271E+01  0.27828040672E+02  0.00000000000E+00 0. -1.
         13    1    3    3    0    0  0.52057960651E+02 -0.15998699140E+02 -0.14197319042E+03  0.15206043680E+03  0.00000000000E+00 0.  1.
        -13    1    4    4    0    0  0.11807800760E+02 -0.28054868268E+02  0.21055091346E+01  0.30511194028E+02  0.00000000000E+00 0.  1.
         13    1    4    4    0    0 -0.13699768959E+02  0.57796911144E+02 -0.40160136247E+02  0.71700789052E+02  0.00000000000E+00 0. -1.
         21    1    1    2  502  501 -0.25183271494E+02 -0.53668957230E+01  0.30461933796E+02  0.39886465667E+02  0.00000000000E+00 0. -1.
<scales pt_clust_5="13000.00000" pt_clust_6="13000.00000" pt_clust_7="13000.00000" pt_clust_8="13000.00000" pt_clust_9="25.74880"></scales>
<clustering>
<clus scale="   25.749">  1  9  2 -1</clus>
<clus scale="   90.061">  7  8 -1 -1</clus>
<clus scale="   90.857">  5  6 -1 -1</clus>
<clus scale="   95.705">  1  7  2 -1</clus>
<clus scale="   25.749">  1  5  2 -1</clus>
</clustering>
</event>
<event>
 9    1  0.1435532E-005  0.1406620E+03  0.7546771E-02  0.1213185E+00
         -1   -1    0    0    0  501 -0.00000000000E+00  0.00000000000E+00  0.14612930489E+03  0.14612930489E+03  0.00000000000E+00 0.  1.
          1   -1    0    0  502    0  0.00000000000E+00 -0.00000000000E+00 -0.24856078707E+03  0.24856078707E+03  0.00000000000E+00 0. -1.
         23    2    1    2    0    0 -0.85292666695E+02  0.18868469213E+02  0.24008436306E+02  0.13108743375E+03  0.94745195920E+02 0.  0.
         23    2    1    2    0    0  0.14060969181E+03 -0.25032061654E+02 -0.67464048355E+02  0.18250940081E+03  0.91436283950E+02 0.  0.
        -11    1    3    3    0    0 -0.74795651079E+02  0.50933975424E+02  0.32746998090E+02  0.96234220301E+02  0.00000000000E+00 0.  1.
         11    1    3    3    0    0 -0.10497015615E+02 -0.32065506212E+02 -0.87385617845E+01  0.34853213446E+02  0.00000000000E+00 0. -1.
        -13    1    4    4    0    0  0.53628287220E+02 -0.34957039718E+02  0.10992159126E+02  0.64952408563E+02  0.00000000000E+00 0.  1.
         13    1    4    4    0    0  0.86981404588E+02  0.99249780637E+01 -0.78456207481E+02  0.11755699225E+03  0.00000000000E+00 0. -1.
         21    1    1    2  502  501 -0.55317025113E+02  0.61635924413E+01 -0.58975870131E+02  0.81093257407E+02  0.00000000000E+00 0.  1.
<scales pt_clust_5="13000.00000" pt_clust_6="13000.00000" pt_clust_7="13000.00000" pt_clust_8="13000.00000" pt_clust_9="55.65935"></scales>
<clustering>
<clus scale="   55.659">  2  9  1 -1</clus>
<clus scale="   91.436">  7  8 -1 -1</clus>
<clus scale="   94.745">  5  6 -1 -1</clus>
<clus scale="  138.455">  2  7  1 -1</clus>
<clus scale="   55.659">  2  5  1 -1</clus>
</clustering>
</event>
<event>
 9    1  0.1435532E-005  0.9309617E+02  0.7546771E-02  0.1297213E+00
          2   -1    0    0  502    0  0.00000000000E+00  0.00000000000E+00  0.17896244463E+03  0.17896244463E+03  0.00000000000E+00 0. -1.
         -2   -1    0    0    0  501 -0.00000000000E+00 -0.00000000000E+00 -0.11060284529E+03  0.11060284529E+03  0.00000000000E+00 0.  1.
         23    2    1    2    0    0  0.25935360276E+01  0.13650066506E+02 -0.48716185297E+02  0.10508001883E+03  0.92062440233E+02 0.  0.
         23    2    1    2    0    0  0.25259814952E+02 -0.10422912116E+02  0.38195653731E+02  0.10076968868E+03  0.89156754337E+02 0.  0.
        -11    1    3    3    0    0 -0.58234838497E+01  0.52281176804E+02 -0.35204121256E+02  0.63297429376E+02  0.00000000000E+00 0.  1.
         11    1    3    3    0    0  0.84170198772E+01 -0.38631110298E+02 -0.13512064041E+02  0.41782589449E+02  0.00000000000E+00 0. -1.
        -13    1    4    4    0    0 -0.30566935315E+02  0.10577456198E+02  0.21472108384E+02  0.38823595308E+02  0.00000000000E+00 0.  1.
         13    1    4    4    0    0  0.55826750267E+02 -0.21000368314E+02  0.16723545347E+02  0.61946093369E+02  0.00000000000E+00 0. -1.
         21    1    1    2  502  501 -0.27853350979E+02 -0.32271543908E+01  0.78880130911E+02  0.83715582414E+02  0.00000000000E+00 0. -1.
<scales pt_clust_5="13000.00000" pt_clust_6="13000.00000" pt_clust_7="13000.00000" pt_clust_8="13000.00000" pt_clust_9="28.03968"></scales>
<clustering>
<clus scale="   28.040">  1  9  2 -1</clus>
<clus scale="   89.157">  7  8 -1 -1</clus>
<clus scale="   90.224">  1  7  2 -1</clus>
<clus scale="   92.062">  5  6 -1 -1</clus>
<clus scale="   28.040">  1  5  2 -1</clus>
</clustering>
</event>
<event>
 9    1  0.1435532E-005  0.1170827E+03  0.7546771E-02  0.1249047E+00
          1   -1    0    0  502    0  0.00000000000E+00  0.00000000000E+00  0.52572666014E+03  0.52572666014E+03  0.00000000000E+00 0. -1.
         -1   -1    0    0    0  501 -0.00000000000E+00 -0.00000000000E+00 -0.70356101440E+02  0.70356101440E+02  0.00000000000E+00 0.  1.
         23    2    1    2    0    0 -0.78027808855E+02  0.81959214974E+00  0.12492087590E+02  0.12211212729E+03  0.93093010979E+02 0.  0.
         23    2    1    2    0    0  0.48982997290E+02  0.27036657979E+02  0.18689929880E+03  0.21484728835E+03  0.89987190891E+02 0.  0.
        -11    1    4    4    0    0  0.74469718179E+02  0.27725691412E+02  0.12790586748E+03  0.15058009107E+03  0.00000000000E+00 0. -1.
         11    1    4    4    0    0 -0.25486720889E+02 -0.68903343303E+00  0.58993431311E+02  0.64267197283E+02  0.00000000000E+00 0.  1.
        -13    1    3    3    0    0 -0.33478225875E+02 -0.33582463094E+02  0.37563373571E+02  0.60494466434E+02  0.00000000000E+00 0. -1.
         13    1    3    3    0    0 -0.44549582980E+02  0.34402055243E+02 -0.25071285981E+02  0.61617660856E+02  0.00000000000E+00 0.  1.
         21    1    1    2  502  501  0.29044811565E+02 -0.27856250129E+02  0.25597917231E+03  0.25912334593E+03  0.00000000000E+00 0. -1.
<scales pt_clust_5="13000.00000" pt_clust_6="13000.00000" pt_clust_7="13000.00000" pt_clust_8="13000.00000" pt_clust_9="40.24390"></scales>
<clustering>
<clus scale="   40.244">  1  9  2 -1</clus>
<clus scale="   89.987">  5  6 -1 -1</clus>
<clus scale="   93.093">  7  8 -1 -1</clus>
<clus scale="  114.629">  1  5  2 -1</clus>
<clus scale="   40.244">  1  5  2 -1</clus>
</clustering>
</event>
<event>
 9    1  0.1435532E-005  0.1418083E+03  0.7546771E-02  0.1211243E+00
          2   -1    0    0  502    0  0.00000000000E+00  0.00000000000E+00  0.14373857020E+03  0.14373857020E+03  0.00000000000E+00 0. -1.
         -2   -1    0    0    0  501 -0.00000000000E+00 -0.00000000000E+00 -0.41617786137E+03  0.41617786137E+03  0.00000000000E+00 0.  1.
         23    2    1    2    0    0 -0.30843723822E+02 -0.10462622399E+03 -0.33790340893E+03  0.36650706235E+03  0.90833534225E+02 0.  0.
         23    2    1    2    0    0 -0.51270512429E+01  0.11286854094E+03  0.60397992379E+02  0.15616023401E+03  0.89288896367E+02 0.  0.
        -11    1    3    3    0    0 -0.61422043326E+02 -0.49535990916E+02 -0.18410293826E+03  0.20030070813E+03  0.00000000000E+00 0.  1.
         11    1    3    3    0    0  0.30578319503E+02 -0.55090233078E+02 -0.15380047067E+03  0.16620635422E+03  0.00000000000E+00 0. -1.
        -13    1    4    4    0    0  0.26898662486E+02  0.78694891499E+02  0.69580723178E+02  0.10843385555E+03  0.00000000000E+00 0.  1.
         13    1    4    4    0    0 -0.32025713729E+02  0.34173649444E+02 -0.91827307990E+01  0.47726378462E+02  0.00000000000E+00 0. -1.
         21    1    1    2  502  501  0.35970775065E+02 -0.82423169489E+01  0.50661253851E+01  0.37249135210E+02  0.00000000000E+00 0.  1.
<scales pt_clust_5="13000.00000" pt_clust_6="13000.00000" pt_clust_7="13000.00000" pt_clust_8="13000.00000" pt_clust_9="36.90301"></scales>
<clustering>
<clus scale="   36.903">  1  9  2 -1</clus>
<clus scale="   89.289">  7  8 -1 -1</clus>
<clus scale="   90.834">  5  6 -1 -1</clus>
<clus scale="  140.824">  1  7  2 -1</clus>
<clus scale="   36.903">  1  5  2 -1</clus>
</clustering>
</event>
<event>
 9    1  0.1435532E-005  0.1072849E+03  0.7546771E-02  0.1269881E+00
          1   -1    0    0  502    0  0.00000000000E+00  0.00000000000E+00  0.43550852711E+03  0.43550852711E+03  0.00000000000E+00 0. -1.
         -1   -1    0    0    0  501 -0.00000000000E+00 -0.00000000000E+00 -0.95075922728E+02  0.95075922728E+02  0.00000000000E+00 0.  1.
         23    2    1    2    0    0 -0.28160274108E+02  0.49728529782E+02 -0.54253490464E+02  0.11343023217E+03  0.81590738626E+02 0.  0.
         23    2    1    2    0    0  0.31544295161E+02 -0.27505542528E+02  0.37131718605E+03  0.38472863118E+03  0.91586404931E+02 0.  0.
        -11    1    3    3    0    0 -0.61593380389E+00  0.20566272033E+02 -0.67985620297E+02  0.71030947389E+02  0.00000000000E+00 0.  1.
         11    1    3    3    0    0 -0.27544340304E+02  0.29162257749E+02  0.13732129833E+02  0.42399284777E+02  0.00000000000E+00 0. -1.
        -13    1    4    4    0    0 -0.18533386589E+02 -0.40118862873E+02  0.11370168528E+03  0.12198804373E+03  0.00000000000E+00 0.  1.
         13    1    4    4    0    0  0.50077681750E+02  0.12613320346E+02  0.25761550077E+03  0.26274058746E+03  0.00000000000E+00 0. -1.
         21    1    1    2  502  501 -0.33840210527E+01 -0.22222987254E+02  0.23368908798E+02  0.32425586493E+02  0.00000000000E+00 0.  1.
<scales pt_clust_5="13000.00000" pt_clust_6="13000.00000" pt_clust_7="13000.00000" pt_clust_8="13000.00000" pt_clust_9="22.47916"></scales>
<clustering>
<clus scale="   22.479">  1  9  2 -1</clus>
<clus scale="   81.591">  5  6 -1 -1</clus>
<clus scale="   91.586">  7  8 -1 -1</clus>
<clus scale="   98.889">  2  5  1 -1</clus>
<clus scale="   22.479">  1  5  2 -1</clus>
</clustering>
</event>
<event>
 9    1  0.1435532E-005  0.1004799E+03  0.7546771E-02  0.1280856E+00
          1   -1    0    0  502    0  0.00000000000E+00  0.00000000000E+00  0.29612340092E+03  0.29612340092E+03  0.00000000000E+00 0. -1.
         -1   -1    0    0    0  501 -0.00000000000E+00 -0.00000000000E+00 -0.54132778624E+02  0.54132778624E+02  0.00000000000E+00 0.  1.
         23    2    1    2    0    0 -0.65473084484E+01  0.44670779853E+02  0.28100967169E+02  0.10503895594E+03  0.90582404960E+02 0.  0.
         23    2    1    2    0    0 -0.14455351468E+02 -0.39858934728E+02  0.18768202687E+03  0.21128928002E+03  0.87297908209E+02 0.  0.
        -11    1    4    4    0    0 -0.40457268259E+02  0.83522242453E+01  0.66247005528E+02  0.78071863986E+02  0.00000000000E+00 0.  1.
         11    1    4    4    0    0  0.26001916791E+02 -0.48211158973E+02  0.12143502135E+03  0.13321741604E+03  0.00000000000E+00 0. -1.
        -11    1    3    3    0    0 -0.47995659897E+02  0.26557468873E+02  0.76023720984E+01  0.55377600014E+02  0.00000000000E+00 0.  1.
         11    1    3    3    0    0  0.41448351448E+02  0.18113310980E+02  0.20498595071E+02  0.49661355925E+02  0.00000000000E+00 0. -1.
         21    1    1    2  502  501  0.21002659916E+02 -0.48118451252E+01  0.26207628257E+02  0.33927943585E+02  0.00000000000E+00 0.  1.
<scales pt_clust_5="13000.00000" pt_clust_6="13000.00000" pt_clust_7="13000.00000" pt_clust_8="13000.00000" pt_clust_9="21.54682"></scales>
<clustering>
<clus scale="   21.547">  1  9  2 -1</clus>
<clus scale="   87.298">  5  6 -1 -1</clus>
<clus scale="   90.582">  7  8 -1 -1</clus>
<clus scale="   97.529">  1  5  2 -1</clus>
<clus scale="   21.547">  1  5  2 -1</clus>
</clustering>
</event>
<event>
 9    1  0.1435532E-005  0.9362798E+02  0.7546771E-02  0.1294730E+00
          2   -1    0    0  502    0  0.00000000000E+00  0.00000000000E+00  0.42212283887E+03  0.42212283887E+03  0.00000000000E+00 0. -1.
         -2   -1    0    0    0  501 -0.00000000000E+00 -0.00000000000E+00 -0.70476051594E+02  0.70476051594E+02  0.00000000000E+00 0.  1.
         23    2    1    2    0    0 -0.15092216233E+02  0.72859386327E+00 -0.12550763001E+02  0.94868692456E+02  0.92812937226E+02 0.  0.
         23    2    1    2    0    0 -0.15097336258E+02  0.45505179837E+02  0.25647073392E+03  0.27667633449E+03  0.92053819886E+02 0.  0.
        -13    1    4    4    0    0 -0.26945924415E+02 -0.17710436011E+02  0.43126843191E+02  0.53848556062E+02  0.00000000000E+00 0.  1.
         13    1    4    4    0    0  0.11848588157E+02  0.63215615848E+02  0.21334389073E+03  0.22282777843E+03  0.00000000000E+00 0. -1.
        -13    1    3    3    0    0  0.34011497994E+02 -0.51574234119E+01  0.15809062289E+02  0.37859047300E+02  0.00000000000E+00 0. -1.
         13    1    3    3    0    0 -0.49103714227E+02  0.58860172752E+01 -0.28359825290E+02  0.57009645155E+02  0.00000000000E+00 0.  1.
         21    1    1    2  502  501  0.30189552491E+02 -0.46233773700E+02  0.10772681636E+03  0.12105386352E+03  0.00000000000E+00 0. -1.
<scales pt_clust_5="13000.00000" pt_clust_6="13000.00000" pt_clust_7="13000.00000" pt_clust_8="13000.00000" pt_clust_9="55.21749"></scales>
<clustering>
<clus scale="   55.217">  1  9  2 -1</clus>
<clus scale="   92.054">  5  6 -1 -1</clus>
<clus scale="   92.813">  7  8 -1 -1</clus>
<clus scale="   92.876">  1  5  2 -1</clus>
<clus scale="   55.217">  1  5  2 -1</clus>
</clustering>
</event>
<event>
 9    1  0.1435532E-005  0.1649837E+03  0.7546771E-02  0.1197138E+00
          2   -1    0    0  502    0  0.00000000000E+00  0.00000000000E+00  0.28809384476E+03  0.28809384476E+03  0.00000000000E+00 0. -1.
         -2   -1    0    0    0  501 -0.00000000000E+00 -0.00000000000E+00 -0.15075518039E+03  0.15075518039E+03  0.00000000000E+00 0.  1.
         23    2    1    2    0    0  0.11879182732E+03  0.31769323294E+02  0.40700227934E+02  0.17363173949E+03  0.11563167499E+03 0.  0.
         23    2    1    2    0    0 -0.43174317555E+02  0.68420395571E+02  0.53360915010E+02  0.13244329947E+03  0.90268865607E+02 0.  0.
        -11    1    3    3    0    0  0.13111896087E+03  0.12552156974E+02  0.56979601207E+01  0.13184159166E+03  0.00000000000E+00 0.  1.
         11    1    3    3    0    0 -0.12327133543E+02  0.19217166321E+02  0.35002267814E+02  0.41790147821E+02  0.00000000000E+00 0. -1.
        -11    1    4    4    0    0  0.25702468957E+02  0.49422316433E+01  0.20264171229E+02  0.33101045297E+02  0.00000000000E+00 0.  1.
         11    1    4    4    0    0 -0.68876786513E+02  0.63478163928E+02  0.33096743781E+02  0.99342254176E+02  0.00000000000E+00 0. -1.
         21    1    1    2  502  501 -0.75617509767E+02 -0.10018971887E+03  0.43277521425E+02  0.13277398620E+03  0.00000000000E+00 0. -1.
<scales pt_clust_5="13000.00000" pt_clust_6="13000.00000" pt_clust_7="13000.00000" pt_clust_8="13000.00000" pt_clust_9="117.68144"></scales>
<clustering>
<clus scale="   90.269">  7  8 -1 -1</clus>
<clus scale="  115.632">  5  6 -1 -1</clus>
<clus scale="  121.218">  1  7  2 -1</clus>
<clus scale="  117.681">  1  9  2 -1</clus>
<clus scale="  121.218">  1  5  2 -1</clus>
</clustering>
</event>
<event>
 9    1  0.1435532E-005  0.1066119E+03  0.7546771E-02  0.1267151E+00
          1   -1    0    0  502    0  0.00000000000E+00  0.00000000000E+00  0.23334397090E+03  0.23334397090E+03  0.00000000000E+00 0. -1.
         -1   -1    0    0    0  501 -0.00000000000E+00 -0.00000000000E+00 -0.90589379054E+02  0.90589379054E+02  0.00000000000E+00 0.  1.
         23    2    1    2    0    0  0.59604023486E+01  0.50092254555E+02  0.23202522369E+02  0.10562261034E+03  0.89849977226E+02 0.  0.
         23    2    1    2    0    0 -0.32357575630E+02 -0.56760059602E+02  0.17643590042E+02  0.11282799903E+03  0.90278148123E+02 0.  0.
        -11    1    3    3    0    0  0.29109115778E+02  0.65534701284E+02  0.28733864204E+02  0.77251360155E+02  0.00000000000E+00 0.  1.
         11    1    3    3    0    0 -0.23148713429E+02 -0.15442446729E+02 -0.55313418346E+01  0.28371250182E+02  0.00000000000E+00 0. -1.
        -13    1    4    4    0    0  0.68921829385E+01 -0.46880505344E+02 -0.25384437555E+02  0.53755498667E+02  0.00000000000E+00 0. -1.
         13    1    4    4    0    0 -0.39249758569E+02 -0.98795542586E+01  0.43028027597E+02  0.59072500362E+02  0.00000000000E+00 0.  1.
         21    1    1    2  502  501  0.26397173282E+02  0.66678050473E+01  0.10190847943E+03  0.10548274058E+03  0.00000000000E+00 0.  1.
<scales pt_clust_5="13000.00000" pt_clust_6="13000.00000" pt_clust_7="13000.00000" pt_clust_8="13000.00000" pt_clust_9="27.22628"></scales>
<clustering>
<clus scale="   27.226">  1  9  2 -1</clus>
<clus scale="   89.850">  5  6 -1 -1</clus>
<clus scale="   90.278">  7  8 -1 -1</clus>
<clus scale="  106.250">  2  5  1 -1</clus>
<clus scale="   27.226">  1  5  2 -1</clus>
</clustering>
</event>
<event>
 9    1  0.1435532E-005  0.2369047E+03  0.7546771E-02  0.1122179E+00
         -1   -1    0    0    0  501 -0.00000000000E+00  0.00000000000E+00  0.83435093104E+02  0.83435093104E+02  0.00000000000E+00 0.  1.
          1   -1    0    0  502    0  0.00000000000E+00 -0.00000000000E+00 -0.86745760969E+03  0.86745760969E+03  0.00000000000E+00 0. -1.
         23    2    1    2    0    0  0.21749506813E+03 -0.27685730800E+01 -0.20190981309E+03  0.31013362752E+03  0.90019579196E+02 0.  0.
         23    2    1    2    0    0 -0.22161770089E+03  0.30736365250E+02 -0.51421419741E+03  0.56721044763E+03  0.85160563551E+02 0.  0.
        -11    1    4    4    0    0 -0.20527289378E+03  0.45395981702E+02 -0.49588652601E+03  0.53861043691E+03  0.00000000000E+00 0. -1.
         11    1    4    4    0    0 -0.16344807113E+02 -0.14659616451E+02 -0.18327671408E+02  0.28600010722E+02  0.00000000000E+00 0.  1.
        -11    1    3    3    0    0  0.13822993174E+03 -0.11620106111E+02 -0.68520059136E+02  0.15471761180E+03  0.00000000000E+00 0.  1.
         11    1    3    3    0    0  0.79265136387E+02  0.88515330308E+01 -0.13338975396E+03  0.15541601572E+03  0.00000000000E+00 0. -1.
         21    1    1    2  502  501  0.41226327578E+01 -0.27967792170E+02 -0.67898506078E+02  0.73548627637E+02  0.00000000000E+00 0. -1.
<scales pt_clust_5="13000.00000" pt_clust_6="13000.00000" pt_clust_7="13000.00000" pt_clust_8="13000.00000" pt_clust_9="28.27001"></scales>
<clustering>
<clus scale="   28.270">  2  9  1 -1</clus>
<clus scale="   85.161">  5  6 -1 -1</clus>
<clus scale="   90.020">  7  8 -1 -1</clus>
<clus scale="  235.101">  2  5  1 -1</clus>
<clus scale="   28.270">  2  5  1 -1</clus>
</clustering>
</event>
<event>
 9    1  0.1435532E-005  0.1123754E+03  0.7546771E-02  0.1257263E+00
          1   -1    0    0  502    0  0.00000000000E+00  0.00000000000E+00  0.22805012746E+03  0.22805012746E+03  0.00000000000E+00 0. -1.
         -1   -1    0    0    0  501 -0.00000000000E+00 -0.00000000000E+00 -0.28002019825E+03  0.28002019825E+03  0.00000000000E+00 0.  1.
         23    2    1    2    0    0 -0.47048605483E+02  0.39529960249E+02 -0.24407483042E+03  0.26797206878E+03  0.91979985687E+02 0.  0.
         23    2    1    2    0    0  0.26670281132E+02 -0.37708742686E+02  0.19271784410E+03  0.21962952933E+03  0.94676869137E+02 0.  0.
        -11    1    4    4    0    0 -0.28782704063E+02 -0.36540204631E+02  0.61010583253E+02  0.76719761968E+02  0.00000000000E+00 0.  1.
         11    1    4    4    0    0  0.55452985194E+02 -0.11685380550E+01  0.13170726085E+03  0.14290976737E+03  0.00000000000E+00 0. -1.
        -11    1    3    3    0    0  0.16304972188E+02  0.44136299539E+02 -0.10770477857E+03  0.11753375848E+03  0.00000000000E+00 0. -1.
         11    1    3    3    0    0 -0.63353577671E+02 -0.46063392896E+01 -0.13637005185E+03  0.15043831031E+03  0.00000000000E+00 0.  1.
         21    1    1    2  502  501  0.20378324351E+02 -0.18212175631E+01 -0.61308447115E+00  0.20468727595E+02  0.00000000000E+00 0. -1.
<scales pt_clust_5="13000.00000" pt_clust_6="13000.00000" pt_clust_7="13000.00000" pt_clust_8="13000.00000" pt_clust_9="20.45954"></scales>
<clustering>
<clus scale="   20.460">  1  9  2 -1</clus>
<clus scale="   91.980">  7  8 -1 -1</clus>
<clus scale="   94.677">  5  6 -1 -1</clus>
<clus scale="  110.113">  2  7  1 -1</clus>
<clus scale="   20.460">  1  5  2 -1</clus>
</clustering>
</event>
<event>
 9    1  0.1435532E-005  0.2178659E+03  0.7546771E-02  0.1135652E+00
          1   -1    0    0  502    0  0.00000000000E+00  0.00000000000E+00  0.21080071082E+03  0.21080071082E+03  0.00000000000E+00 0. -1.
         -1   -1    0    0    0  501 -0.00000000000E+00 -0.00000000000E+00 -0.34104585942E+03  0.34104585942E+03  0.00000000000E+00 0.  1.
         23    2    1    2    0    0 -0.11087948872E+03 -0.14032727218E+03 -0.97070735262E+02  0.22297612150E+03  0.91157110420E+02 0.  0.
         23    2    1    2    0    0  0.93655109339E+02  0.20860989552E+03 -0.58935635289E+02  0.25388487377E+03  0.93245654114E+02 0.  0.
        -13    1    3    3    0    0 -0.12351594385E+03 -0.10897101555E+03 -0.92362643994E+02  0.18884313231E+03  0.00000000000E+00 0.  1.
         13    1    3    3    0    0  0.12636455128E+02 -0.31356256625E+02 -0.47080912683E+01  0.34132989191E+02  0.00000000000E+00 0. -1.
        -13    1    4    4    0    0 -0.18166765025E+02  0.46928282829E+02 -0.13953231353E+02  0.52220568227E+02  0.00000000000E+00 0.  1.
         13    1    4    4    0    0  0.11182187436E+03  0.16168161269E+03 -0.44982403936E+02  0.20166430555E+03  0.00000000000E+00 0. -1.
         21    1    1    2  502  501  0.17224379384E+02 -0.68282623342E+02  0.25761221949E+02  0.74985574959E+02  0.00000000000E+00 0.  1.
<scales pt_clust_5="13000.00000" pt_clust_6="13000.00000" pt_clust_7="13000.00000" pt_clust_8="13000.00000" pt_clust_9="70.42156"></scales>
<clustering>
<clus scale="   70.422">  1  9  2 -1</clus>
<clus scale="   91.157">  5  6 -1 -1</clus>
<clus scale="   93.246">  7  8 -1 -1</clus>
<clus scale="  216.980">  2  5  1 -1</clus>
<clus scale="   70.422">  1  5  2 -1</clus>
</clustering>
</event>
<event>
 9    1  0.1435532E-005  0.1048099E+03  0.7546771E-02  0.1274748E+00
         -2   -1    0    0    0  501 -0.00000000000E+00  0.00000000000E+00  0.11850363127E+03  0.11850363127E+03  0.00000000000E+00 0.  1.
          2   -1    0    0  502    0  0.00000000000E+00 -0.00000000000E+00 -0.23042494370E+03  0.23042494370E+03  0.00000000000E+00 0. -1.
         23    2    1    2    0    0  0.11646928468E+02  0.35857767877E+02  0.57481079047E+02  0.12080624065E+03  0.99341043236E+02 0.  0.
         23    2    1    2    0    0  0.35540950235E+02 -0.24719759637E+02 -0.88725453996E+02  0.13399731445E+03  0.90602695508E+02 0.  0.
        -11    1    4    4    0    0 -0.22841158757E+02 -0.26876817110E+02 -0.58269879924E+02  0.68113587027E+02  0.00000000000E+00 0.  1.
         11    1    4    4    0    0  0.58382108992E+02  0.21570574736E+01 -0.30455574072E+02  0.65883727424E+02  0.00000000000E+00 0. -1.
        -13    1    3    3    0    0  0.29445810831E+02 -0.42084770016E+01  0.69287605562E+02  0.75402515467E+02  0.00000000000E+00 0.  1.
         13    1    3    3    0    0 -0.17798882363E+02  0.40066244878E+02 -0.11806526515E+02  0.45403725182E+02  0.00000000000E+00 0. -1.
         21    1    1    2  502  501 -0.47187878702E+02 -0.11138008240E+02 -0.80676937486E+02  0.94125019873E+02  0.00000000000E+00 0. -1.
<scales pt_clust_5="13000.00000" pt_clust_6="13000.00000" pt_clust_7="13000.00000" pt_clust_8="13000.00000" pt_clust_9="48.48455"></scales>
<clustering>
<clus scale="   48.485">  2  9  1 -1</clus>
<clus scale="   90.603">  5  6 -1 -1</clus>
<clus scale="   96.568">  2  5  1 -1</clus>
<clus scale="   99.341">  7  8 -1 -1</clus>
<clus scale="   48.485">  2  5  1 -1</clus>
</clustering>
</event>
<event>
 9    1  0.1435532E-005  0.1811998E+03  0.7546771E-02  0.1167575E+00
         -2   -1    0    0    0  501 -0.00000000000E+00  0.00000000000E+00  0.13832077051E+03  0.13832077051E+03  0.00000000000E+00 0.  1.
          2   -1    0    0  502    0  0.00000000000E+00 -0.00000000000E+00 -0.77395924346E+03  0.77395924346E+03  0.00000000000E+00 0. -1.
         23    2    1    2    0    0  0.30189756702E+02 -0.15758335058E+03  0.58737648248E+02  0.19281602924E+03  0.89353097433E+02 0.  0.
         23    2    1    2    0    0 -0.95443033054E+01  0.13354150998E+03 -0.57605006537E+03  0.59696786098E+03  0.81317406624E+02 0.  0.
        -11    1    4    4    0    0  0.69485130741E+01  0.11987980265E+03 -0.55135517212E+03  0.56428004992E+03  0.00000000000E+00 0. -1.
         11    1    4    4    0    0 -0.16492816380E+02  0.13661707324E+02 -0.24694893248E+02  0.32687811057E+02  0.00000000000E+00 0.  1.
        -13    1    3    3    0    0 -0.85443508634E+01 -0.13402459240E+03  0.25735545392E+02  0.13674032177E+03  0.00000000000E+00 0.  1.
         13    1    3    3    0    0  0.38734107565E+02 -0.23558758176E+02  0.33002102856E+02  0.56075707473E+02  0.00000000000E+00 0. -1.
         21    1    1    2  502  501 -0.20645453396E+02  0.24041840601E+02 -0.11832605583E+03  0.12249612375E+03  0.00000000000E+00 0.  1.
<scales pt_clust_5="13000.00000" pt_clust_6="13000.00000" pt_clust_7="13000.00000" pt_clust_8="13000.00000" pt_clust_9="31.68982"></scales>
<clustering>
<clus scale="   31.690">  2  9  1 -1</clus>
<clus scale="   81.317">  5  6 -1 -1</clus>
<clus scale="   89.353">  7  8 -1 -1</clus>
<clus scale="  177.375">  2  5  1 -1</clus>
<clus scale="   31.690">  2  5  1 -1</clus>
</clustering>
</event>
<event>
 9    1  0.1435532E-005  0.1082776E+03  0.7546771E-02  0.1264525E+00
         -1   -1    0    0    0  501 -0.00000000000E+00  0.00000000000E+00  0.31995358423E+03  0.31995358423E+03  0.00000000000E+00 0.  1.
          1   -1    0    0  502    0  0.00000000000E+00 -0.00000000000E+00 -0.13749170329E+03  0.13749170329E+03  0.00000000000E+00 0. -1.
         23    2    1    2    0    0 -0.30232954915E+02  0.35886246340E+02  0.25932864766E+03  0.27928983678E+03  0.92464107589E+02 0.  0.
         23    2    1    2    0    0  0.14879578919E+02 -0.55578109763E+02 -0.98052346419E+02  0.14540908565E+03  0.90659866519E+02 0.  0.
        -13    1    3    3    0    0 -0.16116898834E+02  0.56231180395E+02  0.24224175814E+03  0.24920427256E+03  0.00000000000E+00 0.  1.
         13    1    3    3    0    0 -0.14116056081E+02 -0.20344934055E+02  0.17086889527E+02  0.30085564224E+02  0.00000000000E+00 0. -1.
        -13    1    4    4    0    0  0.42870227081E+01 -0.78942363160E+02 -0.58843389612E+02  0.98553639030E+02  0.00000000000E+00 0. -1.
         13    1    4    4    0    0  0.10592556211E+02  0.23364253398E+02 -0.39208956806E+02  0.46855446618E+02  0.00000000000E+00 0.  1.
         21    1    1    2  502  501  0.15353375996E+02  0.19691863422E+02  0.21185579692E+02  0.32746365087E+02  0.00000000000E+00 0. -1.
<scales pt_clust_5="13000.00000" pt_clust_6="13000.00000" pt_clust_7="13000.00000" pt_clust_8="13000.00000" pt_clust_9="24.96989"></scales>
<clustering>
<clus scale="   24.970">  1  9  2 -1</clus>
<clus scale="   90.660">  7  8 -1 -1</clus>
<clus scale="   92.464">  5  6 -1 -1</clus>
<clus scale="  106.741">  2  7  1 -1</clus>
<clus scale="  106.741">  2  5  1 -1</clus>
</clustering>
</event>
<event>
 9    1  0.1435532E-005  0.1070232E+03  0.7546771E-02  0.1266267E+00
         -1   -1    0    0    0  501 -0.00000000000E+00  0.00000000000E+00  0.13024234118E+03  0.13024234118E+03  0.00000000000E+00 0.  1.
          1   -1    0    0  502    0  0.00000000000E+00 -0.00000000000E+00 -0.14887278463E+03  0.14887278463E+03  0.00000000000E+00 0. -1.
         23    2    1    2    0    0 -0.27004346229E+02 -0.48568295361E+02  0.40926573348E+02  0.11477903167E+03  0.91712200255E+02 0.  0.
         23    2    1    2    0    0  0.77796628832E+01  0.56335224798E+02 -0.71535752681E+01  0.10797977838E+03  0.91511082342E+02 0.  0.
        -11    1    3    3    0    0 -0.13193367893E+02 -0.23857141618E+02  0.69439731976E+02  0.74599628280E+02  0.00000000000E+00 0.  1.
         11    1    3    3    0    0 -0.13810978336E+02 -0.24711153743E+02 -0.28513158628E+02  0.40179403391E+02  0.00000000000E+00 0. -1.
        -13    1    4    4    0    0  0.18658699322E+02 -0.13919356061E+02  0.21158611356E+02  0.31457628138E+02  0.00000000000E+00 0.  1.
         13    1    4    4    0    0 -0.10879036439E+02  0.70254580859E+02 -0.28312186625E+02  0.76522150237E+02  0.00000000000E+00 0. -1.
         21    1    1    2  502  501  0.19224683346E+02 -0.77669294364E+01 -0.52403441532E+02  0.56356315769E+02  0.00000000000E+00 0. -1.
<scales pt_clust_5="13000.00000" pt_clust_6="13000.00000" pt_clust_7="13000.00000" pt_clust_8="13000.00000" pt_clust_9="20.73436"></scales>
<clustering>
<clus scale="   20.734">  2  9  1 -1</clus>
<clus scale="   91.511">  7  8 -1 -1</clus>
<clus scale="   91.712">  5  6 -1 -1</clus>
<clus scale="  106.851">  2  7  1 -1</clus>
<clus scale="   20.734">  2  5  1 -1</clus>
</clustering>
</event>
<event>
 9    1  0.1435532E-005  0.1338822E+03  0.7546771E-02  0.1221880E+00
         -1   -1    0    0    0  501 -0.00000000000E+00  0.00000000000E+00  0.81212127040E+02  0.81212127040E+02  0.00000000000E+00 0.  1.
          1   -1    0    0  502    0  0.00000000000E+00 -0.00000000000E+00 -0.47420163624E+03  0.47420163624E+03  0.00000000000E+00 0. -1.
         23    2    1    2    0    0  0.27714494078E+02 -0.98239273184E+02 -0.94650753359E+01  0.13757972320E+03  0.91758076521E+02 0.  0.
         23    2    1    2    0    0 -0.13190917495E+02  0.82394142093E+02 -0.21622202890E+03  0.24915654554E+03  0.91456128556E+02 0.  0.
        -11    1    3    3    0    0 -0.18089642159E+02 -0.13177081903E+02 -0.31352602995E+02  0.38520856110E+02  0.00000000000E+00 0.  1.
         11    1    3    3    0    0  0.45804136237E+02 -0.85062191280E+02  0.21887527659E+02  0.99058867089E+02  0.00000000000E+00 0. -1.
        -13    1    4    4    0    0 -0.39964462102E+02  0.84738613382E+02 -0.14110718254E+03  0.16937835692E+03  0.00000000000E+00 0.  1.
         13    1    4    4    0    0  0.26773544607E+02 -0.23444712890E+01 -0.75114846351E+02  0.79778188616E+02  0.00000000000E+00 0. -1.
         21    1    1    2  502  501 -0.14523576583E+02  0.15845131091E+02 -0.16730240497E+03  0.16867749454E+03  0.00000000000E+00 0.  1.
<scales pt_clust_5="13000.00000" pt_clust_6="13000.00000" pt_clust_7="13000.00000" pt_clust_8="13000.00000" pt_clust_9="21.49424"></scales>
<clustering>
<clus scale="   21.494">  2  9  1 -1</clus>
<clus scale="   91.456">  7  8 -1 -1</clus>
<clus scale="   91.758">  5  6 -1 -1</clus>
<clus scale="  133.675">  2  7  1 -1</clus>
<clus scale="   21.494">  2  5  1 -1</clus>
</clustering>
</event>
<event>
 9    1  0.1435532E-005  0.1073794E+03  0.7546771E-02  0.1265956E+00
         -3   -1    0    0    0  501 -0.00000000000E+00  0.00000000000E+00  0.80157515591E+02  0.80157515591E+02  0.00000000000E+00 0.  1.
          3   -1    0    0  502    0  0.00000000000E+00 -0.00000000000E+00 -0.21548821135E+03  0.21548821135E+03  0.00000000000E+00 0. -1.
         23    2    1    2    0    0  0.24834649893E+02 -0.40516107209E+02 -0.45767275547E+02  0.11255248553E+03  0.91187190486E+02 0.  0.
         23    2    1    2    0    0 -0.64794102607E+02  0.25588786567E+02 -0.54295241471E+02  0.12774500572E+03  0.92291665440E+02 0.  0.
        -13    1    4    4    0    0 -0.16835914217E+02 -0.34268934986E+02 -0.25014301731E+02  0.45645626337E+02  0.00000000000E+00 0. -1.
         13    1    4    4    0    0 -0.47958188391E+02  0.59857721553E+02 -0.29280939740E+02  0.82099379384E+02  0.00000000000E+00 0.  1.
        -13    1    3    3    0    0  0.57672147665E+02 -0.26429788286E+02 -0.43153506715E+02  0.76725715812E+02  0.00000000000E+00 0.  1.
         13    1    3    3    0    0 -0.32837497772E+02 -0.14086318923E+02 -0.26137688323E+01  0.35826769715E+02  0.00000000000E+00 0. -1.
         21    1    1    2  502  501  0.39959452714E+02  0.14927320642E+02 -0.35268178745E+02  0.55348235697E+02  0.00000000000E+00 0.  1.
<scales pt_clust_5="13000.00000" pt_clust_6="13000.00000" pt_clust_7="13000.00000" pt_clust_8="13000.00000" pt_clust_9="42.65657"></scales>
<clustering>
<clus scale="   42.657">  2  9  1 -1</clus>
<clus scale="   91.187">  7  8 -1 -1</clus>
<clus scale="   92.292">  5  6 -1 -1</clus>
<clus scale="  106.432">  1  7  2 -1</clus>
<clus scale="   42.657">  2  5  1 -1</clus>
</clustering>
</event>
<event>
 9    1  0.1435532E-005  0.9478411E+02  0.7546771E-02  0.1293377E+00
         -1   -1    0    0    0  501 -0.00000000000E+00  0.00000000000E+00  0.15869968115E+03  0.15869968115E+03  0.00000000000E+00 0.  1.
          1   -1    0    0  502    0  0.00000000000E+00 -0.00000000000E+00 -0.36309169099E+03  0.36309169099E+03  0.00000000000E+00 0. -1.
         23    2    1    2    0    0 -0.91949266891E+01  0.65197215374E+01  0.11923079205E+03  0.15008192265E+03  0.90451911455E+02 0.  0.
         23    2    1    2    0    0  0.45004561626E+02 -0.28776482880E+02 -0.10983153981E+03  0.15380030071E+03  0.93477638123E+02 0.  0.
        -11    1    3    3    0    0 -0.34911197762E+02 -0.18089245188E+02  0.10433279265E+03  0.11149593779E+03  0.00000000000E+00 0.  1.
         11    1    3    3    0    0  0.25716271073E+02  0.24608966726E+02  0.14897999397E+02  0.38585984855E+02  0.00000000000E+00 0. -1.
        -11    1    4    4    0    0  0.69549670278E+02  0.30943695133E+00 -0.73325461826E+02  0.10106372118E+03  0.00000000000E+00 0. -1.
         11    1    4    4    0    0 -0.24545108652E+02 -0.29085919832E+02 -0.36506077983E+02  0.52736579534E+02  0.00000000000E+00 0.  1.
         21    1    1    2  502  501 -0.35809634937E+02  0.22256761343E+02 -0.21379126208E+03  0.21790914878E+03  0.00000000000E+00 0.  1.
<scales pt_clust_5="13000.00000" pt_clust_6="13000.00000" pt_clust_7="13000.00000" pt_clust_8="13000.00000" pt_clust_9="42.16270"></scales>
<clustering>
<clus scale="   42.163">  2  9  1 -1</clus>
<clus scale="   90.452">  5  6 -1 -1</clus>
<clus scale="   91.801">  1  5  2 -1</clus>
<clus scale="   93.478">  7  8 -1 -1</clus>
<clus scale="   42.163">  2  5  1 -1</clus>
</clustering>
</event>
<event>
 9    1  0.1435532E-005  0.1116566E+03  0.7546771E-02  0.1259372E+00
          3   -1    0    0  502    0  0.00000000000E+00  0.00000000000E+00  0.14399951998E+03  0.14399951998E+03  0.00000000000E+00 0. -1.
         -3   -1    0    0    0  501 -0.00000000000E+00 -0.00000000000E+00 -0.13237386299E+03  0.13237386299E+03  0.00000000000E+00 0.  1.
         23    2    1    2    0    0  0.18556961587E+02 -0.18255756158E+02 -0.46750314167E+02  0.10972740992E+03  0.95796028918E+02 0.  0.
         23    2    1    2    0    0 -0.50990690370E+02  0.31481439160E+02  0.60546963605E+02  0.13155211800E+03  0.10024416908E+03 0.  0.
        -11    1    4    4    0    0 -0.48995811209E+02  0.60977128567E+02  0.64937825605E+02  0.10166474767E+03  0.00000000000E+00 0. -1.
         11    1    4    4    0    0 -0.19948791611E+01 -0.29495689407E+02 -0.43908620001E+01  0.29887370335E+02  0.00000000000E+00 0.  1.
        -13    1    3    3    0    0  0.54077768478E+02 -0.28797518033E+02 -0.21677933594E+02  0.64989498331E+02  0.00000000000E+00 0.  1.
         13    1    3    3    0    0 -0.35520806891E+02  0.10541761875E+02 -0.25072380573E+02  0.44737911587E+02  0.00000000000E+00 0. -1.
         21    1    1    2  502  501  0.32433728783E+02 -0.13225683003E+02 -0.21709924523E+01  0.35093855045E+02  0.00000000000E+00 0.  1.
<scales pt_clust_5="13000.00000" pt_clust_6="13000.00000" pt_clust_7="13000.00000" pt_clust_8="13000.00000" pt_clust_9="35.02664"></scales>
<clustering>
<clus scale="   35.027">  2  9  1 -1</clus>
<clus scale="   95.796">  7  8 -1 -1</clus>
<clus scale="  100.244">  5  6 -1 -1</clus>
<clus scale="  107.681">  2  7  1 -1</clus>
<clus scale="  111.657">  1  5  2 -1</clus>
</clustering>
</event>
<event>
 9    1  0.1435532E-005  0.2135115E+03  0.7546771E-02  0.1139045E+00
          1   -1    0    0  502    0  0.00000000000E+00  0.00000000000E+00  0.84834876817E+03  0.84834876817E+03  0.00000000000E+00 0. -1.
         -1   -1    0    0    0  501 -0.00000000000E+00 -0.00000000000E+00 -0.90374848678E+02  0.90374848678E+02  0.00000000000E+00 0.  1.
         23    2    1    2    0    0 -0.71375141051E+02  0.13276178996E+03  0.22711731493E+03  0.28721275239E+03  0.90491915453E+02 0.  0.
         23    2    1    2    0    0  0.12677400526E+03 -0.21869574446E+03  0.32906455540E+03  0.42529479562E+03  0.93234674399E+02 0.  0.
        -13    1    3    3    0    0  0.11073969868E+02  0.51602779194E+02  0.11295879790E+03  0.12468026970E+03  0.00000000000E+00 0.  1.
         13    1    3    3    0    0 -0.82449110919E+02  0.81159010764E+02  0.11415851703E+03  0.16253248269E+03  0.00000000000E+00 0. -1.
        -13    1    4    4    0    0  0.60460765138E+02 -0.13016588505E+03  0.25358794302E+03  0.29138549483E+03  0.00000000000E+00 0. -1.
         13    1    4    4    0    0  0.66313240123E+02 -0.88529859414E+02  0.75476612377E+02  0.13390930080E+03  0.00000000000E+00 0.  1.
         21    1    1    2  502  501 -0.55398864210E+02  0.85933954502E+02  0.20179204916E+03  0.22621606883E+03  0.00000000000E+00 0. -1.
<scales pt_clust_5="13000.00000" pt_clust_6="13000.00000" pt_clust_7="13000.00000" pt_clust_8="13000.00000" pt_clust_9="102.24323"></scales>
<clustering>
<clus scale="   90.492">  5  6 -1 -1</clus>
<clus scale="   93.235">  7  8 -1 -1</clus>
<clus scale="  102.243">  1  9  2 -1</clus>
<clus scale="  212.328">  2  5  1 -1</clus>
<clus scale="  102.243">  1  5  2 -1</clus>
</clustering>
</event>
<event>
 9    1  0.1435532E-005  0.9850631E+02  0.7546771E-02  0.1284970E+00
         -2   -1    0    0    0  501 -0.00000000000E+00  0.00000000000E+00  0.11801368803E+03  0.11801368803E+03  0.00000000000E+00 0. -1.
          2   -1    0    0  502    0  0.00000000000E+00 -0.00000000000E+00 -0.22360126053E+03  0.22360126053E+03  0.00000000000E+00 0.  1.
         23    2    1    2    0    0 -0.41102734720E+01  0.35534525906E+02  0.61787727258E+02  0.11732205103E+03  0.93097494800E+02 0.  0.
         23    2    1    2    0    0 -0.29514903741E+02 -0.20047208604E+02 -0.68546301298E+02  0.11875768789E+03  0.90176343324E+02 0.  0.
        -11    1    3    3    0    0 -0.47376538337E+02  0.18547019901E+02  0.44933916129E+02  0.67879195271E+02  0.00000000000E+00 0. -1.
         11    1    3    3    0    0  0.43266264865E+02  0.16987506005E+02  0.16853811130E+02  0.49442855755E+02  0.00000000000E+00 0.  1.
        -13    1    4    4    0    0 -0.80044135077E+01  0.34911558825E+02 -0.38306932677E+02  0.52443385344E+02  0.00000000000E+00 0.  1.
         13    1    4    4    0    0 -0.21510490233E+02 -0.54958767429E+02 -0.30239368621E+02  0.66314302545E+02  0.00000000000E+00 0. -1.
         21    1    1    2  502  501  0.33625177213E+02 -0.15487317302E+02 -0.98828998454E+02  0.10553520965E+03  0.00000000000E+00 0.  1.
<scales pt_clust_5="13000.00000" pt_clust_6="13000.00000" pt_clust_7="13000.00000" pt_clust_8="13000.00000" pt_clust_9="37.02039"></scales>
<clustering>
<clus scale="   37.020">  2  9  1 -1</clus>
<clus scale="   90.176">  7  8 -1 -1</clus>
<clus scale="   93.097">  5  6 -1 -1</clus>
<clus scale="   95.750">  2  7  1 -1</clus>
<clus scale="   37.020">  2  5  1 -1</clus>
</clustering>
</event>
<event>
 9    1  0.1435532E-005  0.9372120E+02  0.7546771E-02  0.1295486E+00
         -2   -1    0    0    0  501 -0.00000000000E+00  0.00000000000E+00  0.37156061290E+03  0.37156061290E+03  0.00000000000E+00 0.  1.
          2   -1    0    0  502    0  0.00000000000E+00 -0.00000000000E+00 -0.45836287179E+02  0.45836287179E+02  0.00000000000E+00 0. -1.
         23    2    1    2    0    0 -0.26075667893E+02  0.43953868604E+01  0.18265046035E+03  0.20563075784E+03  0.90683835499E+02 0.  0.
         23    2    1    2    0    0 -0.10393531064E+02 -0.57077507362E+01  0.14767756345E+03  0.17498409760E+03  0.93113735616E+02 0.  0.
        -13    1    3    3    0    0  0.37996985099E+00  0.30970195942E+02  0.15741182268E+03  0.16042998265E+03  0.00000000000E+00 0.  1.
         13    1    3    3    0    0 -0.26455637744E+02 -0.26574809082E+02  0.25238637676E+02  0.45200775191E+02  0.00000000000E+00 0. -1.
        -13    1    4    4    0    0  0.41540003894E+02 -0.22712201629E+01  0.59738447423E+02  0.72797063575E+02  0.00000000000E+00 0.  1.
         13    1    4    4    0    0 -0.51933534958E+02 -0.34365305733E+01  0.87939116026E+02  0.10218703403E+03  0.00000000000E+00 0. -1.
         21    1    1    2  502  501  0.36469198958E+02  0.13123638757E+01 -0.46036980848E+01  0.36782044636E+02  0.00000000000E+00 0. -1.
<scales pt_clust_5="13000.00000" pt_clust_6="13000.00000" pt_clust_7="13000.00000" pt_clust_8="13000.00000" pt_clust_9="36.49280"></scales>
<clustering>
<clus scale="   36.493">  2  9  1 -1</clus>
<clus scale="   90.684">  5  6 -1 -1</clus>
<clus scale="   91.307">  1  5  2 -1</clus>
<clus scale="   93.114">  7  8 -1 -1</clus>
<clus scale="   36.493">  2  5  1 -1</clus>
</clustering>
</event>
<event>
 9    1  0.1435532E-005  0.9510173E+02  0.7546771E-02  0.1295190E+00
          1   -1    0    0  502    0  0.00000000000E+00  0.00000000000E+00  0.16345562161E+03  0.16345562161E+03  0.00000000000E+00 0. -1.
         -1   -1    0    0    0  501 -0.00000000000E+00 -0.00000000000E+00 -0.10463381366E+03  0.10463381366E+03  0.00000000000E+00 0.  1.
         23    2    1    2    0    0  0.26396946134E+01  0.12981942672E+02 -0.27630827175E+02  0.90225502512E+02  0.84862711894E+02 0.  0.
         23    2    1    2    0    0 -0.42474595393E+02 -0.28156367007E+02  0.35148690401E+02  0.11116177973E+03  0.92328969342E+02 0.  0.
        -11    1    4    4    0    0  0.23607826090E+02 -0.35858828566E+01 -0.11621552932E+02  0.26556515229E+02  0.00000000000E+00 0.  1.
         11    1    4    4    0    0 -0.66082421483E+02 -0.24570484150E+02  0.46770243333E+02  0.84605264504E+02  0.00000000000E+00 0. -1.
        -11    1    3    3    0    0 -0.54093741864E-01 -0.25233857787E+02  0.17738386324E+02  0.30844786501E+02  0.00000000000E+00 0.  1.
         11    1    3    3    0    0  0.26937883553E+01  0.38215800458E+02 -0.45369213499E+02  0.59380716011E+02  0.00000000000E+00 0. -1.
         21    1    1    2  502  501  0.39834900779E+02  0.15174424335E+02  0.51303944721E+02  0.66702153023E+02  0.00000000000E+00 0. -1.
<scales pt_clust_5="13000.00000" pt_clust_6="13000.00000" pt_clust_7="13000.00000" pt_clust_8="13000.00000" pt_clust_9="42.62725"></scales>
<clustering>
<clus scale="   42.627">  1  9  2 -1</clus>
<clus scale="   84.863">  7  8 -1 -1</clus>
<clus scale="   87.871">  2  7  1 -1</clus>
<clus scale="   92.329">  5  6 -1 -1</clus>
<clus scale="   42.627">  1  5  2 -1</clus>
</clustering>
</event>
<event>
 9    1  0.1435532E-005  0.1029820E+03  0.7546771E-02  0.1276626E+00
          2   -1    0    0  502    0  0.00000000000E+00  0.00000000000E+00  0.55738251708E+03  0.55738251708E+03  0.00000000000E+00 0. -1.
         -2   -1    0    0    0  501 -0.00000000000E+00 -0.00000000000E+00 -0.42579172723E+02  0.42579172723E+02  0.00000000000E+00 0.  1.
         23    2    1    2    0    0 -0.26213059916E+02  0.35773724761E+02  0.50743768269E+02  0.11764966841E+03  0.96434592157E+02 0.  0.
         23    2    1    2    0    0  0.33112052187E+02 -0.13345450276E+02  0.42943657602E+03  0.44048648225E+03  0.91312973796E+02 0.  0.
        -11    1    4    4    0    0  0.48275080192E+02  0.22664394680E+02  0.31699419849E+03  0.32144903178E+03  0.00000000000E+00 0.  1.
         11    1    4    4    0    0 -0.15163028005E+02 -0.36009844956E+02  0.11244237752E+03  0.11903745047E+03  0.00000000000E+00 0. -1.
        -13    1    3    3    0    0 -0.57563076986E+02  0.44271909873E+02  0.27254595625E+02  0.77564958702E+02  0.00000000000E+00 0.  1.
         13    1    3    3    0    0  0.31350017070E+02 -0.84981851118E+01  0.23489172645E+02  0.40084709704E+02  0.00000000000E+00 0. -1.
         21    1    1    2  502  501 -0.68989922719E+01 -0.22428274485E+02  0.34623000073E+02  0.41825539146E+02  0.00000000000E+00 0. -1.
<scales pt_clust_5="13000.00000" pt_clust_6="13000.00000" pt_clust_7="13000.00000" pt_clust_8="13000.00000" pt_clust_9="23.46537"></scales>
<clustering>
<clus scale="   23.465">  2  9  1 -1</clus>
<clus scale="   91.313">  5  6 -1 -1</clus>
<clus scale="   96.435">  7  8 -1 -1</clus>
<clus scale="   98.202">  1  5  2 -1</clus>
<clus scale="   98.202">  1  5  2 -1</clus>
</clustering>
</event>
<event>
 9    1  0.1435532E-005  0.1289969E+03  0.7546771E-02  0.1228991E+00
         -1   -1    0    0    0  501 -0.00000000000E+00  0.00000000000E+00  0.26782853068E+03  0.26782853068E+03  0.00000000000E+00 0.  1.
          1   -1    0    0  502    0  0.00000000000E+00 -0.00000000000E+00 -0.10857640279E+03  0.10857640279E+03  0.00000000000E+00 0. -1.
         23    2    1    2    0    0 -0.42591368595E+02  0.79845034692E+02  0.16283546419E+03  0.20722515112E+03  0.90761338770E+02 0.  0.
         23    2    1    2    0    0  0.68971520702E+02 -0.68623714367E+02  0.16502240964E+02  0.13417605584E+03  0.90909873846E+02 0.  0.
        -11    1    4    4    0    0 -0.17796224176E+02 -0.34374966533E+02  0.12981273085E+02  0.40827164609E+02  0.00000000000E+00 0.  1.
         11    1    4    4    0    0  0.86767744878E+02 -0.34248747834E+02  0.35209678796E+01  0.93348891232E+02  0.00000000000E+00 0. -1.
        -13    1    3    3    0    0 -0.67208491068E+02  0.64803894626E+02  0.14747148186E+03  0.17454043655E+03  0.00000000000E+00 0.  1.
         13    1    3    3    0    0  0.24617122473E+02  0.15041140067E+02  0.15363982331E+02  0.32684714568E+02  0.00000000000E+00 0. -1.
         21    1    1    2  502  501 -0.26380152107E+02 -0.11221320325E+02 -0.20085577262E+02  0.35003726501E+02  0.00000000000E+00 0. -1.
<scales pt_clust_5="13000.00000" pt_clust_6="13000.00000" pt_clust_7="13000.00000" pt_clust_8="13000.00000" pt_clust_9="28.66759"></scales>
<clustering>
<clus scale="   28.668">  2  9  1 -1</clus>
<clus scale="   90.761">  7  8 -1 -1</clus>
<clus scale="   90.910">  5  6 -1 -1</clus>
<clus scale="  128.892">  1  7  2 -1</clus>
<clus scale="   28.668">  2  5  1 -1</clus>
</clustering>
</event>
<event>
 9    1  0.1435532E-005  0.1471329E+03  0.7546771E-02  0.1204998E+00
         -3   -1    0    0    0  501 -0.00000000000E+00  0.00000000000E+00  0.67263555137E+02  0.67263555137E+02  0.00000000000E+00 0.  1.
          3   -1    0    0  502    0  0.00000000000E+00 -0.00000000000E+00 -0.90147701364E+03  0.90147701364E+03  0.00000000000E+00 0. -1.
         23    2    1    2    0    0 -0.10648472143E+02 -0.15054646722E+03 -0.16484634536E+03  0.24104537901E+03  0.90282492273E+02 0.  0.
         23    2    1    2    0    0 -0.85117219009E+02  0.53777610378E+02 -0.23774258932E+03  0.27510817181E+03  0.95005237067E+02 0.  0.
        -11    1    3    3    0    0 -0.25123412949E+02 -0.47236902238E+02 -0.11195939339E+03  0.12408632713E+03  0.00000000000E+00 0. -1.
         11    1    3    3    0    0  0.14474940806E+02 -0.10330956499E+03 -0.52886951966E+02  0.11695905188E+03  0.00000000000E+00 0.  1.
        -11    1    4    4    0    0 -0.38010579517E+01  0.45472723577E+02 -0.38331394711E+02  0.59594567299E+02  0.00000000000E+00 0.  1.
         11    1    4    4    0    0 -0.81316161057E+02  0.83048868013E+01 -0.19941119461E+03  0.21551360451E+03  0.00000000000E+00 0. -1.
         21    1    1    2  502  501  0.95765691152E+02  0.96768856846E+02 -0.43162452382E+03  0.45258701795E+03  0.00000000000E+00 0. -1.
<scales pt_clust_5="13000.00000" pt_clust_6="13000.00000" pt_clust_7="13000.00000" pt_clust_8="13000.00000" pt_clust_9="136.14433"></scales>
<clustering>
<clus scale="   90.282">  5  6 -1 -1</clus>
<clus scale="   95.005">  7  8 -1 -1</clus>
<clus scale="  136.144">  2  9  1 -1</clus>
<clus scale="  144.128">  1  5  2 -1</clus>
<clus scale="  136.144">  2  5  1 -1</clus>
</clustering>
</event>
<event>
 9    1  0.1435532E-005  0.9879754E+02  0.7546771E-02  0.1283520E+00
          2   -1    0    0  502    0  0.00000000000E+00  0.00000000000E+00  0.67151824860E+02  0.67151824860E+02  0.00000000000E+00 0. -1.
         -2   -1    0    0    0  501 -0.00000000000E+00 -0.00000000000E+00 -0.43067557682E+03  0.43067557682E+03  0.00000000000E+00 0.  1.
         23    2    1    2    0    0  0.25208929638E+02 -0.26413601420E+02 -0.34897949549E+03  0.36216847405E+03  0.89700316876E+02 0.  0.
         23    2    1    2    0    0 -0.50807425780E+02  0.19613251942E+02 -0.21524318053E+02  0.10826825372E+03  0.91063957362E+02 0.  0.
        -11    1    4    4    0    0  0.26505902994E+02  0.81863081180E+01 -0.86732039870E+01  0.29065495033E+02  0.00000000000E+00 0. -1.
         11    1    4    4    0    0 -0.77313328774E+02  0.11426943824E+02 -0.12851114066E+02  0.79202758689E+02  0.00000000000E+00 0.  1.
        -13    1    3    3    0    0  0.61909154316E+01 -0.58388691734E+02 -0.23725500574E+03  0.24441257027E+03  0.00000000000E+00 0.  1.
         13    1    3    3    0    0  0.19018014207E+02  0.31975090314E+02 -0.11172448975E+03  0.11775590378E+03  0.00000000000E+00 0. -1.
         21    1    1    2  502  501  0.25598496142E+02  0.68003494775E+01  0.69800615805E+01  0.27390673913E+02  0.00000000000E+00 0.  1.
<scales pt_clust_5="13000.00000" pt_clust_6="13000.00000" pt_clust_7="13000.00000" pt_clust_8="13000.00000" pt_clust_9="26.48637"></scales>
<clustering>
<clus scale="   26.486">  1  9  2 -1</clus>
<clus scale="   89.700">  7  8 -1 -1</clus>
<clus scale="   91.064">  5  6 -1 -1</clus>
<clus scale="   97.542">  2  7  1 -1</clus>
<clus scale="   26.486">  1  5  2 -1</clus>
</clustering>
</event>
<event>
 9    1  0.1435532E-005  0.1188857E+03  0.7546771E-02  0.1245749E+00
         -2   -1    0    0    0  501 -0.00000000000E+00  0.00000000000E+00  0.26834058494E+03  0.26834058494E+03  0.00000000000E+00 0.  1.
          2   -1    0    0  502    0  0.00000000000E+00 -0.00000000000E+00 -0.87959057221E+02  0.87959057221E+02  0.00000000000E+00 0. -1.
         23    2    1    2    0    0  0.19752249849E+02 -0.79383007687E+02  0.16682901185E+03  0.20709060094E+03  0.91448261450E+02 0.  0.
         23    2    1    2    0    0  0.10054113154E+02  0.55306036324E+02  0.17036117011E+02  0.11073495510E+03  0.93873096006E+02 0.  0.
        -11    1    4    4    0    0  0.28144140328E+02 -0.10000288214E+02 -0.17561629160E+02  0.34648365300E+02  0.00000000000E+00 0.  1.
         11    1    4    4    0    0 -0.18090027174E+02  0.65306324538E+02  0.34597746171E+02  0.76086589803E+02  0.00000000000E+00 0. -1.
        -13    1    3    3    0    0  0.45992425873E+02 -0.57182470447E+02  0.15365789002E+03  0.17028178214E+03  0.00000000000E+00 0.  1.
         13    1    3    3    0    0 -0.26240176024E+02 -0.22200537239E+02  0.13171121828E+02  0.36808818804E+02  0.00000000000E+00 0. -1.
         21    1    1    2  502  501 -0.29806363003E+02  0.24076971363E+02 -0.34836011383E+01  0.38474086115E+02  0.00000000000E+00 0. -1.
<scales pt_clust_5="13000.00000" pt_clust_6="13000.00000" pt_clust_7="13000.00000" pt_clust_8="13000.00000" pt_clust_9="38.31605"></scales>
<clustering>
<clus scale="   38.316">  2  9  1 -1</clus>
<clus scale="   91.448">  7  8 -1 -1</clus>
<clus scale="   93.873">  5  6 -1 -1</clus>
<clus scale="  116.981">  1  7  2 -1</clus>
<clus scale="   38.316">  2  5  1 -1</clus>
</clustering>
</event>
<event>
 9    1  0.1435532E-005  0.2942650E+03  0.7546771E-02  0.1088175E+00
          1   -1    0    0  502    0  0.00000000000E+00  0.00000000000E+00  0.13104524272E+04  0.13104524272E+04  0.00000000000E+00 0. -1.
         -1   -1    0    0    0  501 -0.00000000000E+00 -0.00000000000E+00 -0.16843202244E+03  0.16843202244E+03  0.00000000000E+00 0.  1.
         23    2    1    2    0    0  0.82067076558E+02  0.25673547340E+03  0.10001197795E+02  0.28399350401E+03  0.88905444188E+02 0.  0.
         23    2    1    2    0    0 -0.11483557354E+03 -0.25783004635E+03  0.11224459518E+04  0.11607351306E+04  0.88077164852E+02 0.  0.
        -11    1    3    3    0    0  0.21359630379E+02  0.17432998583E+02  0.24224977981E+02  0.36701400623E+02  0.00000000000E+00 0. -1.
         11    1    3    3    0    0  0.60707446179E+02  0.23930247482E+03 -0.14223780186E+02  0.24729210339E+03  0.00000000000E+00 0.  1.
        -13    1    4    4    0    0 -0.28806128905E+02 -0.17107964421E+03  0.65443676639E+03  0.67704174091E+03  0.00000000000E+00 0. -1.
         13    1    4    4    0    0 -0.86029444636E+02 -0.86750402146E+02  0.46800918539E+03  0.48369338969E+03  0.00000000000E+00 0.  1.
         21    1    1    2  502  501  0.32768496983E+02  0.10945729501E+01  0.95732551603E+01  0.34155815008E+02  0.00000000000E+00 0. -1.
<scales pt_clust_5="13000.00000" pt_clust_6="13000.00000" pt_clust_7="13000.00000" pt_clust_8="13000.00000" pt_clust_9="32.78677"></scales>
<clustering>
<clus scale="   32.787">  2  9  1 -1</clus>
<clus scale="   88.077">  7  8 -1 -1</clus>
<clus scale="   88.905">  5  6 -1 -1</clus>
<clus scale="  294.016">  1  7  2 -1</clus>
<clus scale="  294.016">  1  5  2 -1</clus>
</clustering>
</event>
<event>
 9    1  0.1435532E-005  0.9558286E+02  0.7546771E-02  0.1290294E+00
          2   -1    0    0  502    0  0.00000000000E+00  0.00000000000E+00  0.22149586165E+03  0.22149586165E+03  0.00000000000E+00 0. -1.
         -2   -1    0    0    0  501 -0.00000000000E+00 -0.00000000000E+00 -0.74583987572E+02  0.74583987572E+02  0.00000000000E+00 0.  1.
         23    2    1    2    0    0 -0.65166210566E+01 -0.64804886584E+01  0.38654327374E+02  0.10066998152E+03  0.92497703065E+02 0.  0.
         23    2    1    2    0    0  0.38212965051E+02 -0.24105175013E+02  0.31621286652E+02  0.10701723565E+03  0.91714190817E+02 0.  0.
        -11    1    4    4    0    0 -0.10403566427E+02 -0.46296341538E+02  0.62563246452E+01  0.47861540220E+02  0.00000000000E+00 0. -1.
         11    1    4    4    0    0  0.48616531478E+02  0.22191166525E+02  0.25364962007E+02  0.59155695434E+02  0.00000000000E+00 0.  1.
        -13    1    3    3    0    0 -0.25869969662E+02  0.22583829791E+02 -0.14332965292E+02  0.37211807164E+02  0.00000000000E+00 0.  1.
         13    1    3    3    0    0  0.19353348606E+02 -0.29064318450E+02  0.52987292665E+02  0.63458174361E+02  0.00000000000E+00 0. -1.
         21    1    1    2  502  501 -0.31696343995E+02  0.30585663671E+02  0.76636260055E+02  0.88392632046E+02  0.00000000000E+00 0.  1.
<scales pt_clust_5="13000.00000" pt_clust_6="13000.00000" pt_clust_7="13000.00000" pt_clust_8="13000.00000" pt_clust_9="44.04703"></scales>
<clustering>
<clus scale="   44.047">  1  9  2 -1</clus>
<clus scale="   91.714">  5  6 -1 -1</clus>
<clus scale="   92.498">  7  8 -1 -1</clus>
<clus scale="   94.825">  1  5  2 -1</clus>
<clus scale="   44.047">  1  5  2 -1</clus>
</clustering>
</event>
<event>
 9    1  0.1435532E-005  0.9286591E+02  0.7546771E-02  0.1296610E+00
         -1   -1    0    0    0  501 -0.00000000000E+00  0.00000000000E+00  0.12454884824E+03  0.12454884824E+03  0.00000000000E+00 0.  1.
          1   -1    0    0  502    0  0.00000000000E+00 -0.00000000000E+00 -0.10623286111E+03  0.10623286111E+03  0.00000000000E+00 0. -1.
         23    2    1    2    0    0  0.17648795477E+02  0.24415821953E+01  0.57531099492E+02  0.10886950584E+03  0.90693442913E+02 0.  0.
         23    2    1    2    0    0 -0.22566984054E+01 -0.17325780116E+02 -0.37045270137E+02  0.10039095319E+03  0.91655420453E+02 0.  0.
        -11    1    4    4    0    0 -0.20151004333E+02  0.30867165132E+02 -0.31859161935E+02  0.48722182403E+02  0.00000000000E+00 0. -1.
         11    1    4    4    0    0  0.17894305928E+02 -0.48192945248E+02 -0.51861082023E+01  0.51668770787E+02  0.00000000000E+00 0.  1.
        -11    1    3    3    0    0 -0.26940573262E+01  0.34913290892E+02 -0.51603648189E+01  0.35395270741E+02  0.00000000000E+00 0. -1.
         11    1    3    3    0    0  0.20342852803E+02 -0.32471708696E+02  0.62691464311E+02  0.73474235098E+02  0.00000000000E+00 0.  1.
         21    1    1    2  502  501 -0.15392097071E+02  0.14884197921E+02 -0.21698422293E+01  0.21521250319E+02  0.00000000000E+00 0. -1.
<scales pt_clust_5="13000.00000" pt_clust_6="13000.00000" pt_clust_7="13000.00000" pt_clust_8="13000.00000" pt_clust_9="21.41159"></scales>
<clustering>
<clus scale="   21.412">  2  9  1 -1</clus>
<clus scale="   90.693">  7  8 -1 -1</clus>
<clus scale="   91.655">  5  6 -1 -1</clus>
<clus scale="   91.917">  1  7  2 -1</clus>
<clus scale="   21.412">  2  5  1 -1</clus>
</clustering>
</event>
<event>
 9    1  0.1435532E-005  0.1000231E+03  0.7546771E-02  0.1281550E+00
          1   -1    0    0  502    0  0.00000000000E+00  0.00000000000E+00  0.59044002976E+02  0.59044002976E+02  0.00000000000E+00 0. -1.
         -1   -1    0    0    0  501 -0.00000000000E+00 -0.00000000000E+00 -0.34311497562E+03  0.34311497562E+03  0.00000000000E+00 0.  1.
         23    2    1    2    0    0  0.25295270262E+02 -0.27566565151E+02 -0.24091920929E+03  0.25988201671E+03  0.89982392674E+02 0.  0.
         23    2    1    2    0    0 -0.22652293834E+01  0.47287134823E+02 -0.41222813373E+02  0.11189597278E+03  0.92629282614E+02 0.  0.
        -11    1    4    4    0    0  0.70951992106E+01 -0.26562889072E+02 -0.21456151385E+02  0.34875426305E+02  0.00000000000E+00 0.  1.
         11    1    4    4    0    0 -0.93604285940E+01  0.73850023895E+02 -0.19766661988E+02  0.77020546472E+02  0.00000000000E+00 0. -1.
        -11    1    3    3    0    0  0.19879511011E+02 -0.56044192111E+02 -0.10285819597E+03  0.11881058415E+03  0.00000000000E+00 0.  1.
         11    1    3    3    0    0  0.54157592507E+01  0.28477626961E+02 -0.13806101332E+03  0.14107143256E+03  0.00000000000E+00 0. -1.
         21    1    1    2  502  501 -0.23030040879E+02 -0.19720569672E+02 -0.19289499757E+01  0.30380989106E+02  0.00000000000E+00 0.  1.
<scales pt_clust_5="13000.00000" pt_clust_6="13000.00000" pt_clust_7="13000.00000" pt_clust_8="13000.00000" pt_clust_9="30.31969"></scales>
<clustering>
<clus scale="   30.320">  1  9  2 -1</clus>
<clus scale="   89.982">  7  8 -1 -1</clus>
<clus scale="   92.629">  5  6 -1 -1</clus>
<clus scale="   97.577">  2  7  1 -1</clus>
<clus scale="   30.320">  1  5  2 -1</clus>
</clustering>
</event>
<event>
 9    1  0.1435532E-005  0.1149878E+03  0.7546771E-02  0.1252599E+00
          1   -1    0    0  502    0  0.00000000000E+00  0.00000000000E+00  0.55487001685E+03  0.55487001685E+03  0.00000000000E+00 0. -1.
         -1   -1    0    0    0  501 -0.00000000000E+00 -0.00000000000E+00 -0.46864273458E+02  0.46864273458E+02  0.00000000000E+00 0.  1.
         23    2    1    2    0    0 -0.59854676330E+02 -0.52703756719E+02  0.74028420684E+02  0.14292663043E+03  0.92669015142E+02 0.  0.
         23    2    1    2    0    0  0.42547205589E+02  0.12344139544E+02  0.24287125070E+03  0.26272100046E+03  0.89851194660E+02 0.  0.
        -11    1    3    3    0    0 -0.19433322253E+02 -0.43734389074E+02  0.87206750311E+02  0.99475464821E+02  0.00000000000E+00 0.  1.
         11    1    3    3    0    0 -0.40421354077E+02 -0.89693676449E+01 -0.13178329627E+02  0.43451165613E+02  0.00000000000E+00 0. -1.
        -13    1    4    4    0    0 -0.60180938039E+01  0.31982302037E+02  0.32756636792E+02  0.46174477263E+02  0.00000000000E+00 0.  1.
         13    1    4    4    0    0  0.48565299393E+02 -0.19638162492E+02  0.21011461391E+03  0.21654652320E+03  0.00000000000E+00 0. -1.
         21    1    1    2  502  501  0.17307470741E+02  0.40359617175E+02  0.19110607201E+03  0.19608665942E+03  0.00000000000E+00 0. -1.
<scales pt_clust_5="13000.00000" pt_clust_6="13000.00000" pt_clust_7="13000.00000" pt_clust_8="13000.00000" pt_clust_9="43.91409"></scales>
<clustering>
<clus scale="   43.914">  1  9  2 -1</clus>
<clus scale="   89.851">  7  8 -1 -1</clus>
<clus scale="   92.669">  5  6 -1 -1</clus>
<clus scale="  112.729">  1  7  2 -1</clus>
<clus scale="   43.914">  1  5  2 -1</clus>
</clustering>
</event>
<event>
 9    1  0.1435532E-005  0.1667024E+03  0.7546771E-02  0.1182002E+00
         -1   -1    0    0    0  501 -0.00000000000E+00  0.00000000000E+00  0.87310302294E+02  0.87310302294E+02  0.00000000000E+00 0.  1.
          1   -1    0    0  502    0  0.00000000000E+00 -0.00000000000E+00 -0.38372220243E+03  0.38372220243E+03  0.00000000000E+00 0. -1.
         23    2    1    2    0    0  0.11930197564E+03 -0.40968179523E+02 -0.11692047027E+03  0.19686374812E+03  0.95778838115E+02 0.  0.
         23    2    1    2    0    0 -0.13620702737E+03  0.56712272778E+02 -0.12179814674E+03  0.21202237968E+03  0.91378688683E+02 0.  0.
        -13    1    4    4    0    0 -0.44676307092E+02  0.45277344858E+01  0.71844660330E+01  0.45476250364E+02  0.00000000000E+00 0.  1.
         13    1    4    4    0    0 -0.91530720282E+02  0.52184538293E+02 -0.12898261277E+03  0.16654612931E+03  0.00000000000E+00 0. -1.
        -13    1    3    3    0    0  0.65430832214E+02 -0.47054420985E+02 -0.11769494716E+03  0.14264435819E+03  0.00000000000E+00 0. -1.
         13    1    3    3    0    0  0.53871143427E+02  0.60862414613E+01  0.77447689116E+00  0.54219389924E+02  0.00000000000E+00 0.  1.
         21    1    1    2  502  501  0.16905051733E+02 -0.15744093255E+02 -0.57693283130E+02  0.62146376924E+02  0.00000000000E+00 0. -1.
<scales pt_clust_5="13000.00000" pt_clust_6="13000.00000" pt_clust_7="13000.00000" pt_clust_8="13000.00000" pt_clust_9="23.10102"></scales>
<clustering>
<clus scale="   23.101">  2  9  1 -1</clus>
<clus scale="   91.379">  5  6 -1 -1</clus>
<clus scale="   95.779">  7  8 -1 -1</clus>
<clus scale="  164.214">  2  5  1 -1</clus>
<clus scale="   23.101">  2  5  1 -1</clus>
</clustering>
</event>
<event>
 9    1  0.1435532E-005  0.1516623E+03  0.7546771E-02  0.1198504E+00
          1   -1    0    0  502    0  0.00000000000E+00  0.00000000000E+00  0.28694924267E+03  0.28694924267E+03  0.00000000000E+00 0. -1.
         -1   -1    0    0    0  501 -0.00000000000E+00 -0.00000000000E+00 -0.11126979994E+03  0.11126979994E+03  0.00000000000E+00 0.  1.
         23    2    1    2    0    0 -0.53329400606E+02 -0.11281661706E+03  0.66980903525E+01  0.15469568361E+03  0.91182652176E+02 0.  0.
         23    2    1    2    0    0  0.29815996418E+02  0.11157174155E+03  0.12206881126E+03  0.19103320368E+03  0.90860569407E+02 0.  0.
        -11    1    3    3    0    0 -0.29603432621E+02 -0.68590149221E+02  0.48761322262E+02  0.89211200764E+02  0.00000000000E+00 0. -1.
         11    1    3    3    0    0 -0.23725967985E+02 -0.44226467841E+02 -0.42063231909E+02  0.65484482842E+02  0.00000000000E+00 0.  1.
        -13    1    4    4    0    0 -0.68737254933E+01  0.93228551596E+02  0.45046466656E+02  0.10376895053E+03  0.00000000000E+00 0.  1.
         13    1    4    4    0    0  0.36689721911E+02  0.18343189956E+02  0.77022344600E+02  0.87264253159E+02  0.00000000000E+00 0. -1.
         21    1    1    2  502  501  0.23513404187E+02  0.12448755093E+01  0.46912541119E+02  0.52490155322E+02  0.00000000000E+00 0.  1.
<scales pt_clust_5="13000.00000" pt_clust_6="13000.00000" pt_clust_7="13000.00000" pt_clust_8="13000.00000" pt_clust_9="23.54633"></scales>
<clustering>
<clus scale="   23.546">  1  9  2 -1</clus>
<clus scale="   90.861">  7  8 -1 -1</clus>
<clus scale="   91.183">  5  6 -1 -1</clus>
<clus scale="  151.469">  1  7  2 -1</clus>
<clus scale="   23.546">  1  5  2 -1</clus>
</clustering>
</event>
<event>
 9    1  0.1435532E-005  0.1064451E+03  0.7546771E-02  0.1270027E+00
         -1   -1    0    0    0  501 -0.00000000000E+00  0.00000000000E+00  0.66845669763E+02  0.66845669763E+02  0.00000000000E+00 0.  1.
          1   -1    0    0  502    0  0.00000000000E+00 -0.00000000000E+00 -0.42469938728E+03  0.42469938728E+03  0.00000000000E+00 0. -1.
         23    2    1    2    0    0  0.10710698524E+00 -0.52936743096E+02 -0.50075257213E+01  0.10445138681E+03  0.89903874509E+02 0.  0.
         23    2    1    2    0    0 -0.21352139355E+02  0.69696728795E+01 -0.29045445429E+03  0.30673788728E+03  0.96020056662E+02 0.  0.
        -11    1    4    4    0    0 -0.20770877661E+02 -0.40450398757E+02 -0.19397007880E+03  0.19922865152E+03  0.00000000000E+00 0.  1.
         11    1    4    4    0    0 -0.58126169440E+00  0.47420071637E+02 -0.96484375487E+02  0.10750923575E+03  0.00000000000E+00 0. -1.
        -13    1    3    3    0    0  0.40126625592E+02 -0.32125596846E+02  0.17160531993E+02  0.54191179286E+02  0.00000000000E+00 0.  1.
         13    1    3    3    0    0 -0.40019518607E+02 -0.20811146250E+02 -0.22168057714E+02  0.50260207526E+02  0.00000000000E+00 0. -1.
         21    1    1    2  502  501  0.21245032370E+02  0.45967070217E+02 -0.62391737515E+02  0.80355782959E+02  0.00000000000E+00 0. -1.
<scales pt_clust_5="13000.00000" pt_clust_6="13000.00000" pt_clust_7="13000.00000" pt_clust_8="13000.00000" pt_clust_9="50.63914"></scales>
<clustering>
<clus scale="   50.639">  2  9  1 -1</clus>
<clus scale="   89.904">  7  8 -1 -1</clus>
<clus scale="   96.020">  5  6 -1 -1</clus>
<clus scale="  100.962">  1  7  2 -1</clus>
<clus scale="   50.639">  2  5  1 -1</clus>
</clustering>
</event>
<event>
 9    1  0.1435532E-005  0.1015220E+03  0.7546771E-02  0.1277613E+00
         -2   -1    0    0    0  501 -0.00000000000E+00  0.00000000000E+00  0.24632294768E+03  0.24632294768E+03  0.00000000000E+00 0.  1.
          2   -1    0    0  502    0  0.00000000000E+00 -0.00000000000E+00 -0.11195700432E+03  0.11195700432E+03  0.00000000000E+00 0. -1.
         23    2    1    2    0    0  0.59273110936E+02  0.11831844943E+02  0.15092479787E+03  0.18618153974E+03  0.90730242437E+02 0.  0.
         23    2    1    2    0    0 -0.18067538362E+02 -0.11842220409E+02  0.41298949976E+02  0.10106725812E+03  0.89678945515E+02 0.  0.
        -11    1    4    4    0    0 -0.48097597094E+02  0.79675779836E+01  0.34901722413E+01  0.48877831861E+02  0.00000000000E+00 0. -1.
         11    1    4    4    0    0  0.30030058732E+02 -0.19809798393E+02  0.37808777734E+02  0.52189426262E+02  0.00000000000E+00 0.  1.
        -11    1    3    3    0    0  0.21600019127E+02  0.48730594183E+02  0.54218069975E+02  0.76031774591E+02  0.00000000000E+00 0.  1.
         11    1    3    3    0    0  0.37673091809E+02 -0.36898749240E+02  0.96706727896E+02  0.11014976515E+03  0.00000000000E+00 0. -1.
         21    1    1    2  502  501 -0.41205572574E+02  0.10375466815E-01 -0.57857804480E+02  0.71031154137E+02  0.00000000000E+00 0. -1.
<scales pt_clust_5="13000.00000" pt_clust_6="13000.00000" pt_clust_7="13000.00000" pt_clust_8="13000.00000" pt_clust_9="41.20557"></scales>
<clustering>
<clus scale="   41.206">  2  9  1 -1</clus>
<clus scale="   89.679">  5  6 -1 -1</clus>
<clus scale="   90.730">  7  8 -1 -1</clus>
<clus scale="  100.584">  2  5  1 -1</clus>
<clus scale="   41.206">  2  5  1 -1</clus>
</clustering>
</event>
<event>
 9    1  0.1435532E-005  0.1447626E+03  0.7546771E-02  0.1208556E+00
         -3   -1    0    0    0  501 -0.00000000000E+00  0.00000000000E+00  0.51924024140E+03  0.51924024140E+03  0.00000000000E+00 0.  1.
          3   -1    0    0  502    0  0.00000000000E+00 -0.00000000000E+00 -0.10348653619E+03  0.10348653619E+03  0.00000000000E+00 0. -1.
         23    2    1    2    0    0 -0.92196561457E+02  0.43818288514E+00  0.23943825381E+03  0.27007740611E+03  0.84325144267E+02 0.  0.
         23    2    1    2    0    0  0.15400624908E+03 -0.81827328359E+01  0.21444511596E+03  0.27961316910E+03  0.91716599908E+02 0.  0.
        -11    1    4    4    0    0  0.61585972280E+02 -0.31928357139E+02  0.14765511668E+03  0.16313885329E+03  0.00000000000E+00 0.  1.
         11    1    4    4    0    0  0.92420276804E+02  0.23745624303E+02  0.66789999279E+02  0.11647431580E+03  0.00000000000E+00 0. -1.
        -13    1    3    3    0    0 -0.74879960474E+01 -0.20276616079E+02  0.85058864220E+01  0.23228459877E+02  0.00000000000E+00 0. -1.
         13    1    3    3    0    0 -0.84708565409E+02  0.20714798964E+02  0.23093236739E+03  0.24684894623E+03  0.00000000000E+00 0.  1.
         21    1    1    2  502  501 -0.61809687628E+02  0.77445499508E+01 -0.38129664564E+02  0.73036202382E+02  0.00000000000E+00 0. -1.
<scales pt_clust_5="13000.00000" pt_clust_6="13000.00000" pt_clust_7="13000.00000" pt_clust_8="13000.00000" pt_clust_9="62.29298"></scales>
<clustering>
<clus scale="   62.293">  2  9  1 -1</clus>
<clus scale="   84.325">  7  8 -1 -1</clus>
<clus scale="   91.717">  5  6 -1 -1</clus>
<clus scale="  140.196">  1  7  2 -1</clus>
<clus scale="   62.293">  2  5  1 -1</clus>
</clustering>
</event>
<event>
 9    1  0.1435532E-005  0.1091949E+03  0.7546771E-02  0.1262351E+00
          1   -1    0    0  502    0  0.00000000000E+00  0.00000000000E+00  0.14701937094E+03  0.14701937094E+03  0.00000000000E+00 0. -1.
         -1   -1    0    0    0  501 -0.00000000000E+00 -0.00000000000E+00 -0.10836307896E+03  0.10836307896E+03  0.00000000000E+00 0.  1.
         23    2    1    2    0    0  0.52036251650E+02 -0.46266594528E+01 -0.93821958274E+01  0.10495663271E+03  0.90546627153E+02 0.  0.
         23    2    1    2    0    0 -0.76227284242E+02  0.69549433977E+01  0.43051861117E+02  0.12561667755E+03  0.89817129946E+02 0.  0.
        -13    1    3    3    0    0  0.22873745275E+02  0.42245597173E+02 -0.12579634755E+02  0.49660305215E+02  0.00000000000E+00 0. -1.
         13    1    3    3    0    0  0.29162506376E+02 -0.46872256626E+02  0.31974389280E+01  0.55296327500E+02  0.00000000000E+00 0.  1.
        -13    1    4    4    0    0 -0.63568698335E+02  0.34067940579E+02  0.57642022427E+02  0.92326630680E+02  0.00000000000E+00 0. -1.
         13    1    4    4    0    0 -0.12658585907E+02 -0.27112997182E+02 -0.14590161310E+02  0.33290046867E+02  0.00000000000E+00 0.  1.
         21    1    1    2  502  501  0.24191032592E+02 -0.23282839449E+01  0.49866266897E+01  0.24809139641E+02  0.00000000000E+00 0. -1.
<scales pt_clust_5="13000.00000" pt_clust_6="13000.00000" pt_clust_7="13000.00000" pt_clust_8="13000.00000" pt_clust_9="24.30282"></scales>
<clustering>
<clus scale="   24.303">  1  9  2 -1</clus>
<clus scale="   89.817">  7  8 -1 -1</clus>
<clus scale="   90.547">  5  6 -1 -1</clus>
<clus scale="  108.591">  1  7  2 -1</clus>
<clus scale="   24.303">  1  5  2 -1</clus>
</clustering>
</event>
<event>
 9    1  0.1435532E-005  0.9832837E+02  0.7546771E-02  0.1285803E+00
         -1   -1    0    0    0  501 -0.00000000000E+00  0.00000000000E+00  0.45100164314E+02  0.45100164314E+02  0.00000000000E+00 0.  1.
          1   -1    0    0  502    0  0.00000000000E+00 -0.00000000000E+00 -0.64005901012E+03  0.64005901012E+03  0.00000000000E+00 0. -1.
         23    2    1    2    0    0  0.72265136255E+02  0.16628386946E+02 -0.10633718312E+03  0.15658792229E+03  0.87826122097E+02 0.  0.
         23    2    1    2    0    0  0.11557716604E+02  0.24776943439E+02 -0.15533578400E+03  0.18242078056E+03  0.91655101606E+02 0.  0.
        -11    1    3    3    0    0  0.22300571685E+02  0.16102690569E+02  0.10556346075E+02  0.29462664229E+02  0.00000000000E+00 0.  1.
         11    1    3    3    0    0  0.49964564570E+02  0.52569637717E+00 -0.11689352919E+03  0.12712525806E+03  0.00000000000E+00 0. -1.
        -11    1    4    4    0    0  0.41398104607E+01  0.50556236865E+02 -0.41711383573E+02  0.65672754138E+02  0.00000000000E+00 0.  1.
         11    1    4    4    0    0  0.74179061436E+01 -0.25779293426E+02 -0.11362440043E+03  0.11674802642E+03  0.00000000000E+00 0. -1.
         21    1    1    2  502  501 -0.83822852859E+02 -0.41405330385E+02 -0.33328587868E+03  0.34615047158E+03  0.00000000000E+00 0. -1.
<scales pt_clust_5="13000.00000" pt_clust_6="13000.00000" pt_clust_7="13000.00000" pt_clust_8="13000.00000" pt_clust_9="93.49156"></scales>
<clustering>
<clus scale="   87.826">  5  6 -1 -1</clus>
<clus scale="   91.655">  7  8 -1 -1</clus>
<clus scale="   93.492">  2  9  1 -1</clus>
<clus scale="   94.769">  1  5  2 -1</clus>
<clus scale="   93.492">  2  5  1 -1</clus>
</clustering>
</event>
<event>
 9    1  0.1435532E-005  0.9462460E+02  0.7546771E-02  0.1292429E+00
         -2   -1    0    0    0  501 -0.00000000000E+00  0.00000000000E+00  0.28621667826E+03  0.28621667826E+03  0.00000000000E+00 0.  1.
          2   -1    0    0  502    0  0.00000000000E+00 -0.00000000000E+00 -0.57053927751E+02  0.57053927751E+02  0.00000000000E+00 0. -1.
         23    2    1    2    0    0  0.16263685420E+02 -0.40680687562E+02  0.13653559709E+03  0.16815177879E+03  0.87827248806E+02 0.  0.
         23    2    1    2    0    0  0.57436662926E+01  0.24392801047E+02  0.10942099156E+03  0.14299949074E+03  0.88588388139E+02 0.  0.
        -13    1    4    4    0    0 -0.28275996811E+02  0.15271270452E+02  0.10208304870E+03  0.10702192546E+03  0.00000000000E+00 0.  1.
         13    1    4    4    0    0  0.34019663104E+02  0.91215305958E+01  0.73379428550E+01  0.35977565280E+02  0.00000000000E+00 0. -1.
        -13    1    3    3    0    0 -0.32884156042E+02 -0.31599235011E+02  0.84372530833E+02  0.95909349550E+02  0.00000000000E+00 0.  1.
         13    1    3    3    0    0  0.49147841463E+02 -0.90814525507E+01  0.52163066256E+02  0.72242429237E+02  0.00000000000E+00 0. -1.
         21    1    1    2  502  501 -0.22007351713E+02  0.16287886515E+02 -0.16793838139E+02  0.32119336481E+02  0.00000000000E+00 0.  1.
<scales pt_clust_5="13000.00000" pt_clust_6="13000.00000" pt_clust_7="13000.00000" pt_clust_8="13000.00000" pt_clust_9="27.37917"></scales>
<clustering>
<clus scale="   27.379">  2  9  1 -1</clus>
<clus scale="   87.827">  7  8 -1 -1</clus>
<clus scale="   88.588">  5  6 -1 -1</clus>
<clus scale="   93.912">  1  7  2 -1</clus>
<clus scale="   27.379">  2  5  1 -1</clus>
</clustering>
</event>
<event>
 9    1  0.1435532E-005  0.9186910E+02  0.7546771E-02  0.1298620E+00
          1   -1    0    0  502    0  0.00000000000E+00  0.00000000000E+00  0.20703408183E+03  0.20703408183E+03  0.00000000000E+00 0. -1.
         -1   -1    0    0    0  501 -0.00000000000E+00 -0.00000000000E+00 -0.10539981691E+03  0.10539981691E+03  0.00000000000E+00 0.  1.
         23    2    1    2    0    0  0.18546506985E+02  0.87331074853E+01 -0.56658186860E+02  0.10858980080E+03  0.90340215917E+02 0.  0.
         23    2    1    2    0    0  0.13961724857E+02 -0.19760051844E+02  0.10399151660E+03  0.13960259889E+03  0.89940317340E+02 0.  0.
        -13    1    4    4    0    0  0.21365663547E+02  0.31217243237E+02  0.25155137344E+02  0.45428942194E+02  0.00000000000E+00 0.  1.
         13    1    4    4    0    0 -0.74039386904E+01 -0.50977295081E+02  0.78836379251E+02  0.94173656696E+02  0.00000000000E+00 0. -1.
        -13    1    3    3    0    0 -0.18210330447E+02  0.37348559980E+02 -0.43562954317E+02  0.60201844294E+02  0.00000000000E+00 0. -1.
         13    1    3    3    0    0  0.36756837432E+02 -0.28615452495E+02 -0.13095232543E+02  0.48387956506E+02  0.00000000000E+00 0.  1.
         21    1    1    2  502  501 -0.32508231842E+02  0.11026944359E+02  0.54300935183E+02  0.64241499057E+02  0.00000000000E+00 0. -1.
<scales pt_clust_5="13000.00000" pt_clust_6="13000.00000" pt_clust_7="13000.00000" pt_clust_8="13000.00000" pt_clust_9="34.32752"></scales>
<clustering>
<clus scale="   34.328">  1  9  2 -1</clus>
<clus scale="   89.940">  5  6 -1 -1</clus>
<clus scale="   90.340">  7  8 -1 -1</clus>
<clus scale="   91.476">  1  5  2 -1</clus>
<clus scale="   34.328">  1  5  2 -1</clus>
</clustering>
</event>
<event>
 9    1  0.1435532E-005  0.9941880E+02  0.7546771E-02  0.1286079E+00
         -1   -1    0    0    0  501 -0.00000000000E+00  0.00000000000E+00  0.46665379294E+02  0.46665379294E+02  0.00000000000E+00 0.  1.
          1   -1    0    0  502    0  0.00000000000E+00 -0.00000000000E+00 -0.31046838247E+03  0.31046838247E+03  0.00000000000E+00 0. -1.
         23    2    1    2    0    0  0.72980990618E+01  0.10073970711E+00 -0.70128061472E+02  0.11497355377E+03  0.90816852301E+02 0.  0.
         23    2    1    2    0    0  0.12436183605E+02 -0.18502497684E+02 -0.92172634917E+02  0.13713266450E+03  0.99058427017E+02 0.  0.
        -11    1    4    4    0    0  0.23991903824E+02 -0.44347529891E+02 -0.11610507510E+02  0.51740880754E+02  0.00000000000E+00 0.  1.
         11    1    4    4    0    0 -0.11555720219E+02  0.25845032207E+02 -0.80562127408E+02  0.85391783750E+02  0.00000000000E+00 0. -1.
        -13    1    3    3    0    0 -0.41535173421E+02  0.51147529742E+01 -0.28775676359E+02  0.50787507115E+02  0.00000000000E+00 0. -1.
         13    1    3    3    0    0  0.48833272482E+02 -0.50140132671E+01 -0.41352385113E+02  0.64186046653E+02  0.00000000000E+00 0.  1.
         21    1    1    2  502  501 -0.19734282667E+02  0.18401757977E+02 -0.10150230679E+03  0.10502754350E+03  0.00000000000E+00 0.  1.
<scales pt_clust_5="13000.00000" pt_clust_6="13000.00000" pt_clust_7="13000.00000" pt_clust_8="13000.00000" pt_clust_9="26.98271"></scales>
<clustering>
<clus scale="   26.983">  2  9  1 -1</clus>
<clus scale="   90.817">  7  8 -1 -1</clus>
<clus scale="   91.210">  1  7  2 -1</clus>
<clus scale="   99.058">  5  6 -1 -1</clus>
<clus scale="   26.983">  2  5  1 -1</clus>
</clustering>
</event>
<event>
 9    1  0.1435532E-005  0.9729174E+02  0.7546771E-02  0.1286287E+00
          1   -1    0    0  502    0  0.00000000000E+00  0.00000000000E+00  0.30783441751E+03  0.30783441751E+03  0.00000000000E+00 0. -1.
         -1   -1    0    0    0  501 -0.00000000000E+00 -0.00000000000E+00 -0.12226293547E+03  0.12226293547E+03  0.00000000000E+00 0.  1.
         23    2    1    2    0    0  0.15835463439E+02  0.34325320243E+02 -0.50473862137E+02  0.11027359649E+03  0.90463615951E+02 0.  0.
         23    2    1    2    0    0  0.65475229791E+02 -0.36499559151E+02  0.75634884494E+02  0.13996917155E+03  0.90837820849E+02 0.  0.
        -11    1    4    4    0    0 -0.25822290606E+01 -0.25350302726E+02 -0.12235818746E+02  0.28266959787E+02  0.00000000000E+00 0.  1.
         11    1    4    4    0    0  0.68057458852E+02 -0.11149256425E+02  0.87870703239E+02  0.11170221176E+03  0.00000000000E+00 0. -1.
        -13    1    3    3    0    0  0.37764204957E+01  0.60861952485E+02 -0.53298805691E+02  0.80988896154E+02  0.00000000000E+00 0.  1.
         13    1    3    3    0    0  0.12059042943E+02 -0.26536632243E+02  0.28249435545E+01  0.29284700333E+02  0.00000000000E+00 0. -1.
         21    1    1    2  502  501 -0.81310693230E+02  0.21742389084E+01  0.16041045968E+03  0.17985458494E+03  0.00000000000E+00 0.  1.
<scales pt_clust_5="13000.00000" pt_clust_6="13000.00000" pt_clust_7="13000.00000" pt_clust_8="13000.00000" pt_clust_9="81.33976"></scales>
<clustering>
<clus scale="   81.340">  1  9  2 -1</clus>
<clus scale="   90.464">  7  8 -1 -1</clus>
<clus scale="   90.838">  5  6 -1 -1</clus>
<clus scale="   96.942">  2  7  1 -1</clus>
<clus scale="   81.340">  1  5  2 -1</clus>
</clustering>
</event>
<event>
 9    1  0.1435532E-005  0.1068018E+03  0.7546771E-02  0.1267973E+00
          3   -1    0    0  502    0  0.00000000000E+00  0.00000000000E+00  0.52334762961E+03  0.52334762961E+03  0.00000000000E+00 0. -1.
         -3   -1    0    0    0  501 -0.00000000000E+00 -0.00000000000E+00 -0.65390873655E+02  0.65390873655E+02  0.00000000000E+00 0.  1.
         23    2    1    2    0    0  0.39393291441E+02 -0.25831998963E+02 -0.25574902779E+01  0.10497720471E+03  0.93779257686E+02 0.  0.
         23    2    1    2    0    0 -0.41267432142E+02 -0.25694036045E+01  0.24924773882E+03  0.27058604383E+03  0.96864694384E+02 0.  0.
        -13    1    4    4    0    0  0.31241598400E+02  0.23890194819E+01  0.56750109166E+02  0.64825301966E+02  0.00000000000E+00 0.  1.
         13    1    4    4    0    0 -0.72509030543E+02 -0.49584230864E+01  0.19249762965E+03  0.20576074186E+03  0.00000000000E+00 0. -1.
        -13    1    3    3    0    0  0.87215609533E+01 -0.53304029560E+02 -0.23356180747E+02  0.58846379429E+02  0.00000000000E+00 0.  1.
         13    1    3    3    0    0  0.30671730488E+02  0.27472030597E+02  0.20798690469E+02  0.46130825285E+02  0.00000000000E+00 0. -1.
         21    1    1    2  502  501  0.18741407016E+01  0.28401402568E+02  0.21126650741E+03  0.21317525472E+03  0.00000000000E+00 0. -1.
<scales pt_clust_5="13000.00000" pt_clust_6="13000.00000" pt_clust_7="13000.00000" pt_clust_8="13000.00000" pt_clust_9="28.46317"></scales>
<clustering>
<clus scale="   28.463">  1  9  2 -1</clus>
<clus scale="   93.779">  7  8 -1 -1</clus>
<clus scale="   96.865">  5  6 -1 -1</clus>
<clus scale="  104.012">  2  7  1 -1</clus>
<clus scale="   28.463">  1  5  2 -1</clus>
</clustering>
</event>
<event>
 9    1  0.1435532E-005  0.9679664E+02  0.7546771E-02  0.1289701E+00
          1   -1    0    0  502    0  0.00000000000E+00  0.00000000000E+00  0.40451287492E+03  0.40451287492E+03  0.00000000000E+00 0. -1.
         -1   -1    0    0    0  501 -0.00000000000E+00 -0.00000000000E+00 -0.85691296846E+02  0.85691296846E+02  0.00000000000E+00 0.  1.
         23    2    1    2    0    0 -0.17662602833E+02 -0.26793114091E+02 -0.46453389416E+02  0.10360315794E+03  0.86866900744E+02 0.  0.
         23    2    1    2    0    0  0.34287260114E+02  0.34090115346E+01  0.28745206973E+03  0.30365766631E+03  0.91608123823E+02 0.  0.
        -11    1    3    3    0    0 -0.47683655087E+02 -0.24696565191E+02 -0.49908813106E+02  0.73311260529E+02  0.00000000000E+00 0.  1.
         11    1    3    3    0    0  0.30021052254E+02 -0.20965488996E+01  0.34554236907E+01  0.30291897409E+02  0.00000000000E+00 0. -1.
        -13    1    4    4    0    0  0.18171462346E+02  0.38062100586E+02  0.61979909221E+02  0.74969558434E+02  0.00000000000E+00 0.  1.
         13    1    4    4    0    0  0.16115797768E+02 -0.34653089052E+02  0.22547216051E+03  0.22868810788E+03  0.00000000000E+00 0. -1.
         21    1    1    2  502  501 -0.16624657281E+02  0.23384102556E+02  0.77822897757E+02  0.82943347517E+02  0.00000000000E+00 0.  1.
<scales pt_clust_5="13000.00000" pt_clust_6="13000.00000" pt_clust_7="13000.00000" pt_clust_8="13000.00000" pt_clust_9="28.69138"></scales>
<clustering>
<clus scale="   28.691">  1  9  2 -1</clus>
<clus scale="   86.867">  5  6 -1 -1</clus>
<clus scale="   91.608">  7  8 -1 -1</clus>
<clus scale="   92.322">  2  5  1 -1</clus>
<clus scale="   28.691">  1  5  2 -1</clus>
</clustering>
</event>
<event>
 9    1  0.1435532E-005  0.1014622E+03  0.7546771E-02  0.1283220E+00
         -1   -1    0    0    0  501 -0.00000000000E+00  0.00000000000E+00  0.77303817168E+02  0.77303817168E+02  0.00000000000E+00 0.  1.
          1   -1    0    0  502    0  0.00000000000E+00 -0.00000000000E+00 -0.64027728204E+03  0.64027728204E+03  0.00000000000E+00 0. -1.
         23    2    1    2    0    0  0.14797267849E+01  0.45860818633E+02 -0.18799238475E+02  0.98046265535E+02  0.84582826514E+02 0.  0.
         23    2    1    2    0    0  0.61418406511E+02  0.13331662510E+02 -0.63686780237E+02  0.13134623189E+03  0.96155461468E+02 0.  0.
        -11    1    4    4    0    0  0.78096791487E+02 -0.65377391007E+01 -0.20565806790E+02  0.81023473648E+02  0.00000000000E+00 0.  1.
         11    1    4    4    0    0 -0.16678384975E+02  0.19869401610E+02 -0.43120973447E+02  0.50322758239E+02  0.00000000000E+00 0. -1.
        -13    1    3    3    0    0  0.29376675002E+02  0.38494885919E+02  0.17667107473E+02  0.51545823910E+02  0.00000000000E+00 0.  1.
         13    1    3    3    0    0 -0.27896948217E+02  0.73659327142E+01 -0.36466345947E+02  0.46500441625E+02  0.00000000000E+00 0. -1.
         21    1    1    2  502  501 -0.62898133296E+02 -0.59192481143E+02 -0.48048744616E+03  0.48818860179E+03  0.00000000000E+00 0. -1.
<scales pt_clust_5="13000.00000" pt_clust_6="13000.00000" pt_clust_7="13000.00000" pt_clust_8="13000.00000" pt_clust_9="86.37086"></scales>
<clustering>
<clus scale="   84.583">  7  8 -1 -1</clus>
<clus scale="   86.371">  2  9  1 -1</clus>
<clus scale="   90.570">  1  7  2 -1</clus>
<clus scale="   96.155">  5  6 -1 -1</clus>
<clus scale="   86.371">  2  5  1 -1</clus>
</clustering>
</event>
<event>
 9    1  0.1435532E-005  0.1022332E+03  0.7546771E-02  0.1279373E+00
          1   -1    0    0  502    0  0.00000000000E+00  0.00000000000E+00  0.19064288019E+03  0.19064288019E+03  0.00000000000E+00 0. -1.
         -1   -1    0    0    0  501 -0.00000000000E+00 -0.00000000000E+00 -0.11129621245E+03  0.11129621245E+03  0.00000000000E+00 0.  1.
         23    2    1    2    0    0 -0.24007560068E+02 -0.49703383119E+01 -0.55932415936E+01  0.92147077155E+02  0.88649491106E+02 0.  0.
         23    2    1    2    0    0  0.13418369265E+02  0.72140608742E+02  0.36534182432E+02  0.12632291588E+03  0.96116661026E+02 0.  0.
        -13    1    3    3    0    0 -0.42853348934E+02  0.27467396358E+02 -0.15749872269E+02  0.53281571430E+02  0.00000000000E+00 0. -1.
         13    1    3    3    0    0  0.18845788867E+02 -0.32437734670E+02  0.10156630676E+02  0.38865505725E+02  0.00000000000E+00 0.  1.
        -13    1    4    4    0    0  0.14027507469E+02  0.21465924680E+02 -0.32050363413E+02  0.41046104359E+02  0.00000000000E+00 0.  1.
         13    1    4    4    0    0 -0.60913820335E+00  0.50674684062E+02  0.68584545846E+02  0.85276811520E+02  0.00000000000E+00 0. -1.
         21    1    1    2  502  501  0.10589190802E+02 -0.67170270430E+02  0.48405726907E+02  0.83469099605E+02  0.00000000000E+00 0.  1.
<scales pt_clust_5="13000.00000" pt_clust_6="13000.00000" pt_clust_7="13000.00000" pt_clust_8="13000.00000" pt_clust_9="67.99982"></scales>
<clustering>
<clus scale="   68.000">  1  9  2 -1</clus>
<clus scale="   88.649">  5  6 -1 -1</clus>
<clus scale="   95.247">  2  5  1 -1</clus>
<clus scale="   96.117">  7  8 -1 -1</clus>
<clus scale="   68.000">  1  5  2 -1</clus>
</clustering>
</event>
<event>
 9    1  0.1435532E-005  0.1863830E+03  0.7546771E-02  0.1164592E+00
         -1   -1    0    0    0  501 -0.00000000000E+00  0.00000000000E+00  0.16599082525E+03  0.16599082525E+03  0.00000000000E+00 0.  1.
          1   -1    0    0  502    0  0.00000000000E+00 -0.00000000000E+00 -0.42230228141E+03  0.42230228141E+03  0.00000000000E+00 0. -1.
         23    2    1    2    0    0 -0.30694532472E+02  0.17910230127E+03  0.25084332383E+02  0.21524002683E+03  0.11260220590E+03 0.  0.
         23    2    1    2    0    0  0.14630180547E+02 -0.68044149207E+02 -0.21159391348E+03  0.24090059856E+03  0.91744567920E+02 0.  0.
        -11    1    4    4    0    0  0.10391640108E+02  0.21570581798E+02 -0.30257668012E+02  0.38585005595E+02  0.00000000000E+00 0.  1.
         11    1    4    4    0    0  0.42385404389E+01 -0.89614731005E+02 -0.18133624547E+03  0.20231559297E+03  0.00000000000E+00 0. -1.
        -13    1    3    3    0    0 -0.32623151434E+01  0.18540828659E+03  0.18700737992E+02  0.18637755508E+03  0.00000000000E+00 0.  1.
         13    1    3    3    0    0 -0.27432217329E+02 -0.63059853154E+01  0.63835943912E+01  0.28862471754E+02  0.00000000000E+00 0. -1.
         21    1    1    2  502  501  0.16064351926E+02 -0.11105815206E+03 -0.69801875066E+02  0.13215248127E+03  0.00000000000E+00 0.  1.
<scales pt_clust_5="13000.00000" pt_clust_6="13000.00000" pt_clust_7="13000.00000" pt_clust_8="13000.00000" pt_clust_9="112.21398"></scales>
<clustering>
<clus scale="   91.745">  5  6 -1 -1</clus>
<clus scale="  112.214">  2  9  1 -1</clus>
<clus scale="  112.602">  7  8 -1 -1</clus>
<clus scale="  174.575">  2  5  1 -1</clus>
<clus scale="  112.214">  2  5  1 -1</clus>
</clustering>
</event>
<event>
 9    1  0.1435532E-005  0.1618637E+03  0.7546771E-02  0.1187249E+00
          2   -1    0    0  502    0  0.00000000000E+00  0.00000000000E+00  0.39694739257E+03  0.39694739257E+03  0.00000000000E+00 0. -1.
         -2   -1    0    0    0  501 -0.00000000000E+00 -0.00000000000E+00 -0.15955212063E+03  0.15955212063E+03  0.00000000000E+00 0.  1.
         23    2    1    2    0    0 -0.19351167420E+01 -0.13373098758E+03 -0.85644039303E+02  0.18189753313E+03  0.88679701026E+02 0.  0.
         23    2    1    2    0    0 -0.26469769616E+02  0.12641480064E+03  0.25497740081E+03  0.30048863571E+03  0.92728608004E+02 0.  0.
        -13    1    4    4    0    0 -0.36228362063E+02  0.53647470067E+01  0.46147437037E+02  0.58914010840E+02  0.00000000000E+00 0. -1.
         13    1    4    4    0    0  0.97585924474E+01  0.12105005363E+03  0.20882996377E+03  0.24157462487E+03  0.00000000000E+00 0.  1.
        -13    1    3    3    0    0  0.43035846583E+02 -0.68644443108E+02 -0.37389764434E+02  0.89230813877E+02  0.00000000000E+00 0.  1.
         13    1    3    3    0    0 -0.44970963325E+02 -0.65086544476E+02 -0.48254274869E+02  0.92666719254E+02  0.00000000000E+00 0. -1.
         21    1    1    2  502  501  0.28404886358E+02  0.73161869439E+01  0.68061910430E+02  0.74113344357E+02  0.00000000000E+00 0.  1.
<scales pt_clust_5="13000.00000" pt_clust_6="13000.00000" pt_clust_7="13000.00000" pt_clust_8="13000.00000" pt_clust_9="29.33196"></scales>
<clustering>
<clus scale="   29.332">  1  9  2 -1</clus>
<clus scale="   88.680">  7  8 -1 -1</clus>
<clus scale="   92.729">  5  6 -1 -1</clus>
<clus scale="  159.579">  2  7  1 -1</clus>
<clus scale="   29.332">  1  5  2 -1</clus>
</clustering>
</event>
<event>
 9    1  0.1435532E-005  0.1313728E+03  0.7546771E-02  0.1226070E+00
         -1   -1    0    0    0  501 -0.00000000000E+00  0.00000000000E+00  0.34561270151E+02  0.34561270151E+02  0.00000000000E+00 0.  1.
          1   -1    0    0  502    0  0.00000000000E+00 -0.00000000000E+00 -0.76787936692E+03  0.76787936692E+03  0.00000000000E+00 0. -1.
         23    2    1    2    0    0 -0.24335856089E+01  0.91762800846E+02 -0.15424455056E+03  0.20121781074E+03  0.90944444711E+02 0.  0.
         23    2    1    2    0    0  0.29292138028E+02 -0.92186404647E+02 -0.46665296040E+03  0.48563757903E+03  0.93394379755E+02 0.  0.
        -11    1    4    4    0    0 -0.42166382576E+01 -0.83797438014E+02 -0.41567683287E+03  0.42406016088E+03  0.00000000000E+00 0.  1.
         11    1    4    4    0    0  0.33508776286E+02 -0.83889666323E+01 -0.50976127522E+02  0.61577418154E+02  0.00000000000E+00 0. -1.
        -13    1    3    3    0    0  0.39159068840E+02  0.55050679420E+02 -0.11460160939E+03  0.13303209707E+03  0.00000000000E+00 0. -1.
         13    1    3    3    0    0 -0.41592654449E+02  0.36712121425E+02 -0.39642941171E+02  0.68185713668E+02  0.00000000000E+00 0.  1.
         21    1    1    2  502  501 -0.26858552420E+02  0.42360380082E+00 -0.11242058581E+03  0.11558524730E+03  0.00000000000E+00 0.  1.
<scales pt_clust_5="13000.00000" pt_clust_6="13000.00000" pt_clust_7="13000.00000" pt_clust_8="13000.00000" pt_clust_9="26.86189"></scales>
<clustering>
<clus scale="   26.862">  2  9  1 -1</clus>
<clus scale="   90.944">  7  8 -1 -1</clus>
<clus scale="   93.394">  5  6 -1 -1</clus>
<clus scale="  129.643">  1  7  2 -1</clus>
<clus scale="   26.862">  2  5  1 -1</clus>
</clustering>
</event>
<event>
 9    1  0.1435532E-005  0.1156256E+03  0.7546771E-02  0.1250759E+00
          1   -1    0    0  502    0  0.00000000000E+00  0.00000000000E+00  0.74891869417E+03  0.74891869417E+03  0.00000000000E+00 0. -1.
         -1   -1    0    0    0  501 -0.00000000000E+00 -0.00000000000E+00 -0.27160935717E+02  0.27160935717E+02  0.00000000000E+00 0.  1.
         23    2    1    2    0    0  0.70936586955E+02  0.41635429149E+02  0.20069619494E+03  0.23498348791E+03  0.90403366066E+02 0.  0.
         23    2    1    2    0    0 -0.55350913883E+02 -0.76420868430E+01  0.34893381224E+03  0.36495295227E+03  0.91179640714E+02 0.  0.
        -11    1    3    3    0    0 -0.18760294812E+02  0.24134031424E+02  0.57240634131E+02  0.64891373309E+02  0.00000000000E+00 0.  1.
         11    1    3    3    0    0  0.89696881768E+02  0.17501397724E+02  0.14345556081E+03  0.17009211460E+03  0.00000000000E+00 0. -1.
        -13    1    4    4    0    0 -0.14186716197E+02  0.40518601871E+02  0.16110278512E+03  0.16672470539E+03  0.00000000000E+00 0.  1.
         13    1    4    4    0    0 -0.41164197686E+02 -0.48160688714E+02  0.18783102712E+03  0.19822824687E+03  0.00000000000E+00 0. -1.
         21    1    1    2  502  501 -0.15585673072E+02 -0.33993342306E+02  0.17212775126E+03  0.17614318971E+03  0.00000000000E+00 0. -1.
<scales pt_clust_5="13000.00000" pt_clust_6="13000.00000" pt_clust_7="13000.00000" pt_clust_8="13000.00000" pt_clust_9="37.39600"></scales>
<clustering>
<clus scale="   37.396">  1  9  2 -1</clus>
<clus scale="   90.403">  5  6 -1 -1</clus>
<clus scale="   91.180">  7  8 -1 -1</clus>
<clus scale="  115.014">  2  5  1 -1</clus>
<clus scale="   37.396">  1  5  2 -1</clus>
</clustering>
</event>
<event>
 9    1  0.1435532E-005  0.1045700E+03  0.7546771E-02  0.1275467E+00
          1   -1    0    0  502    0  0.00000000000E+00  0.00000000000E+00  0.24698267062E+03  0.24698267062E+03  0.00000000000E+00 0. -1.
         -1   -1    0    0    0  501 -0.00000000000E+00 -0.00000000000E+00 -0.95125899063E+02  0.95125899063E+02  0.00000000000E+00 0.  1.
         23    2    1    2    0    0  0.26941784989E+02  0.41568888729E+02 -0.31286123595E+02  0.11056828659E+03  0.93769356300E+02 0.  0.
         23    2    1    2    0    0 -0.61384445916E+01 -0.40848506978E+02  0.71001851309E+02  0.11748366717E+03  0.83993262459E+02 0.  0.
        -13    1    4    4    0    0  0.14807416882E+02 -0.62039053673E+02  0.47151657089E+02  0.79318235871E+02  0.00000000000E+00 0.  1.
         13    1    4    4    0    0 -0.20945861473E+02  0.21190546695E+02  0.23850194219E+02  0.38165431301E+02  0.00000000000E+00 0. -1.
        -13    1    3    3    0    0  0.11018866739E+02 -0.30383667493E+02 -0.82109269227E+01  0.33346693921E+02  0.00000000000E+00 0.  1.
         13    1    3    3    0    0  0.15922918250E+02  0.71952556222E+02 -0.23075196673E+02  0.77221592667E+02  0.00000000000E+00 0. -1.
         21    1    1    2  502  501 -0.20803340398E+02 -0.72038175070E+00  0.11214104384E+03  0.11405661592E+03  0.00000000000E+00 0.  1.
<scales pt_clust_5="13000.00000" pt_clust_6="13000.00000" pt_clust_7="13000.00000" pt_clust_8="13000.00000" pt_clust_9="20.81581"></scales>
<clustering>
<clus scale="   20.816">  1  9  2 -1</clus>
<clus scale="   83.993">  5  6 -1 -1</clus>
<clus scale="   93.769">  7  8 -1 -1</clus>
<clus scale="   95.901">  1  5  2 -1</clus>
<clus scale="   20.816">  1  5  2 -1</clus>
</clustering>
</event>
<event>
 9    1  0.1435532E-005  0.1137217E+03  0.7546771E-02  0.1256543E+00
          1   -1    0    0  502    0  0.00000000000E+00  0.00000000000E+00  0.76515326818E+03  0.76515326818E+03  0.00000000000E+00 0. -1.
         -1   -1    0    0    0  501 -0.00000000000E+00 -0.00000000000E+00 -0.16463161138E+03  0.16463161138E+03  0.00000000000E+00 0.  1.
         23    2    1    2    0    0 -0.53684113687E+02 -0.37168185683E+02 -0.12258163047E+03  0.16622425738E+03  0.91327923024E+02 0.  0.
         23    2    1    2    0    0  0.66641797205E+02  0.12024945261E+03  0.48772253849E+03  0.51361163663E+03  0.83800827772E+02 0.  0.
        -13    1    3    3    0    0 -0.57655040269E+02  0.10159206955E+02 -0.39815888922E+02  0.70799845799E+02  0.00000000000E+00 0.  1.
         13    1    3    3    0    0  0.39709265828E+01 -0.47327392638E+02 -0.82765741552E+02  0.95424411586E+02  0.00000000000E+00 0. -1.
        -13    1    4    4    0    0  0.32746359377E+02  0.51517090422E+02  0.35618243718E+03  0.36137551552E+03  0.00000000000E+00 0. -1.
         13    1    4    4    0    0  0.33895437828E+02  0.68732362186E+02  0.13154010131E+03  0.15223612111E+03  0.00000000000E+00 0.  1.
         21    1    1    2  502  501 -0.12957683518E+02 -0.83081266926E+02  0.23538074878E+03  0.24994898554E+03  0.00000000000E+00 0.  1.
<scales pt_clust_5="13000.00000" pt_clust_6="13000.00000" pt_clust_7="13000.00000" pt_clust_8="13000.00000" pt_clust_9="84.08566"></scales>
<clustering>
<clus scale="   83.801">  7  8 -1 -1</clus>
<clus scale="   84.086">  1  9  2 -1</clus>
<clus scale="   91.328">  5  6 -1 -1</clus>
<clus scale="  107.770">  1  7  2 -1</clus>
<clus scale="   84.086">  1  5  2 -1</clus>
</clustering>
</event>
<event>
 9    1  0.1435532E-005  0.1253842E+03  0.7546771E-02  0.1234954E+00
          2   -1    0    0  502    0  0.00000000000E+00  0.00000000000E+00  0.46550663969E+03  0.46550663969E+03  0.00000000000E+00 0. -1.
         -2   -1    0    0    0  501 -0.00000000000E+00 -0.00000000000E+00 -0.25370430730E+03  0.25370430730E+03  0.00000000000E+00 0.  1.
         23    2    1    2    0    0  0.43071679718E+02  0.83534834613E+02 -0.11963712962E+03  0.17908679278E+03  0.94476443507E+02 0.  0.
         23    2    1    2    0    0  0.71213144633E+02 -0.49893426458E+02  0.38794942488E+03  0.40826763627E+03  0.92828016172E+02 0.  0.
        -11    1    3    3    0    0  0.15518445456E+02  0.85435646213E+02 -0.12373723628E+03  0.15116539100E+03  0.00000000000E+00 0.  1.
         11    1    3    3    0    0  0.27553234262E+02 -0.19008116000E+01  0.41001066596E+01  0.27921401785E+02  0.00000000000E+00 0. -1.
        -13    1    4    4    0    0  0.31194811637E+02 -0.72010218281E+02  0.28527994540E+03  0.29587706072E+03  0.00000000000E+00 0. -1.
         13    1    4    4    0    0  0.40018332996E+02  0.22116791822E+02  0.10266947948E+03  0.11239057555E+03  0.00000000000E+00 0.  1.
         21    1    1    2  502  501 -0.11428482435E+03 -0.33641408154E+02 -0.56509962869E+02  0.13185651794E+03  0.00000000000E+00 0. -1.
<scales pt_clust_5="13000.00000" pt_clust_6="13000.00000" pt_clust_7="13000.00000" pt_clust_8="13000.00000" pt_clust_9="119.13339"></scales>
<clustering>
<clus scale="   92.828">  7  8 -1 -1</clus>
<clus scale="   94.476">  5  6 -1 -1</clus>
<clus scale="  119.133">  2  9  1 -1</clus>
<clus scale="  124.147">  1  7  2 -1</clus>
<clus scale="  124.147">  1  5  2 -1</clus>
</clustering>
</event>
<event>
 9    1  0.1435532E-005  0.2194490E+03  0.7546771E-02  0.1134974E+00
         -1   -1    0    0    0  501 -0.00000000000E+00  0.00000000000E+00  0.16437425992E+03  0.16437425992E+03  0.00000000000E+00 0.  1.
          1   -1    0    0  502    0  0.00000000000E+00 -0.00000000000E+00 -0.55570253526E+03  0.55570253526E+03  0.00000000000E+00 0. -1.
         23    2    1    2    0    0 -0.14999869789E+03 -0.19246627357E+03 -0.74759115183E+02  0.27091099874E+03  0.90889867999E+02 0.  0.
         23    2    1    2    0    0  0.15270579745E+03  0.59241452585E+02 -0.15623787928E+03  0.24068965647E+03  0.81808468571E+02 0.  0.
        -11    1    4    4    0    0  0.45421772763E+02  0.30905538684E+02 -0.79952728094E+01  0.55517692222E+02  0.00000000000E+00 0. -1.
         11    1    4    4    0    0  0.10728402468E+03  0.28335913901E+02 -0.14824260647E+03  0.18517196425E+03  0.00000000000E+00 0.  1.
        -13    1    3    3    0    0 -0.33074170530E+02 -0.83255889267E+02 -0.64880864201E+02  0.11061180043E+03  0.00000000000E+00 0. -1.
         13    1    3    3    0    0 -0.11692452736E+03 -0.10921038430E+03 -0.98782509824E+01  0.16029919831E+03  0.00000000000E+00 0.  1.
         21    1    1    2  502  501 -0.27070995576E+01  0.13322482098E+03 -0.16033128087E+03  0.20847613997E+03  0.00000000000E+00 0.  1.
<scales pt_clust_5="13000.00000" pt_clust_6="13000.00000" pt_clust_7="13000.00000" pt_clust_8="13000.00000" pt_clust_9="133.25232"></scales>
<clustering>
<clus scale="   81.808">  5  6 -1 -1</clus>
<clus scale="   90.890">  7  8 -1 -1</clus>
<clus scale="  133.252">  2  9  1 -1</clus>
<clus scale="  215.846">  2  5  1 -1</clus>
<clus scale="  133.252">  2  5  1 -1</clus>
</clustering>
</event>
<event>
 9    1  0.1435532E-005  0.1027294E+03  0.7546771E-02  0.1278124E+00
         -1   -1    0    0    0  501 -0.00000000000E+00  0.00000000000E+00  0.34775094551E+03  0.34775094551E+03  0.00000000000E+00 0.  1.
          1   -1    0    0  502    0  0.00000000000E+00 -0.00000000000E+00 -0.16473442673E+03  0.16473442673E+03  0.00000000000E+00 0. -1.
         23    2    1    2    0    0  0.44603978478E+02  0.59598918241E+01  0.29928449066E+03  0.31601476310E+03  0.90934531049E+02 0.  0.
         23    2    1    2    0    0 -0.81002104176E+02 -0.17259773855E+02 -0.71119632770E+02  0.13738691077E+03  0.83414149950E+02 0.  0.
        -11    1    3    3    0    0  0.43520458761E+02  0.26341766319E+02  0.28846003275E+03  0.29291143624E+03  0.00000000000E+00 0.  1.
         11    1    3    3    0    0  0.10835197171E+01 -0.20381874495E+02  0.10824457911E+02  0.23103326859E+02  0.00000000000E+00 0. -1.
        -13    1    4    4    0    0  0.33167465030E+01 -0.29375635185E+02 -0.60056705819E+01  0.30166153699E+02  0.00000000000E+00 0.  1.
         13    1    4    4    0    0 -0.84318850679E+02  0.12115861330E+02 -0.65113962188E+02  0.10722075707E+03  0.00000000000E+00 0. -1.
         21    1    1    2  502  501  0.36398125698E+02  0.11299882031E+02 -0.45148339115E+02  0.59083698370E+02  0.00000000000E+00 0. -1.
<scales pt_clust_5="13000.00000" pt_clust_6="13000.00000" pt_clust_7="13000.00000" pt_clust_8="13000.00000" pt_clust_9="38.11182"></scales>
<clustering>
<clus scale="   38.112">  2  9  1 -1</clus>
<clus scale="   83.414">  7  8 -1 -1</clus>
<clus scale="   90.935">  5  6 -1 -1</clus>
<clus scale="   96.136">  2  7  1 -1</clus>
<clus scale="   38.112">  2  5  1 -1</clus>
</clustering>
</event>
<event>
 9    1  0.1435532E-005  0.9628268E+02  0.7546771E-02  0.1291106E+00
          1   -1    0    0  502    0  0.00000000000E+00  0.00000000000E+00  0.60844853833E+03  0.60844853833E+03  0.00000000000E+00 0. -1.
         -1   -1    0    0    0  501 -0.00000000000E+00 -0.00000000000E+00 -0.48812825665E+02  0.48812825665E+02  0.00000000000E+00 0.  1.
         23    2    1    2    0    0 -0.69326786449E+01 -0.58135461635E+01  0.28653871213E+02  0.95630341896E+02  0.90786885636E+02 0.  0.
         23    2    1    2    0    0 -0.52863277337E+02  0.36152674819E+02  0.35982903653E+03  0.37781235680E+03  0.95727213654E+02 0.  0.
        -13    1    3    3    0    0  0.21291595033E+02 -0.39862403956E+02  0.49775371028E+01  0.45465581969E+02  0.00000000000E+00 0. -1.
         13    1    3    3    0    0 -0.28224273678E+02  0.34048857792E+02  0.23676334110E+02  0.50164759927E+02  0.00000000000E+00 0.  1.
        -13    1    4    4    0    0 -0.14908797880E+02 -0.27953778808E+02  0.18618978901E+03  0.18886588770E+03  0.00000000000E+00 0.  1.
         13    1    4    4    0    0 -0.37954479458E+02  0.64106453627E+02  0.17363924752E+03  0.18894646910E+03  0.00000000000E+00 0. -1.
         21    1    1    2  502  501  0.59795955982E+02 -0.30339128655E+02  0.17115280493E+03  0.18381866530E+03  0.00000000000E+00 0. -1.
<scales pt_clust_5="13000.00000" pt_clust_6="13000.00000" pt_clust_7="13000.00000" pt_clust_8="13000.00000" pt_clust_9="67.05236"></scales>
<clustering>
<clus scale="   67.052">  1  9  2 -1</clus>
<clus scale="   90.787">  5  6 -1 -1</clus>
<clus scale="   91.372">  2  5  1 -1</clus>
<clus scale="   95.727">  7  8 -1 -1</clus>
<clus scale="   67.052">  1  5  2 -1</clus>
</clustering>
</event>
<event>
 9    1  0.1435532E-005  0.1139330E+03  0.7546771E-02  0.1253874E+00
         -2   -1    0    0    0  501 -0.00000000000E+00  0.00000000000E+00  0.40996986846E+02  0.40996986846E+02  0.00000000000E+00 0.  1.
          2   -1    0    0  502    0  0.00000000000E+00 -0.00000000000E+00 -0.39949131632E+03  0.39949131632E+03  0.00000000000E+00 0. -1.
         23    2    1    2    0    0 -0.29243951751E+02 -0.50900527865E+02 -0.11793068747E+03  0.16027391202E+03  0.91290784721E+02 0.  0.
         23    2    1    2    0    0  0.46681190627E+02  0.64121934355E+02 -0.20382066006E+03  0.23744863836E+03  0.92456683750E+02 0.  0.
        -13    1    3    3    0    0 -0.42458037170E+02 -0.94835427908E+01 -0.11043743133E+02  0.44884148277E+02  0.00000000000E+00 0.  1.
         13    1    3    3    0    0  0.13214085419E+02 -0.41416985074E+02 -0.10688694434E+03  0.11538976374E+03  0.00000000000E+00 0. -1.
        -13    1    4    4    0    0 -0.17372377685E+02  0.48498550177E+02 -0.12156892547E+03  0.13203375521E+03  0.00000000000E+00 0.  1.
         13    1    4    4    0    0  0.64053568312E+02  0.15623384178E+02 -0.82251734588E+02  0.10541488315E+03  0.00000000000E+00 0. -1.
         21    1    1    2  502  501 -0.17437238876E+02 -0.13221406491E+02 -0.36742981948E+02  0.42765752789E+02  0.00000000000E+00 0. -1.
<scales pt_clust_5="13000.00000" pt_clust_6="13000.00000" pt_clust_7="13000.00000" pt_clust_8="13000.00000" pt_clust_9="21.88294"></scales>
<clustering>
<clus scale="   21.883">  2  9  1 -1</clus>
<clus scale="   91.291">  5  6 -1 -1</clus>
<clus scale="   92.457">  7  8 -1 -1</clus>
<clus scale="  112.989">  1  5  2 -1</clus>
<clus scale="   21.883">  2  5  1 -1</clus>
</clustering>
</event>
<event>
 9    1  0.1435532E-005  0.1131011E+03  0.7546771E-02  0.1257988E+00
         -1   -1    0    0    0  501 -0.00000000000E+00  0.00000000000E+00  0.22959575035E+03  0.22959575035E+03  0.00000000000E+00 0.  1.
          1   -1    0    0  502    0  0.00000000000E+00 -0.00000000000E+00 -0.47895245693E+03  0.47895245693E+03  0.00000000000E+00 0. -1.
         23    2    1    2    0    0  0.11436157259E+02  0.56780419856E+02  0.18697188991E+03  0.21509412146E+03  0.89175062089E+02 0.  0.
         23    2    1    2    0    0 -0.94021028348E+02 -0.41393875075E+02 -0.22080818673E+03  0.26214032982E+03  0.96994280878E+02 0.  0.
        -11    1    4    4    0    0 -0.81615889269E+01  0.24041537082E+02 -0.14353127956E+02  0.29165378811E+02  0.00000000000E+00 0. -1.
         11    1    4    4    0    0 -0.85859439421E+02 -0.65435412157E+02 -0.20645505878E+03  0.23297495101E+03  0.00000000000E+00 0.  1.
        -13    1    3    3    0    0  0.15481037911E+02 -0.20240582588E+02  0.25006924508E+02  0.35702800894E+02  0.00000000000E+00 0. -1.
         13    1    3    3    0    0 -0.40448806520E+01  0.77021002444E+02  0.16196496540E+03  0.17939132057E+03  0.00000000000E+00 0.  1.
         21    1    1    2  502  501  0.82584871089E+02 -0.15386544780E+02 -0.21552040976E+03  0.23131375600E+03  0.00000000000E+00 0. -1.
<scales pt_clust_5="13000.00000" pt_clust_6="13000.00000" pt_clust_7="13000.00000" pt_clust_8="13000.00000" pt_clust_9="84.00599"></scales>
<clustering>
<clus scale="   84.006">  2  9  1 -1</clus>
<clus scale="   89.175">  7  8 -1 -1</clus>
<clus scale="   96.994">  5  6 -1 -1</clus>
<clus scale="  106.471">  1  7  2 -1</clus>
<clus scale="   84.006">  2  5  1 -1</clus>
</clustering>
</event>
<event>
 9    1  0.1435532E-005  0.1152697E+03  0.7546771E-02  0.1254109E+00
          3   -1    0    0  502    0  0.00000000000E+00  0.00000000000E+00  0.30857489976E+02  0.30857489976E+02  0.00000000000E+00 0. -1.
         -3   -1    0    0    0  501 -0.00000000000E+00 -0.00000000000E+00 -0.59600818094E+03  0.59600818094E+03  0.00000000000E+00 0.  1.
         23    2    1    2    0    0  0.58631698072E+02  0.28272109822E+01 -0.38697289264E+03  0.40361664985E+03  0.98553088525E+02 0.  0.
         23    2    1    2    0    0 -0.62263865019E+02  0.18081135576E+02 -0.13442378167E+03  0.17462016579E+03  0.90657227342E+02 0.  0.
        -13    1    3    3    0    0  0.81270109455E+02 -0.18567143753E+02 -0.29195220057E+03  0.30362090991E+03  0.00000000000E+00 0.  1.
         13    1    3    3    0    0 -0.22638411383E+02  0.21394354735E+02 -0.95020692072E+02  0.99995739941E+02  0.00000000000E+00 0. -1.
        -13    1    4    4    0    0  0.78253637615E+01 -0.26272478004E+02 -0.23451655560E+02  0.36075747629E+02  0.00000000000E+00 0.  1.
         13    1    4    4    0    0 -0.70089228781E+02  0.44353613580E+02 -0.11097212611E+03  0.13854441816E+03  0.00000000000E+00 0. -1.
         21    1    1    2  502  501  0.36321669476E+01 -0.20908346558E+02 -0.43754016656E+02  0.48628855282E+02  0.00000000000E+00 0. -1.
<scales pt_clust_5="13000.00000" pt_clust_6="13000.00000" pt_clust_7="13000.00000" pt_clust_8="13000.00000" pt_clust_9="21.22149"></scales>
<clustering>
<clus scale="   21.221">  1  9  2 -1</clus>
<clus scale="   90.657">  7  8 -1 -1</clus>
<clus scale="   98.553">  5  6 -1 -1</clus>
<clus scale="  108.596">  1  7  2 -1</clus>
<clus scale="   21.221">  1  5  2 -1</clus>
</clustering>
</event>
<event>
 9    1  0.1435532E-005  0.1339855E+03  0.7546771E-02  0.1234280E+00
          2   -1    0    0  502    0  0.00000000000E+00  0.00000000000E+00  0.54993443413E+03  0.54993443413E+03  0.00000000000E+00 0. -1.
         -2   -1    0    0    0  501 -0.00000000000E+00 -0.00000000000E+00 -0.65811807456E+02  0.65811807456E+02  0.00000000000E+00 0.  1.
         23    2    1    2    0    0  0.48606300787E+02 -0.88279751743E+00  0.53208622800E+00  0.10220752584E+03  0.89904078970E+02 0.  0.
         23    2    1    2    0    0 -0.65987148581E+02  0.24581609558E+02  0.41770723856E+03  0.44139762461E+03  0.12407242466E+03 0.  0.
        -11    1    3    3    0    0  0.25193890489E+02  0.36070094257E+02  0.26474117876E+02  0.51348444329E+02  0.00000000000E+00 0. -1.
         11    1    3    3    0    0  0.23412410298E+02 -0.36952891774E+02 -0.25942031648E+02  0.50859081514E+02  0.00000000000E+00 0.  1.
        -13    1    4    4    0    0 -0.35387700701E+02 -0.48124536516E+02  0.23332258053E+03  0.24084785023E+03  0.00000000000E+00 0.  1.
         13    1    4    4    0    0 -0.30599447880E+02  0.72706146074E+02  0.18438465803E+03  0.20054977438E+03  0.00000000000E+00 0. -1.
         21    1    1    2  502  501  0.17380847794E+02 -0.23698812041E+02  0.65883301881E+02  0.72141091127E+02  0.00000000000E+00 0. -1.
<scales pt_clust_5="13000.00000" pt_clust_6="13000.00000" pt_clust_7="13000.00000" pt_clust_8="13000.00000" pt_clust_9="29.38924"></scales>
<clustering>
<clus scale="   29.389">  1  9  2 -1</clus>
<clus scale="   89.904">  5  6 -1 -1</clus>
<clus scale="  103.155">  2  5  1 -1</clus>
<clus scale="  124.072">  7  8 -1 -1</clus>
<clus scale="   29.389">  1  5  2 -1</clus>
</clustering>
</event>
<event>
 9    1  0.1435532E-005  0.2290608E+03  0.7546771E-02  0.1127426E+00
         -2   -1    0    0    0  501 -0.00000000000E+00  0.00000000000E+00  0.13492884919E+03  0.13492884919E+03  0.00000000000E+00 0.  1.
          2   -1    0    0  502    0  0.00000000000E+00 -0.00000000000E+00 -0.54392095913E+03  0.54392095913E+03  0.00000000000E+00 0. -1.
         23    2    1    2    0    0 -0.13571256239E+03 -0.16434517959E+03 -0.81935853660E+02  0.24588180818E+03  0.91198365283E+02 0.  0.
         23    2    1    2    0    0  0.10821128529E+03  0.17622554731E+03 -0.19631233791E+03  0.29883584304E+03  0.89438254009E+02 0.  0.
        -11    1    3    3    0    0 -0.30871557386E+02 -0.10151795741E+03 -0.16946019280E+02  0.10745285618E+03  0.00000000000E+00 0.  1.
         11    1    3    3    0    0 -0.10484100501E+03 -0.62827222187E+02 -0.64989834380E+02  0.13842895200E+03  0.00000000000E+00 0. -1.
        -13    1    4    4    0    0  0.11166275403E+03  0.12754484978E+03 -0.11793534220E+03  0.20650666885E+03  0.00000000000E+00 0.  1.
         13    1    4    4    0    0 -0.34514687388E+01  0.48680697534E+02 -0.78376995711E+02  0.92329174184E+02  0.00000000000E+00 0. -1.
         21    1    1    2  502  501  0.27501277105E+02 -0.11880367718E+02 -0.13074391837E+03  0.13413215711E+03  0.00000000000E+00 0. -1.
<scales pt_clust_5="13000.00000" pt_clust_6="13000.00000" pt_clust_7="13000.00000" pt_clust_8="13000.00000" pt_clust_9="29.95769"></scales>
<clustering>
<clus scale="   29.958">  2  9  1 -1</clus>
<clus scale="   89.438">  7  8 -1 -1</clus>
<clus scale="   91.198">  5  6 -1 -1</clus>
<clus scale="  228.366">  2  7  1 -1</clus>
<clus scale="   29.958">  2  5  1 -1</clus>
</clustering>
</event>
<event>
 9    1  0.1435532E-005  0.9239259E+02  0.7546771E-02  0.1297296E+00
         -1   -1    0    0    0  501 -0.00000000000E+00  0.00000000000E+00  0.13873350532E+03  0.13873350532E+03  0.00000000000E+00 0.  1.
          1   -1    0    0  502    0  0.00000000000E+00 -0.00000000000E+00 -0.12624372091E+03  0.12624372091E+03  0.00000000000E+00 0. -1.
         23    2    1    2    0    0  0.60480782912E+01 -0.10431869075E+02  0.58454314759E+02  0.10911663717E+03  0.91346212022E+02 0.  0.
         23    2    1    2    0    0  0.14996205217E+02  0.14718936142E+02  0.11358229422E+02  0.94646705008E+02  0.91583055972E+02 0.  0.
        -11    1    3    3    0    0 -0.15363859788E+02 -0.38059540580E+02  0.40473768162E-01  0.41043616494E+02  0.00000000000E+00 0. -1.
         11    1    3    3    0    0  0.21411938080E+02  0.27627671506E+02  0.58413840991E+02  0.68073020680E+02  0.00000000000E+00 0.  1.
        -13    1    4    4    0    0 -0.28431598995E+02  0.34716178754E+02  0.13282251686E+02  0.46797297984E+02  0.00000000000E+00 0.  1.
         13    1    4    4    0    0  0.43427804213E+02 -0.19997242613E+02 -0.19240222637E+01  0.47849407024E+02  0.00000000000E+00 0. -1.
         21    1    1    2  502  501 -0.21044283509E+02 -0.42870670670E+01 -0.57322759769E+02  0.61213884046E+02  0.00000000000E+00 0. -1.
<scales pt_clust_5="13000.00000" pt_clust_6="13000.00000" pt_clust_7="13000.00000" pt_clust_8="13000.00000" pt_clust_9="21.47652"></scales>
<clustering>
<clus scale="   21.477">  2  9  1 -1</clus>
<clus scale="   91.346">  5  6 -1 -1</clus>
<clus scale="   91.583">  7  8 -1 -1</clus>
<clus scale="   92.158">  1  5  2 -1</clus>
<clus scale="   21.477">  2  5  1 -1</clus>
</clustering>
</event>
<event>
 9    1  0.1435532E-005  0.1274614E+03  0.7546771E-02  0.1242421E+00
          2   -1    0    0  502    0  0.00000000000E+00  0.00000000000E+00  0.87487572828E+02  0.87487572828E+02  0.00000000000E+00 0. -1.
         -2   -1    0    0    0  501 -0.00000000000E+00 -0.00000000000E+00 -0.19062771471E+03  0.19062771471E+03  0.00000000000E+00 0.  1.
         23    2    1    2    0    0  0.31760831084E+02  0.29315320454E+02 -0.68740854216E+02  0.12305450482E+03  0.92460627910E+02 0.  0.
         23    2    1    2    0    0 -0.12823415303E+02 -0.41398774887E+02 -0.34814597354E+02  0.13259284846E+03  0.12037652899E+03 0.  0.
        -11    1    3    3    0    0 -0.22643822340E+02  0.39175423492E+02 -0.20496248943E+02  0.49674467452E+02  0.00000000000E+00 0.  1.
         11    1    3    3    0    0  0.54404653424E+02 -0.98601030379E+01 -0.48244605273E+02  0.73380037367E+02  0.00000000000E+00 0. -1.
        -11    1    4    4    0    0 -0.55267029515E+02 -0.40554165307E+02 -0.52761067716E+02  0.86503266653E+02  0.00000000000E+00 0.  1.
         11    1    4    4    0    0  0.42443614212E+02 -0.84460958007E+00  0.17946470362E+02  0.46089581807E+02  0.00000000000E+00 0. -1.
         21    1    1    2  502  501 -0.18937415781E+02  0.12083454432E+02  0.41530969223E+00  0.22467934254E+02  0.00000000000E+00 0.  1.
<scales pt_clust_5="13000.00000" pt_clust_6="13000.00000" pt_clust_7="13000.00000" pt_clust_8="13000.00000" pt_clust_9="22.46410"></scales>
<clustering>
<clus scale="   22.464">  1  9  2 -1</clus>
<clus scale="   92.461">  5  6 -1 -1</clus>
<clus scale="  101.513">  2  5  1 -1</clus>
<clus scale="  120.377">  7  8 -1 -1</clus>
<clus scale="   22.464">  1  5  2 -1</clus>
</clustering>
</event>
<event>
 9    1  0.1435532E-005  0.1299611E+03  0.7546771E-02  0.1227713E+00
         -1   -1    0    0    0  501 -0.00000000000E+00  0.00000000000E+00  0.80897358749E+03  0.80897358749E+03  0.00000000000E+00 0.  1.
          1   -1    0    0  502    0  0.00000000000E+00 -0.00000000000E+00 -0.51859719986E+02  0.51859719986E+02  0.00000000000E+00 0. -1.
         23    2    1    2    0    0 -0.92822062221E+02 -0.73063822140E+01  0.68033251446E+03  0.69284941664E+03  0.92296616717E+02 0.  0.
         23    2    1    2    0    0  0.79216035104E+02  0.28294849702E+02  0.61867869497E+02  0.13886256303E+03  0.91539059413E+02 0.  0.
        -11    1    3    3    0    0 -0.94839884969E+02 -0.33750101891E+02  0.59610966775E+03  0.60454975737E+03  0.00000000000E+00 0.  1.
         11    1    3    3    0    0  0.20178227478E+01  0.26443719677E+02  0.84222846711E+02  0.88299659270E+02  0.00000000000E+00 0. -1.
        -11    1    4    4    0    0 -0.18674798293E+02  0.15282614422E+02  0.20996719816E+02  0.31987007330E+02  0.00000000000E+00 0.  1.
         11    1    4    4    0    0  0.97890833398E+02  0.13012235280E+02  0.40871149681E+02  0.10687555570E+03  0.00000000000E+00 0. -1.
         21    1    1    2  502  501  0.13606027117E+02 -0.20988467488E+02  0.14913483549E+02  0.29121327802E+02  0.00000000000E+00 0. -1.
<scales pt_clust_5="13000.00000" pt_clust_6="13000.00000" pt_clust_7="13000.00000" pt_clust_8="13000.00000" pt_clust_9="25.01279"></scales>
<clustering>
<clus scale="   25.013">  2  9  1 -1</clus>
<clus scale="   91.539">  7  8 -1 -1</clus>
<clus scale="   92.297">  5  6 -1 -1</clus>
<clus scale="  129.424">  2  7  1 -1</clus>
<clus scale="   25.013">  2  5  1 -1</clus>
</clustering>
</event>
<event>
 9    1  0.1435532E-005  0.9125335E+02  0.7546771E-02  0.1299997E+00
          3   -1    0    0  502    0  0.00000000000E+00  0.00000000000E+00  0.13231446452E+03  0.13231446452E+03  0.00000000000E+00 0. -1.
         -3   -1    0    0    0  501 -0.00000000000E+00 -0.00000000000E+00 -0.26994037696E+03  0.26994037696E+03  0.00000000000E+00 0.  1.
         23    2    1    2    0    0  0.38062117222E+01  0.15374873695E+02 -0.22525452680E+03  0.24306906864E+03  0.89956079818E+02 0.  0.
         23    2    1    2    0    0  0.28596309523E+02 -0.14935220034E+02  0.44390140481E+02  0.10515168821E+03  0.89697175242E+02 0.  0.
        -13    1    3    3    0    0  0.36148661182E+02 -0.18460827711E+02 -0.14053410998E+03  0.14627837822E+03  0.00000000000E+00 0.  1.
         13    1    3    3    0    0 -0.32342449460E+02  0.33835701406E+02 -0.84720416817E+02  0.96790690421E+02  0.00000000000E+00 0. -1.
        -13    1    4    4    0    0  0.30873959558E+02  0.29352211387E+02  0.43372373109E+02  0.60794049390E+02  0.00000000000E+00 0.  1.
         13    1    4    4    0    0 -0.22776500347E+01 -0.44287431421E+02  0.10177673720E+01  0.44357638824E+02  0.00000000000E+00 0. -1.
         21    1    1    2  502  501 -0.32402521246E+02 -0.43965366044E+00  0.43238473883E+02  0.54034084633E+02  0.00000000000E+00 0. -1.
<scales pt_clust_5="13000.00000" pt_clust_6="13000.00000" pt_clust_7="13000.00000" pt_clust_8="13000.00000" pt_clust_9="32.40550"></scales>
<clustering>
<clus scale="   32.406">  1  9  2 -1</clus>
<clus scale="   89.697">  7  8 -1 -1</clus>
<clus scale="   89.956">  5  6 -1 -1</clus>
<clus scale="   90.998">  1  7  2 -1</clus>
<clus scale="   32.406">  1  5  2 -1</clus>
</clustering>
</event>
<event>
 9    1  0.1435532E-005  0.1149563E+03  0.7546771E-02  0.1253104E+00
         -1   -1    0    0    0  501 -0.00000000000E+00  0.00000000000E+00  0.46465567414E+03  0.46465567414E+03  0.00000000000E+00 0.  1.
          1   -1    0    0  502    0  0.00000000000E+00 -0.00000000000E+00 -0.91656034179E+02  0.91656034179E+02  0.00000000000E+00 0. -1.
         23    2    1    2    0    0  0.33544090330E+02  0.11280340924E+03  0.30738749141E+03  0.34275319924E+03  0.95618359048E+02 0.  0.
         23    2    1    2    0    0 -0.13953230658E+02 -0.54569166746E+02 -0.18729039538E+02  0.10921070224E+03  0.91671772957E+02 0.  0.
        -11    1    4    4    0    0 -0.37340714439E+02 -0.74052317050E+01  0.20798259469E+02  0.43378958129E+02  0.00000000000E+00 0.  1.
         11    1    4    4    0    0  0.23387483781E+02 -0.47163935041E+02 -0.39527299008E+02  0.65831744113E+02  0.00000000000E+00 0. -1.
        -13    1    3    3    0    0  0.36878248570E+02  0.77737736502E+02  0.29182443535E+03  0.30424441155E+03  0.00000000000E+00 0.  1.
         13    1    3    3    0    0 -0.33341582399E+01  0.35065672738E+02  0.15563056058E+02  0.38508787693E+02  0.00000000000E+00 0. -1.
         21    1    1    2  502  501 -0.19590859672E+02 -0.58234242495E+02  0.84341188092E+02  0.10434780683E+03  0.00000000000E+00 0.  1.
<scales pt_clust_5="13000.00000" pt_clust_6="13000.00000" pt_clust_7="13000.00000" pt_clust_8="13000.00000" pt_clust_9="61.44126"></scales>
<clustering>
<clus scale="   61.441">  1  9  2 -1</clus>
<clus scale="   91.672">  5  6 -1 -1</clus>
<clus scale="   95.618">  7  8 -1 -1</clus>
<clus scale="  111.695">  2  5  1 -1</clus>
<clus scale="  111.695">  2  5  1 -1</clus>
</clustering>
</event>
<event>
 9    1  0.1435532E-005  0.9659460E+02  0.7546771E-02  0.1288790E+00
          1   -1    0    0  502    0  0.00000000000E+00  0.00000000000E+00  0.32488638040E+03  0.32488638040E+03  0.00000000000E+00 0. -1.
         -1   -1    0    0    0  501 -0.00000000000E+00 -0.00000000000E+00 -0.46966904183E+02  0.46966904183E+02  0.00000000000E+00 0.  1.
         23    2    1    2    0    0 -0.92412856360E+01  0.14102864703E+02  0.63949415129E+02  0.11290040810E+03  0.91502362271E+02 0.  0.
         23    2    1    2    0    0 -0.32142335363E+02 -0.16682585594E+02  0.17649898005E+03  0.20306601791E+03  0.93661514435E+02 0.  0.
        -11    1    4    4    0    0 -0.34908521633E+01 -0.48855260722E+02  0.52518346395E+02  0.71813642556E+02  0.00000000000E+00 0.  1.
         11    1    4    4    0    0 -0.28651483200E+02  0.32172675129E+02  0.12398063366E+03  0.13125237536E+03  0.00000000000E+00 0. -1.
        -13    1    3    3    0    0  0.37374347868E+02 -0.24224213952E+01  0.48106577290E+02  0.60966817061E+02  0.00000000000E+00 0.  1.
         13    1    3    3    0    0 -0.46615633504E+02  0.16525286098E+02  0.15842837839E+02  0.51933591041E+02  0.00000000000E+00 0. -1.
         21    1    1    2  502  501  0.41383620999E+02  0.25797208905E+01  0.37471081040E+02  0.55886858573E+02  0.00000000000E+00 0.  1.
<scales pt_clust_5="13000.00000" pt_clust_6="13000.00000" pt_clust_7="13000.00000" pt_clust_8="13000.00000" pt_clust_9="41.46395"></scales>
<clustering>
<clus scale="   41.464">  2  9  1 -1</clus>
<clus scale="   91.502">  7  8 -1 -1</clus>
<clus scale="   93.662">  5  6 -1 -1</clus>
<clus scale="   94.502">  2  7  1 -1</clus>
<clus scale="   96.595">  1  5  2 -1</clus>
</clustering>
</event>
<event>
 9    1  0.1435532E-005  0.1111456E+03  0.7546771E-02  0.1258555E+00
         -2   -1    0    0    0  501 -0.00000000000E+00  0.00000000000E+00  0.32026749560E+02  0.32026749560E+02  0.00000000000E+00 0.  1.
          2   -1    0    0  502    0  0.00000000000E+00 -0.00000000000E+00 -0.54158062614E+03  0.54158062614E+03  0.00000000000E+00 0. -1.
         23    2    1    2    0    0  0.47540485759E+01 -0.63174894616E+02 -0.17909806873E+03  0.21195449603E+03  0.93994265124E+02 0.  0.
         23    2    1    2    0    0  0.21548556428E+02  0.53991049728E+02 -0.20148994731E+03  0.22971212318E+03  0.93755463501E+02 0.  0.
        -11    1    3    3    0    0  0.27430710380E+02 -0.79088936793E+02 -0.11607782955E+03  0.14311382291E+03  0.00000000000E+00 0. -1.
         11    1    3    3    0    0 -0.22676661804E+02  0.15914042177E+02 -0.63020239179E+02  0.68840673117E+02  0.00000000000E+00 0.  1.
        -13    1    4    4    0    0  0.11080701068E+02  0.19318003833E+02  0.26106647195E+01  0.22422818256E+02  0.00000000000E+00 0.  1.
         13    1    4    4    0    0  0.10467855359E+02  0.34673045895E+02 -0.20410061202E+03  0.20728930493E+03  0.00000000000E+00 0. -1.
         21    1    1    2  502  501 -0.26302605004E+02  0.91838448880E+01 -0.12896586055E+03  0.13194075649E+03  0.00000000000E+00 0. -1.
<scales pt_clust_5="13000.00000" pt_clust_6="13000.00000" pt_clust_7="13000.00000" pt_clust_8="13000.00000" pt_clust_9="27.85983"></scales>
<clustering>
<clus scale="   27.860">  2  9  1 -1</clus>
<clus scale="   93.755">  7  8 -1 -1</clus>
<clus scale="   93.994">  5  6 -1 -1</clus>
<clus scale="  110.944">  2  7  1 -1</clus>
<clus scale="   27.860">  2  5  1 -1</clus>
</clustering>
</event>
<event>
 9    1  0.1435532E-005  0.1334444E+03  0.7546771E-02  0.1231155E+00
         -1   -1    0    0    0  501 -0.00000000000E+00  0.00000000000E+00  0.30836762777E+03  0.30836762777E+03  0.00000000000E+00 0.  1.
          1   -1    0    0  502    0  0.00000000000E+00 -0.00000000000E+00 -0.10278571766E+03  0.10278571766E+03  0.00000000000E+00 0. -1.
         23    2    1    2    0    0 -0.77756292012E+02  0.10731506900E+02  0.79516427150E+02  0.14495404175E+03  0.92345036930E+02 0.  0.
         23    2    1    2    0    0 -0.22368329831E+02  0.60723581940E+02  0.63893050408E+02  0.12837266986E+03  0.90606428544E+02 0.  0.
        -13    1    3    3    0    0 -0.60055777900E+02  0.49362351155E+02  0.42492574371E+02  0.88594339816E+02  0.00000000000E+00 0. -1.
         13    1    3    3    0    0 -0.17700514112E+02 -0.38630844255E+02  0.37023852779E+02  0.56359701936E+02  0.00000000000E+00 0.  1.
        -13    1    4    4    0    0 -0.39995828972E+02  0.74021095925E+02  0.64916683315E+02  0.10626836194E+03  0.00000000000E+00 0. -1.
         13    1    4    4    0    0  0.17627499142E+02 -0.13297513986E+02 -0.10236329074E+01  0.22104307917E+02  0.00000000000E+00 0.  1.
         21    1    1    2  502  501  0.10012462184E+03 -0.71455088840E+02  0.62172432547E+02  0.13782663382E+03  0.00000000000E+00 0.  1.
<scales pt_clust_5="13000.00000" pt_clust_6="13000.00000" pt_clust_7="13000.00000" pt_clust_8="13000.00000" pt_clust_9="96.33175"></scales>
<clustering>
<clus scale="   90.606">  7  8 -1 -1</clus>
<clus scale="   92.345">  5  6 -1 -1</clus>
<clus scale="  111.343">  2  7  1 -1</clus>
<clus scale="   96.332">  2  9  1 -1</clus>
<clus scale="  111.343">  2  5  1 -1</clus>
</clustering>
</event>
<event>
 9    1  0.1435532E-005  0.1352550E+03  0.7546771E-02  0.1222628E+00
          2   -1    0    0  502    0  0.00000000000E+00  0.00000000000E+00  0.62780607894E+03  0.62780607894E+03  0.00000000000E+00 0. -1.
         -2   -1    0    0    0  501 -0.00000000000E+00 -0.00000000000E+00 -0.55514474633E+02  0.55514474633E+02  0.00000000000E+00 0.  1.
         23    2    1    2    0    0  0.73497775338E+02  0.30291858324E+02  0.78043302788E+02  0.15159484638E+03  0.10281401013E+03 0.  0.
         23    2    1    2    0    0 -0.10861816026E+03 -0.23826797547E+02  0.28681539340E+03  0.32124138517E+03  0.92559908360E+02 0.  0.
        -13    1    4    4    0    0 -0.36004299209E+02  0.12226410935E+02  0.19535859183E+03  0.19902455650E+03  0.00000000000E+00 0.  1.
         13    1    4    4    0    0 -0.72613861048E+02 -0.36053208482E+02  0.91456801572E+02  0.12221682868E+03  0.00000000000E+00 0. -1.
        -13    1    3    3    0    0  0.34184879233E+01 -0.27945857503E+02  0.48005056676E+02  0.55651976405E+02  0.00000000000E+00 0. -1.
         13    1    3    3    0    0  0.70079287414E+02  0.58237715827E+02  0.30038246112E+02  0.95942869973E+02  0.00000000000E+00 0.  1.
         21    1    1    2  502  501  0.35120384918E+02 -0.64650607773E+01  0.20743290812E+03  0.21048432203E+03  0.00000000000E+00 0.  1.
<scales pt_clust_5="13000.00000" pt_clust_6="13000.00000" pt_clust_7="13000.00000" pt_clust_8="13000.00000" pt_clust_9="35.71048"></scales>
<clustering>
<clus scale="   35.710">  1  9  2 -1</clus>
<clus scale="   92.560">  5  6 -1 -1</clus>
<clus scale="  102.814">  7  8 -1 -1</clus>
<clus scale="  127.634">  1  5  2 -1</clus>
<clus scale="   35.710">  1  5  2 -1</clus>
</clustering>
</event>
<event>
 9    1  0.1435532E-005  0.1259527E+03  0.7546771E-02  0.1233998E+00
         -1   -1    0    0    0  501 -0.00000000000E+00  0.00000000000E+00  0.18882460323E+03  0.18882460323E+03  0.00000000000E+00 0.  1.
          1   -1    0    0  502    0  0.00000000000E+00 -0.00000000000E+00 -0.12879685911E+03  0.12879685911E+03  0.00000000000E+00 0. -1.
         23    2    1    2    0    0  0.15339226593E+02 -0.73951203891E+02  0.56064714273E+02  0.13167538634E+03  0.92147071314E+02 0.  0.
         23    2    1    2    0    0  0.53272002577E+01  0.10220421034E+03  0.32760580488E+02  0.14061802183E+03  0.90697810099E+02 0.  0.
        -13    1    3    3    0    0 -0.12656244022E+02 -0.17433158104E+02  0.64536620805E+02  0.68037276100E+02  0.00000000000E+00 0.  1.
         13    1    3    3    0    0  0.27995470615E+02 -0.56518045788E+02 -0.84719065317E+01  0.63638110240E+02  0.00000000000E+00 0. -1.
        -13    1    4    4    0    0  0.46290416497E+02  0.66217773751E+02  0.29445424777E+02  0.85992030214E+02  0.00000000000E+00 0. -1.
         13    1    4    4    0    0 -0.40963216239E+02  0.35986436586E+02  0.33151557110E+01  0.54625991618E+02  0.00000000000E+00 0.  1.
         21    1    1    2  502  501 -0.20666426851E+02 -0.28253006445E+02 -0.28797550643E+02  0.45328054172E+02  0.00000000000E+00 0.  1.
<scales pt_clust_5="13000.00000" pt_clust_6="13000.00000" pt_clust_7="13000.00000" pt_clust_8="13000.00000" pt_clust_9="35.00476"></scales>
<clustering>
<clus scale="   35.005">  2  9  1 -1</clus>
<clus scale="   90.698">  7  8 -1 -1</clus>
<clus scale="   92.147">  5  6 -1 -1</clus>
<clus scale="  124.896">  2  7  1 -1</clus>
<clus scale="   35.005">  2  5  1 -1</clus>
</clustering>
</event>
<event>
 9    1  0.1435532E-005  0.9776874E+02  0.7546771E-02  0.1285141E+00
         -1   -1    0    0    0  501 -0.00000000000E+00  0.00000000000E+00  0.19775467032E+02  0.19775467032E+02  0.00000000000E+00 0.  1.
          1   -1    0    0  502    0  0.00000000000E+00 -0.00000000000E+00 -0.80251490383E+03  0.80251490383E+03  0.00000000000E+00 0. -1.
         23    2    1    2    0    0 -0.56575266307E+02  0.14973583402E+02 -0.35939118370E+03  0.37535914123E+03  0.91145449829E+02 0.  0.
         23    2    1    2    0    0  0.14826157166E+02  0.12187498369E+02 -0.28569435243E+03  0.30054369996E+03  0.91306640055E+02 0.  0.
        -11    1    4    4    0    0 -0.23934961559E+01 -0.37615529967E+02 -0.15737328902E+03  0.16182400631E+03  0.00000000000E+00 0. -1.
         11    1    4    4    0    0  0.17219653322E+02  0.49803028336E+02 -0.12832106341E+03  0.13871969365E+03  0.00000000000E+00 0.  1.
        -13    1    3    3    0    0  0.12233743156E+02 -0.25583001978E+02 -0.10091838011E+03  0.10482687588E+03  0.00000000000E+00 0.  1.
         13    1    3    3    0    0 -0.68809009462E+02  0.40556585380E+02 -0.25847280359E+03  0.27053226535E+03  0.00000000000E+00 0. -1.
         21    1    1    2  502  501  0.41749109141E+02 -0.27161081771E+02 -0.13765390066E+03  0.14638752967E+03  0.00000000000E+00 0.  1.
<scales pt_clust_5="13000.00000" pt_clust_6="13000.00000" pt_clust_7="13000.00000" pt_clust_8="13000.00000" pt_clust_9="49.80675"></scales>
<clustering>
<clus scale="   49.807">  1  9  2 -1</clus>
<clus scale="   91.145">  7  8 -1 -1</clus>
<clus scale="   91.307">  5  6 -1 -1</clus>
<clus scale="   97.618">  1  7  2 -1</clus>
<clus scale="   97.769">  2  5  1 -1</clus>
</clustering>
</event>
<event>
 9    1  0.1435532E-005  0.1223380E+03  0.7546771E-02  0.1243311E+00
          2   -1    0    0  502    0  0.00000000000E+00  0.00000000000E+00  0.18259330638E+03  0.18259330638E+03  0.00000000000E+00 0. -1.
         -2   -1    0    0    0  501 -0.00000000000E+00 -0.00000000000E+00 -0.13598630800E+03  0.13598630800E+03  0.00000000000E+00 0.  1.
         23    2    1    2    0    0 -0.44685946404E+02 -0.39027840217E+02 -0.41870829586E+02  0.11648690829E+03  0.91082530239E+02 0.  0.
         23    2    1    2    0    0  0.65220394319E+02  0.49095737703E+02  0.23595579373E+02  0.13329784949E+03  0.10270089590E+03 0.  0.
        -11    1    3    3    0    0  0.34274793265E+01  0.26878018373E+02 -0.10984513654E+02  0.29237561910E+02  0.00000000000E+00 0.  1.
         11    1    3    3    0    0 -0.48113425730E+02 -0.65905858590E+02 -0.30886315932E+02  0.87249346381E+02  0.00000000000E+00 0. -1.
        -13    1    4    4    0    0 -0.22731337005E+02 -0.67636415424E+01  0.16448438463E+02  0.28861941321E+02  0.00000000000E+00 0. -1.
         13    1    4    4    0    0  0.87951731324E+02  0.55859379246E+02  0.71471409103E+01  0.10443590817E+03  0.00000000000E+00 0.  1.
         21    1    1    2  502  501 -0.20534447915E+02 -0.10067897486E+02  0.64882248598E+02  0.68794856596E+02  0.00000000000E+00 0. -1.
<scales pt_clust_5="13000.00000" pt_clust_6="13000.00000" pt_clust_7="13000.00000" pt_clust_8="13000.00000" pt_clust_9="22.86976"></scales>
<clustering>
<clus scale="   22.870">  1  9  2 -1</clus>
<clus scale="   91.083">  5  6 -1 -1</clus>
<clus scale="  102.701">  7  8 -1 -1</clus>
<clus scale="  112.761">  2  5  1 -1</clus>
<clus scale="   22.870">  1  5  2 -1</clus>
</clustering>
</event>
<event>
 9    1  0.1435532E-005  0.1300200E+03  0.7546771E-02  0.1228898E+00
         -1   -1    0    0    0  501 -0.00000000000E+00  0.00000000000E+00  0.17877361245E+03  0.17877361245E+03  0.00000000000E+00 0.  1.
          1   -1    0    0  502    0  0.00000000000E+00 -0.00000000000E+00 -0.20782206615E+03  0.20782206615E+03  0.00000000000E+00 0. -1.
         23    2    1    2    0    0 -0.42621213188E+01  0.94403143496E+02  0.12288458242E+03  0.18078515676E+03  0.93018993370E+02 0.  0.
         23    2    1    2    0    0 -0.75712888628E+01 -0.73024351773E+02 -0.12086245752E+03  0.16628251675E+03  0.87477204869E+02 0.  0.
        -13    1    4    4    0    0 -0.31580565828E+02 -0.75088602499E+02 -0.11592575181E+03  0.14168419212E+03  0.00000000000E+00 0. -1.
         13    1    4    4    0    0  0.24009276965E+02  0.20642507259E+01 -0.49367057119E+01  0.24598324633E+02  0.00000000000E+00 0.  1.
        -13    1    3    3    0    0 -0.26619480538E+02  0.52607464013E+02  0.11962764508E+02  0.60160200703E+02  0.00000000000E+00 0. -1.
         13    1    3    3    0    0  0.22357359219E+02  0.41795679483E+02  0.11092181791E+03  0.12062495605E+03  0.00000000000E+00 0.  1.
         21    1    1    2  502  501  0.11833410182E+02 -0.21378791723E+02 -0.31070578598E+02  0.39528005091E+02  0.00000000000E+00 0. -1.
<scales pt_clust_5="13000.00000" pt_clust_6="13000.00000" pt_clust_7="13000.00000" pt_clust_8="13000.00000" pt_clust_9="24.43527"></scales>
<clustering>
<clus scale="   24.435">  2  9  1 -1</clus>
<clus scale="   87.477">  5  6 -1 -1</clus>
<clus scale="   93.019">  7  8 -1 -1</clus>
<clus scale="  126.115">  2  5  1 -1</clus>
<clus scale="   24.435">  2  5  1 -1</clus>
</clustering>
</event>
<event>
 9    1  0.1518141E-005  0.9431086E+02  0.7546771E-02  0.1306998E+00
          4   -1    0    0  502    0  0.00000000000E+00  0.00000000000E+00  0.83397499614E+02  0.83397499614E+02  0.00000000000E+00 0. -1.
         -4   -1    0    0    0  501 -0.00000000000E+00 -0.00000000000E+00 -0.11553387658E+03  0.11553387658E+03  0.00000000000E+00 0.  1.
         23    2    1    2    0    0  0.16551936872E+02  0.27458871142E+01 -0.28959576240E+02  0.96874287426E+02  0.90909097443E+02 0.  0.
         23    2    1    2    0    0 -0.25427514138E+02 -0.25791561182E+02 -0.54866541727E+01  0.77253573134E+02  0.68016528024E+02 0.  0.
        -11    1    4    4    0    0 -0.59776104102E+01 -0.39617577063E+02  0.17862402093E+02  0.43867409852E+02  0.00000000000E+00 0. -1.
         11    1    4    4    0    0 -0.19449903728E+02  0.13826015881E+02 -0.23349056266E+02  0.33386163282E+02  0.00000000000E+00 0.  1.
        -13    1    3    3    0    0 -0.27735053248E+02 -0.35895247597E+01  0.17006285301E+02  0.32731202337E+02  0.00000000000E+00 0. -1.
         13    1    3    3    0    0  0.44286990120E+02  0.63354118739E+01 -0.45965861541E+02  0.64143085089E+02  0.00000000000E+00 0.  1.
         21    1    1    2  502  501  0.88755772662E+01  0.23045674068E+02  0.23098534449E+01  0.24803515638E+02  0.00000000000E+00 0. -1.
<scales pt_clust_5="13000.00000" pt_clust_6="13000.00000" pt_clust_7="13000.00000" pt_clust_8="13000.00000" pt_clust_9="24.69573"></scales>
<clustering>
<clus scale="   24.696">  1  9  2 -1</clus>
<clus scale="   68.017">  5  6 -1 -1</clus>
<clus scale="   72.501">  1  5  2 -1</clus>
<clus scale="   90.909">  7  8 -1 -1</clus>
<clus scale="   24.696">  1  5  2 -1</clus>
</clustering>
</event>
<event>
 9    1  0.1435532E-005  0.1425691E+03  0.7546771E-02  0.1210946E+00
         -1   -1    0    0    0  501 -0.00000000000E+00  0.00000000000E+00  0.80256340362E+03  0.80256340362E+03  0.00000000000E+00 0.  1.
          1   -1    0    0  502    0  0.00000000000E+00 -0.00000000000E+00 -0.63593323400E+02  0.63593323400E+02  0.00000000000E+00 0. -1.
         23    2    1    2    0    0  0.10841891941E+03 -0.23494977048E+00  0.53119764173E+03  0.54973151077E+03  0.90989461283E+02 0.  0.
         23    2    1    2    0    0 -0.11138287977E+03  0.29564518213E+02  0.23550971686E+03  0.27594849137E+03  0.86037994585E+02 0.  0.
        -11    1    3    3    0    0 -0.16606457557E+01 -0.20705731641E+02  0.32143615714E+02  0.38271361334E+02  0.00000000000E+00 0. -1.
         11    1    3    3    0    0  0.11007956516E+03  0.20470781871E+02  0.49905402601E+03  0.51146014943E+03  0.00000000000E+00 0.  1.
        -11    1    4    4    0    0 -0.59836091637E+02  0.59312795753E+02  0.14152091723E+03  0.16470135280E+03  0.00000000000E+00 0.  1.
         11    1    4    4    0    0 -0.51546788135E+02 -0.29748277539E+02  0.93988799630E+02  0.11124713857E+03  0.00000000000E+00 0. -1.
         21    1    1    2  502  501  0.29639603659E+01 -0.29329568443E+02 -0.27737278367E+02  0.40476724883E+02  0.00000000000E+00 0. -1.
<scales pt_clust_5="13000.00000" pt_clust_6="13000.00000" pt_clust_7="13000.00000" pt_clust_8="13000.00000" pt_clust_9="29.47895"></scales>
<clustering>
<clus scale="   29.479">  2  9  1 -1</clus>
<clus scale="   86.038">  7  8 -1 -1</clus>
<clus scale="   90.989">  5  6 -1 -1</clus>
<clus scale="  139.461">  2  7  1 -1</clus>
<clus scale="   29.479">  2  5  1 -1</clus>
</clustering>
</event>
<event>
 9    1  0.1435532E-005  0.1391236E+03  0.7546771E-02  0.1216630E+00
         -2   -1    0    0    0  501 -0.00000000000E+00  0.00000000000E+00  0.61996598477E+02  0.61996598477E+02  0.00000000000E+00 0.  1.
          2   -1    0    0  502    0  0.00000000000E+00 -0.00000000000E+00 -0.48686135477E+03  0.48686135477E+03  0.00000000000E+00 0. -1.
         23    2    1    2    0    0  0.44961500100E+02  0.97721008740E+02 -0.10550956125E+03  0.17504057403E+03  0.89084246660E+02 0.  0.
         23    2    1    2    0    0  0.12823650040E+02 -0.93279794745E+02 -0.21158130695E+03  0.25144884194E+03  0.97950520957E+02 0.  0.
        -11    1    3    3    0    0  0.68928783363E+02  0.91930064447E+02 -0.84177241586E+02  0.14243637852E+03  0.00000000000E+00 0. -1.
         11    1    3    3    0    0 -0.23967283264E+02  0.57909442934E+01 -0.21332319663E+02  0.32604195514E+02  0.00000000000E+00 0.  1.
        -13    1    4    4    0    0  0.24107447640E+02  0.11399283657E+02 -0.21901960812E+02  0.34508094515E+02  0.00000000000E+00 0. -1.
         13    1    4    4    0    0 -0.11283797601E+02 -0.10467907840E+03 -0.18967934614E+03  0.21694074743E+03  0.00000000000E+00 0.  1.
         21    1    1    2  502  501 -0.57785150139E+02 -0.44412139951E+01 -0.10777388809E+03  0.12236853727E+03  0.00000000000E+00 0.  1.
<scales pt_clust_5="13000.00000" pt_clust_6="13000.00000" pt_clust_7="13000.00000" pt_clust_8="13000.00000" pt_clust_9="57.95557"></scales>
<clustering>
<clus scale="   57.956">  2  9  1 -1</clus>
<clus scale="   89.084">  5  6 -1 -1</clus>
<clus scale="   97.951">  7  8 -1 -1</clus>
<clus scale="  133.030">  1  5  2 -1</clus>
<clus scale="   57.956">  2  5  1 -1</clus>
</clustering>
</event>
<event>
 9    1  0.1435532E-005  0.1273891E+03  0.7546771E-02  0.1232177E+00
          3   -1    0    0  502    0  0.00000000000E+00  0.00000000000E+00  0.51552983224E+02  0.51552983224E+02  0.00000000000E+00 0. -1.
         -3   -1    0    0    0  501 -0.00000000000E+00 -0.00000000000E+00 -0.42081681523E+03  0.42081681523E+03  0.00000000000E+00 0.  1.
         23    2    1    2    0    0  0.73721292215E+02 -0.66848179140E+02 -0.21746136194E+03  0.25465889908E+03  0.87511159081E+02 0.  0.
         23    2    1    2    0    0 -0.45216673239E+02  0.65346551311E+02 -0.14480947727E+03  0.18832263407E+03  0.90448385776E+02 0.  0.
        -11    1    4    4    0    0 -0.58613325563E+02  0.36382920790E+02 -0.42212470780E+02  0.80877262244E+02  0.00000000000E+00 0. -1.
         11    1    4    4    0    0  0.13396652324E+02  0.28963630520E+02 -0.10259700649E+03  0.10744537182E+03  0.00000000000E+00 0.  1.
        -11    1    3    3    0    0  0.39770638389E+02  0.16071072378E+02 -0.68098587570E+02  0.80482300379E+02  0.00000000000E+00 0.  1.
         11    1    3    3    0    0  0.33950653825E+02 -0.82919251519E+02 -0.14936277437E+03  0.17417659870E+03  0.00000000000E+00 0. -1.
         21    1    1    2  502  501 -0.28504618976E+02  0.15016278296E+01 -0.69929927937E+01  0.29388265300E+02  0.00000000000E+00 0. -1.
<scales pt_clust_5="13000.00000" pt_clust_6="13000.00000" pt_clust_7="13000.00000" pt_clust_8="13000.00000" pt_clust_9="28.54414"></scales>
<clustering>
<clus scale="   28.544">  1  9  2 -1</clus>
<clus scale="   87.511">  7  8 -1 -1</clus>
<clus scale="   90.448">  5  6 -1 -1</clus>
<clus scale="  125.321">  2  7  1 -1</clus>
<clus scale="   28.544">  1  5  2 -1</clus>
</clustering>
</event>
<event>
 9    1  0.1435532E-005  0.1160352E+03  0.7546771E-02  0.1251258E+00
         -1   -1    0    0    0  501 -0.00000000000E+00  0.00000000000E+00  0.31828535025E+02  0.31828535025E+02  0.00000000000E+00 0.  1.
          1   -1    0    0  502    0  0.00000000000E+00 -0.00000000000E+00 -0.55426045175E+03  0.55426045175E+03  0.00000000000E+00 0. -1.
         23    2    1    2    0    0 -0.60011021757E+02  0.32071416540E+02 -0.14970079627E+03  0.18881391967E+03  0.92792614830E+02 0.  0.
         23    2    1    2    0    0  0.39163043973E+02 -0.43876072322E+02 -0.29899248342E+03  0.31974201178E+03  0.96848310361E+02 0.  0.
        -13    1    3    3    0    0  0.16363116522E+02 -0.16908888372E+02 -0.40497179200E+02  0.46836776271E+02  0.00000000000E+00 0. -1.
         13    1    3    3    0    0 -0.76374138280E+02  0.48980304912E+02 -0.10920361707E+03  0.14197714340E+03  0.00000000000E+00 0.  1.
        -13    1    4    4    0    0 -0.11095286143E+02  0.24496121798E+02 -0.51364713521E+02  0.57978436965E+02  0.00000000000E+00 0.  1.
         13    1    4    4    0    0  0.50258330116E+02 -0.68372194120E+02 -0.24762776990E+03  0.26176357481E+03  0.00000000000E+00 0. -1.
         21    1    1    2  502  501  0.20847977784E+02  0.11804655782E+02 -0.73738637032E+02  0.77533055319E+02  0.00000000000E+00 0.  1.
<scales pt_clust_5="13000.00000" pt_clust_6="13000.00000" pt_clust_7="13000.00000" pt_clust_8="13000.00000" pt_clust_9="23.95805"></scales>
<clustering>
<clus scale="   23.958">  2  9  1 -1</clus>
<clus scale="   92.793">  5  6 -1 -1</clus>
<clus scale="   96.848">  7  8 -1 -1</clus>
<clus scale="  112.672">  1  5  2 -1</clus>
<clus scale="   23.958">  2  5  1 -1</clus>
</clustering>
</event>
<event>
 9    1  0.1435532E-005  0.9373107E+02  0.7546771E-02  0.1294419E+00
         -2   -1    0    0    0  501 -0.00000000000E+00  0.00000000000E+00  0.14345969346E+03  0.14345969346E+03  0.00000000000E+00 0.  1.
          2   -1    0    0  502    0  0.00000000000E+00 -0.00000000000E+00 -0.10639512138E+03  0.10639512138E+03  0.00000000000E+00 0. -1.
         23    2    1    2    0    0 -0.14784708944E+02 -0.20758456208E+02  0.68287481439E+02  0.11684994183E+03  0.91330321703E+02 0.  0.
         23    2    1    2    0    0  0.29330482041E+01  0.36536667330E+01  0.39127647980E+01  0.92169211091E+02  0.91966851052E+02 0.  0.
        -11    1    4    4    0    0 -0.38686338996E+02 -0.20156790070E+02  0.67243325444E+01  0.44137803061E+02  0.00000000000E+00 0. -1.
         11    1    4    4    0    0  0.41619387200E+02  0.23810456803E+02 -0.28115677464E+01  0.48031408030E+02  0.00000000000E+00 0.  1.
        -13    1    3    3    0    0 -0.49810414202E+01 -0.51260062611E+02  0.67367274935E+02  0.84798316756E+02  0.00000000000E+00 0. -1.
         13    1    3    3    0    0 -0.98036675234E+01  0.30501606403E+02  0.92020650372E+00  0.32051625077E+02  0.00000000000E+00 0.  1.
         21    1    1    2  502  501  0.11851660740E+02  0.17104789475E+02 -0.35135674157E+02  0.40835661911E+02  0.00000000000E+00 0. -1.
<scales pt_clust_5="13000.00000" pt_clust_6="13000.00000" pt_clust_7="13000.00000" pt_clust_8="13000.00000" pt_clust_9="20.80951"></scales>
<clustering>
<clus scale="   20.810">  2  9  1 -1</clus>
<clus scale="   91.330">  7  8 -1 -1</clus>
<clus scale="   91.967">  5  6 -1 -1</clus>
<clus scale="   93.107">  1  7  2 -1</clus>
<clus scale="   20.810">  2  5  1 -1</clus>
</clustering>
</event>
<event>
 9    1  0.1435532E-005  0.1035420E+03  0.7546771E-02  0.1273460E+00
          1   -1    0    0  502    0  0.00000000000E+00  0.00000000000E+00  0.48202439042E+03  0.48202439042E+03  0.00000000000E+00 0. -1.
         -1   -1    0    0    0  501 -0.00000000000E+00 -0.00000000000E+00 -0.70147651887E+02  0.70147651887E+02  0.00000000000E+00 0.  1.
         23    2    1    2    0    0  0.26092998297E+02 -0.51909720322E+02  0.69554150988E+02  0.12969196656E+03  0.92772639540E+02 0.  0.
         23    2    1    2    0    0 -0.61351549201E+02 -0.36675930343E+02  0.77649767180E+02  0.14115768994E+03  0.93738309295E+02 0.  0.
        -11    1    4    4    0    0 -0.27173818063E+01 -0.55131517337E+02  0.26696796488E+02  0.61315473662E+02  0.00000000000E+00 0.  1.
         11    1    4    4    0    0 -0.58634167395E+02  0.18455586994E+02  0.50952970691E+02  0.79842216274E+02  0.00000000000E+00 0. -1.
        -11    1    3    3    0    0  0.13215587888E+01 -0.52383150092E+02 -0.35337639653E+01  0.52518838705E+02  0.00000000000E+00 0.  1.
         11    1    3    3    0    0  0.24771439509E+02  0.47342976957E+00  0.73087914953E+02  0.77173127857E+02  0.00000000000E+00 0. -1.
         21    1    1    2  502  501  0.35258550903E+02  0.88585650665E+02  0.26467282036E+03  0.28132238580E+03  0.00000000000E+00 0. -1.
<scales pt_clust_5="13000.00000" pt_clust_6="13000.00000" pt_clust_7="13000.00000" pt_clust_8="13000.00000" pt_clust_9="95.34455"></scales>
<clustering>
<clus scale="   92.773">  7  8 -1 -1</clus>
<clus scale="   93.738">  5  6 -1 -1</clus>
<clus scale="   95.345">  1  9  2 -1</clus>
<clus scale="  102.669">  2  7  1 -1</clus>
<clus scale="   95.345">  1  5  2 -1</clus>
</clustering>
</event>
<event>
 9    1  0.1435532E-005  0.9439854E+02  0.7546771E-02  0.1292913E+00
          2   -1    0    0  502    0  0.00000000000E+00  0.00000000000E+00  0.19580657193E+03  0.19580657193E+03  0.00000000000E+00 0. -1.
         -2   -1    0    0    0  501 -0.00000000000E+00 -0.00000000000E+00 -0.94812239736E+02  0.94812239736E+02  0.00000000000E+00 0.  1.
         23    2    1    2    0    0 -0.53875282453E+01 -0.22438172836E+02 -0.39604047283E+02  0.10338263817E+03  0.92666025346E+02 0.  0.
         23    2    1    2    0    0 -0.84393473363E+01  0.34312173885E+01  0.80047112534E+02  0.12228309218E+03  0.91992491934E+02 0.  0.
        -11    1    4    4    0    0  0.31069764991E+02  0.28229352396E+02  0.55451458113E+02  0.69549197265E+02  0.00000000000E+00 0. -1.
         11    1    4    4    0    0 -0.39509112327E+02 -0.24798135008E+02  0.24595654421E+02  0.52733894917E+02  0.00000000000E+00 0.  1.
        -13    1    3    3    0    0  0.34170660590E+02 -0.17571083020E+02  0.10045037323E+02  0.39714981788E+02  0.00000000000E+00 0. -1.
         13    1    3    3    0    0 -0.39558188835E+02 -0.48670898161E+01 -0.49649084606E+02  0.63667656384E+02  0.00000000000E+00 0.  1.
         21    1    1    2  502  501  0.13826875582E+02  0.19006955447E+02  0.60551266946E+02  0.64953081317E+02  0.00000000000E+00 0. -1.
<scales pt_clust_5="13000.00000" pt_clust_6="13000.00000" pt_clust_7="13000.00000" pt_clust_8="13000.00000" pt_clust_9="23.50419"></scales>
<clustering>
<clus scale="   23.504">  1  9  2 -1</clus>
<clus scale="   91.992">  5  6 -1 -1</clus>
<clus scale="   92.666">  7  8 -1 -1</clus>
<clus scale="   93.737">  1  5  2 -1</clus>
<clus scale="   23.504">  1  5  2 -1</clus>
</clustering>
</event>
<event>
 9    1  0.1435532E-005  0.1707615E+03  0.7546771E-02  0.1179948E+00
          1   -1    0    0  502    0  0.00000000000E+00  0.00000000000E+00  0.43582839107E+03  0.43582839107E+03  0.00000000000E+00 0. -1.
         -1   -1    0    0    0  501 -0.00000000000E+00 -0.00000000000E+00 -0.11724038289E+03  0.11724038289E+03  0.00000000000E+00 0.  1.
         23    2    1    2    0    0 -0.31075249317E+02 -0.11570723754E+03  0.61309966442E+02  0.16392116685E+03  0.93580986406E+02 0.  0.
         23    2    1    2    0    0  0.91550902958E+01  0.17486166690E+03  0.88594417659E+02  0.20905345141E+03  0.72069109028E+02 0.  0.
        -11    1    4    4    0    0 -0.31035453441E+02  0.58820540212E+02  0.33243106225E+02  0.74351593343E+02  0.00000000000E+00 0.  1.
         11    1    4    4    0    0  0.40190543737E+02  0.11604112669E+03  0.55351311434E+02  0.13470185807E+03  0.00000000000E+00 0. -1.
        -11    1    3    3    0    0 -0.47710300133E+02 -0.50632025878E+02 -0.47246475497E+01  0.69729456313E+02  0.00000000000E+00 0.  1.
         11    1    3    3    0    0  0.16635050816E+02 -0.65075211663E+02  0.66034613992E+02  0.94191710536E+02  0.00000000000E+00 0. -1.
         21    1    1    2  502  501  0.21920159021E+02 -0.59154429364E+02  0.16868362408E+03  0.18009415570E+03  0.00000000000E+00 0.  1.
<scales pt_clust_5="13000.00000" pt_clust_6="13000.00000" pt_clust_7="13000.00000" pt_clust_8="13000.00000" pt_clust_9="63.08518"></scales>
<clustering>
<clus scale="   63.085">  1  9  2 -1</clus>
<clus scale="   72.069">  5  6 -1 -1</clus>
<clus scale="   93.581">  7  8 -1 -1</clus>
<clus scale="  159.988">  1  5  2 -1</clus>
<clus scale="   63.085">  1  5  2 -1</clus>
</clustering>
</event>
<event>
 9    1  0.1435532E-005  0.1314011E+03  0.7546771E-02  0.1226592E+00
          1   -1    0    0  502    0  0.00000000000E+00  0.00000000000E+00  0.14669721300E+03  0.14669721300E+03  0.00000000000E+00 0. -1.
         -1   -1    0    0    0  501 -0.00000000000E+00 -0.00000000000E+00 -0.21547610386E+03  0.21547610386E+03  0.00000000000E+00 0.  1.
         23    2    1    2    0    0  0.75586751007E+02  0.50922703919E+02 -0.14362934363E+03  0.19306637866E+03  0.91316808496E+02 0.  0.
         23    2    1    2    0    0 -0.58150499314E+02 -0.64441196011E+02  0.67569247210E+02  0.14587359027E+03  0.95808939338E+02 0.  0.
        -11    1    4    4    0    0  0.67373383849E+01 -0.31940212803E+02 -0.15017037529E+02  0.35931606401E+02  0.00000000000E+00 0.  1.
         11    1    4    4    0    0 -0.64887837699E+02 -0.32500983208E+02  0.82586284739E+02  0.10994198387E+03  0.00000000000E+00 0. -1.
        -13    1    3    3    0    0  0.59593484813E+02  0.34554606245E+02 -0.15341976351E+03  0.16817558705E+03  0.00000000000E+00 0.  1.
         13    1    3    3    0    0  0.15993266194E+02  0.16368097674E+02  0.97904198845E+01  0.24890791601E+02  0.00000000000E+00 0. -1.
         21    1    1    2  502  501 -0.17436251693E+02  0.13518492092E+02  0.72812055654E+01  0.23233347929E+02  0.00000000000E+00 0. -1.
<scales pt_clust_5="13000.00000" pt_clust_6="13000.00000" pt_clust_7="13000.00000" pt_clust_8="13000.00000" pt_clust_9="22.06292"></scales>
<clustering>
<clus scale="   22.063">  1  9  2 -1</clus>
<clus scale="   91.317">  7  8 -1 -1</clus>
<clus scale="   95.809">  5  6 -1 -1</clus>
<clus scale="  128.163">  2  7  1 -1</clus>
<clus scale="   22.063">  1  5  2 -1</clus>
</clustering>
</event>
<event>
 9    1  0.1435532E-005  0.1482211E+03  0.7546771E-02  0.1203811E+00
         -1   -1    0    0    0  501 -0.00000000000E+00  0.00000000000E+00  0.68907974517E+02  0.68907974517E+02  0.00000000000E+00 0.  1.
          1   -1    0    0  502    0  0.00000000000E+00 -0.00000000000E+00 -0.48113506609E+03  0.48113506609E+03  0.00000000000E+00 0. -1.
         23    2    1    2    0    0  0.11793135019E+02  0.11021560507E+03 -0.13910590705E+03  0.19957079007E+03  0.90506846358E+02 0.  0.
         23    2    1    2    0    0 -0.66667712716E+02 -0.10181941481E+03 -0.15164075195E+03  0.21690874210E+03  0.96139001431E+02 0.  0.
        -11    1    3    3    0    0  0.40146287007E+02  0.83226275338E+02 -0.56890575704E+02  0.10851209551E+03  0.00000000000E+00 0. -1.
         11    1    3    3    0    0 -0.28353151988E+02  0.26989329731E+02 -0.82215331345E+02  0.91058694562E+02  0.00000000000E+00 0.  1.
        -13    1    4    4    0    0 -0.78767914753E+02 -0.64980647463E+02 -0.14534030285E+03  0.17762508993E+03  0.00000000000E+00 0. -1.
         13    1    4    4    0    0  0.12100202037E+02 -0.36838767351E+02 -0.63004491008E+01  0.39283652175E+02  0.00000000000E+00 0.  1.
         21    1    1    2  502  501  0.54874577697E+02 -0.83961902546E+01 -0.12148043257E+03  0.13356350844E+03  0.00000000000E+00 0.  1.
<scales pt_clust_5="13000.00000" pt_clust_6="13000.00000" pt_clust_7="13000.00000" pt_clust_8="13000.00000" pt_clust_9="55.51320"></scales>
<clustering>
<clus scale="   55.513">  2  9  1 -1</clus>
<clus scale="   90.507">  5  6 -1 -1</clus>
<clus scale="   96.139">  7  8 -1 -1</clus>
<clus scale="  144.631">  1  5  2 -1</clus>
<clus scale="   55.513">  2  5  1 -1</clus>
</clustering>
</event>
<event>
 9    1  0.1435532E-005  0.1030299E+03  0.7546771E-02  0.1276803E+00
         -2   -1    0    0    0  501 -0.00000000000E+00  0.00000000000E+00  0.14565123848E+03  0.14565123848E+03  0.00000000000E+00 0.  1.
          2   -1    0    0  502    0  0.00000000000E+00 -0.00000000000E+00 -0.16300628753E+03  0.16300628753E+03  0.00000000000E+00 0. -1.
         23    2    1    2    0    0 -0.25585571699E+02  0.49439922448E+01  0.40281072309E+02  0.10253671586E+03  0.90620906937E+02 0.  0.
         23    2    1    2    0    0  0.46064255524E+02 -0.22536301225E+02  0.31028887775E+02  0.11343667089E+03  0.96308285812E+02 0.  0.
        -11    1    3    3    0    0 -0.18512552986E+02  0.41202045423E+02  0.46779468353E+02  0.65028008001E+02  0.00000000000E+00 0.  1.
         11    1    3    3    0    0 -0.70730187131E+01 -0.36258053178E+02 -0.64983960443E+01  0.37508707858E+02  0.00000000000E+00 0. -1.
        -11    1    4    4    0    0  0.24571702457E+02  0.35446839170E+02  0.28204563513E+02  0.51533914772E+02  0.00000000000E+00 0.  1.
         11    1    4    4    0    0  0.21492553067E+02 -0.57983140395E+02  0.28243242624E+01  0.61902756118E+02  0.00000000000E+00 0. -1.
         21    1    1    2  502  501 -0.20478683825E+02  0.17592308980E+02 -0.88665009136E+02  0.92684139267E+02  0.00000000000E+00 0. -1.
<scales pt_clust_5="13000.00000" pt_clust_6="13000.00000" pt_clust_7="13000.00000" pt_clust_8="13000.00000" pt_clust_9="26.99752"></scales>
<clustering>
<clus scale="   26.998">  2  9  1 -1</clus>
<clus scale="   90.621">  5  6 -1 -1</clus>
<clus scale="   96.308">  7  8 -1 -1</clus>
<clus scale="   97.734">  1  5  2 -1</clus>
<clus scale="   26.998">  2  5  1 -1</clus>
</clustering>
</event>
<event>
 9    1  0.1435532E-005  0.9860691E+02  0.7546771E-02  0.1286812E+00
         -1   -1    0    0    0  501 -0.00000000000E+00  0.00000000000E+00  0.82149578618E+02  0.82149578618E+02  0.00000000000E+00 0.  1.
          1   -1    0    0  502    0  0.00000000000E+00 -0.00000000000E+00 -0.22471228796E+03  0.22471228796E+03  0.00000000000E+00 0. -1.
         23    2    1    2    0    0 -0.23259087583E+02 -0.31555423499E+02 -0.19786152931E+02  0.98725793762E+02  0.88422624925E+02 0.  0.
         23    2    1    2    0    0  0.27791833215E+02 -0.32025785699E+02 -0.71037804926E+02  0.12603848241E+03  0.95085710679E+02 0.  0.
        -13    1    4    4    0    0  0.40302127000E+02 -0.60645131084E+02 -0.51696900408E+02  0.89300967950E+02  0.00000000000E+00 0.  1.
         13    1    4    4    0    0 -0.12510293785E+02  0.28619345385E+02 -0.19340904518E+02  0.36737514456E+02  0.00000000000E+00 0. -1.
        -13    1    3    3    0    0 -0.50047561991E+02 -0.44095733841E+02 -0.18025985738E+02  0.69095067596E+02  0.00000000000E+00 0.  1.
         13    1    3    3    0    0  0.26788474409E+02  0.12540310341E+02 -0.17601671937E+01  0.29630726166E+02  0.00000000000E+00 0. -1.
         21    1    1    2  502  501 -0.45327456322E+01  0.63581209199E+02 -0.51738751489E+02  0.82097590414E+02  0.00000000000E+00 0. -1.
<scales pt_clust_5="13000.00000" pt_clust_6="13000.00000" pt_clust_7="13000.00000" pt_clust_8="13000.00000" pt_clust_9="63.74258"></scales>
<clustering>
<clus scale="   63.743">  2  9  1 -1</clus>
<clus scale="   88.423">  7  8 -1 -1</clus>
<clus scale="   92.199">  1  7  2 -1</clus>
<clus scale="   95.086">  5  6 -1 -1</clus>
<clus scale="   63.743">  2  5  1 -1</clus>
</clustering>
</event>
<event>
 9    1  0.1435532E-005  0.1005943E+03  0.7546771E-02  0.1281871E+00
          1   -1    0    0  502    0  0.00000000000E+00  0.00000000000E+00  0.14778792976E+03  0.14778792976E+03  0.00000000000E+00 0. -1.
         -1   -1    0    0    0  501 -0.00000000000E+00 -0.00000000000E+00 -0.14259562999E+03  0.14259562999E+03  0.00000000000E+00 0.  1.
         23    2    1    2    0    0 -0.27922198289E+02 -0.44614172990E+02 -0.68847543453E+02  0.12275970745E+03  0.86947616093E+02 0.  0.
         23    2    1    2    0    0  0.20893938557E+01  0.12746868058E+02  0.13568360360E+02  0.94550880902E+02  0.92676428851E+02 0.  0.
        -11    1    4    4    0    0  0.32989822104E+02 -0.17785462960E+02  0.30101963383E+02  0.48070565367E+02  0.00000000000E+00 0.  1.
         11    1    4    4    0    0 -0.30900428249E+02  0.30532331018E+02 -0.16533603022E+02  0.46480315535E+02  0.00000000000E+00 0. -1.
        -13    1    3    3    0    0  0.10852914935E+02 -0.25724943034E+02  0.12572768256E+02  0.30620792907E+02  0.00000000000E+00 0. -1.
         13    1    3    3    0    0 -0.38775113223E+02 -0.18889229956E+02 -0.81420311709E+02  0.92138914540E+02  0.00000000000E+00 0.  1.
         21    1    1    2  502  501  0.25832804433E+02  0.31867304931E+02  0.60471482864E+02  0.73072971393E+02  0.00000000000E+00 0. -1.
<scales pt_clust_5="13000.00000" pt_clust_6="13000.00000" pt_clust_7="13000.00000" pt_clust_8="13000.00000" pt_clust_9="41.02266"></scales>
<clustering>
<clus scale="   41.023">  1  9  2 -1</clus>
<clus scale="   86.948">  7  8 -1 -1</clus>
<clus scale="   92.676">  5  6 -1 -1</clus>
<clus scale="   95.342">  2  7  1 -1</clus>
<clus scale="   41.023">  1  5  2 -1</clus>
</clustering>
</event>
<event>
 9    1  0.1435532E-005  0.1123257E+03  0.7546771E-02  0.1257430E+00
         -2   -1    0    0    0  501 -0.00000000000E+00  0.00000000000E+00  0.27706844024E+03  0.27706844024E+03  0.00000000000E+00 0.  1.
          2   -1    0    0  502    0  0.00000000000E+00 -0.00000000000E+00 -0.12259109078E+03  0.12259109078E+03  0.00000000000E+00 0. -1.
         23    2    1    2    0    0  0.63477546931E+02  0.40410863416E+01  0.21923185372E+03  0.24675904998E+03  0.93710691604E+02 0.  0.
         23    2    1    2    0    0 -0.48660601955E+02 -0.31046056775E+02 -0.53062600030E+02  0.11995338844E+03  0.90782509615E+02 0.  0.
        -11    1    3    3    0    0  0.28731281231E+02 -0.79382431381E+01  0.60288325447E+01  0.30411330901E+02  0.00000000000E+00 0. -1.
         11    1    3    3    0    0  0.34746265700E+02  0.11979329480E+02  0.21320302117E+03  0.21634771908E+03  0.00000000000E+00 0.  1.
        -13    1    4    4    0    0  0.18150683855E+02  0.17163815301E+02 -0.15559949628E+02  0.29430526882E+02  0.00000000000E+00 0.  1.
         13    1    4    4    0    0 -0.66811285810E+02 -0.48209872076E+02 -0.37502650402E+02  0.90522861557E+02  0.00000000000E+00 0. -1.
         21    1    1    2  502  501 -0.14816944976E+02  0.27004970434E+02 -0.11691904230E+02  0.32947092604E+02  0.00000000000E+00 0. -1.
<scales pt_clust_5="13000.00000" pt_clust_6="13000.00000" pt_clust_7="13000.00000" pt_clust_8="13000.00000" pt_clust_9="30.80276"></scales>
<clustering>
<clus scale="   30.803">  2  9  1 -1</clus>
<clus scale="   90.783">  7  8 -1 -1</clus>
<clus scale="   93.711">  5  6 -1 -1</clus>
<clus scale="  109.895">  2  7  1 -1</clus>
<clus scale="   30.803">  2  5  1 -1</clus>
</clustering>
</event>
<event>
 9    1  0.1435532E-005  0.1233277E+03  0.7546771E-02  0.1238467E+00
          2   -1    0    0  502    0  0.00000000000E+00  0.00000000000E+00  0.27563813666E+03  0.27563813666E+03  0.00000000000E+00 0. -1.
         -2   -1    0    0    0  501 -0.00000000000E+00 -0.00000000000E+00 -0.65580691292E+02  0.65580691292E+02  0.00000000000E+00 0.  1.
         23    2    1    2    0    0  0.56026196486E+02 -0.44669066261E+02  0.85439745973E+02  0.14447578399E+03  0.91864257438E+02 0.  0.
         23    2    1    2    0    0 -0.77592259801E+02  0.43150295791E+02  0.97986501198E+02  0.16244111299E+03  0.94357055727E+02 0.  0.
        -11    1    4    4    0    0 -0.25590268943E+02  0.19634787589E+02 -0.15217406362E+02  0.35664495014E+02  0.00000000000E+00 0.  1.
         11    1    4    4    0    0 -0.52001990858E+02  0.23515508202E+02  0.11320390756E+03  0.12677661798E+03  0.00000000000E+00 0. -1.
        -13    1    3    3    0    0 -0.24147651497E+02 -0.17286229005E+01  0.27505078109E+02  0.36641868562E+02  0.00000000000E+00 0.  1.
         13    1    3    3    0    0  0.80173847983E+02 -0.42940443361E+02  0.57934667864E+02  0.10783391543E+03  0.00000000000E+00 0. -1.
         21    1    1    2  502  501  0.21566063315E+02  0.15187704697E+01  0.26631198192E+02  0.34301930963E+02  0.00000000000E+00 0.  1.
<scales pt_clust_5="13000.00000" pt_clust_6="13000.00000" pt_clust_7="13000.00000" pt_clust_8="13000.00000" pt_clust_9="21.61948"></scales>
<clustering>
<clus scale="   21.619">  1  9  2 -1</clus>
<clus scale="   91.864">  7  8 -1 -1</clus>
<clus scale="   94.357">  5  6 -1 -1</clus>
<clus scale="  121.431">  2  7  1 -1</clus>
<clus scale="   21.619">  1  5  2 -1</clus>
</clustering>
</event>
<event>
 9    1  0.1435532E-005  0.1989462E+03  0.7546771E-02  0.1150786E+00
          2   -1    0    0  502    0  0.00000000000E+00  0.00000000000E+00  0.10909958561E+04  0.10909958561E+04  0.00000000000E+00 0. -1.
         -2   -1    0    0    0  501 -0.00000000000E+00 -0.00000000000E+00 -0.74738743777E+02  0.74738743777E+02  0.00000000000E+00 0.  1.
         23    2    1    2    0    0 -0.44851652656E+02 -0.18396158743E+03  0.17712175302E+03  0.27507907866E+03  0.91884970076E+02 0.  0.
         23    2    1    2    0    0 -0.58335672806E+02  0.15763307911E+03  0.49877359297E+03  0.53402273183E+03  0.90299184477E+02 0.  0.
        -11    1    4    4    0    0  0.23272682709E+02  0.27866098515E+02  0.73817380526E+02  0.82262645682E+02  0.00000000000E+00 0. -1.
         11    1    4    4    0    0 -0.81608355516E+02  0.12976698059E+03  0.42495621245E+03  0.45176008615E+03  0.00000000000E+00 0.  1.
        -13    1    3    3    0    0 -0.13982764007E+01 -0.20277692247E+02 -0.10040111338E+02  0.22670328966E+02  0.00000000000E+00 0.  1.
         13    1    3    3    0    0 -0.43453376255E+02 -0.16368389519E+03  0.18716186436E+03  0.25240874969E+03  0.00000000000E+00 0. -1.
         21    1    1    2  502  501  0.10318732546E+03  0.26328508327E+02  0.34036176635E+03  0.35663278940E+03  0.00000000000E+00 0. -1.
<scales pt_clust_5="13000.00000" pt_clust_6="13000.00000" pt_clust_7="13000.00000" pt_clust_8="13000.00000" pt_clust_9="106.49326"></scales>
<clustering>
<clus scale="   90.299">  5  6 -1 -1</clus>
<clus scale="   91.885">  7  8 -1 -1</clus>
<clus scale="  106.493">  1  9  2 -1</clus>
<clus scale="  198.219">  1  5  2 -1</clus>
<clus scale="  106.493">  1  5  2 -1</clus>
</clustering>
</event>
<event>
 9    1  0.1435532E-005  0.1007467E+03  0.7546771E-02  0.1283537E+00
          1   -1    0    0  502    0  0.00000000000E+00  0.00000000000E+00  0.10369523823E+03  0.10369523823E+03  0.00000000000E+00 0. -1.
         -1   -1    0    0    0  501 -0.00000000000E+00 -0.00000000000E+00 -0.18084022324E+03  0.18084022324E+03  0.00000000000E+00 0.  1.
         23    2    1    2    0    0 -0.18015034548E+01  0.14490516585E+01 -0.12124279343E+03  0.15761593190E+03  0.10068575801E+03 0.  0.
         23    2    1    2    0    0 -0.14670699434E+01  0.18852377732E+02  0.21277299215E+02  0.96201338746E+02  0.91893469160E+02 0.  0.
        -11    1    3    3    0    0 -0.37581998237E+01  0.36165956946E+02 -0.11707933378E+03  0.12259555826E+03  0.00000000000E+00 0.  1.
         11    1    3    3    0    0  0.19566963689E+01 -0.34716905287E+02 -0.41634596460E+01  0.35020373636E+02  0.00000000000E+00 0. -1.
        -11    1    4    4    0    0 -0.87701088892E+01  0.43423596742E+02 -0.19206383644E+02  0.48284663576E+02  0.00000000000E+00 0.  1.
         11    1    4    4    0    0  0.73030389458E+01 -0.24571219010E+02  0.40483682859E+02  0.47916675170E+02  0.00000000000E+00 0. -1.
         21    1    1    2  502  501  0.32685733982E+01 -0.20301429390E+02  0.22820509204E+02  0.30718190827E+02  0.00000000000E+00 0. -1.
<scales pt_clust_5="13000.00000" pt_clust_6="13000.00000" pt_clust_7="13000.00000" pt_clust_8="13000.00000" pt_clust_9="20.56287"></scales>
<clustering>
<clus scale="   20.563">  1  9  2 -1</clus>
<clus scale="   91.893">  7  8 -1 -1</clus>
<clus scale="   91.960">  1  7  2 -1</clus>
<clus scale="  100.686">  5  6 -1 -1</clus>
<clus scale="   20.563">  1  5  2 -1</clus>
</clustering>
</event>
<event>
 9    1  0.1435532E-005  0.9918467E+02  0.7546771E-02  0.1283619E+00
          1   -1    0    0  502    0  0.00000000000E+00  0.00000000000E+00  0.44829705485E+03  0.44829705485E+03  0.00000000000E+00 0. -1.
         -1   -1    0    0    0  501 -0.00000000000E+00 -0.00000000000E+00 -0.12765519542E+03  0.12765519542E+03  0.00000000000E+00 0.  1.
         23    2    1    2    0    0  0.40099023752E+02 -0.23157350461E+01 -0.94195034381E+02  0.13775454711E+03  0.92142912986E+02 0.  0.
         23    2    1    2    0    0 -0.60051635937E+01  0.54082070048E+01  0.18066300136E+03  0.20153472213E+03  0.88948375309E+02 0.  0.
        -11    1    3    3    0    0  0.65330834298E+02 -0.10723743376E+02 -0.39908871139E+02  0.77303522415E+02  0.00000000000E+00 0.  1.
         11    1    3    3    0    0 -0.25231810547E+02  0.84080083300E+01 -0.54286163241E+02  0.60451024698E+02  0.00000000000E+00 0. -1.
        -13    1    4    4    0    0 -0.38901951982E+02 -0.31556166608E+01  0.15242566259E+03  0.15734326297E+03  0.00000000000E+00 0. -1.
         13    1    4    4    0    0  0.32896788389E+02  0.85638236656E+01  0.28237338767E+02  0.44191459160E+02  0.00000000000E+00 0.  1.
         21    1    1    2  502  501 -0.34093860158E+02 -0.30924719587E+01  0.23417389246E+03  0.23666298103E+03  0.00000000000E+00 0. -1.
<scales pt_clust_5="13000.00000" pt_clust_6="13000.00000" pt_clust_7="13000.00000" pt_clust_8="13000.00000" pt_clust_9="34.23382"></scales>
<clustering>
<clus scale="   34.234">  1  9  2 -1</clus>
<clus scale="   88.948">  7  8 -1 -1</clus>
<clus scale="   92.143">  5  6 -1 -1</clus>
<clus scale="   96.224">  1  7  2 -1</clus>
<clus scale="   34.234">  1  5  2 -1</clus>
</clustering>
</event>
<event>
 9    1  0.1435532E-005  0.1231832E+03  0.7546771E-02  0.1240412E+00
         -3   -1    0    0    0  501 -0.00000000000E+00  0.00000000000E+00  0.46963870910E+03  0.46963870910E+03  0.00000000000E+00 0.  1.
          3   -1    0    0  502    0  0.00000000000E+00 -0.00000000000E+00 -0.13044242493E+03  0.13044242493E+03  0.00000000000E+00 0. -1.
         23    2    1    2    0    0  0.95337012738E+02  0.35295031028E+02  0.26447699209E+03  0.29535526432E+03  0.83377260717E+02 0.  0.
         23    2    1    2    0    0 -0.33070149596E+02 -0.62122343762E+02  0.15899383192E+03  0.19656365347E+03  0.91681027977E+02 0.  0.
        -11    1    3    3    0    0  0.95383092152E+01  0.31307675674E+02  0.25740378848E+02  0.41637927447E+02  0.00000000000E+00 0.  1.
         11    1    3    3    0    0  0.85798703523E+02  0.39873553538E+01  0.23873661324E+03  0.25371733688E+03  0.00000000000E+00 0. -1.
        -11    1    4    4    0    0 -0.55808252729E+02 -0.40757687777E+02  0.56001058615E+02  0.88948686059E+02  0.00000000000E+00 0. -1.
         11    1    4    4    0    0  0.22738103134E+02 -0.21364655985E+02  0.10299277330E+03  0.10761496741E+03  0.00000000000E+00 0.  1.
         21    1    1    2  502  501 -0.62266863142E+02  0.26827312734E+02 -0.84274539836E+02  0.10816221623E+03  0.00000000000E+00 0. -1.
<scales pt_clust_5="13000.00000" pt_clust_6="13000.00000" pt_clust_7="13000.00000" pt_clust_8="13000.00000" pt_clust_9="67.80020"></scales>
<clustering>
<clus scale="   67.800">  2  9  1 -1</clus>
<clus scale="   83.377">  5  6 -1 -1</clus>
<clus scale="   91.681">  7  8 -1 -1</clus>
<clus scale="  117.134">  1  5  2 -1</clus>
<clus scale="   67.800">  2  5  1 -1</clus>
</clustering>
</event>
<event>
 9    1  0.1435532E-005  0.1130549E+03  0.7546771E-02  0.1256086E+00
          2   -1    0    0  502    0  0.00000000000E+00  0.00000000000E+00  0.43799111698E+03  0.43799111698E+03  0.00000000000E+00 0. -1.
         -2   -1    0    0    0  501 -0.00000000000E+00 -0.00000000000E+00 -0.10715416382E+03  0.10715416382E+03  0.00000000000E+00 0.  1.
         23    2    1    2    0    0  0.39819270946E+02 -0.45631529478E+02  0.35841095654E+02  0.11576399327E+03  0.91917937205E+02 0.  0.
         23    2    1    2    0    0 -0.59988537013E+02  0.31420469776E+02  0.35089352263E+03  0.36828053076E+03  0.88985474195E+02 0.  0.
        -11    1    3    3    0    0  0.58676216112E+02 -0.10376323355E+02  0.45093318897E+02  0.74725991681E+02  0.00000000000E+00 0.  1.
         11    1    3    3    0    0 -0.18856945166E+02 -0.35255206124E+02 -0.92522232427E+01  0.41038001593E+02  0.00000000000E+00 0. -1.
        -13    1    4    4    0    0 -0.23172989748E+01  0.50720573497E+02  0.14786486377E+03  0.15633926055E+03  0.00000000000E+00 0.  1.
         13    1    4    4    0    0 -0.57671238038E+02 -0.19300103721E+02  0.20302865886E+03  0.21194127021E+03  0.00000000000E+00 0. -1.
         21    1    1    2  502  501  0.20169266067E+02  0.14211059702E+02 -0.55897665122E+02  0.61100756768E+02  0.00000000000E+00 0.  1.
<scales pt_clust_5="13000.00000" pt_clust_6="13000.00000" pt_clust_7="13000.00000" pt_clust_8="13000.00000" pt_clust_9="24.67293"></scales>
<clustering>
<clus scale="   24.673">  2  9  1 -1</clus>
<clus scale="   88.985">  7  8 -1 -1</clus>
<clus scale="   91.918">  5  6 -1 -1</clus>
<clus scale="  110.684">  1  7  2 -1</clus>
<clus scale="  110.684">  1  5  2 -1</clus>
</clustering>
</event>
<event>
 9    1  0.1435532E-005  0.9240349E+02  0.7546771E-02  0.1299627E+00
         -4   -1    0    0    0  501 -0.00000000000E+00  0.00000000000E+00  0.32774384236E+03  0.32774384236E+03  0.00000000000E+00 0.  1.
          4   -1    0    0  502    0  0.00000000000E+00 -0.00000000000E+00 -0.49960675096E+02  0.49960675096E+02  0.00000000000E+00 0. -1.
         23    2    1    2    0    0  0.72899818807E+01 -0.33568700149E+01  0.21818028208E+03  0.23693358242E+03  0.92035181206E+02 0.  0.
         23    2    1    2    0    0 -0.56597050336E+01 -0.30537864321E+02  0.38589012135E+02  0.10085735741E+03  0.87855001380E+02 0.  0.
        -13    1    3    3    0    0  0.33775434046E+02 -0.15262625977E+02  0.19831891506E+03  0.20175262022E+03  0.00000000000E+00 0.  1.
         13    1    3    3    0    0 -0.26485452166E+02  0.11905755962E+02  0.19861367021E+02  0.35180962201E+02  0.00000000000E+00 0. -1.
        -13    1    4    4    0    0  0.71883785213E+01 -0.60311273125E+02  0.24219360822E+02  0.65388836129E+02  0.00000000000E+00 0. -1.
         13    1    4    4    0    0 -0.12848083555E+02  0.29773408804E+02  0.14369651313E+02  0.35468521279E+02  0.00000000000E+00 0.  1.
         21    1    1    2  502  501 -0.16302768471E+01  0.33894734336E+02  0.21013873051E+02  0.39913577626E+02  0.00000000000E+00 0.  1.
<scales pt_clust_5="13000.00000" pt_clust_6="13000.00000" pt_clust_7="13000.00000" pt_clust_8="13000.00000" pt_clust_9="33.93392"></scales>
<clustering>
<clus scale="   33.934">  2  9  1 -1</clus>
<clus scale="   87.855">  7  8 -1 -1</clus>
<clus scale="   88.241">  2  7  1 -1</clus>
<clus scale="   92.035">  5  6 -1 -1</clus>
<clus scale="   33.934">  2  5  1 -1</clus>
</clustering>
</event>
<event>
 9    1  0.1435532E-005  0.1039862E+03  0.7546771E-02  0.1272833E+00
         -1   -1    0    0    0  501 -0.00000000000E+00  0.00000000000E+00  0.15446674263E+03  0.15446674263E+03  0.00000000000E+00 0.  1.
          1   -1    0    0  502    0  0.00000000000E+00 -0.00000000000E+00 -0.91030458349E+02  0.91030458349E+02  0.00000000000E+00 0. -1.
         23    2    1    2    0    0  0.57319709758E+02  0.11716407297E+02  0.44410344866E+02  0.11689413110E+03  0.90934788873E+02 0.  0.
         23    2    1    2    0    0 -0.31539684999E+02 -0.18509911522E+02  0.21681421537E+02  0.10181103820E+03  0.92509647638E+02 0.  0.
        -11    1    3    3    0    0  0.15360283559E+02 -0.35644699738E+02 -0.13009606401E+01  0.38835234375E+02  0.00000000000E+00 0. -1.
         11    1    3    3    0    0  0.41959426200E+02  0.47361107035E+02  0.45711305506E+02  0.78058896723E+02  0.00000000000E+00 0.  1.
        -13    1    4    4    0    0 -0.13194335144E+02  0.36979299766E+02 -0.59259094709E+00  0.39267165102E+02  0.00000000000E+00 0.  1.
         13    1    4    4    0    0 -0.18345349855E+02 -0.55489211288E+02  0.22274012484E+02  0.62543873103E+02  0.00000000000E+00 0. -1.
         21    1    1    2  502  501 -0.25780024760E+02  0.67935042247E+01 -0.26554821175E+01  0.26792031680E+02  0.00000000000E+00 0.  1.
<scales pt_clust_5="13000.00000" pt_clust_6="13000.00000" pt_clust_7="13000.00000" pt_clust_8="13000.00000" pt_clust_9="26.66011"></scales>
<clustering>
<clus scale="   26.660">  2  9  1 -1</clus>
<clus scale="   90.935">  5  6 -1 -1</clus>
<clus scale="   92.510">  7  8 -1 -1</clus>
<clus scale="  102.588">  1  5  2 -1</clus>
<clus scale="   26.660">  2  5  1 -1</clus>
</clustering>
</event>
<event>
 9    1  0.1435532E-005  0.1675229E+03  0.7546771E-02  0.1180700E+00
          1   -1    0    0  502    0  0.00000000000E+00  0.00000000000E+00  0.81973602427E+03  0.81973602427E+03  0.00000000000E+00 0. -1.
         -1   -1    0    0    0  501 -0.00000000000E+00 -0.00000000000E+00 -0.44121893459E+02  0.44121893459E+02  0.00000000000E+00 0.  1.
         23    2    1    2    0    0  0.12115849763E+02 -0.13772284831E+03  0.27545522405E+03  0.32141241124E+03  0.91192000078E+02 0.  0.
         23    2    1    2    0    0  0.25519717025E+02  0.14165063674E+03  0.38956373310E+03  0.42555600378E+03  0.92853924812E+02 0.  0.
        -13    1    3    3    0    0  0.40715845277E+02 -0.89447125251E+02  0.22667037228E+03  0.24705874998E+03  0.00000000000E+00 0.  1.
         13    1    3    3    0    0 -0.28599995514E+02 -0.48275723057E+02  0.48784851777E+02  0.74353661261E+02  0.00000000000E+00 0. -1.
        -13    1    4    4    0    0  0.26775058115E+00  0.10433111085E+03  0.15591595343E+03  0.18760287022E+03  0.00000000000E+00 0. -1.
         13    1    4    4    0    0  0.25251966444E+02  0.37319525896E+02  0.23364777968E+03  0.23795313356E+03  0.00000000000E+00 0.  1.
         21    1    1    2  502  501 -0.37635566788E+02 -0.39277884337E+01  0.11059517365E+03  0.11688950271E+03  0.00000000000E+00 0. -1.
<scales pt_clust_5="13000.00000" pt_clust_6="13000.00000" pt_clust_7="13000.00000" pt_clust_8="13000.00000" pt_clust_9="37.83997"></scales>
<clustering>
<clus scale="   37.840">  1  9  2 -1</clus>
<clus scale="   91.192">  5  6 -1 -1</clus>
<clus scale="   92.854">  7  8 -1 -1</clus>
<clus scale="  166.607">  2  5  1 -1</clus>
<clus scale="   37.840">  1  5  2 -1</clus>
</clustering>
</event>
<event>
 9    1  0.1435532E-005  0.1246492E+03  0.7546771E-02  0.1236887E+00
          3   -1    0    0  502    0  0.00000000000E+00  0.00000000000E+00  0.65496675990E+03  0.65496675990E+03  0.00000000000E+00 0. -1.
         -3   -1    0    0    0  501 -0.00000000000E+00 -0.00000000000E+00 -0.13164071383E+03  0.13164071383E+03  0.00000000000E+00 0.  1.
         23    2    1    2    0    0  0.10411626721E+02 -0.57088212500E+02 -0.58987579511E+01  0.10737524823E+03  0.90150888017E+02 0.  0.
         23    2    1    2    0    0  0.43486711755E+01  0.13865185113E+03  0.21122401569E+02  0.16441328167E+03  0.85687365332E+02 0.  0.
        -11    1    4    4    0    0 -0.26578114080E+02  0.76781546900E+02  0.42919704196E+02  0.91890712810E+02  0.00000000000E+00 0. -1.
         11    1    4    4    0    0  0.30926785255E+02  0.61870304229E+02 -0.21797302627E+02  0.72522568856E+02  0.00000000000E+00 0.  1.
        -13    1    3    3    0    0  0.46075576742E+02 -0.17800420659E+02 -0.18659773241E+02  0.52801523511E+02  0.00000000000E+00 0.  1.
         13    1    3    3    0    0 -0.35663950020E+02 -0.39287791841E+02  0.12761015290E+02  0.54573724722E+02  0.00000000000E+00 0. -1.
         21    1    1    2  502  501 -0.14760297897E+02 -0.81563638629E+02  0.50810240246E+03  0.51481894383E+03  0.00000000000E+00 0. -1.
<scales pt_clust_5="13000.00000" pt_clust_6="13000.00000" pt_clust_7="13000.00000" pt_clust_8="13000.00000" pt_clust_9="82.88844"></scales>
<clustering>
<clus scale="   82.888">  1  9  2 -1</clus>
<clus scale="   85.687">  5  6 -1 -1</clus>
<clus scale="   90.151">  7  8 -1 -1</clus>
<clus scale="  121.460">  1  5  2 -1</clus>
<clus scale="   82.888">  1  5  2 -1</clus>
</clustering>
</event>
<event>
 9    1  0.1435532E-005  0.9284179E+02  0.7546771E-02  0.1296144E+00
         -4   -1    0    0    0  501 -0.00000000000E+00  0.00000000000E+00  0.43591584414E+02  0.43591584414E+02  0.00000000000E+00 0.  1.
          4   -1    0    0  502    0  0.00000000000E+00 -0.00000000000E+00 -0.45662809944E+03  0.45662809944E+03  0.00000000000E+00 0. -1.
         23    2    1    2    0    0  0.24278968302E+02 -0.23467694892E+02 -0.60596254183E+02  0.11403361394E+03  0.90507226685E+02 0.  0.
         23    2    1    2    0    0 -0.34208819683E+01 -0.20390567516E+01 -0.11447687184E+03  0.14595237400E+03  0.90450434519E+02 0.  0.
        -11    1    3    3    0    0 -0.28084398650E+02  0.10829577335E+02 -0.54055164922E+01  0.30581576174E+02  0.00000000000E+00 0.  1.
         11    1    3    3    0    0  0.52363366951E+02 -0.34297272226E+02 -0.55190737691E+02  0.83452037767E+02  0.00000000000E+00 0. -1.
        -13    1    4    4    0    0 -0.38716311926E+02 -0.26638705380E+02 -0.67541483603E+02  0.82282595005E+02  0.00000000000E+00 0.  1.
         13    1    4    4    0    0  0.35295429957E+02  0.24599648629E+02 -0.46935388233E+02  0.63669778994E+02  0.00000000000E+00 0. -1.
         21    1    1    2  502  501 -0.20858086333E+02  0.25506751643E+02 -0.23796338900E+03  0.24023369591E+03  0.00000000000E+00 0. -1.
<scales pt_clust_5="13000.00000" pt_clust_6="13000.00000" pt_clust_7="13000.00000" pt_clust_8="13000.00000" pt_clust_9="32.94927"></scales>
<clustering>
<clus scale="   32.949">  2  9  1 -1</clus>
<clus scale="   90.450">  7  8 -1 -1</clus>
<clus scale="   90.507">  5  6 -1 -1</clus>
<clus scale="   92.786">  2  7  1 -1</clus>
<clus scale="   32.949">  2  5  1 -1</clus>
</clustering>
</event>
<event>
 9    1  0.1435532E-005  0.9858748E+02  0.7546771E-02  0.1284335E+00
          2   -1    0    0  502    0  0.00000000000E+00  0.00000000000E+00  0.46400785497E+03  0.46400785497E+03  0.00000000000E+00 0. -1.
         -2   -1    0    0    0  501 -0.00000000000E+00 -0.00000000000E+00 -0.68218139202E+02  0.68218139202E+02  0.00000000000E+00 0.  1.
         23    2    1    2    0    0  0.58621369574E+01 -0.26182456331E+02 -0.55200442318E+01  0.94716876279E+02  0.90669344844E+02 0.  0.
         23    2    1    2    0    0  0.30833247928E+00  0.62874273758E+02  0.17242961283E+03  0.20562447863E+03  0.92715616055E+02 0.  0.
        -11    1    3    3    0    0  0.32354540401E+02  0.31917503943E+01 -0.33176789370E+02  0.46451080806E+02  0.00000000000E+00 0.  1.
         11    1    3    3    0    0 -0.26492403444E+02 -0.29374206725E+02  0.27656745138E+02  0.48265795473E+02  0.00000000000E+00 0. -1.
        -11    1    4    4    0    0  0.37862295571E+02  0.31652694387E+02  0.37064375139E+02  0.61718833368E+02  0.00000000000E+00 0.  1.
         11    1    4    4    0    0 -0.37553963092E+02  0.31221579372E+02  0.13536523769E+03  0.14390564526E+03  0.00000000000E+00 0. -1.
         21    1    1    2  502  501 -0.61704694366E+01 -0.36691817427E+02  0.22888014717E+03  0.23188463927E+03  0.00000000000E+00 0. -1.
<scales pt_clust_5="13000.00000" pt_clust_6="13000.00000" pt_clust_7="13000.00000" pt_clust_8="13000.00000" pt_clust_9="37.20704"></scales>
<clustering>
<clus scale="   37.207">  1  9  2 -1</clus>
<clus scale="   90.669">  5  6 -1 -1</clus>
<clus scale="   92.716">  7  8 -1 -1</clus>
<clus scale="   96.666">  2  5  1 -1</clus>
<clus scale="   37.207">  1  5  2 -1</clus>
</clustering>
</event>
<event>
 9    1  0.1435532E-005  0.1321688E+03  0.7546771E-02  0.1224465E+00
         -1   -1    0    0    0  501 -0.00000000000E+00  0.00000000000E+00  0.37334035653E+03  0.37334035653E+03  0.00000000000E+00 0.  1.
          1   -1    0    0  502    0  0.00000000000E+00 -0.00000000000E+00 -0.58056447779E+02  0.58056447779E+02  0.00000000000E+00 0. -1.
         23    2    1    2    0    0  0.10550700214E+03  0.14423556586E+02  0.19928741782E+03  0.24366805430E+03  0.91207890549E+02 0.  0.
         23    2    1    2    0    0 -0.80544806763E+02 -0.72796017261E+01  0.90726185936E+02  0.15149705666E+03  0.90441466503E+02 0.  0.
        -11    1    3    3    0    0  0.77897002661E+02 -0.75023314711E+01  0.56317920594E+02  0.96415435389E+02  0.00000000000E+00 0. -1.
         11    1    3    3    0    0  0.27609999478E+02  0.21925888057E+02  0.14296949723E+03  0.14725261891E+03  0.00000000000E+00 0.  1.
        -11    1    4    4    0    0 -0.77769485250E+02 -0.35059319454E+02  0.89366403380E+02  0.12354595408E+03  0.00000000000E+00 0. -1.
         11    1    4    4    0    0 -0.27753215128E+01  0.27779717728E+02  0.13597825554E+01  0.27951102575E+02  0.00000000000E+00 0.  1.
         21    1    1    2  502  501 -0.24962195376E+02 -0.71439548601E+01  0.25270304999E+02  0.36231693361E+02  0.00000000000E+00 0.  1.
<scales pt_clust_5="13000.00000" pt_clust_6="13000.00000" pt_clust_7="13000.00000" pt_clust_8="13000.00000" pt_clust_9="25.96435"></scales>
<clustering>
<clus scale="   25.964">  2  9  1 -1</clus>
<clus scale="   90.441">  7  8 -1 -1</clus>
<clus scale="   91.208">  5  6 -1 -1</clus>
<clus scale="  131.641">  2  7  1 -1</clus>
<clus scale="   25.964">  2  5  1 -1</clus>
</clustering>
</event>
<event>
 9    1  0.1435532E-005  0.1151323E+03  0.7546771E-02  0.1252628E+00
         -2   -1    0    0    0  501 -0.00000000000E+00  0.00000000000E+00  0.33033934094E+02  0.33033934094E+02  0.00000000000E+00 0.  1.
          2   -1    0    0  502    0  0.00000000000E+00 -0.00000000000E+00 -0.59660965693E+03  0.59660965693E+03  0.00000000000E+00 0. -1.
         23    2    1    2    0    0 -0.68002094492E+02 -0.13308547173E+01 -0.14998804098E+03  0.18650091139E+03  0.87522119963E+02 0.  0.
         23    2    1    2    0    0  0.71835234124E+02 -0.29934799312E+02 -0.25934441821E+03  0.28571581261E+03  0.91200905948E+02 0.  0.
        -11    1    3    3    0    0 -0.31333561881E+02 -0.44082703569E+02 -0.81744771785E+02  0.98016756569E+02  0.00000000000E+00 0.  1.
         11    1    3    3    0    0 -0.36668532611E+02  0.42751848851E+02 -0.68243269197E+02  0.88484154823E+02  0.00000000000E+00 0. -1.
        -11    1    4    4    0    0  0.75291617281E+02 -0.50850586375E+02 -0.24143465331E+03  0.25796376022E+03  0.00000000000E+00 0.  1.
         11    1    4    4    0    0 -0.34563831565E+01  0.20915787062E+02 -0.17909764897E+02  0.27752052386E+02  0.00000000000E+00 0. -1.
         21    1    1    2  502  501 -0.38331396319E+01  0.31265654029E+02 -0.15424326364E+03  0.15742686702E+03  0.00000000000E+00 0. -1.
<scales pt_clust_5="13000.00000" pt_clust_6="13000.00000" pt_clust_7="13000.00000" pt_clust_8="13000.00000" pt_clust_9="31.49975"></scales>
<clustering>
<clus scale="   31.500">  2  9  1 -1</clus>
<clus scale="   87.522">  5  6 -1 -1</clus>
<clus scale="   91.201">  7  8 -1 -1</clus>
<clus scale="  112.241">  1  5  2 -1</clus>
<clus scale="   31.500">  2  5  1 -1</clus>
</clustering>
</event>
<event>
 9    1  0.1435532E-005  0.1005243E+03  0.7546771E-02  0.1279261E+00
         -2   -1    0    0    0  501 -0.00000000000E+00  0.00000000000E+00  0.33260311162E+03  0.33260311162E+03  0.00000000000E+00 0.  1.
          2   -1    0    0  502    0  0.00000000000E+00 -0.00000000000E+00 -0.11941509643E+03  0.11941509643E+03  0.00000000000E+00 0. -1.
         23    2    1    2    0    0  0.14359708363E+02 -0.38616403878E+02  0.27287507833E+03  0.29094316491E+03  0.92139508145E+02 0.  0.
         23    2    1    2    0    0 -0.41791435842E+02  0.10990889401E+02 -0.66334603671E+02  0.12157999893E+03  0.92271841506E+02 0.  0.
        -11    1    4    4    0    0 -0.40050486289E+02 -0.14200684721E+02  0.78525856779E+01  0.43213007305E+02  0.00000000000E+00 0.  1.
         11    1    4    4    0    0 -0.17409495531E+01  0.25191574123E+02 -0.74187189349E+02  0.78366991621E+02  0.00000000000E+00 0. -1.
        -13    1    3    3    0    0 -0.22470796468E+02 -0.49129680129E+02  0.97821818476E+02  0.11174869276E+03  0.00000000000E+00 0.  1.
         13    1    3    3    0    0  0.36830504831E+02  0.10513276250E+02  0.17505325985E+03  0.17919447215E+03  0.00000000000E+00 0. -1.
         21    1    1    2  502  501  0.27431727480E+02  0.27625514477E+02  0.66475405244E+01  0.39495044216E+02  0.00000000000E+00 0.  1.
<scales pt_clust_5="13000.00000" pt_clust_6="13000.00000" pt_clust_7="13000.00000" pt_clust_8="13000.00000" pt_clust_9="38.93159"></scales>
<clustering>
<clus scale="   38.932">  2  9  1 -1</clus>
<clus scale="   92.140">  7  8 -1 -1</clus>
<clus scale="   92.272">  5  6 -1 -1</clus>
<clus scale="  100.403">  1  7  2 -1</clus>
<clus scale="   38.932">  2  5  1 -1</clus>
</clustering>
</event>
<event>
 9    1  0.1435532E-005  0.1069850E+03  0.7546771E-02  0.1266798E+00
         -1   -1    0    0    0  501 -0.00000000000E+00  0.00000000000E+00  0.61154804752E+02  0.61154804752E+02  0.00000000000E+00 0.  1.
          1   -1    0    0  502    0  0.00000000000E+00 -0.00000000000E+00 -0.24893897157E+03  0.24893897157E+03  0.00000000000E+00 0. -1.
         23    2    1    2    0    0 -0.98825588060E+01 -0.45781959805E+02 -0.49500316581E+02  0.11425925464E+03  0.91712829622E+02 0.  0.
         23    2    1    2    0    0  0.20586379268E+02  0.64201344590E+02 -0.94472986686E+02  0.14711863851E+03  0.90405403183E+02 0.  0.
        -11    1    4    4    0    0  0.83806181824E+01  0.18632140919E+02  0.16676345516E+02  0.26372181103E+02  0.00000000000E+00 0.  1.
         11    1    4    4    0    0  0.12205761085E+02  0.45569203670E+02 -0.11114933220E+03  0.12074645740E+03  0.00000000000E+00 0. -1.
        -13    1    3    3    0    0  0.99367855700E+01  0.24501214055E+02 -0.27136835584E+02  0.37887425924E+02  0.00000000000E+00 0. -1.
         13    1    3    3    0    0 -0.19819344376E+02 -0.70283173860E+02 -0.22363480997E+02  0.76371828717E+02  0.00000000000E+00 0.  1.
         21    1    1    2  502  501 -0.10703820462E+02 -0.18419384785E+02 -0.43810863548E+02  0.48715883171E+02  0.00000000000E+00 0. -1.
<scales pt_clust_5="13000.00000" pt_clust_6="13000.00000" pt_clust_7="13000.00000" pt_clust_8="13000.00000" pt_clust_9="21.30365"></scales>
<clustering>
<clus scale="   21.304">  2  9  1 -1</clus>
<clus scale="   90.405">  5  6 -1 -1</clus>
<clus scale="   91.713">  7  8 -1 -1</clus>
<clus scale="  105.866">  2  5  1 -1</clus>
<clus scale="   21.304">  2  5  1 -1</clus>
</clustering>
</event>
<event>
 9    1  0.1435532E-005  0.1297884E+03  0.7546771E-02  0.1227807E+00
          2   -1    0    0  502    0  0.00000000000E+00  0.00000000000E+00  0.17767537555E+03  0.17767537555E+03  0.00000000000E+00 0. -1.
         -2   -1    0    0    0  501 -0.00000000000E+00 -0.00000000000E+00 -0.23823939205E+03  0.23823939205E+03  0.00000000000E+00 0.  1.
         23    2    1    2    0    0  0.68182836231E+02  0.28858247422E+02 -0.17291475853E+03  0.20964981902E+03  0.92584206529E+02 0.  0.
         23    2    1    2    0    0 -0.82561268282E+02 -0.43501371445E+02  0.12556304624E+03  0.18185746260E+03  0.92721765423E+02 0.  0.
        -13    1    4    4    0    0 -0.38961982318E+02  0.20066488721E+02  0.13527960167E+02  0.45866172089E+02  0.00000000000E+00 0.  1.
         13    1    4    4    0    0 -0.43599285963E+02 -0.63567860167E+02  0.11203508607E+03  0.13599129051E+03  0.00000000000E+00 0. -1.
        -13    1    3    3    0    0  0.69086176059E+02 -0.20994369515E+01 -0.16313237082E+03  0.17717075878E+03  0.00000000000E+00 0.  1.
         13    1    3    3    0    0 -0.90333982744E+00  0.30957684374E+02 -0.97823877020E+01  0.32479060236E+02  0.00000000000E+00 0. -1.
         21    1    1    2  502  501  0.14378432051E+02  0.14643124023E+02 -0.13212304209E+02  0.24407485980E+02  0.00000000000E+00 0. -1.
<scales pt_clust_5="13000.00000" pt_clust_6="13000.00000" pt_clust_7="13000.00000" pt_clust_8="13000.00000" pt_clust_9="20.52219"></scales>
<clustering>
<clus scale="   20.522">  2  9  1 -1</clus>
<clus scale="   92.584">  7  8 -1 -1</clus>
<clus scale="   92.722">  5  6 -1 -1</clus>
<clus scale="  129.690">  2  7  1 -1</clus>
<clus scale="  129.788">  1  5  2 -1</clus>
</clustering>
</event>
<event>
 9    1  0.1435532E-005  0.9443277E+02  0.7546771E-02  0.1292811E+00
         -1   -1    0    0    0  501 -0.00000000000E+00  0.00000000000E+00  0.66875875605E+02  0.66875875605E+02  0.00000000000E+00 0.  1.
          1   -1    0    0  502    0  0.00000000000E+00 -0.00000000000E+00 -0.44348768930E+03  0.44348768930E+03  0.00000000000E+00 0. -1.
         23    2    1    2    0    0 -0.16259068473E+02  0.14594395844E+02  0.16866486175E+02  0.95273169628E+02  0.91187415785E+02 0.  0.
         23    2    1    2    0    0 -0.45307428997E+01 -0.36075099070E+02 -0.25577410212E+03  0.27417878133E+03  0.91824138494E+02 0.  0.
        -11    1    3    3    0    0  0.23160125103E+02 -0.27237702119E+02  0.11440811008E+02  0.37538992634E+02  0.00000000000E+00 0. -1.
         11    1    3    3    0    0 -0.39419193576E+02  0.41832097962E+02  0.54256751673E+01  0.57734176994E+02  0.00000000000E+00 0.  1.
        -13    1    4    4    0    0 -0.29028665197E+02  0.15415169782E+02 -0.44357439157E+02  0.55207547230E+02  0.00000000000E+00 0.  1.
         13    1    4    4    0    0  0.24497922298E+02 -0.51490268852E+02 -0.21141666296E+03  0.21897123410E+03  0.00000000000E+00 0. -1.
         21    1    1    2  502  501  0.20789811373E+02  0.21480703227E+02 -0.13770419775E+03  0.14091161395E+03  0.00000000000E+00 0.  1.
<scales pt_clust_5="13000.00000" pt_clust_6="13000.00000" pt_clust_7="13000.00000" pt_clust_8="13000.00000" pt_clust_9="29.89376"></scales>
<clustering>
<clus scale="   29.894">  2  9  1 -1</clus>
<clus scale="   91.187">  5  6 -1 -1</clus>
<clus scale="   91.824">  7  8 -1 -1</clus>
<clus scale="   93.814">  1  5  2 -1</clus>
<clus scale="   29.894">  2  5  1 -1</clus>
</clustering>
</event>
<event>
 9    1  0.1435532E-005  0.1707016E+03  0.7546771E-02  0.1177468E+00
          1   -1    0    0  502    0  0.00000000000E+00  0.00000000000E+00  0.17667957439E+03  0.17667957439E+03  0.00000000000E+00 0. -1.
         -1   -1    0    0    0  501 -0.00000000000E+00 -0.00000000000E+00 -0.32677127865E+03  0.32677127865E+03  0.00000000000E+00 0.  1.
         23    2    1    2    0    0 -0.68877087338E+02  0.12346231872E+03 -0.21057027421E+03  0.27076287585E+03  0.94792917735E+02 0.  0.
         23    2    1    2    0    0  0.28921672949E+02 -0.14038254498E+03  0.75903143104E+02  0.18663749779E+03  0.92350129105E+02 0.  0.
        -13    1    3    3    0    0 -0.18493835860E+02 -0.78352224738E+01 -0.34026800438E+01  0.20371325620E+02  0.00000000000E+00 0. -1.
         13    1    3    3    0    0 -0.50383251478E+02  0.13129754119E+03 -0.20716759417E+03  0.25039155023E+03  0.00000000000E+00 0.  1.
        -13    1    4    4    0    0  0.27022470662E+02  0.29140431020E+01  0.11123841188E+02  0.29367420906E+02  0.00000000000E+00 0.  1.
         13    1    4    4    0    0  0.18992022871E+01 -0.14329658808E+03  0.64779301916E+02  0.15727007688E+03  0.00000000000E+00 0. -1.
         21    1    1    2  502  501  0.39955414389E+02  0.16920226264E+02 -0.15424573154E+02  0.46050479398E+02  0.00000000000E+00 0.  1.
<scales pt_clust_5="13000.00000" pt_clust_6="13000.00000" pt_clust_7="13000.00000" pt_clust_8="13000.00000" pt_clust_9="43.39043"></scales>
<clustering>
<clus scale="   43.390">  2  9  1 -1</clus>
<clus scale="   92.350">  7  8 -1 -1</clus>
<clus scale="   94.793">  5  6 -1 -1</clus>
<clus scale="  169.357">  1  7  2 -1</clus>
<clus scale="  169.357">  1  5  2 -1</clus>
</clustering>
</event>
<event>
 9    1  0.1435532E-005  0.1353808E+03  0.7546771E-02  0.1221502E+00
         -2   -1    0    0    0  501 -0.00000000000E+00  0.00000000000E+00  0.91255443433E+02  0.91255443433E+02  0.00000000000E+00 0.  1.
          2   -1    0    0  502    0  0.00000000000E+00 -0.00000000000E+00 -0.29674018403E+03  0.29674018403E+03  0.00000000000E+00 0. -1.
         23    2    1    2    0    0 -0.44908695125E+02  0.97447191685E+02 -0.37081792720E+02  0.14152263421E+03  0.84503553642E+02 0.  0.
         23    2    1    2    0    0  0.29533545006E+02 -0.84587885363E+02 -0.70577519925E+02  0.14661523765E+03  0.92127634075E+02 0.  0.
        -11    1    3    3    0    0 -0.16356209413E+02  0.87616638164E+02  0.55232788345E+01  0.89301217677E+02  0.00000000000E+00 0. -1.
         11    1    3    3    0    0 -0.28552485713E+02  0.98305535216E+01 -0.42605071554E+02  0.52221416536E+02  0.00000000000E+00 0.  1.
        -11    1    4    4    0    0 -0.28154759925E+02 -0.42271237792E+01 -0.80460940249E+01  0.29585447621E+02  0.00000000000E+00 0.  1.
         11    1    4    4    0    0  0.57688304930E+02 -0.80360761583E+02 -0.62531425900E+02  0.11702979002E+03  0.00000000000E+00 0. -1.
         21    1    1    2  502  501  0.15375150120E+02 -0.12859306323E+02 -0.97825427954E+02  0.99857755606E+02  0.00000000000E+00 0. -1.
<scales pt_clust_5="13000.00000" pt_clust_6="13000.00000" pt_clust_7="13000.00000" pt_clust_8="13000.00000" pt_clust_9="20.04388"></scales>
<clustering>
<clus scale="   20.044">  2  9  1 -1</clus>
<clus scale="   84.504">  5  6 -1 -1</clus>
<clus scale="   92.128">  7  8 -1 -1</clus>
<clus scale="  130.312">  1  5  2 -1</clus>
<clus scale="   20.044">  2  5  1 -1</clus>
</clustering>
</event>
<event>
 9    1  0.1435532E-005  0.1239192E+03  0.7546771E-02  0.1241487E+00
          1   -1    0    0  502    0  0.00000000000E+00  0.00000000000E+00  0.29925214849E+03  0.29925214849E+03  0.00000000000E+00 0. -1.
         -1   -1    0    0    0  501 -0.00000000000E+00 -0.00000000000E+00 -0.11245437115E+03  0.11245437115E+03  0.00000000000E+00 0.  1.
         23    2    1    2    0    0 -0.86792927272E+02 -0.30601454361E+02 -0.41613220847E+01  0.14212451071E+03  0.10822476014E+03 0.  0.
         23    2    1    2    0    0  0.24799547483E+02  0.73322692677E+01  0.42963008661E+02  0.10744787621E+03  0.95028660208E+02 0.  0.
        -11    1    3    3    0    0 -0.85031174005E+02 -0.97625839943E+01 -0.44663006752E+02  0.96542181304E+02  0.00000000000E+00 0.  1.
         11    1    3    3    0    0 -0.17617532671E+01 -0.20838870367E+02  0.40501684667E+02  0.45582329401E+02  0.00000000000E+00 0. -1.
        -11    1    4    4    0    0  0.15473606591E+02  0.49667408539E+02  0.99655351506E+01  0.52967875763E+02  0.00000000000E+00 0.  1.
         11    1    4    4    0    0  0.93259408916E+01 -0.42335139272E+02  0.32997473511E+02  0.54480000448E+02  0.00000000000E+00 0. -1.
         21    1    1    2  502  501  0.61993379789E+02  0.23269185094E+02  0.14799609077E+03  0.16213413272E+03  0.00000000000E+00 0. -1.
<scales pt_clust_5="13000.00000" pt_clust_6="13000.00000" pt_clust_7="13000.00000" pt_clust_8="13000.00000" pt_clust_9="66.21657"></scales>
<clustering>
<clus scale="   66.217">  1  9  2 -1</clus>
<clus scale="   95.029">  7  8 -1 -1</clus>
<clus scale="  108.225">  5  6 -1 -1</clus>
<clus scale="  112.578">  1  7  2 -1</clus>
<clus scale="   66.217">  1  5  2 -1</clus>
</clustering>
</event>
<event>
 9    1  0.1435532E-005  0.9168268E+02  0.7546771E-02  0.1300576E+00
          3   -1    0    0  502    0  0.00000000000E+00  0.00000000000E+00  0.81528062382E+02  0.81528062382E+02  0.00000000000E+00 0. -1.
         -3   -1    0    0    0  501 -0.00000000000E+00 -0.00000000000E+00 -0.61579037184E+03  0.61579037184E+03  0.00000000000E+00 0.  1.
         23    2    1    2    0    0 -0.12032894036E+00 -0.12704224641E+02 -0.42156157226E+03  0.43149838427E+03  0.91188182417E+02 0.  0.
         23    2    1    2    0    0 -0.19117986922E+02 -0.40637404651E+01 -0.17584102737E+03  0.19771737971E+03  0.88261452064E+02 0.  0.
        -11    1    3    3    0    0 -0.36794356877E+02 -0.30806113543E+02 -0.28252168589E+03  0.28656821933E+03  0.00000000000E+00 0. -1.
         11    1    3    3    0    0  0.36674027936E+02  0.18101888901E+02 -0.13903988637E+03  0.14493016494E+03  0.00000000000E+00 0.  1.
        -13    1    4    4    0    0 -0.20445832032E+02  0.40334735324E+02 -0.75898824998E+02  0.88349049554E+02  0.00000000000E+00 0. -1.
         13    1    4    4    0    0  0.13278451106E+01 -0.44398475789E+02 -0.99942202374E+02  0.10936833015E+03  0.00000000000E+00 0.  1.
         21    1    1    2  502  501  0.19238315862E+02  0.16767965107E+02  0.63140290178E+02  0.68102670247E+02  0.00000000000E+00 0. -1.
<scales pt_clust_5="13000.00000" pt_clust_6="13000.00000" pt_clust_7="13000.00000" pt_clust_8="13000.00000" pt_clust_9="25.52014"></scales>
<clustering>
<clus scale="   25.520">  1  9  2 -1</clus>
<clus scale="   88.261">  7  8 -1 -1</clus>
<clus scale="   88.772">  1  7  2 -1</clus>
<clus scale="   91.188">  5  6 -1 -1</clus>
<clus scale="   25.520">  1  5  2 -1</clus>
</clustering>
</event>
<event>
 9    1  0.1435532E-005  0.1244368E+03  0.7546771E-02  0.1235955E+00
          1   -1    0    0  502    0  0.00000000000E+00  0.00000000000E+00  0.19487550601E+03  0.19487550601E+03  0.00000000000E+00 0. -1.
         -1   -1    0    0    0  501 -0.00000000000E+00 -0.00000000000E+00 -0.15639307652E+03  0.15639307652E+03  0.00000000000E+00 0.  1.
         23    2    1    2    0    0  0.48784459718E+02 -0.64871152615E+02 -0.34683277103E+02  0.12647709789E+03  0.90583313192E+02 0.  0.
         23    2    1    2    0    0 -0.17066983814E+02  0.94990529528E+02 -0.79776439296E+01  0.13261004140E+03  0.90594136905E+02 0.  0.
        -13    1    3    3    0    0  0.72726381096E+02 -0.56322006010E+02 -0.12680337304E+02  0.92855187375E+02  0.00000000000E+00 0.  1.
         13    1    3    3    0    0 -0.23941921378E+02 -0.85491466046E+01 -0.22002939800E+02  0.33621910516E+02  0.00000000000E+00 0. -1.
        -13    1    4    4    0    0  0.51648965551E+01  0.87203015760E+02  0.26110453404E+02  0.91174546290E+02  0.00000000000E+00 0. -1.
         13    1    4    4    0    0 -0.22231880369E+02  0.77875137674E+01 -0.34088097334E+02  0.41435495113E+02  0.00000000000E+00 0.  1.
         21    1    1    2  502  501 -0.31717475904E+02 -0.30119376913E+02  0.81143350524E+02  0.92181443239E+02  0.00000000000E+00 0.  1.
<scales pt_clust_5="13000.00000" pt_clust_6="13000.00000" pt_clust_7="13000.00000" pt_clust_8="13000.00000" pt_clust_9="43.73986"></scales>
<clustering>
<clus scale="   43.740">  1  9  2 -1</clus>
<clus scale="   90.583">  5  6 -1 -1</clus>
<clus scale="   90.594">  7  8 -1 -1</clus>
<clus scale="  124.429">  2  5  1 -1</clus>
<clus scale="   43.740">  1  5  2 -1</clus>
</clustering>
</event>
<event>
 9    1  0.1435532E-005  0.1061296E+03  0.7546771E-02  0.1269541E+00
          3   -1    0    0  502    0  0.00000000000E+00  0.00000000000E+00  0.11427585590E+03  0.11427585590E+03  0.00000000000E+00 0. -1.
         -3   -1    0    0    0  501 -0.00000000000E+00 -0.00000000000E+00 -0.19251138510E+03  0.19251138510E+03  0.00000000000E+00 0.  1.
         23    2    1    2    0    0 -0.13488857133E+02 -0.56409966302E+02 -0.80417546499E+02  0.13752740156E+03  0.95303571964E+02 0.  0.
         23    2    1    2    0    0  0.13448841513E+02  0.32535294974E+02 -0.51262611464E+02  0.11072497910E+03  0.91611947398E+02 0.  0.
        -13    1    4    4    0    0 -0.32354245011E+02  0.30797896421E+02 -0.46762323037E+02  0.64668558435E+02  0.00000000000E+00 0.  1.
         13    1    4    4    0    0  0.45803086524E+02  0.17373985528E+01 -0.45002884266E+01  0.46056420668E+02  0.00000000000E+00 0. -1.
        -13    1    3    3    0    0 -0.14918010501E+02  0.15207587834E+02 -0.59052140674E+02  0.62777170080E+02  0.00000000000E+00 0.  1.
         13    1    3    3    0    0  0.14291533682E+01 -0.71617554136E+02 -0.21365405825E+02  0.74750231477E+02  0.00000000000E+00 0. -1.
         21    1    1    2  502  501  0.40015620282E-01  0.23874671328E+02  0.53444628757E+02  0.58534860342E+02  0.00000000000E+00 0. -1.
<scales pt_clust_5="13000.00000" pt_clust_6="13000.00000" pt_clust_7="13000.00000" pt_clust_8="13000.00000" pt_clust_9="23.87470"></scales>
<clustering>
<clus scale="   23.875">  1  9  2 -1</clus>
<clus scale="   91.612">  5  6 -1 -1</clus>
<clus scale="   95.304">  7  8 -1 -1</clus>
<clus scale="  102.827">  1  5  2 -1</clus>
<clus scale="   23.875">  1  5  2 -1</clus>
</clustering>
</event>
<event>
 9    1  0.1435532E-005  0.1082981E+03  0.7546771E-02  0.1267658E+00
          1   -1    0    0  502    0  0.00000000000E+00  0.00000000000E+00  0.67023400303E+02  0.67023400303E+02  0.00000000000E+00 0. -1.
         -1   -1    0    0    0  501 -0.00000000000E+00 -0.00000000000E+00 -0.24241655942E+03  0.24241655942E+03  0.00000000000E+00 0.  1.
         23    2    1    2    0    0  0.29584950555E+02  0.44760237241E+02 -0.10778890733E+03  0.15660237620E+03  0.10013544603E+03 0.  0.
         23    2    1    2    0    0 -0.11469261500E+02 -0.27826170471E+02 -0.79907787261E+02  0.12515513796E+03  0.91502537504E+02 0.  0.
        -11    1    3    3    0    0 -0.13815295217E+02 -0.26617840193E+02 -0.31059421718E+02  0.43174755077E+02  0.00000000000E+00 0. -1.
         11    1    3    3    0    0  0.43400245772E+02  0.71378077434E+02 -0.76729485608E+02  0.11342762112E+03  0.00000000000E+00 0.  1.
        -13    1    4    4    0    0  0.77025851648E+01 -0.50614996504E+02 -0.80461745057E+02  0.95369282827E+02  0.00000000000E+00 0. -1.
         13    1    4    4    0    0 -0.19171846665E+02  0.22788826034E+02  0.55395779664E+00  0.29785855129E+02  0.00000000000E+00 0.  1.
         21    1    1    2  502  501 -0.18115689054E+02 -0.16934066770E+02  0.12303535474E+02  0.27682445565E+02  0.00000000000E+00 0. -1.
<scales pt_clust_5="13000.00000" pt_clust_6="13000.00000" pt_clust_7="13000.00000" pt_clust_8="13000.00000" pt_clust_9="24.79800"></scales>
<clustering>
<clus scale="   24.798">  1  9  2 -1</clus>
<clus scale="   91.503">  7  8 -1 -1</clus>
<clus scale="  100.135">  5  6 -1 -1</clus>
<clus scale="  100.370">  1  7  2 -1</clus>
<clus scale="   24.798">  1  5  2 -1</clus>
</clustering>
</event>
<event>
 9    1  0.1435532E-005  0.9156349E+02  0.7546771E-02  0.1299753E+00
         -1   -1    0    0    0  501 -0.00000000000E+00  0.00000000000E+00  0.40670392713E+02  0.40670392713E+02  0.00000000000E+00 0.  1.
          1   -1    0    0  502    0  0.00000000000E+00 -0.00000000000E+00 -0.31134603716E+03  0.31134603716E+03  0.00000000000E+00 0. -1.
         23    2    1    2    0    0  0.11883006130E+02  0.16589602680E+01 -0.58707521110E+02  0.10728634166E+03  0.88993415976E+02 0.  0.
         23    2    1    2    0    0 -0.23122762634E+02  0.22071866666E+02 -0.17462934991E+03  0.19908287281E+03  0.90093012754E+02 0.  0.
        -13    1    4    4    0    0 -0.37984319780E+02  0.45338300894E+02 -0.73989401109E+02  0.94724872941E+02  0.00000000000E+00 0.  1.
         13    1    4    4    0    0  0.14861557147E+02 -0.23266434228E+02 -0.10063994880E+03  0.10435799987E+03  0.00000000000E+00 0. -1.
        -13    1    3    3    0    0  0.97616024234E+01  0.43614245997E+02 -0.44159941735E+02  0.62829863837E+02  0.00000000000E+00 0. -1.
         13    1    3    3    0    0  0.21214037063E+01 -0.41955285729E+02 -0.14547579374E+02  0.44456477818E+02  0.00000000000E+00 0.  1.
         21    1    1    2  502  501  0.11239756504E+02 -0.23730826934E+02 -0.37338773425E+02  0.45647215404E+02  0.00000000000E+00 0. -1.
<scales pt_clust_5="13000.00000" pt_clust_6="13000.00000" pt_clust_7="13000.00000" pt_clust_8="13000.00000" pt_clust_9="26.25803"></scales>
<clustering>
<clus scale="   26.258">  2  9  1 -1</clus>
<clus scale="   88.993">  7  8 -1 -1</clus>
<clus scale="   90.093">  5  6 -1 -1</clus>
<clus scale="   90.482">  1  7  2 -1</clus>
<clus scale="   26.258">  2  5  1 -1</clus>
</clustering>
</event>
<event>
 9    1  0.1435532E-005  0.1422174E+03  0.7546771E-02  0.1213215E+00
          2   -1    0    0  502    0  0.00000000000E+00  0.00000000000E+00  0.35659269393E+03  0.35659269393E+03  0.00000000000E+00 0. -1.
         -2   -1    0    0    0  501 -0.00000000000E+00 -0.00000000000E+00 -0.86369064172E+02  0.86369064172E+02  0.00000000000E+00 0.  1.
         23    2    1    2    0    0 -0.76836277372E+02  0.88354526678E+02  0.94887473702E+02  0.17625965363E+03  0.91397466740E+02 0.  0.
         23    2    1    2    0    0  0.10126206582E+02 -0.84666575550E+02  0.12329511327E+03  0.18201382510E+03  0.10322973650E+03 0.  0.
        -11    1    4    4    0    0  0.41632938674E+02 -0.90897783768E+02  0.10528500111E+03  0.14519173577E+03  0.00000000000E+00 0.  1.
         11    1    4    4    0    0 -0.31506732093E+02  0.62312082182E+01  0.18010112154E+02  0.36822089332E+02  0.00000000000E+00 0. -1.
        -13    1    3    3    0    0 -0.87129329234E+02  0.56815850558E+02  0.38649793996E+02  0.11096561388E+03  0.00000000000E+00 0.  1.
         13    1    3    3    0    0  0.10293051863E+02  0.31538676120E+02  0.56237679706E+02  0.65294039749E+02  0.00000000000E+00 0. -1.
         21    1    1    2  502  501  0.66710070790E+02 -0.36879511283E+01  0.52041042788E+02  0.84688279371E+02  0.00000000000E+00 0. -1.
<scales pt_clust_5="13000.00000" pt_clust_6="13000.00000" pt_clust_7="13000.00000" pt_clust_8="13000.00000" pt_clust_9="66.81193"></scales>
<clustering>
<clus scale="   66.812">  1  9  2 -1</clus>
<clus scale="   91.397">  7  8 -1 -1</clus>
<clus scale="  103.230">  5  6 -1 -1</clus>
<clus scale="  133.876">  2  7  1 -1</clus>
<clus scale="   66.812">  1  5  2 -1</clus>
</clustering>
</event>
<event>
 9    1  0.1435532E-005  0.1151397E+03  0.7546771E-02  0.1253036E+00
         -2   -1    0    0    0  501 -0.00000000000E+00  0.00000000000E+00  0.36382419384E+03  0.36382419384E+03  0.00000000000E+00 0.  1.
          2   -1    0    0  502    0  0.00000000000E+00 -0.00000000000E+00 -0.15611787731E+03  0.15611787731E+03  0.00000000000E+00 0. -1.
         23    2    1    2    0    0 -0.50641751219E+02  0.56353749010E+02  0.26743756703E+03  0.29134350014E+03  0.87280300313E+02 0.  0.
         23    2    1    2    0    0 -0.37749613958E+02 -0.70934342185E+02 -0.24409854372E+01  0.12226042355E+03  0.92113725911E+02 0.  0.
        -11    1    4    4    0    0 -0.57569835143E+02 -0.44898463501E+02 -0.30531798416E+02  0.79135002734E+02  0.00000000000E+00 0. -1.
         11    1    4    4    0    0  0.19820221185E+02 -0.26035878684E+02  0.28090812978E+02  0.43125420815E+02  0.00000000000E+00 0.  1.
        -13    1    3    3    0    0 -0.18817376915E+02  0.62856309762E+02  0.24005314153E+03  0.24885843387E+03  0.00000000000E+00 0.  1.
         13    1    3    3    0    0 -0.31824374304E+02 -0.65025607526E+01  0.27384425503E+02  0.42485066274E+02  0.00000000000E+00 0. -1.
         21    1    1    2  502  501  0.88391365177E+02  0.14580593175E+02 -0.57290265064E+02  0.10633814747E+03  0.00000000000E+00 0.  1.
<scales pt_clust_5="13000.00000" pt_clust_6="13000.00000" pt_clust_7="13000.00000" pt_clust_8="13000.00000" pt_clust_9="89.58586"></scales>
<clustering>
<clus scale="   87.280">  7  8 -1 -1</clus>
<clus scale="   89.586">  2  9  1 -1</clus>
<clus scale="   92.114">  5  6 -1 -1</clus>
<clus scale="  111.311">  1  7  2 -1</clus>
<clus scale="   89.586">  2  5  1 -1</clus>
</clustering>
</event>
<event>
 9    1  0.1435532E-005  0.1448235E+03  0.7546771E-02  0.1207532E+00
          2   -1    0    0  502    0  0.00000000000E+00  0.00000000000E+00  0.48915539090E+02  0.48915539090E+02  0.00000000000E+00 0. -1.
         -2   -1    0    0    0  501 -0.00000000000E+00 -0.00000000000E+00 -0.76804161346E+03  0.76804161346E+03  0.00000000000E+00 0.  1.
         23    2    1    2    0    0  0.10706101918E+03  0.51180756452E+02 -0.57731043540E+03  0.59664035544E+03  0.92794629489E+02 0.  0.
         23    2    1    2    0    0 -0.89279918255E+02 -0.14571530883E+02 -0.10268935964E+03  0.16386089679E+03  0.90122447798E+02 0.  0.
        -11    1    3    3    0    0  0.87907553064E+02  0.39928732353E+02 -0.56057201429E+03  0.56882600569E+03  0.00000000000E+00 0.  1.
         11    1    3    3    0    0  0.19153466112E+02  0.11252024099E+02 -0.16738421110E+02  0.27814349744E+02  0.00000000000E+00 0. -1.
        -13    1    4    4    0    0  0.79664651461E+00  0.21495601197E+02 -0.47717463647E+02  0.52341683708E+02  0.00000000000E+00 0.  1.
         13    1    4    4    0    0 -0.90076564770E+02 -0.36067132079E+02 -0.54971895996E+02  0.11151921308E+03  0.00000000000E+00 0. -1.
         21    1    1    2  502  501 -0.17781100921E+02 -0.36609225569E+02 -0.39126279326E+02  0.56455900317E+02  0.00000000000E+00 0.  1.
<scales pt_clust_5="13000.00000" pt_clust_6="13000.00000" pt_clust_7="13000.00000" pt_clust_8="13000.00000" pt_clust_9="40.69893"></scales>
<clustering>
<clus scale="   40.699">  1  9  2 -1</clus>
<clus scale="   90.122">  7  8 -1 -1</clus>
<clus scale="   92.795">  5  6 -1 -1</clus>
<clus scale="  143.126">  1  7  2 -1</clus>
<clus scale="   40.699">  1  5  2 -1</clus>
</clustering>
</event>
<event>
 9    1  0.1435532E-005  0.9862669E+02  0.7546771E-02  0.1285193E+00
         -1   -1    0    0    0  501 -0.00000000000E+00  0.00000000000E+00  0.40871843020E+03  0.40871843020E+03  0.00000000000E+00 0.  1.
          1   -1    0    0  502    0  0.00000000000E+00 -0.00000000000E+00 -0.12235271541E+03  0.12235271541E+03  0.00000000000E+00 0. -1.
         23    2    1    2    0    0  0.29274653952E+02 -0.17259484464E+01  0.32371901942E+03  0.33817768688E+03  0.93328238556E+02 0.  0.
         23    2    1    2    0    0 -0.57251371143E+02 -0.59496962567E+02 -0.27964773788E+02  0.12492960032E+03  0.89486135300E+02 0.  0.
        -11    1    3    3    0    0 -0.23039407767E+02 -0.88279328008E+01  0.26113683210E+02  0.35925912077E+02  0.00000000000E+00 0. -1.
         11    1    3    3    0    0  0.52314061718E+02  0.71019843544E+01  0.29760533621E+03  0.30225177481E+03  0.00000000000E+00 0.  1.
        -13    1    4    4    0    0 -0.27403746456E+02 -0.28711046103E+02  0.32157935418E+02  0.51082504818E+02  0.00000000000E+00 0.  1.
         13    1    4    4    0    0 -0.29847624687E+02 -0.30785916464E+02 -0.60122709206E+02  0.73847095503E+02  0.00000000000E+00 0. -1.
         21    1    1    2  502  501  0.27976717191E+02  0.61222911014E+02 -0.93885308376E+01  0.67963858403E+02  0.00000000000E+00 0.  1.
<scales pt_clust_5="13000.00000" pt_clust_6="13000.00000" pt_clust_7="13000.00000" pt_clust_8="13000.00000" pt_clust_9="67.31227"></scales>
<clustering>
<clus scale="   67.312">  2  9  1 -1</clus>
<clus scale="   89.486">  7  8 -1 -1</clus>
<clus scale="   93.328">  5  6 -1 -1</clus>
<clus scale="   94.999">  2  7  1 -1</clus>
<clus scale="   67.312">  2  5  1 -1</clus>
</clustering>
</event>
<event>
 9    1  0.1435532E-005  0.9245879E+02  0.7546771E-02  0.1297317E+00
          2   -1    0    0  502    0  0.00000000000E+00  0.00000000000E+00  0.74213552427E+03  0.74213552427E+03  0.00000000000E+00 0. -1.
         -2   -1    0    0    0  501 -0.00000000000E+00 -0.00000000000E+00 -0.17683102154E+02  0.17683102154E+02  0.00000000000E+00 0.  1.
         23    2    1    2    0    0 -0.10848186179E+02  0.20988463554E+02  0.28462089912E+03  0.30002242880E+03  0.91903225318E+02 0.  0.
         23    2    1    2    0    0  0.95445292236E+01  0.14832922168E+02  0.36711672679E+03  0.37872639570E+03  0.91366723101E+02 0.  0.
        -11    1    3    3    0    0 -0.25218142660E+02  0.52056221308E+02  0.14152302336E+03  0.15288744565E+03  0.00000000000E+00 0.  1.
         11    1    3    3    0    0  0.14369956481E+02 -0.31067757754E+02  0.14309787576E+03  0.14713498315E+03  0.00000000000E+00 0. -1.
        -11    1    4    4    0    0  0.47076890283E+02 -0.87303128422E+01  0.16488342800E+03  0.17169448678E+03  0.00000000000E+00 0.  1.
         11    1    4    4    0    0 -0.37532361060E+02  0.23563235010E+02  0.20223329879E+03  0.20703190892E+03  0.00000000000E+00 0. -1.
         21    1    1    2  502  501  0.13036569551E+01 -0.35821385722E+02  0.72714796199E+02  0.81069801916E+02  0.00000000000E+00 0.  1.
<scales pt_clust_5="13000.00000" pt_clust_6="13000.00000" pt_clust_7="13000.00000" pt_clust_8="13000.00000" pt_clust_9="35.84510"></scales>
<clustering>
<clus scale="   35.845">  2  9  1 -1</clus>
<clus scale="   91.367">  7  8 -1 -1</clus>
<clus scale="   91.903">  5  6 -1 -1</clus>
<clus scale="   91.926">  1  7  2 -1</clus>
<clus scale="   91.926">  1  5  2 -1</clus>
</clustering>
</event>
<event>
 9    1  0.1435532E-005  0.1397760E+03  0.7546771E-02  0.1214544E+00
         -1   -1    0    0    0  501 -0.00000000000E+00  0.00000000000E+00  0.50665636921E+03  0.50665636921E+03  0.00000000000E+00 0.  1.
          1   -1    0    0  502    0  0.00000000000E+00 -0.00000000000E+00 -0.49559464328E+02  0.49559464328E+02  0.00000000000E+00 0. -1.
         23    2    1    2    0    0 -0.87405356817E+02 -0.33782394177E+02  0.23412920102E+03  0.26790399322E+03  0.90416371605E+02 0.  0.
         23    2    1    2    0    0  0.10146093315E+03  0.60656097233E+02  0.19693564150E+03  0.24834406064E+03  0.94433269959E+02 0.  0.
        -11    1    4    4    0    0  0.82143473975E+02  0.66409570993E+02  0.20165255196E+03  0.22764343423E+03  0.00000000000E+00 0.  1.
         11    1    4    4    0    0  0.19317459173E+02 -0.57534737603E+01 -0.47169104653E+01  0.20700626405E+02  0.00000000000E+00 0. -1.
        -11    1    3    3    0    0 -0.38174310697E+02 -0.58169170355E+02  0.90702257990E+02  0.11431460966E+03  0.00000000000E+00 0.  1.
         11    1    3    3    0    0 -0.49231046120E+02  0.24386776178E+02  0.14342694303E+03  0.15358938356E+03  0.00000000000E+00 0. -1.
         21    1    1    2  502  501 -0.14055576331E+02 -0.26873703056E+02  0.26032062359E+02  0.39967779680E+02  0.00000000000E+00 0.  1.
<scales pt_clust_5="13000.00000" pt_clust_6="13000.00000" pt_clust_7="13000.00000" pt_clust_8="13000.00000" pt_clust_9="30.32747"></scales>
<clustering>
<clus scale="   30.327">  2  9  1 -1</clus>
<clus scale="   90.416">  7  8 -1 -1</clus>
<clus scale="   94.433">  5  6 -1 -1</clus>
<clus scale="  137.094">  1  7  2 -1</clus>
<clus scale="   30.327">  2  5  1 -1</clus>
</clustering>
</event>
<event>
 9    1  0.1435532E-005  0.1200472E+03  0.7546771E-02  0.1248426E+00
          1   -1    0    0  502    0  0.00000000000E+00  0.00000000000E+00  0.11397551704E+03  0.11397551704E+03  0.00000000000E+00 0. -1.
         -1   -1    0    0    0  501 -0.00000000000E+00 -0.00000000000E+00 -0.48917657018E+03  0.48917657018E+03  0.00000000000E+00 0.  1.
         23    2    1    2    0    0 -0.72030629138E+02  0.16784707422E+02 -0.39385111425E+03  0.41323169441E+03  0.10085432627E+03 0.  0.
         23    2    1    2    0    0  0.41550800639E+02  0.85037025053E+01 -0.52027634555E+02  0.10890273865E+03  0.85756339346E+02 0.  0.
        -13    1    3    3    0    0 -0.81799635065E+02 -0.21029040344E+02 -0.23729294297E+03  0.25187564713E+03  0.00000000000E+00 0.  1.
         13    1    3    3    0    0  0.97690059268E+01  0.37813747766E+02 -0.15655817128E+03  0.16135604728E+03  0.00000000000E+00 0. -1.
        -13    1    4    4    0    0  0.33817254531E+02 -0.18432991337E+02 -0.66886204190E+02  0.77182551037E+02  0.00000000000E+00 0.  1.
         13    1    4    4    0    0  0.77335461083E+01  0.26936693843E+02  0.14858569635E+02  0.31720187613E+02  0.00000000000E+00 0. -1.
         21    1    1    2  502  501  0.30479828499E+02 -0.25288409928E+02  0.70677695668E+02  0.81017654168E+02  0.00000000000E+00 0. -1.
<scales pt_clust_5="13000.00000" pt_clust_6="13000.00000" pt_clust_7="13000.00000" pt_clust_8="13000.00000" pt_clust_9="39.60459"></scales>
<clustering>
<clus scale="   39.605">  1  9  2 -1</clus>
<clus scale="   85.756">  7  8 -1 -1</clus>
<clus scale="  100.854">  5  6 -1 -1</clus>
<clus scale="  107.675">  1  7  2 -1</clus>
<clus scale="   39.605">  1  5  2 -1</clus>
</clustering>
</event>
<event>
 9    1  0.1435532E-005  0.9716926E+02  0.7546771E-02  0.1287929E+00
          2   -1    0    0  502    0  0.00000000000E+00  0.00000000000E+00  0.63059715875E+03  0.63059715875E+03  0.00000000000E+00 0. -1.
         -2   -1    0    0    0  501 -0.00000000000E+00 -0.00000000000E+00 -0.23450852461E+02  0.23450852461E+02  0.00000000000E+00 0.  1.
         23    2    1    2    0    0  0.95678272536E+01 -0.19852489091E+02  0.15646462351E+03  0.18152423173E+03  0.89354371195E+02 0.  0.
         23    2    1    2    0    0 -0.43725903309E+02  0.23092367981E+02  0.29312309353E+03  0.31127248486E+03  0.92326593061E+02 0.  0.
        -11    1    4    4    0    0  0.29267973722E+01 -0.25112212515E+02  0.27699015841E+02  0.37502331112E+02  0.00000000000E+00 0.  1.
         11    1    4    4    0    0 -0.46652700681E+02  0.48204580496E+02  0.26542407769E+03  0.27377015374E+03  0.00000000000E+00 0. -1.
        -13    1    3    3    0    0  0.39448284705E+02  0.14219764187E+02  0.46651587649E+02  0.62727501862E+02  0.00000000000E+00 0. -1.
         13    1    3    3    0    0 -0.29880457452E+02 -0.34072253278E+02  0.10981303586E+03  0.11879672986E+03  0.00000000000E+00 0.  1.
         21    1    1    2  502  501  0.34158076055E+02 -0.32398788898E+01  0.15755858925E+03  0.16125129463E+03  0.00000000000E+00 0. -1.
<scales pt_clust_5="13000.00000" pt_clust_6="13000.00000" pt_clust_7="13000.00000" pt_clust_8="13000.00000" pt_clust_9="34.31138"></scales>
<clustering>
<clus scale="   34.311">  1  9  2 -1</clus>
<clus scale="   89.354">  7  8 -1 -1</clus>
<clus scale="   92.327">  5  6 -1 -1</clus>
<clus scale="   94.350">  2  7  1 -1</clus>
<clus scale="   34.311">  1  5  2 -1</clus>
</clustering>
</event>
<event>
 9    1  0.1435532E-005  0.9326370E+02  0.7546771E-02  0.1296163E+00
         -1   -1    0    0    0  501 -0.00000000000E+00  0.00000000000E+00  0.50179858604E+02  0.50179858604E+02  0.00000000000E+00 0.  1.
          1   -1    0    0  502    0  0.00000000000E+00 -0.00000000000E+00 -0.36982304833E+03  0.36982304833E+03  0.00000000000E+00 0. -1.
         23    2    1    2    0    0 -0.11864699146E+02  0.45714069403E+01 -0.48028314035E+02  0.10397030363E+03  0.91331463580E+02 0.  0.
         23    2    1    2    0    0 -0.12744524189E+02 -0.43235954651E+02 -0.11357952457E+03  0.15148554826E+03  0.89530956977E+02 0.  0.
        -11    1    3    3    0    0  0.24262327166E+02  0.12805103404E+02  0.14693539685E+02  0.31121235534E+02  0.00000000000E+00 0.  1.
         11    1    3    3    0    0 -0.36127026313E+02 -0.82336964641E+01 -0.62721853720E+02  0.72849068091E+02  0.00000000000E+00 0. -1.
        -11    1    4    4    0    0 -0.15322701088E+02  0.19121734303E+02 -0.32380816033E+01  0.24716615137E+02  0.00000000000E+00 0.  1.
         11    1    4    4    0    0  0.25781768995E+01 -0.62357688954E+02 -0.11034144297E+03  0.12676893312E+03  0.00000000000E+00 0. -1.
         21    1    1    2  502  501  0.24609223335E+02  0.38664547711E+02 -0.15803535112E+03  0.16454705505E+03  0.00000000000E+00 0.  1.
<scales pt_clust_5="13000.00000" pt_clust_6="13000.00000" pt_clust_7="13000.00000" pt_clust_8="13000.00000" pt_clust_9="45.83188"></scales>
<clustering>
<clus scale="   45.832">  2  9  1 -1</clus>
<clus scale="   89.531">  7  8 -1 -1</clus>
<clus scale="   91.331">  5  6 -1 -1</clus>
<clus scale="   91.501">  2  7  1 -1</clus>
<clus scale="   45.832">  2  5  1 -1</clus>
</clustering>
</event>
<event>
 9    1  0.1435532E-005  0.1146977E+03  0.7546771E-02  0.1256230E+00
         -3   -1    0    0    0  501 -0.00000000000E+00  0.00000000000E+00  0.62181971539E+02  0.62181971539E+02  0.00000000000E+00 0.  1.
          3   -1    0    0  502    0  0.00000000000E+00 -0.00000000000E+00 -0.32687579495E+03  0.32687579495E+03  0.00000000000E+00 0. -1.
         23    2    1    2    0    0  0.15377212588E+02 -0.60783661492E+02 -0.68201536552E+02  0.13047746705E+03  0.91879310224E+02 0.  0.
         23    2    1    2    0    0 -0.42384751555E+02  0.24273088753E+02 -0.96437528402E+02  0.14870134890E+03  0.10210898236E+03 0.  0.
        -11    1    4    4    0    0 -0.62557685033E+02  0.40997763443E+02 -0.36374161971E+02  0.83170669247E+02  0.00000000000E+00 0.  1.
         11    1    4    4    0    0  0.20172933478E+02 -0.16724674690E+02 -0.60063366431E+02  0.65530679651E+02  0.00000000000E+00 0. -1.
        -13    1    3    3    0    0  0.48381786460E+02 -0.60906515552E+02 -0.53107392394E+02  0.94184903380E+02  0.00000000000E+00 0. -1.
         13    1    3    3    0    0 -0.33004573872E+02  0.12285406067E+00 -0.15094144158E+02  0.36292563666E+02  0.00000000000E+00 0.  1.
         21    1    1    2  502  501  0.27007538967E+02  0.36510572739E+02 -0.10005475846E+03  0.10987895054E+03  0.00000000000E+00 0. -1.
<scales pt_clust_5="13000.00000" pt_clust_6="13000.00000" pt_clust_7="13000.00000" pt_clust_8="13000.00000" pt_clust_9="45.41397"></scales>
<clustering>
<clus scale="   45.414">  2  9  1 -1</clus>
<clus scale="   91.879">  7  8 -1 -1</clus>
<clus scale="  102.109">  5  6 -1 -1</clus>
<clus scale="  105.694">  1  7  2 -1</clus>
<clus scale="   45.414">  2  5  1 -1</clus>
</clustering>
</event>
<event>
 9    1  0.1435532E-005  0.1027578E+03  0.7546771E-02  0.1274944E+00
          2   -1    0    0  502    0  0.00000000000E+00  0.00000000000E+00  0.35079930483E+03  0.35079930483E+03  0.00000000000E+00 0. -1.
         -2   -1    0    0    0  501 -0.00000000000E+00 -0.00000000000E+00 -0.21144406351E+03  0.21144406351E+03  0.00000000000E+00 0.  1.
         23    2    1    2    0    0  0.26853315584E+02 -0.43939521207E+02 -0.16883345119E+03  0.19885638197E+03  0.91582445516E+02 0.  0.
         23    2    1    2    0    0  0.35366413664E+02  0.30012391496E+02  0.89812896641E+02  0.13589358455E+03  0.90825013407E+02 0.  0.
        -11    1    4    4    0    0 -0.49481442694E+01  0.23834060051E+02 -0.11320522646E+02  0.26845870878E+02  0.00000000000E+00 0.  1.
         11    1    4    4    0    0  0.40314557933E+02  0.61783314457E+01  0.10113341929E+03  0.10904771367E+03  0.00000000000E+00 0. -1.
        -13    1    3    3    0    0 -0.19477491544E+02  0.12859364294E+02 -0.13170100720E+02  0.26799020129E+02  0.00000000000E+00 0. -1.
         13    1    3    3    0    0  0.46330807129E+02 -0.56798885501E+02 -0.15566335047E+03  0.17205736184E+03  0.00000000000E+00 0.  1.
         21    1    1    2  502  501 -0.62219729248E+02  0.13927129711E+02  0.21837579587E+03  0.22749340182E+03  0.00000000000E+00 0. -1.
<scales pt_clust_5="13000.00000" pt_clust_6="13000.00000" pt_clust_7="13000.00000" pt_clust_8="13000.00000" pt_clust_9="63.75939"></scales>
<clustering>
<clus scale="   63.759">  1  9  2 -1</clus>
<clus scale="   90.825">  5  6 -1 -1</clus>
<clus scale="   91.582">  7  8 -1 -1</clus>
<clus scale="  102.083">  1  5  2 -1</clus>
<clus scale="   63.759">  1  5  2 -1</clus>
</clustering>
</event>
<event>
 9    1  0.2397120E-005  0.1182257E+03  0.7546771E-02  0.1248472E+00
          2   -1    0    0  502    0  0.00000000000E+00  0.00000000000E+00  0.87011002185E+03  0.87011002185E+03  0.00000000000E+00 0. -1.
         -2   -1    0    0    0  501 -0.00000000000E+00 -0.00000000000E+00 -0.12489569226E+03  0.12489569226E+03  0.00000000000E+00 0.  1.
         23    2    1    2    0    0 -0.47605929120E+02  0.39515951767E+02 -0.81733750690E+02  0.13813402823E+03  0.92589247866E+02 0.  0.
         23    2    1    2    0    0  0.11566066876E+03 -0.33677190372E+02  0.58165421146E+03  0.60224525205E+03  0.99328638675E+02 0.  0.
        -13    1    4    4    0    0  0.24896560588E+02  0.30739352338E+02  0.92763926515E+02  0.10084588526E+03  0.00000000000E+00 0.  1.
         13    1    4    4    0    0  0.90764108175E+02 -0.64416542710E+02  0.48889028494E+03  0.50139936679E+03  0.00000000000E+00 0. -1.
        -13    1    3    3    0    0 -0.18006728462E+01  0.49593750354E+02 -0.76162028166E+02  0.90903448951E+02  0.00000000000E+00 0.  1.
         13    1    3    3    0    0 -0.45805256274E+02 -0.10077798587E+02 -0.55717225246E+01  0.47230579274E+02  0.00000000000E+00 0. -1.
         21    1    1    2  502  501 -0.68054739643E+02 -0.58387613944E+01  0.24529386883E+03  0.25462643384E+03  0.00000000000E+00 0.  1.
<scales pt_clust_5="13000.00000" pt_clust_6="13000.00000" pt_clust_7="13000.00000" pt_clust_8="13000.00000" pt_clust_9="68.30475"></scales>
<clustering>
<clus scale="   68.305">  1  9  2 -1</clus>
<clus scale="   92.589">  7  8 -1 -1</clus>
<clus scale="   99.329">  5  6 -1 -1</clus>
<clus scale="  112.623">  2  7  1 -1</clus>
<clus scale="   68.305">  1  5  2 -1</clus>
</clustering>
</event>
<event>
 9    1  0.1435532E-005  0.1001259E+03  0.7546771E-02  0.1283403E+00
          2   -1    0    0  502    0  0.00000000000E+00  0.00000000000E+00  0.52181449078E+03  0.52181449078E+03  0.00000000000E+00 0. -1.
         -2   -1    0    0    0  501 -0.00000000000E+00 -0.00000000000E+00 -0.50069830530E+02  0.50069830530E+02  0.00000000000E+00 0.  1.
         23    2    1    2    0    0 -0.23616775980E+02 -0.50378129276E+01  0.31018599674E+02  0.10600060087E+03  0.98442075319E+02 0.  0.
         23    2    1    2    0    0  0.43780203334E+00 -0.28706870688E+02  0.20431783294E+03  0.22595702622E+03  0.92122335749E+02 0.  0.
        -11    1    3    3    0    0  0.16266624363E+02 -0.41552008292E+02  0.20818317204E+01  0.44671092270E+02  0.00000000000E+00 0.  1.
         11    1    3    3    0    0 -0.39883400344E+02  0.36514195364E+02  0.28936767953E+02  0.61329508604E+02  0.00000000000E+00 0. -1.
        -11    1    4    4    0    0  0.44918469033E+02 -0.22737431285E+02  0.89646215505E+02  0.10281587230E+03  0.00000000000E+00 0.  1.
         11    1    4    4    0    0 -0.44480666999E+02 -0.59694394027E+01  0.11467161744E+03  0.12314115392E+03  0.00000000000E+00 0. -1.
         21    1    1    2  502  501  0.23178973947E+02  0.33744683615E+02  0.23640822763E+03  0.23992669422E+03  0.00000000000E+00 0. -1.
<scales pt_clust_5="13000.00000" pt_clust_6="13000.00000" pt_clust_7="13000.00000" pt_clust_8="13000.00000" pt_clust_9="40.93859"></scales>
<clustering>
<clus scale="   40.939">  1  9  2 -1</clus>
<clus scale="   92.122">  7  8 -1 -1</clus>
<clus scale="   93.920">  1  7  2 -1</clus>
<clus scale="   98.442">  5  6 -1 -1</clus>
<clus scale="   40.939">  1  5  2 -1</clus>
</clustering>
</event>
<event>
 9    1  0.1435532E-005  0.1136815E+03  0.7546771E-02  0.1255955E+00
         -1   -1    0    0    0  501 -0.00000000000E+00  0.00000000000E+00  0.30379680724E+03  0.30379680724E+03  0.00000000000E+00 0.  1.
          1   -1    0    0  502    0  0.00000000000E+00 -0.00000000000E+00 -0.50961911312E+02  0.50961911312E+02  0.00000000000E+00 0. -1.
         23    2    1    2    0    0  0.58257637472E+02 -0.22198121074E+02  0.11655898827E+03  0.15863547916E+03  0.87706947252E+02 0.  0.
         23    2    1    2    0    0 -0.53205277822E+02  0.45438876300E+02  0.11983826301E+03  0.16721207887E+03  0.93290819334E+02 0.  0.
        -11    1    3    3    0    0  0.66903197597E+02  0.12199253425E+02  0.95978395315E+02  0.11762955411E+03  0.00000000000E+00 0.  1.
         11    1    3    3    0    0 -0.86455601247E+01 -0.34397374499E+02  0.20580592959E+02  0.41005925046E+02  0.00000000000E+00 0. -1.
        -13    1    4    4    0    0 -0.76619643146E+02  0.35062407368E+02  0.64099408267E+02  0.10587103601E+03  0.00000000000E+00 0. -1.
         13    1    4    4    0    0  0.23414365324E+02  0.10376468932E+02  0.55738854743E+02  0.61341042859E+02  0.00000000000E+00 0.  1.
         21    1    1    2  502  501 -0.50523596502E+01 -0.23240755226E+02  0.16437644646E+02  0.28911160527E+02  0.00000000000E+00 0.  1.
<scales pt_clust_5="13000.00000" pt_clust_6="13000.00000" pt_clust_7="13000.00000" pt_clust_8="13000.00000" pt_clust_9="23.78359"></scales>
<clustering>
<clus scale="   23.784">  2  9  1 -1</clus>
<clus scale="   87.707">  5  6 -1 -1</clus>
<clus scale="   93.291">  7  8 -1 -1</clus>
<clus scale="  109.146">  1  5  2 -1</clus>
<clus scale="   23.784">  2  5  1 -1</clus>
</clustering>
</event>
<event>
 9    1  0.1435532E-005  0.1308280E+03  0.7546771E-02  0.1226970E+00
         -2   -1    0    0    0  501 -0.00000000000E+00  0.00000000000E+00  0.71364786350E+02  0.71364786350E+02  0.00000000000E+00 0.  1.
          2   -1    0    0  502    0  0.00000000000E+00 -0.00000000000E+00 -0.43550699749E+03  0.43550699749E+03  0.00000000000E+00 0. -1.
         23    2    1    2    0    0  0.88028634723E+02  0.23983600302E+02 -0.46834085895E+02  0.13588505561E+03  0.89146301781E+02 0.  0.
         23    2    1    2    0    0 -0.77332382274E+02 -0.72684183630E+02 -0.20973895998E+03  0.25242331925E+03  0.91998982987E+02 0.  0.
        -11    1    4    4    0    0  0.13021906393E+02 -0.43519645588E+02 -0.63869285266E+02  0.78376113699E+02  0.00000000000E+00 0.  1.
         11    1    4    4    0    0 -0.90354288666E+02 -0.29164538042E+02 -0.14586967471E+03  0.17404720555E+03  0.00000000000E+00 0. -1.
        -13    1    3    3    0    0  0.67444191024E+02 -0.58862838943E+01  0.10025853320E+02  0.68438914192E+02  0.00000000000E+00 0. -1.
         13    1    3    3    0    0  0.20584443699E+02  0.29869884196E+02 -0.56859939215E+02  0.67446141416E+02  0.00000000000E+00 0.  1.
         21    1    1    2  502  501 -0.10696252449E+02  0.48700583328E+02 -0.10756916527E+03  0.11856340898E+03  0.00000000000E+00 0. -1.
<scales pt_clust_5="13000.00000" pt_clust_6="13000.00000" pt_clust_7="13000.00000" pt_clust_8="13000.00000" pt_clust_9="49.86137"></scales>
<clustering>
<clus scale="   49.861">  2  9  1 -1</clus>
<clus scale="   89.146">  7  8 -1 -1</clus>
<clus scale="   91.999">  5  6 -1 -1</clus>
<clus scale="  128.838">  1  7  2 -1</clus>
<clus scale="   49.861">  2  5  1 -1</clus>
</clustering>
</event>
<event>
 9    1  0.1435532E-005  0.1301758E+03  0.7546771E-02  0.1227475E+00
          1   -1    0    0  502    0  0.00000000000E+00  0.00000000000E+00  0.58458832970E+03  0.58458832970E+03  0.00000000000E+00 0. -1.
         -1   -1    0    0    0  501 -0.00000000000E+00 -0.00000000000E+00 -0.45148034376E+02  0.45148034376E+02  0.00000000000E+00 0.  1.
         23    2    1    2    0    0  0.47097455341E+01 -0.79759669615E+02  0.14157122376E+03  0.18665312249E+03  0.91723443786E+02 0.  0.
         23    2    1    2    0    0 -0.29152778559E+02  0.10944451301E+03  0.23862270014E+03  0.27925998742E+03  0.90649664252E+02 0.  0.
        -11    1    4    4    0    0  0.29717099851E+02  0.25417070056E+02  0.95201299776E+02  0.10291948772E+03  0.00000000000E+00 0.  1.
         11    1    4    4    0    0 -0.58869878410E+02  0.84027442950E+02  0.14342140036E+03  0.17634049970E+03  0.00000000000E+00 0. -1.
        -13    1    3    3    0    0  0.44167912152E+02 -0.64029959989E+02  0.77688972380E+02  0.10993733065E+03  0.00000000000E+00 0.  1.
         13    1    3    3    0    0 -0.39458166618E+02 -0.15729709627E+02  0.63882251376E+02  0.76715791847E+02  0.00000000000E+00 0. -1.
         21    1    1    2  502  501  0.24443033025E+02 -0.29684843390E+02  0.15924637143E+03  0.16382325416E+03  0.00000000000E+00 0.  1.
<scales pt_clust_5="13000.00000" pt_clust_6="13000.00000" pt_clust_7="13000.00000" pt_clust_8="13000.00000" pt_clust_9="38.45324"></scales>
<clustering>
<clus scale="   38.453">  1  9  2 -1</clus>
<clus scale="   90.650">  5  6 -1 -1</clus>
<clus scale="   91.723">  7  8 -1 -1</clus>
<clus scale="  129.421">  1  5  2 -1</clus>
<clus scale="   38.453">  1  5  2 -1</clus>
</clustering>
</event>
<event>
 9    1  0.1435532E-005  0.1001365E+03  0.7546771E-02  0.1280120E+00
          1   -1    0    0  502    0  0.00000000000E+00  0.00000000000E+00  0.11407756157E+03  0.11407756157E+03  0.00000000000E+00 0. -1.
         -1   -1    0    0    0  501 -0.00000000000E+00 -0.00000000000E+00 -0.21493604310E+03  0.21493604310E+03  0.00000000000E+00 0.  1.
         23    2    1    2    0    0 -0.45187320878E+02 -0.14001209869E+00 -0.15549466481E+03  0.18622888000E+03  0.91982016652E+02 0.  0.
         23    2    1    2    0    0  0.13310959728E+02 -0.19092605220E+02  0.37814109393E+02  0.10193159580E+03  0.91752025206E+02 0.  0.
        -11    1    3    3    0    0 -0.10019531597E+02  0.43019685891E+02 -0.48388640673E+02  0.65517516236E+02  0.00000000000E+00 0. -1.
         11    1    3    3    0    0 -0.35167789281E+02 -0.43159697989E+02 -0.10710602414E+03  0.12071136376E+03  0.00000000000E+00 0.  1.
        -13    1    4    4    0    0 -0.28481942150E+02 -0.28205241895E+02 -0.61945532566E+01  0.40560192172E+02  0.00000000000E+00 0.  1.
         13    1    4    4    0    0  0.41792901878E+02  0.91126366748E+01  0.44008662650E+02  0.61371403624E+02  0.00000000000E+00 0. -1.
         21    1    1    2  502  501  0.31876361150E+02  0.19232617319E+02  0.16822073885E+02  0.40853128875E+02  0.00000000000E+00 0. -1.
<scales pt_clust_5="13000.00000" pt_clust_6="13000.00000" pt_clust_7="13000.00000" pt_clust_8="13000.00000" pt_clust_9="37.22897"></scales>
<clustering>
<clus scale="   37.229">  1  9  2 -1</clus>
<clus scale="   91.752">  7  8 -1 -1</clus>
<clus scale="   91.982">  5  6 -1 -1</clus>
<clus scale="   99.925">  1  7  2 -1</clus>
<clus scale="   37.229">  1  5  2 -1</clus>
</clustering>
</event>
<event>
 9    1  0.1435532E-005  0.1283392E+03  0.7546771E-02  0.1230384E+00
         -4   -1    0    0    0  501 -0.00000000000E+00  0.00000000000E+00  0.50896388395E+02  0.50896388395E+02  0.00000000000E+00 0.  1.
          4   -1    0    0  502    0  0.00000000000E+00 -0.00000000000E+00 -0.53841862778E+03  0.53841862778E+03  0.00000000000E+00 0. -1.
         23    2    1    2    0    0 -0.48319211841E+02  0.43033479832E+02 -0.63806908763E+02  0.13006180772E+03  0.93049049442E+02 0.  0.
         23    2    1    2    0    0  0.63195376659E+02 -0.72819180502E+02 -0.38937560659E+03  0.41142325037E+03  0.91429969129E+02 0.  0.
        -11    1    3    3    0    0 -0.75756275052E+02  0.27391103602E+02 -0.37047310440E+02  0.88666729821E+02  0.00000000000E+00 0.  1.
         11    1    3    3    0    0  0.27437063212E+02  0.15642376231E+02 -0.26759598323E+02  0.41395077899E+02  0.00000000000E+00 0. -1.
        -11    1    4    4    0    0  0.82069104845E+01 -0.49159640412E+02 -0.66822610223E+02  0.83362370780E+02  0.00000000000E+00 0.  1.
         11    1    4    4    0    0  0.54988466174E+02 -0.23659540090E+02 -0.32255299637E+03  0.32806087959E+03  0.00000000000E+00 0. -1.
         21    1    1    2  502  501 -0.14876164818E+02  0.29785700670E+02 -0.34339724027E+02  0.47829958084E+02  0.00000000000E+00 0.  1.
<scales pt_clust_5="13000.00000" pt_clust_6="13000.00000" pt_clust_7="13000.00000" pt_clust_8="13000.00000" pt_clust_9="33.29397"></scales>
<clustering>
<clus scale="   33.294">  1  9  2 -1</clus>
<clus scale="   91.430">  7  8 -1 -1</clus>
<clus scale="   93.049">  5  6 -1 -1</clus>
<clus scale="  127.170">  2  7  1 -1</clus>
<clus scale="  127.170">  2  5  1 -1</clus>
</clustering>
</event>
<event>
 9    1  0.1435532E-005  0.9305218E+02  0.7546771E-02  0.1296171E+00
         -2   -1    0    0    0  501 -0.00000000000E+00  0.00000000000E+00  0.15605466714E+03  0.15605466714E+03  0.00000000000E+00 0.  1.
          2   -1    0    0  502    0  0.00000000000E+00 -0.00000000000E+00 -0.12402477841E+03  0.12402477841E+03  0.00000000000E+00 0. -1.
         23    2    1    2    0    0 -0.58638811539E+01 -0.37235324084E+02  0.63507033068E+02  0.11675168557E+03  0.90426535770E+02 0.  0.
         23    2    1    2    0    0 -0.84089691361E+01 -0.26033178571E+02 -0.19924501144E+02  0.97448466973E+02  0.91382606775E+02 0.  0.
        -11    1    3    3    0    0 -0.80967529670E+01  0.28046754952E+02  0.61713839114E+01  0.29837289611E+02  0.00000000000E+00 0. -1.
         11    1    3    3    0    0  0.22328718131E+01 -0.65282079037E+02  0.57335649157E+02  0.86914395954E+02  0.00000000000E+00 0.  1.
        -13    1    4    4    0    0  0.13991212626E+02 -0.55902061550E+02 -0.16578236755E+02  0.59963592706E+02  0.00000000000E+00 0.  1.
         13    1    4    4    0    0 -0.22400181763E+02  0.29868882979E+02 -0.33462643898E+01  0.37484874267E+02  0.00000000000E+00 0. -1.
         21    1    1    2  502  501  0.14272850290E+02  0.63268502655E+02 -0.11552643189E+02  0.65879293016E+02  0.00000000000E+00 0. -1.
<scales pt_clust_5="13000.00000" pt_clust_6="13000.00000" pt_clust_7="13000.00000" pt_clust_8="13000.00000" pt_clust_9="64.85844"></scales>
<clustering>
<clus scale="   64.858">  2  9  1 -1</clus>
<clus scale="   90.427">  5  6 -1 -1</clus>
<clus scale="   91.383">  7  8 -1 -1</clus>
<clus scale="   92.113">  1  5  2 -1</clus>
<clus scale="   64.858">  2  5  1 -1</clus>
</clustering>
</event>
<event>
 9    1  0.1435532E-005  0.1467348E+03  0.7546771E-02  0.1205165E+00
          2   -1    0    0  502    0  0.00000000000E+00  0.00000000000E+00  0.26811403303E+03  0.26811403303E+03  0.00000000000E+00 0. -1.
         -2   -1    0    0    0  501 -0.00000000000E+00 -0.00000000000E+00 -0.14162300888E+03  0.14162300888E+03  0.00000000000E+00 0.  1.
         23    2    1    2    0    0 -0.50526211550E+02  0.10942712804E+03 -0.62729045282E+02  0.16175048918E+03  0.87755872876E+02 0.  0.
         23    2    1    2    0    0  0.31603616373E+02 -0.91719960361E+02  0.14505652402E+03  0.19678081926E+03  0.90939298290E+02 0.  0.
        -13    1    3    3    0    0 -0.58176186787E+02  0.88634127357E+02 -0.12378922934E+02  0.10674134613E+03  0.00000000000E+00 0.  1.
         13    1    3    3    0    0  0.76499752371E+01  0.20793000683E+02 -0.50350122348E+02  0.55009143049E+02  0.00000000000E+00 0. -1.
        -13    1    4    4    0    0  0.50101104941E+02 -0.66601385677E+02  0.14300577746E+03  0.16551893450E+03  0.00000000000E+00 0. -1.
         13    1    4    4    0    0 -0.18497488568E+02 -0.25118574684E+02  0.20507465541E+01  0.31261884762E+02  0.00000000000E+00 0.  1.
         21    1    1    2  502  501  0.18922595177E+02 -0.17707167679E+02  0.44163545420E+02  0.51205733463E+02  0.00000000000E+00 0. -1.
<scales pt_clust_5="13000.00000" pt_clust_6="13000.00000" pt_clust_7="13000.00000" pt_clust_8="13000.00000" pt_clust_9="25.91541"></scales>
<clustering>
<clus scale="   25.915">  1  9  2 -1</clus>
<clus scale="   87.756">  5  6 -1 -1</clus>
<clus scale="   90.939">  7  8 -1 -1</clus>
<clus scale="  144.783">  2  5  1 -1</clus>
<clus scale="   25.915">  1  5  2 -1</clus>
</clustering>
</event>
<event>
 9    1  0.1435532E-005  0.1245620E+03  0.7546771E-02  0.1236112E+00
          2   -1    0    0  502    0  0.00000000000E+00  0.00000000000E+00  0.27460101441E+03  0.27460101441E+03  0.00000000000E+00 0. -1.
         -2   -1    0    0    0  501 -0.00000000000E+00 -0.00000000000E+00 -0.16120155265E+03  0.16120155265E+03  0.00000000000E+00 0.  1.
         23    2    1    2    0    0 -0.83585866306E+02 -0.15553513782E+02 -0.10913257691E+03  0.16529926254E+03  0.90473300018E+02 0.  0.
         23    2    1    2    0    0  0.83477400509E+02  0.39931763433E+02  0.17566050052E+03  0.21767100464E+03  0.89224619306E+02 0.  0.
        -11    1    3    3    0    0  0.12609690997E+02 -0.19003469846E+02 -0.42489179228E+02  0.48223091198E+02  0.00000000000E+00 0. -1.
         11    1    3    3    0    0 -0.96195557302E+02  0.34499560633E+01 -0.66643397686E+02  0.11707617134E+03  0.00000000000E+00 0.  1.
        -11    1    4    4    0    0  0.42590262800E+02 -0.78248422735E+01  0.16147311282E+02  0.46215736537E+02  0.00000000000E+00 0.  1.
         11    1    4    4    0    0  0.40887137709E+02  0.47756605706E+02  0.15951318924E+03  0.17145526810E+03  0.00000000000E+00 0. -1.
         21    1    1    2  502  501  0.10846579624E+00 -0.24378249651E+02  0.46871538165E+02  0.52832299882E+02  0.00000000000E+00 0.  1.
<scales pt_clust_5="13000.00000" pt_clust_6="13000.00000" pt_clust_7="13000.00000" pt_clust_8="13000.00000" pt_clust_9="24.37849"></scales>
<clustering>
<clus scale="   24.378">  1  9  2 -1</clus>
<clus scale="   89.225">  7  8 -1 -1</clus>
<clus scale="   90.473">  5  6 -1 -1</clus>
<clus scale="  123.658">  1  7  2 -1</clus>
<clus scale="   24.378">  1  5  2 -1</clus>
</clustering>
</event>
<event>
 9    1  0.1435532E-005  0.1159222E+03  0.7546771E-02  0.1250457E+00
          2   -1    0    0  502    0  0.00000000000E+00  0.00000000000E+00  0.64011546952E+02  0.64011546952E+02  0.00000000000E+00 0. -1.
         -2   -1    0    0    0  501 -0.00000000000E+00 -0.00000000000E+00 -0.33157420533E+03  0.33157420533E+03  0.00000000000E+00 0.  1.
         23    2    1    2    0    0 -0.23342549286E+01 -0.77947072642E+02 -0.14350050715E+03  0.18738893119E+03  0.91875029804E+02 0.  0.
         23    2    1    2    0    0 -0.40817266927E+02  0.53305903596E+02 -0.10269443525E+03  0.15410596847E+03  0.93246629163E+02 0.  0.
        -11    1    3    3    0    0  0.31977525593E+02 -0.41006016545E+02 -0.12192082457E+03  0.13254713501E+03  0.00000000000E+00 0. -1.
         11    1    3    3    0    0 -0.34311780521E+02 -0.36941056097E+02 -0.21579682581E+02  0.54841796181E+02  0.00000000000E+00 0.  1.
        -13    1    4    4    0    0 -0.49281355715E+02  0.19003584844E+02 -0.10619172501E+03  0.11860215309E+03  0.00000000000E+00 0.  1.
         13    1    4    4    0    0  0.84640887876E+01  0.34302318753E+02  0.34972897609E+01  0.35503815379E+02  0.00000000000E+00 0. -1.
         21    1    1    2  502  501  0.43151521856E+02  0.24641169046E+02 -0.21367715976E+02  0.54090852613E+02  0.00000000000E+00 0. -1.
<scales pt_clust_5="13000.00000" pt_clust_6="13000.00000" pt_clust_7="13000.00000" pt_clust_8="13000.00000" pt_clust_9="49.69146"></scales>
<clustering>
<clus scale="   49.691">  1  9  2 -1</clus>
<clus scale="   91.875">  5  6 -1 -1</clus>
<clus scale="   93.247">  7  8 -1 -1</clus>
<clus scale="  114.822">  2  5  1 -1</clus>
<clus scale="   49.691">  1  5  2 -1</clus>
</clustering>
</event>
<event>
 9    1  0.1435532E-005  0.1309185E+03  0.7546771E-02  0.1226132E+00
          1   -1    0    0  502    0  0.00000000000E+00  0.00000000000E+00  0.38738463869E+03  0.38738463869E+03  0.00000000000E+00 0. -1.
         -1   -1    0    0    0  501 -0.00000000000E+00 -0.00000000000E+00 -0.97943326359E+02  0.97943326359E+02  0.00000000000E+00 0.  1.
         23    2    1    2    0    0  0.96698018361E+02 -0.34639828371E+02 -0.19563021237E+02  0.13938496401E+03  0.92168497477E+02 0.  0.
         23    2    1    2    0    0 -0.56325057966E+02  0.16195319868E+02  0.19426409461E+03  0.22291658818E+03  0.92295537764E+02 0.  0.
        -11    1    3    3    0    0  0.33317514864E+02 -0.23293929839E+02 -0.53029401693E+02  0.66819019807E+02  0.00000000000E+00 0. -1.
         11    1    3    3    0    0  0.63380503497E+02 -0.11345898533E+02  0.33466380456E+02  0.72565944202E+02  0.00000000000E+00 0.  1.
        -13    1    4    4    0    0  0.17808360804E+02  0.28890897199E+02  0.66441221099E+02  0.74607355647E+02  0.00000000000E+00 0. -1.
         13    1    4    4    0    0 -0.74133418770E+02 -0.12695577331E+02  0.12782287351E+03  0.14830923253E+03  0.00000000000E+00 0.  1.
         21    1    1    2  502  501 -0.40372960395E+02  0.18444508503E+02  0.11474023896E+03  0.12302641287E+03  0.00000000000E+00 0. -1.
<scales pt_clust_5="13000.00000" pt_clust_6="13000.00000" pt_clust_7="13000.00000" pt_clust_8="13000.00000" pt_clust_9="44.38666"></scales>
<clustering>
<clus scale="   44.387">  1  9  2 -1</clus>
<clus scale="   92.168">  5  6 -1 -1</clus>
<clus scale="   92.296">  7  8 -1 -1</clus>
<clus scale="  130.829">  2  5  1 -1</clus>
<clus scale="   44.387">  1  5  2 -1</clus>
</clustering>
</event>
<event>
 9    1  0.1435532E-005  0.1106323E+03  0.7546771E-02  0.1262943E+00
         -3   -1    0    0    0  501 -0.00000000000E+00  0.00000000000E+00  0.47441779575E+02  0.47441779575E+02  0.00000000000E+00 0.  1.
          3   -1    0    0  502    0  0.00000000000E+00 -0.00000000000E+00 -0.34575124462E+03  0.34575124462E+03  0.00000000000E+00 0. -1.
         23    2    1    2    0    0  0.68845533209E+02  0.15658800589E+02 -0.89594082141E+02  0.14622931535E+03  0.91493210862E+02 0.  0.
         23    2    1    2    0    0 -0.43707123273E+02 -0.32310945911E+02 -0.13418898590E+03  0.16656832684E+03  0.82365124406E+02 0.  0.
        -13    1    4    4    0    0  0.16104080967E+02  0.12778004939E+02 -0.48972743450E+02  0.53112601471E+02  0.00000000000E+00 0.  1.
         13    1    4    4    0    0 -0.59811204240E+02 -0.45088950849E+02 -0.85216242450E+02  0.11345572537E+03  0.00000000000E+00 0. -1.
        -13    1    3    3    0    0  0.67922758868E+02  0.39275603414E+02 -0.33412602324E+02  0.85278814426E+02  0.00000000000E+00 0.  1.
         13    1    3    3    0    0  0.92277434064E+00 -0.23616802826E+02 -0.56181479817E+02  0.60950500922E+02  0.00000000000E+00 0. -1.
         21    1    1    2  502  501 -0.25138409936E+02  0.16652145322E+02 -0.74526397002E+02  0.80395382007E+02  0.00000000000E+00 0.  1.
<scales pt_clust_5="13000.00000" pt_clust_6="13000.00000" pt_clust_7="13000.00000" pt_clust_8="13000.00000" pt_clust_9="30.15350"></scales>
<clustering>
<clus scale="   30.154">  2  9  1 -1</clus>
<clus scale="   82.365">  5  6 -1 -1</clus>
<clus scale="   91.493">  7  8 -1 -1</clus>
<clus scale="  103.211">  2  5  1 -1</clus>
<clus scale="   30.154">  2  5  1 -1</clus>
</clustering>
</event>
<event>
 9    1  0.1435532E-005  0.1071745E+03  0.7546771E-02  0.1267795E+00
         -2   -1    0    0    0  501 -0.00000000000E+00  0.00000000000E+00  0.13868661694E+02  0.13868661694E+02  0.00000000000E+00 0.  1.
          2   -1    0    0  502    0  0.00000000000E+00 -0.00000000000E+00 -0.12493961984E+04  0.12493961984E+04  0.00000000000E+00 0. -1.
         23    2    1    2    0    0 -0.20128861131E+02 -0.76744579327E+02 -0.54459943226E+03  0.55819404171E+03  0.93258485315E+02 0.  0.
         23    2    1    2    0    0  0.71324114568E+01  0.34805426059E+02 -0.51062284827E+03  0.51949661304E+03  0.88762316384E+02 0.  0.
        -11    1    4    4    0    0  0.35028974561E+02 -0.14970055142E+02 -0.22972184257E+03  0.23285887692E+03  0.00000000000E+00 0.  1.
         11    1    4    4    0    0 -0.27896563104E+02  0.49775481201E+02 -0.28090100570E+03  0.28663773612E+03  0.00000000000E+00 0. -1.
        -13    1    3    3    0    0  0.27864317436E+01 -0.93337508977E+02 -0.44262233062E+03  0.45236509851E+03  0.00000000000E+00 0.  1.
         13    1    3    3    0    0 -0.22915292874E+02  0.16592929650E+02 -0.10197710163E+03  0.10582894320E+03  0.00000000000E+00 0. -1.
         21    1    1    2  502  501  0.12996449674E+02  0.41939153269E+02 -0.18030525616E+03  0.18557420532E+03  0.00000000000E+00 0. -1.
<scales pt_clust_5="13000.00000" pt_clust_6="13000.00000" pt_clust_7="13000.00000" pt_clust_8="13000.00000" pt_clust_9="43.90672"></scales>
<clustering>
<clus scale="   43.907">  1  9  2 -1</clus>
<clus scale="   88.762">  5  6 -1 -1</clus>
<clus scale="   93.258">  7  8 -1 -1</clus>
<clus scale="  103.286">  2  5  1 -1</clus>
<clus scale="  103.286">  2  5  1 -1</clus>
</clustering>
</event>
<event>
 9    1  0.1435532E-005  0.9386624E+02  0.7546771E-02  0.1294133E+00
         -1   -1    0    0    0  501 -0.00000000000E+00  0.00000000000E+00  0.15930996548E+03  0.15930996548E+03  0.00000000000E+00 0.  1.
          1   -1    0    0  502    0  0.00000000000E+00 -0.00000000000E+00 -0.13092404643E+03  0.13092404643E+03  0.00000000000E+00 0. -1.
         23    2    1    2    0    0  0.22723654855E+02 -0.15354644952E+02  0.10274808585E+03  0.14014815242E+03  0.91280917330E+02 0.  0.
         23    2    1    2    0    0 -0.46028852423E+01 -0.16258416252E+02 -0.64005231930E+02  0.11220428046E+03  0.90595850834E+02 0.  0.
        -11    1    4    4    0    0 -0.63833114606E+01  0.24350263173E+02  0.10545202310E+02  0.27292549781E+02  0.00000000000E+00 0.  1.
         11    1    4    4    0    0  0.17804262184E+01 -0.40608679426E+02 -0.74550434240E+02  0.84911730683E+02  0.00000000000E+00 0. -1.
        -13    1    3    3    0    0  0.94071533602E+01  0.37782348177E+02  0.30385491842E+02  0.49389052255E+02  0.00000000000E+00 0.  1.
         13    1    3    3    0    0  0.13316501495E+02 -0.53136993129E+02  0.72362594005E+02  0.90759100160E+02  0.00000000000E+00 0. -1.
         21    1    1    2  502  501 -0.18120769613E+02  0.31613061204E+02 -0.10356934863E+02  0.37881579030E+02  0.00000000000E+00 0. -1.
<scales pt_clust_5="13000.00000" pt_clust_6="13000.00000" pt_clust_7="13000.00000" pt_clust_8="13000.00000" pt_clust_9="36.43828"></scales>
<clustering>
<clus scale="   36.438">  2  9  1 -1</clus>
<clus scale="   90.596">  5  6 -1 -1</clus>
<clus scale="   91.281">  7  8 -1 -1</clus>
<clus scale="   93.200">  2  5  1 -1</clus>
<clus scale="   36.438">  2  5  1 -1</clus>
</clustering>
</event>
<event>
 9    1  0.1435532E-005  0.9659856E+02  0.7546771E-02  0.1288317E+00
          2   -1    0    0  502    0  0.00000000000E+00  0.00000000000E+00  0.30285696187E+03  0.30285696187E+03  0.00000000000E+00 0. -1.
         -2   -1    0    0    0  501 -0.00000000000E+00 -0.00000000000E+00 -0.34764164930E+03  0.34764164930E+03  0.00000000000E+00 0.  1.
         23    2    1    2    0    0 -0.15710794460E+02  0.17075480811E+02 -0.24432435774E+03  0.26168047530E+03  0.90795805324E+02 0.  0.
         23    2    1    2    0    0  0.16716768217E+01 -0.60116884461E+02 -0.60031825390E+02  0.12532805895E+03  0.92122027772E+02 0.  0.
        -11    1    3    3    0    0 -0.45750640945E+02  0.35433088849E+02 -0.16633092155E+03  0.17610962608E+03  0.00000000000E+00 0.  1.
         11    1    3    3    0    0  0.30039846485E+02 -0.18357608038E+02 -0.77993436183E+02  0.85570849227E+02  0.00000000000E+00 0. -1.
        -13    1    4    4    0    0  0.36642201965E+02 -0.50893008469E+02 -0.63186689006E+02  0.89024193023E+02  0.00000000000E+00 0. -1.
         13    1    4    4    0    0 -0.34970525143E+02 -0.92238759918E+01  0.31548636159E+01  0.36303865931E+02  0.00000000000E+00 0.  1.
         21    1    1    2  502  501  0.14039117638E+02  0.43041403650E+02  0.25957149570E+03  0.26349007691E+03  0.00000000000E+00 0.  1.
<scales pt_clust_5="13000.00000" pt_clust_6="13000.00000" pt_clust_7="13000.00000" pt_clust_8="13000.00000" pt_clust_9="45.27316"></scales>
<clustering>
<clus scale="   45.273">  1  9  2 -1</clus>
<clus scale="   90.796">  5  6 -1 -1</clus>
<clus scale="   92.122">  7  8 -1 -1</clus>
<clus scale="   95.335">  2  5  1 -1</clus>
<clus scale="   45.273">  1  5  2 -1</clus>
</clustering>
</event>
<event>
 9    1  0.1435532E-005  0.9812834E+02  0.7546771E-02  0.1297204E+00
         -3   -1    0    0    0  501 -0.00000000000E+00  0.00000000000E+00  0.46795355986E+03  0.46795355986E+03  0.00000000000E+00 0.  1.
          3   -1    0    0  502    0  0.00000000000E+00 -0.00000000000E+00 -0.38285434041E+02  0.38285434041E+02  0.00000000000E+00 0. -1.
         23    2    1    2    0    0 -0.63983383662E+01 -0.43248732367E+02  0.29354101750E+03  0.30435398532E+03  0.67480573792E+02 0.  0.
         23    2    1    2    0    0  0.22583958608E+02  0.15065681332E+02  0.14009732349E+03  0.16914327258E+03  0.90802955184E+02 0.  0.
        -11    1    4    4    0    0  0.47763482468E+02  0.36323874300E+02  0.10544615248E+03  0.12132462724E+03  0.00000000000E+00 0. -1.
         11    1    4    4    0    0 -0.25179523860E+02 -0.21258192968E+02  0.34651171007E+02  0.47818645341E+02  0.00000000000E+00 0.  1.
        -11    1    3    3    0    0  0.28714745043E+02 -0.21919888493E+02  0.95676356726E+02  0.10226917097E+03  0.00000000000E+00 0. -1.
         11    1    3    3    0    0 -0.35113083409E+02 -0.21328843874E+02  0.19786466077E+03  0.20208481435E+03  0.00000000000E+00 0.  1.
         21    1    1    2  502  501 -0.16185620242E+02  0.28183051035E+02 -0.39702151646E+01  0.32741736006E+02  0.00000000000E+00 0. -1.
<scales pt_clust_5="13000.00000" pt_clust_6="13000.00000" pt_clust_7="13000.00000" pt_clust_8="13000.00000" pt_clust_9="32.50013"></scales>
<clustering>
<clus scale="   32.500">  2  9  1 -1</clus>
<clus scale="   67.481">  7  8 -1 -1</clus>
<clus scale="   77.056">  1  7  2 -1</clus>
<clus scale="   90.803">  5  6 -1 -1</clus>
<clus scale="   32.500">  2  5  1 -1</clus>
</clustering>
</event>
<event>
 9    1  0.1435532E-005  0.9583071E+02  0.7546771E-02  0.1289459E+00
         -1   -1    0    0    0  501 -0.00000000000E+00  0.00000000000E+00  0.23675845905E+02  0.23675845905E+02  0.00000000000E+00 0.  1.
          1   -1    0    0  502    0  0.00000000000E+00 -0.00000000000E+00 -0.64272408838E+03  0.64272408838E+03  0.00000000000E+00 0. -1.
         23    2    1    2    0    0  0.26284602417E+02  0.23120566034E+02 -0.13749223898E+03  0.16843831950E+03  0.90784970113E+02 0.  0.
         23    2    1    2    0    0 -0.27780278048E+02  0.11415340902E+01 -0.29488646604E+03  0.30971602317E+03  0.90514861807E+02 0.  0.
        -11    1    3    3    0    0  0.43326719126E+02  0.45828415103E+02 -0.11862984069E+03  0.13435210204E+03  0.00000000000E+00 0. -1.
         11    1    3    3    0    0 -0.17042116709E+02 -0.22707849069E+02 -0.18862398287E+02  0.34086217455E+02  0.00000000000E+00 0.  1.
        -13    1    4    4    0    0  0.32962130983E+02  0.41047685845E+01 -0.87341053452E+02  0.93444158845E+02  0.00000000000E+00 0. -1.
         13    1    4    4    0    0 -0.60742409031E+02 -0.29632344943E+01 -0.20754541259E+03  0.21627186433E+03  0.00000000000E+00 0.  1.
         21    1    1    2  502  501  0.14956756312E+01 -0.24262100124E+02 -0.18666953745E+03  0.18824559161E+03  0.00000000000E+00 0. -1.
<scales pt_clust_5="13000.00000" pt_clust_6="13000.00000" pt_clust_7="13000.00000" pt_clust_8="13000.00000" pt_clust_9="24.30816"></scales>
<clustering>
<clus scale="   24.308">  2  9  1 -1</clus>
<clus scale="   90.515">  7  8 -1 -1</clus>
<clus scale="   90.785">  5  6 -1 -1</clus>
<clus scale="   95.575">  2  7  1 -1</clus>
<clus scale="   24.308">  2  5  1 -1</clus>
</clustering>
</event>
<event>
 9    1  0.1435532E-005  0.1095138E+03  0.7546771E-02  0.1264104E+00
          2   -1    0    0  502    0  0.00000000000E+00  0.00000000000E+00  0.37152852717E+03  0.37152852717E+03  0.00000000000E+00 0. -1.
         -2   -1    0    0    0  501 -0.00000000000E+00 -0.00000000000E+00 -0.92855176127E+02  0.92855176127E+02  0.00000000000E+00 0.  1.
         23    2    1    2    0    0 -0.52945414242E+02 -0.11794597012E+02 -0.44300059086E+02  0.11205355437E+03  0.87470991787E+02 0.  0.
         23    2    1    2    0    0  0.72733498627E+02  0.68528872919E+01  0.25574869226E+03  0.28207951568E+03  0.93937935297E+02 0.  0.
        -13    1    3    3    0    0  0.18600857284E+02 -0.18419678803E+02  0.25109062553E+01  0.26297929750E+02  0.00000000000E+00 0. -1.
         13    1    3    3    0    0 -0.71546271526E+02  0.66250817911E+01 -0.46810965341E+02  0.85755624621E+02  0.00000000000E+00 0.  1.
        -13    1    4    4    0    0  0.81811062939E+02 -0.20794450362E+02  0.22206183042E+03  0.23756455063E+03  0.00000000000E+00 0.  1.
         13    1    4    4    0    0 -0.90775643119E+01  0.27647337654E+02  0.33686861837E+02  0.44514965052E+02  0.00000000000E+00 0. -1.
         21    1    1    2  502  501 -0.19788084385E+02  0.49417097198E+01  0.67224717871E+02  0.70250633246E+02  0.00000000000E+00 0.  1.
<scales pt_clust_5="13000.00000" pt_clust_6="13000.00000" pt_clust_7="13000.00000" pt_clust_8="13000.00000" pt_clust_9="20.39580"></scales>
<clustering>
<clus scale="   20.396">  1  9  2 -1</clus>
<clus scale="   87.471">  5  6 -1 -1</clus>
<clus scale="   93.938">  7  8 -1 -1</clus>
<clus scale="  104.020">  2  5  1 -1</clus>
<clus scale="   20.396">  1  5  2 -1</clus>
</clustering>
</event>
<event>
 9    1  0.1435532E-005  0.1634776E+03  0.7546771E-02  0.1185868E+00
         -2   -1    0    0    0  501 -0.00000000000E+00  0.00000000000E+00  0.15350345835E+03  0.15350345835E+03  0.00000000000E+00 0.  1.
          2   -1    0    0  502    0  0.00000000000E+00 -0.00000000000E+00 -0.68091977334E+03  0.68091977334E+03  0.00000000000E+00 0. -1.
         23    2    1    2    0    0 -0.10906473229E+03  0.80077480897E+02  0.84964536406E+02  0.17992513621E+03  0.82743963032E+02 0.  0.
         23    2    1    2    0    0  0.92110597345E+02 -0.12534621784E+03 -0.43421065164E+03  0.46988682464E+03  0.89770270692E+02 0.  0.
        -11    1    3    3    0    0 -0.18013665004E+02  0.32401007079E+02  0.65582941061E+02  0.75335513172E+02  0.00000000000E+00 0.  1.
         11    1    3    3    0    0 -0.91051067289E+02  0.47676473819E+02  0.19381595345E+02  0.10458962304E+03  0.00000000000E+00 0. -1.
        -11    1    4    4    0    0  0.56002925881E+02 -0.48240794758E+02 -0.31397708943E+03  0.32256024968E+03  0.00000000000E+00 0. -1.
         11    1    4    4    0    0  0.36107671464E+02 -0.77105423083E+02 -0.12023356221E+03  0.14732657496E+03  0.00000000000E+00 0.  1.
         21    1    1    2  502  501  0.16954134948E+02  0.45268736943E+02 -0.17817019976E+03  0.18461127084E+03  0.00000000000E+00 0. -1.
<scales pt_clust_5="13000.00000" pt_clust_6="13000.00000" pt_clust_7="13000.00000" pt_clust_8="13000.00000" pt_clust_9="48.33944"></scales>
<clustering>
<clus scale="   48.339">  2  9  1 -1</clus>
<clus scale="   82.744">  5  6 -1 -1</clus>
<clus scale="   89.770">  7  8 -1 -1</clus>
<clus scale="  159.727">  1  5  2 -1</clus>
<clus scale="   48.339">  2  5  1 -1</clus>
</clustering>
</event>
<event>
 9    1  0.1435532E-005  0.2038094E+03  0.7546771E-02  0.1147012E+00
         -2   -1    0    0    0  501 -0.00000000000E+00  0.00000000000E+00  0.29137401107E+02  0.29137401107E+02  0.00000000000E+00 0.  1.
          2   -1    0    0  502    0  0.00000000000E+00 -0.00000000000E+00 -0.17788028034E+04  0.17788028034E+04  0.00000000000E+00 0. -1.
         23    2    1    2    0    0  0.39578390495E+02  0.16999780548E+03 -0.65153032047E+03  0.68025069470E+03  0.88224408663E+02 0.  0.
         23    2    1    2    0    0 -0.84445644387E+02 -0.16915287790E+03 -0.93856293694E+03  0.96192747013E+03  0.93060777150E+02 0.  0.
        -11    1    4    4    0    0 -0.79583550606E+02 -0.99905570755E+02 -0.75398555035E+03  0.76472797433E+03  0.00000000000E+00 0.  1.
         11    1    4    4    0    0 -0.48620937815E+01 -0.69247307147E+02 -0.18457738659E+03  0.19719949580E+03  0.00000000000E+00 0. -1.
        -13    1    3    3    0    0 -0.22312026609E+02  0.62484083884E+02 -0.30642167861E+03  0.31352245916E+03  0.00000000000E+00 0.  1.
         13    1    3    3    0    0  0.61890417105E+02  0.10751372160E+03 -0.34510864186E+03  0.36672823555E+03  0.00000000000E+00 0. -1.
         21    1    1    2  502  501  0.44867253892E+02 -0.84492758161E+00 -0.15957214491E+03  0.16576203970E+03  0.00000000000E+00 0. -1.
<scales pt_clust_5="13000.00000" pt_clust_6="13000.00000" pt_clust_7="13000.00000" pt_clust_8="13000.00000" pt_clust_9="44.87521"></scales>
<clustering>
<clus scale="   44.875">  1  9  2 -1</clus>
<clus scale="   88.224">  7  8 -1 -1</clus>
<clus scale="   93.061">  5  6 -1 -1</clus>
<clus scale="  201.647">  1  7  2 -1</clus>
<clus scale="  203.809">  2  5  1 -1</clus>
</clustering>
</event>
<event>
 9    1  0.1435532E-005  0.1191136E+03  0.7546771E-02  0.1244950E+00
         -1   -1    0    0    0  501 -0.00000000000E+00  0.00000000000E+00  0.44192324758E+02  0.44192324758E+02  0.00000000000E+00 0.  1.
          1   -1    0    0  502    0  0.00000000000E+00 -0.00000000000E+00 -0.87047528778E+03  0.87047528778E+03  0.00000000000E+00 0. -1.
         23    2    1    2    0    0  0.90324426907E+01  0.99963439381E+02 -0.11227694512E+03  0.17681930268E+03  0.92653543697E+02 0.  0.
         23    2    1    2    0    0  0.10584520795E+02 -0.19947166654E+02 -0.28193009864E+03  0.29798807164E+03  0.93821046605E+02 0.  0.
        -11    1    4    4    0    0 -0.31354241086E+02  0.19772649921E+02 -0.13821108223E+03  0.14309559522E+03  0.00000000000E+00 0. -1.
         11    1    4    4    0    0  0.41938761880E+02 -0.39719816574E+02 -0.14371901640E+03  0.15489247642E+03  0.00000000000E+00 0.  1.
        -11    1    3    3    0    0  0.40270287142E+02  0.95438200144E+02 -0.74517301885E+02  0.12760475835E+03  0.00000000000E+00 0.  1.
         11    1    3    3    0    0 -0.31237844451E+02  0.45252392376E+01 -0.37759643235E+02  0.49214544327E+02  0.00000000000E+00 0. -1.
         21    1    1    2  502  501 -0.19616963486E+02 -0.80016272728E+02 -0.43207591926E+03  0.43986023822E+03  0.00000000000E+00 0. -1.
<scales pt_clust_5="13000.00000" pt_clust_6="13000.00000" pt_clust_7="13000.00000" pt_clust_8="13000.00000" pt_clust_9="82.38586"></scales>
<clustering>
<clus scale="   82.386">  2  9  1 -1</clus>
<clus scale="   92.654">  7  8 -1 -1</clus>
<clus scale="   93.821">  5  6 -1 -1</clus>
<clus scale="  118.196">  1  7  2 -1</clus>
<clus scale="   82.386">  2  5  1 -1</clus>
</clustering>
</event>
<event>
 9    1  0.1435532E-005  0.1057207E+03  0.7546771E-02  0.1270013E+00
          3   -1    0    0  502    0  0.00000000000E+00  0.00000000000E+00  0.42303867049E+03  0.42303867049E+03  0.00000000000E+00 0. -1.
         -3   -1    0    0    0  501 -0.00000000000E+00 -0.00000000000E+00 -0.81775394135E+02  0.81775394135E+02  0.00000000000E+00 0.  1.
         23    2    1    2    0    0 -0.50528606234E+02  0.38670930213E+02 -0.11938148442E+02  0.11192790444E+03  0.91305835038E+02 0.  0.
         23    2    1    2    0    0 -0.13144432201E+02  0.30037508611E+01  0.17814459791E+03  0.20200418747E+03  0.94278286877E+02 0.  0.
        -11    1    3    3    0    0 -0.57507221133E+02 -0.82667756712E+00 -0.33327506786E+02  0.66471697637E+02  0.00000000000E+00 0.  1.
         11    1    3    3    0    0  0.69786148990E+01  0.39497607780E+02  0.21389358344E+02  0.45456206800E+02  0.00000000000E+00 0. -1.
        -13    1    4    4    0    0  0.33183885740E+02  0.25703551500E+02  0.61486550847E+02  0.74447557164E+02  0.00000000000E+00 0. -1.
         13    1    4    4    0    0 -0.46328317942E+02 -0.22699800638E+02  0.11665804706E+03  0.12755663031E+03  0.00000000000E+00 0.  1.
         21    1    1    2  502  501  0.63673038435E+02 -0.41674681074E+02  0.17505682689E+03  0.19088197271E+03  0.00000000000E+00 0. -1.
<scales pt_clust_5="13000.00000" pt_clust_6="13000.00000" pt_clust_7="13000.00000" pt_clust_8="13000.00000" pt_clust_9="76.09885"></scales>
<clustering>
<clus scale="   76.099">  1  9  2 -1</clus>
<clus scale="   91.306">  5  6 -1 -1</clus>
<clus scale="   94.278">  7  8 -1 -1</clus>
<clus scale="  103.079">  2  5  1 -1</clus>
<clus scale="   76.099">  1  5  2 -1</clus>
</clustering>
</event>
<event>
 9    1  0.1435532E-005  0.1448247E+03  0.7546771E-02  0.1207901E+00
          2   -1    0    0  502    0  0.00000000000E+00  0.00000000000E+00  0.47270040734E+03  0.47270040734E+03  0.00000000000E+00 0. -1.
         -2   -1    0    0    0  501 -0.00000000000E+00 -0.00000000000E+00 -0.45582080436E+03  0.45582080436E+03  0.00000000000E+00 0.  1.
         23    2    1    2    0    0  0.96771890707E+01 -0.10861720711E+03 -0.42301261641E+03  0.44621913165E+03  0.90997220498E+02 0.  0.
         23    2    1    2    0    0 -0.33175810293E+02  0.10467945993E+03  0.43405447755E+03  0.45777107350E+03  0.95355348734E+02 0.  0.
        -11    1    3    3    0    0 -0.27386021778E+02 -0.93174222214E+02 -0.24102333253E+03  0.25985318296E+03  0.00000000000E+00 0.  1.
         11    1    3    3    0    0  0.37063210849E+02 -0.15442984897E+02 -0.18198928388E+03  0.18636594869E+03  0.00000000000E+00 0. -1.
        -13    1    4    4    0    0 -0.12566520453E+02  0.11836219807E+03  0.38244190636E+03  0.40053631434E+03  0.00000000000E+00 0. -1.
         13    1    4    4    0    0 -0.20609289840E+02 -0.13682738141E+02  0.51612571198E+02  0.57234759163E+02  0.00000000000E+00 0.  1.
         21    1    1    2  502  501  0.23498621223E+02  0.39377471838E+01  0.58377418405E+01  0.24531006544E+02  0.00000000000E+00 0. -1.
<scales pt_clust_5="13000.00000" pt_clust_6="13000.00000" pt_clust_7="13000.00000" pt_clust_8="13000.00000" pt_clust_9="23.82627"></scales>
<clustering>
<clus scale="   23.826">  1  9  2 -1</clus>
<clus scale="   90.997">  5  6 -1 -1</clus>
<clus scale="   95.355">  7  8 -1 -1</clus>
<clus scale="  141.993">  2  5  1 -1</clus>
<clus scale="   23.826">  1  5  2 -1</clus>
</clustering>
</event>
<event>
 9    1  0.1435532E-005  0.1064789E+03  0.7546771E-02  0.1269473E+00
         -1   -1    0    0    0  501 -0.00000000000E+00  0.00000000000E+00  0.35069790851E+02  0.35069790851E+02  0.00000000000E+00 0.  1.
          1   -1    0    0  502    0  0.00000000000E+00 -0.00000000000E+00 -0.49745005927E+03  0.49745005927E+03  0.00000000000E+00 0. -1.
         23    2    1    2    0    0 -0.10135412897E+02  0.32252655894E+02 -0.14276310820E+03  0.17148536918E+03  0.88786070814E+02 0.  0.
         23    2    1    2    0    0 -0.16450748805E+01 -0.77079544392E+02 -0.22889899211E+03  0.25916193387E+03  0.93947841591E+02 0.  0.
        -11    1    4    4    0    0  0.16823415036E+02 -0.28410545784E+02 -0.19329634226E+03  0.19609605385E+03  0.00000000000E+00 0. -1.
         11    1    4    4    0    0 -0.18468489916E+02 -0.48668998608E+02 -0.35602649852E+02  0.63065880013E+02  0.00000000000E+00 0.  1.
        -13    1    3    3    0    0  0.32551018310E+02 -0.10050922976E+02 -0.62936975746E+02  0.71565723372E+02  0.00000000000E+00 0.  1.
         13    1    3    3    0    0 -0.42686431207E+02  0.42303578870E+02 -0.79826132458E+02  0.99919645805E+02  0.00000000000E+00 0. -1.
         21    1    1    2  502  501  0.11780487777E+02  0.44826888498E+02 -0.90718168104E+02  0.10187254708E+03  0.00000000000E+00 0. -1.
<scales pt_clust_5="13000.00000" pt_clust_6="13000.00000" pt_clust_7="13000.00000" pt_clust_8="13000.00000" pt_clust_9="46.34900"></scales>
<clustering>
<clus scale="   46.349">  2  9  1 -1</clus>
<clus scale="   88.786">  7  8 -1 -1</clus>
<clus scale="   93.948">  5  6 -1 -1</clus>
<clus scale="  101.954">  1  7  2 -1</clus>
<clus scale="   46.349">  2  5  1 -1</clus>
</clustering>
</event>
<event>
 9    1  0.1435532E-005  0.1266851E+03  0.7546771E-02  0.1232779E+00
          1   -1    0    0  502    0  0.00000000000E+00  0.00000000000E+00  0.14177061680E+03  0.14177061680E+03  0.00000000000E+00 0. -1.
         -1   -1    0    0    0  501 -0.00000000000E+00 -0.00000000000E+00 -0.20172114498E+03  0.20172114498E+03  0.00000000000E+00 0.  1.
         23    2    1    2    0    0 -0.24393157089E+02  0.80742528227E+02 -0.11261659998E+03  0.16848002764E+03  0.92674911082E+02 0.  0.
         23    2    1    2    0    0  0.79121205535E+01 -0.92723419133E+02  0.13971724017E+02  0.13128052261E+03  0.91537601219E+02 0.  0.
        -11    1    4    4    0    0  0.42625474819E-01 -0.23858219661E+02 -0.37846380298E+02  0.44738852957E+02  0.00000000000E+00 0.  1.
         11    1    4    4    0    0  0.78694950787E+01 -0.68865199473E+02  0.51818104315E+02  0.86541669651E+02  0.00000000000E+00 0. -1.
        -13    1    3    3    0    0 -0.23559029740E+02  0.54367928526E+02 -0.12574550761E+03  0.13900659056E+03  0.00000000000E+00 0.  1.
         13    1    3    3    0    0 -0.83412734883E+00  0.26374599701E+02  0.13128907628E+02  0.29473437081E+02  0.00000000000E+00 0. -1.
         21    1    1    2  502  501  0.16481036535E+02  0.11980890906E+02  0.38694347780E+02  0.43731211535E+02  0.00000000000E+00 0.  1.
<scales pt_clust_5="13000.00000" pt_clust_6="13000.00000" pt_clust_7="13000.00000" pt_clust_8="13000.00000" pt_clust_9="20.37563"></scales>
<clustering>
<clus scale="   20.376">  1  9  2 -1</clus>
<clus scale="   91.538">  5  6 -1 -1</clus>
<clus scale="   92.675">  7  8 -1 -1</clus>
<clus scale="  125.856">  1  5  2 -1</clus>
<clus scale="   20.376">  1  5  2 -1</clus>
</clustering>
</event>
<event>
 9    1  0.1435532E-005  0.9450066E+02  0.7546771E-02  0.1293900E+00
          1   -1    0    0  502    0  0.00000000000E+00  0.00000000000E+00  0.10635711564E+03  0.10635711564E+03  0.00000000000E+00 0. -1.
         -1   -1    0    0    0  501 -0.00000000000E+00 -0.00000000000E+00 -0.21947234693E+03  0.21947234693E+03  0.00000000000E+00 0.  1.
         23    2    1    2    0    0  0.13939522420E+02 -0.70530708889E+01 -0.16729224185E+03  0.19102237601E+03  0.90877928344E+02 0.  0.
         23    2    1    2    0    0  0.42752010487E+01 -0.11961984148E+02  0.53170545958E+02  0.10845634766E+03  0.93671265510E+02 0.  0.
        -11    1    4    4    0    0 -0.25467553339E+02 -0.33355713951E+02  0.57905455348E+02  0.71513926514E+02  0.00000000000E+00 0.  1.
         11    1    4    4    0    0  0.29742754388E+02  0.21393729803E+02 -0.47349093901E+01  0.36942421150E+02  0.00000000000E+00 0. -1.
        -13    1    3    3    0    0  0.38360899722E+02 -0.15830158495E+02 -0.15815677044E+03  0.16351060082E+03  0.00000000000E+00 0.  1.
         13    1    3    3    0    0 -0.24421377302E+02  0.87770876064E+01 -0.91354714088E+01  0.27511775189E+02  0.00000000000E+00 0. -1.
         21    1    1    2  502  501 -0.18214723468E+02  0.19015055037E+02  0.10064645948E+01  0.26350738890E+02  0.00000000000E+00 0. -1.
<scales pt_clust_5="13000.00000" pt_clust_6="13000.00000" pt_clust_7="13000.00000" pt_clust_8="13000.00000" pt_clust_9="26.33151"></scales>
<clustering>
<clus scale="   26.332">  1  9  2 -1</clus>
<clus scale="   90.878">  7  8 -1 -1</clus>
<clus scale="   91.733">  2  7  1 -1</clus>
<clus scale="   93.671">  5  6 -1 -1</clus>
<clus scale="   26.332">  1  5  2 -1</clus>
</clustering>
</event>
<event>
 9    1  0.1435532E-005  0.9690197E+02  0.7546771E-02  0.1289537E+00
          2   -1    0    0  502    0  0.00000000000E+00  0.00000000000E+00  0.16713528915E+03  0.16713528915E+03  0.00000000000E+00 0. -1.
         -2   -1    0    0    0  501 -0.00000000000E+00 -0.00000000000E+00 -0.22334202057E+03  0.22334202057E+03  0.00000000000E+00 0.  1.
         23    2    1    2    0    0  0.11687783473E+02 -0.29129864414E+01 -0.18083778553E+03  0.20053270030E+03  0.85825226124E+02 0.  0.
         23    2    1    2    0    0 -0.35847723965E+02  0.19488404838E-04  0.13233591323E+03  0.16441907407E+03  0.90751191030E+02 0.  0.
        -11    1    4    4    0    0 -0.34510342988E+02  0.23787867033E+02  0.13412976493E+03  0.14052622613E+03  0.00000000000E+00 0. -1.
         11    1    4    4    0    0 -0.13373809769E+01 -0.23787847545E+02 -0.17938516956E+01  0.23892847938E+02  0.00000000000E+00 0.  1.
        -13    1    3    3    0    0 -0.31784589803E+02  0.18711302874E+02 -0.61740107974E+02  0.71918105765E+02  0.00000000000E+00 0. -1.
         13    1    3    3    0    0  0.43472373275E+02 -0.21624289315E+02 -0.11909767756E+03  0.12861459453E+03  0.00000000000E+00 0.  1.
         21    1    1    2  502  501  0.24159940492E+02  0.29129669530E+01 -0.77048591199E+01  0.25525535354E+02  0.00000000000E+00 0.  1.
<scales pt_clust_5="13000.00000" pt_clust_6="13000.00000" pt_clust_7="13000.00000" pt_clust_8="13000.00000" pt_clust_9="24.33492"></scales>
<clustering>
<clus scale="   24.335">  2  9  1 -1</clus>
<clus scale="   85.825">  7  8 -1 -1</clus>
<clus scale="   90.751">  5  6 -1 -1</clus>
<clus scale="   92.305">  2  7  1 -1</clus>
<clus scale="   96.902">  1  5  2 -1</clus>
</clustering>
</event>
<event>
 9    1  0.1435532E-005  0.2341150E+03  0.7546771E-02  0.1123978E+00
          2   -1    0    0  502    0  0.00000000000E+00  0.00000000000E+00  0.25514433862E+03  0.25514433862E+03  0.00000000000E+00 0. -1.
         -2   -1    0    0    0  501 -0.00000000000E+00 -0.00000000000E+00 -0.52556051832E+03  0.52556051832E+03  0.00000000000E+00 0.  1.
         23    2    1    2    0    0 -0.10849978612E+03  0.25141983147E+03 -0.30492959105E+03  0.41922837839E+03  0.88239687796E+02 0.  0.
         23    2    1    2    0    0  0.59977424530E+02 -0.19584869530E+03  0.11523438860E+03  0.25212179454E+03  0.91282156318E+02 0.  0.
        -11    1    4    4    0    0  0.34710539773E+02 -0.91828822033E+02  0.10631318470E+03  0.14470607233E+03  0.00000000000E+00 0. -1.
         11    1    4    4    0    0  0.25266884758E+02 -0.10401987327E+03  0.89212039034E+01  0.10741572221E+03  0.00000000000E+00 0.  1.
        -13    1    3    3    0    0 -0.81905144961E+02  0.19730640283E+03 -0.28405232787E+03  0.35542086931E+03  0.00000000000E+00 0.  1.
         13    1    3    3    0    0 -0.26594641159E+02  0.54113428637E+02 -0.20877263181E+02  0.63807509081E+02  0.00000000000E+00 0. -1.
         21    1    1    2  502  501  0.48522361590E+02 -0.55571136167E+02 -0.80720977251E+02  0.10935468402E+03  0.00000000000E+00 0. -1.
<scales pt_clust_5="13000.00000" pt_clust_6="13000.00000" pt_clust_7="13000.00000" pt_clust_8="13000.00000" pt_clust_9="73.77378"></scales>
<clustering>
<clus scale="   73.774">  2  9  1 -1</clus>
<clus scale="   88.240">  7  8 -1 -1</clus>
<clus scale="   91.282">  5  6 -1 -1</clus>
<clus scale="  232.946">  2  7  1 -1</clus>
<clus scale="  234.115">  1  5  2 -1</clus>
</clustering>
</event>
<event>
 9    1  0.1435532E-005  0.1824197E+03  0.7546771E-02  0.1166400E+00
          1   -1    0    0  502    0  0.00000000000E+00  0.00000000000E+00  0.22234782538E+03  0.22234782538E+03  0.00000000000E+00 0. -1.
         -1   -1    0    0    0  501 -0.00000000000E+00 -0.00000000000E+00 -0.37740368274E+03  0.37740368274E+03  0.00000000000E+00 0.  1.
         23    2    1    2    0    0 -0.99455233663E+02 -0.12220498267E+03 -0.30479900010E+03  0.35494233154E+03  0.90863782504E+02 0.  0.
         23    2    1    2    0    0  0.85033231919E+02  0.94915485410E+02  0.13746303073E+03  0.21159002629E+03  0.98156275944E+02 0.  0.
        -11    1    3    3    0    0 -0.98643993443E+02 -0.63403937755E+02 -0.24196414812E+03  0.26888165750E+03  0.00000000000E+00 0.  1.
         11    1    3    3    0    0 -0.81124021948E+00 -0.58801044917E+02 -0.62834851972E+02  0.86060674041E+02  0.00000000000E+00 0. -1.
        -13    1    4    4    0    0  0.45105057041E+02  0.15030072951E+02  0.10724032195E+03  0.11730667464E+03  0.00000000000E+00 0.  1.
         13    1    4    4    0    0  0.39928174878E+02  0.79885412459E+02  0.30222708786E+02  0.94283351654E+02  0.00000000000E+00 0. -1.
         21    1    1    2  502  501  0.14422001744E+02  0.27289497262E+02  0.12280111997E+02  0.33219150286E+02  0.00000000000E+00 0. -1.
<scales pt_clust_5="13000.00000" pt_clust_6="13000.00000" pt_clust_7="13000.00000" pt_clust_8="13000.00000" pt_clust_9="30.86601"></scales>
<clustering>
<clus scale="   30.866">  1  9  2 -1</clus>
<clus scale="   90.864">  5  6 -1 -1</clus>
<clus scale="   98.156">  7  8 -1 -1</clus>
<clus scale="  178.602">  2  5  1 -1</clus>
<clus scale="   30.866">  1  5  2 -1</clus>
</clustering>
</event>
<event>
 9    1  0.1435532E-005  0.1853809E+03  0.7546771E-02  0.1162906E+00
          1   -1    0    0  502    0  0.00000000000E+00  0.00000000000E+00  0.33541661628E+03  0.33541661628E+03  0.00000000000E+00 0. -1.
         -1   -1    0    0    0  501 -0.00000000000E+00 -0.00000000000E+00 -0.19687743200E+03  0.19687743200E+03  0.00000000000E+00 0.  1.
         23    2    1    2    0    0  0.10735920966E+03 -0.10773409372E+03 -0.48282010993E+02  0.18451253179E+03  0.92634156524E+02 0.  0.
         23    2    1    2    0    0 -0.12450549471E+03  0.12429625911E+03  0.43777772808E+02  0.20276523766E+03  0.90807873931E+02 0.  0.
        -13    1    3    3    0    0  0.87922893693E+02 -0.98992545794E+02 -0.73549248389E+02  0.15145775416E+03  0.00000000000E+00 0.  1.
         13    1    3    3    0    0  0.19436315966E+02 -0.87415479272E+01  0.25267237396E+02  0.33054777629E+02  0.00000000000E+00 0. -1.
        -13    1    4    4    0    0 -0.54152040379E+02  0.82595266149E+01 -0.11954415110E+02  0.56067560120E+02  0.00000000000E+00 0.  1.
         13    1    4    4    0    0 -0.70353454331E+02  0.11603673250E+03  0.55732187918E+02  0.14669767754E+03  0.00000000000E+00 0. -1.
         21    1    1    2  502  501  0.17146285052E+02 -0.16562165389E+02  0.14304342247E+03  0.14501627883E+03  0.00000000000E+00 0. -1.
<scales pt_clust_5="13000.00000" pt_clust_6="13000.00000" pt_clust_7="13000.00000" pt_clust_8="13000.00000" pt_clust_9="23.83905"></scales>
<clustering>
<clus scale="   23.839">  1  9  2 -1</clus>
<clus scale="   90.808">  7  8 -1 -1</clus>
<clus scale="   92.634">  5  6 -1 -1</clus>
<clus scale="  184.475">  1  7  2 -1</clus>
<clus scale="   23.839">  1  5  2 -1</clus>
</clustering>
</event>
<event>
 9    1  0.1435532E-005  0.2121002E+03  0.7546771E-02  0.1141552E+00
          1   -1    0    0  502    0  0.00000000000E+00  0.00000000000E+00  0.41544962597E+03  0.41544962597E+03  0.00000000000E+00 0. -1.
         -1   -1    0    0    0  501 -0.00000000000E+00 -0.00000000000E+00 -0.26685086186E+03  0.26685086186E+03  0.00000000000E+00 0.  1.
         23    2    1    2    0    0  0.17350711112E+03 -0.64603816133E+02 -0.17863995381E+03  0.27947424998E+03  0.10915700910E+03 0.  0.
         23    2    1    2    0    0 -0.15927386495E+03  0.29905257317E+02  0.30954013998E+03  0.36135558628E+03  0.92196925120E+02 0.  0.
        -11    1    3    3    0    0  0.15813077186E+03 -0.88524398187E+02 -0.17288410249E+03  0.25046122050E+03  0.00000000000E+00 0.  1.
         11    1    3    3    0    0  0.15376339269E+02  0.23920582055E+02 -0.57558513181E+01  0.29013029479E+02  0.00000000000E+00 0. -1.
        -11    1    4    4    0    0 -0.76474728677E+02  0.18068799231E+01  0.23270637490E+03  0.24495694695E+03  0.00000000000E+00 0. -1.
         11    1    4    4    0    0 -0.82799136272E+02  0.28098377393E+02  0.76833765081E+02  0.11639863932E+03  0.00000000000E+00 0.  1.
         21    1    1    2  502  501 -0.14233246176E+02  0.34698558816E+02  0.17698577932E+02  0.41470651568E+02  0.00000000000E+00 0.  1.
<scales pt_clust_5="13000.00000" pt_clust_6="13000.00000" pt_clust_7="13000.00000" pt_clust_8="13000.00000" pt_clust_9="37.50434"></scales>
<clustering>
<clus scale="   37.504">  1  9  2 -1</clus>
<clus scale="   92.197">  7  8 -1 -1</clus>
<clus scale="  109.157">  5  6 -1 -1</clus>
<clus scale="  203.891">  1  7  2 -1</clus>
<clus scale="   37.504">  1  5  2 -1</clus>
</clustering>
</event>
<event>
 9    1  0.1435532E-005  0.1234009E+03  0.7546771E-02  0.1238111E+00
         -1   -1    0    0    0  501 -0.00000000000E+00  0.00000000000E+00  0.11478548733E+03  0.11478548733E+03  0.00000000000E+00 0.  1.
          1   -1    0    0  502    0  0.00000000000E+00 -0.00000000000E+00 -0.24658409009E+03  0.24658409009E+03  0.00000000000E+00 0. -1.
         23    2    1    2    0    0  0.24886106476E+02 -0.84859069161E+02  0.42873601503E+02  0.13421413973E+03  0.91405195054E+02 0.  0.
         23    2    1    2    0    0 -0.25882652166E+02  0.49141441546E+02 -0.14254129660E+03  0.17910195444E+03  0.93138047485E+02 0.  0.
        -13    1    4    4    0    0 -0.21066904297E+02  0.13060358118E+02  0.65447874417E+01  0.25636334635E+02  0.00000000000E+00 0.  1.
         13    1    4    4    0    0 -0.48157478682E+01  0.36081083428E+02 -0.14908608404E+03  0.15346561981E+03  0.00000000000E+00 0. -1.
        -13    1    3    3    0    0 -0.14913256702E+02 -0.34626695163E+02  0.57235112178E+02  0.68536642093E+02  0.00000000000E+00 0.  1.
         13    1    3    3    0    0  0.39799363178E+02 -0.50232373998E+02 -0.14361510675E+02  0.65677497636E+02  0.00000000000E+00 0. -1.
         21    1    1    2  502  501  0.99654568906E+00  0.35717627615E+02 -0.32130907663E+02  0.48053483256E+02  0.00000000000E+00 0. -1.
<scales pt_clust_5="13000.00000" pt_clust_6="13000.00000" pt_clust_7="13000.00000" pt_clust_8="13000.00000" pt_clust_9="35.73153"></scales>
<clustering>
<clus scale="   35.732">  2  9  1 -1</clus>
<clus scale="   91.405">  7  8 -1 -1</clus>
<clus scale="   93.138">  5  6 -1 -1</clus>
<clus scale="  122.098">  1  7  2 -1</clus>
<clus scale="   35.732">  2  5  1 -1</clus>
</clustering>
</event>
<event>
 9    1  0.1435532E-005  0.1054173E+03  0.7546771E-02  0.1275822E+00
         -2   -1    0    0    0  501 -0.00000000000E+00  0.00000000000E+00  0.16599591557E+03  0.16599591557E+03  0.00000000000E+00 0.  1.
          2   -1    0    0  502    0  0.00000000000E+00 -0.00000000000E+00 -0.12895639587E+03  0.12895639587E+03  0.00000000000E+00 0. -1.
         23    2    1    2    0    0  0.19840886246E+02 -0.14609119311E+01  0.96713901164E+02  0.14240630778E+03  0.10261667889E+03 0.  0.
         23    2    1    2    0    0 -0.33283109889E+02 -0.14659060720E+02 -0.85101585535E+01  0.97243882530E+02  0.89784722675E+02 0.  0.
        -11    1    4    4    0    0 -0.26145633491E+01 -0.40567442926E+02  0.22547374344E+02  0.46485884490E+02  0.00000000000E+00 0. -1.
         11    1    4    4    0    0 -0.30668546540E+02  0.25908382206E+02 -0.31057532897E+02  0.50757998040E+02  0.00000000000E+00 0.  1.
        -11    1    3    3    0    0  0.44404515128E+02  0.97346382050E+01  0.10479326429E+03  0.11422850951E+03  0.00000000000E+00 0.  1.
         11    1    3    3    0    0 -0.24563628882E+02 -0.11195550136E+02 -0.80793631275E+01  0.28177798268E+02  0.00000000000E+00 0. -1.
         21    1    1    2  502  501  0.13442223643E+02  0.16119972651E+02 -0.51164222915E+02  0.55302121128E+02  0.00000000000E+00 0. -1.
<scales pt_clust_5="13000.00000" pt_clust_6="13000.00000" pt_clust_7="13000.00000" pt_clust_8="13000.00000" pt_clust_9="20.98921"></scales>
<clustering>
<clus scale="   20.989">  2  9  1 -1</clus>
<clus scale="   89.785">  5  6 -1 -1</clus>
<clus scale="   92.973">  2  5  1 -1</clus>
<clus scale="  102.617">  7  8 -1 -1</clus>
<clus scale="   20.989">  2  5  1 -1</clus>
</clustering>
</event>
<event>
 9    1  0.1435532E-005  0.1304536E+03  0.7546771E-02  0.1242935E+00
          1   -1    0    0  502    0  0.00000000000E+00  0.00000000000E+00  0.77020616448E+03  0.77020616448E+03  0.00000000000E+00 0. -1.
         -1   -1    0    0    0  501 -0.00000000000E+00 -0.00000000000E+00 -0.20211049227E+03  0.20211049227E+03  0.00000000000E+00 0.  1.
         23    2    1    2    0    0 -0.37231788927E+02  0.88715051122E+01 -0.17338689005E+03  0.19708913425E+03  0.85534808637E+02 0.  0.
         23    2    1    2    0    0 -0.16897158438E+02  0.79093499555E+02  0.37866526931E+03  0.39799526903E+03  0.92041036261E+02 0.  0.
        -13    1    4    4    0    0  0.15465245668E+02 -0.13977389400E+02  0.10699975940E+03  0.10901142027E+03  0.00000000000E+00 0. -1.
         13    1    4    4    0    0 -0.32362404105E+02  0.93070888955E+02  0.27166550991E+03  0.28898384876E+03  0.00000000000E+00 0.  1.
        -13    1    3    3    0    0 -0.28411883414E+02  0.30531417369E+02 -0.16798732079E+03  0.17308709516E+03  0.00000000000E+00 0.  1.
         13    1    3    3    0    0 -0.88199055125E+01 -0.21659912257E+02 -0.53995692630E+01  0.24002039090E+02  0.00000000000E+00 0. -1.
         21    1    1    2  502  501  0.54128947364E+02 -0.87965004667E+02  0.36281729295E+03  0.37723225347E+03  0.00000000000E+00 0. -1.
<scales pt_clust_5="13000.00000" pt_clust_6="13000.00000" pt_clust_7="13000.00000" pt_clust_8="13000.00000" pt_clust_9="92.44782"></scales>
<clustering>
<clus scale="   85.535">  7  8 -1 -1</clus>
<clus scale="   92.041">  5  6 -1 -1</clus>
<clus scale="   93.708">  2  7  1 -1</clus>
<clus scale="   92.448">  2  9  1 -1</clus>
<clus scale="  130.454">  1  5  2 -1</clus>
</clustering>
</event>
<event>
 9    1  0.1435532E-005  0.1495331E+03  0.7546771E-02  0.1201444E+00
         -2   -1    0    0    0  501 -0.00000000000E+00  0.00000000000E+00  0.13325966830E+03  0.13325966830E+03  0.00000000000E+00 0.  1.
          2   -1    0    0  502    0  0.00000000000E+00 -0.00000000000E+00 -0.39916080225E+03  0.39916080225E+03  0.00000000000E+00 0. -1.
         23    2    1    2    0    0 -0.11919436060E+03  0.55865630257E+02  0.32762604774E+02  0.16399287220E+03  0.92152100455E+02 0.  0.
         23    2    1    2    0    0  0.60230990714E+02 -0.72896707643E+02 -0.11235207900E+03  0.17226753325E+03  0.90063372854E+02 0.  0.
        -11    1    4    4    0    0  0.12648233183E+02 -0.48495117542E+02 -0.10745636974E+03  0.11856907533E+03  0.00000000000E+00 0. -1.
         11    1    4    4    0    0  0.47582757531E+02 -0.24401590101E+02 -0.48957092602E+01  0.53698457919E+02  0.00000000000E+00 0.  1.
        -13    1    3    3    0    0 -0.70408445984E+02  0.79725824497E+02  0.20680947120E+02  0.10835708528E+03  0.00000000000E+00 0.  1.
         13    1    3    3    0    0 -0.48785914619E+02 -0.23860194240E+02  0.12081657655E+02  0.55635786919E+02  0.00000000000E+00 0. -1.
         21    1    1    2  502  501  0.58963369889E+02  0.17031077386E+02 -0.18631165972E+03  0.19616006509E+03  0.00000000000E+00 0.  1.
<scales pt_clust_5="13000.00000" pt_clust_6="13000.00000" pt_clust_7="13000.00000" pt_clust_8="13000.00000" pt_clust_9="61.37375"></scales>
<clustering>
<clus scale="   61.374">  2  9  1 -1</clus>
<clus scale="   90.063">  5  6 -1 -1</clus>
<clus scale="   92.152">  7  8 -1 -1</clus>
<clus scale="  148.255">  2  5  1 -1</clus>
<clus scale="   61.374">  2  5  1 -1</clus>
</clustering>
</event>
<event>
 9    1  0.1435532E-005  0.1063383E+03  0.7546771E-02  0.1268871E+00
         -1   -1    0    0    0  501 -0.00000000000E+00  0.00000000000E+00  0.58652982394E+02  0.58652982394E+02  0.00000000000E+00 0.  1.
          1   -1    0    0  502    0  0.00000000000E+00 -0.00000000000E+00 -0.34166105078E+03  0.34166105078E+03  0.00000000000E+00 0. -1.
         23    2    1    2    0    0  0.52128668680E+02  0.27161331048E+02 -0.29865915825E+02  0.11524548625E+03  0.94522024795E+02 0.  0.
         23    2    1    2    0    0 -0.46736223441E+02 -0.47018341630E+01 -0.23208754769E+03  0.25381468552E+03  0.91383165664E+02 0.  0.
        -11    1    4    4    0    0  0.95203489148E+00  0.38282565884E+02 -0.95463737613E+02  0.10285808874E+03  0.00000000000E+00 0.  1.
         11    1    4    4    0    0 -0.47688258333E+02 -0.42984400047E+02 -0.13662381008E+03  0.15095659678E+03  0.00000000000E+00 0. -1.
        -13    1    3    3    0    0  0.22009028993E+02  0.38056987367E+02  0.25835096289E+02  0.50991997852E+02  0.00000000000E+00 0.  1.
         13    1    3    3    0    0  0.30119639687E+02 -0.10895656319E+02 -0.55701012113E+02  0.64253488403E+02  0.00000000000E+00 0. -1.
         21    1    1    2  502  501 -0.53924452384E+01 -0.22459496885E+02 -0.21054604865E+02  0.31253861394E+02  0.00000000000E+00 0. -1.
<scales pt_clust_5="13000.00000" pt_clust_6="13000.00000" pt_clust_7="13000.00000" pt_clust_8="13000.00000" pt_clust_9="23.09778"></scales>
<clustering>
<clus scale="   23.098">  1  9  2 -1</clus>
<clus scale="   91.383">  5  6 -1 -1</clus>
<clus scale="   94.522">  7  8 -1 -1</clus>
<clus scale="  103.558">  2  5  1 -1</clus>
<clus scale="  103.558">  2  5  1 -1</clus>
</clustering>
</event>
<event>
 9    1  0.1435532E-005  0.9752766E+02  0.7546771E-02  0.1287053E+00
         -1   -1    0    0    0  501 -0.00000000000E+00  0.00000000000E+00  0.23479809333E+03  0.23479809333E+03  0.00000000000E+00 0.  1.
          1   -1    0    0  502    0  0.00000000000E+00 -0.00000000000E+00 -0.11111421182E+03  0.11111421182E+03  0.00000000000E+00 0. -1.
         23    2    1    2    0    0 -0.30143853184E+02 -0.14430463386E+02  0.91789592695E+02  0.13334347806E+03  0.90764881187E+02 0.  0.
         23    2    1    2    0    0 -0.34432639932E+02  0.45879515361E+02  0.71084490436E+02  0.13074561377E+03  0.93546106903E+02 0.  0.
        -13    1    3    3    0    0 -0.47861372911E+02  0.99526994081E+01  0.15449007612E+02  0.51268304815E+02  0.00000000000E+00 0. -1.
         13    1    3    3    0    0  0.17717519727E+02 -0.24383162794E+02  0.76340585082E+02  0.82075173249E+02  0.00000000000E+00 0.  1.
        -13    1    4    4    0    0  0.29233581456E+02 -0.11724614504E+01  0.10600205714E+02  0.31118182977E+02  0.00000000000E+00 0.  1.
         13    1    4    4    0    0 -0.63666221388E+02  0.47051976811E+02  0.60484284722E+02  0.99627430791E+02  0.00000000000E+00 0. -1.
         21    1    1    2  502  501  0.64576493116E+02 -0.31449051975E+02 -0.39190201622E+02  0.81823213311E+02  0.00000000000E+00 0. -1.
<scales pt_clust_5="13000.00000" pt_clust_6="13000.00000" pt_clust_7="13000.00000" pt_clust_8="13000.00000" pt_clust_9="71.82734"></scales>
<clustering>
<clus scale="   71.827">  2  9  1 -1</clus>
<clus scale="   90.765">  5  6 -1 -1</clus>
<clus scale="   93.546">  7  8 -1 -1</clus>
<clus scale="   94.863">  1  5  2 -1</clus>
<clus scale="   71.827">  2  5  1 -1</clus>
</clustering>
</event>
<event>
 9    1  0.1435532E-005  0.1851394E+03  0.7546771E-02  0.1163412E+00
          1   -1    0    0  502    0  0.00000000000E+00  0.00000000000E+00  0.45939556049E+03  0.45939556049E+03  0.00000000000E+00 0. -1.
         -1   -1    0    0    0  501 -0.00000000000E+00 -0.00000000000E+00 -0.27221708286E+03  0.27221708286E+03  0.00000000000E+00 0.  1.
         23    2    1    2    0    0  0.14303814406E+03 -0.85687117923E+02 -0.18209222866E+03  0.26285763901E+03  0.90190719098E+02 0.  0.
         23    2    1    2    0    0 -0.14041116364E+03  0.41955852773E+02  0.10237656829E+03  0.19828909989E+03  0.85802196615E+02 0.  0.
        -13    1    4    4    0    0 -0.84093830878E+02 -0.19578820344E+02  0.49482489419E+02  0.99516930001E+02  0.00000000000E+00 0.  1.
         13    1    4    4    0    0 -0.56317332761E+02  0.61534673117E+02  0.52894078876E+02  0.98772169891E+02  0.00000000000E+00 0. -1.
        -13    1    3    3    0    0  0.13555324206E+03 -0.37875412230E+02 -0.14302714642E+03  0.20066388040E+03  0.00000000000E+00 0.  1.
         13    1    3    3    0    0  0.74849020031E+01 -0.47811705692E+02 -0.39065082241E+02  0.62193758607E+02  0.00000000000E+00 0. -1.
         21    1    1    2  502  501 -0.26269804238E+01  0.43731265149E+02  0.26689413799E+03  0.27046590445E+03  0.00000000000E+00 0. -1.
<scales pt_clust_5="13000.00000" pt_clust_6="13000.00000" pt_clust_7="13000.00000" pt_clust_8="13000.00000" pt_clust_9="43.81010"></scales>
<clustering>
<clus scale="   43.810">  1  9  2 -1</clus>
<clus scale="   85.802">  5  6 -1 -1</clus>
<clus scale="   90.191">  7  8 -1 -1</clus>
<clus scale="  183.042">  1  5  2 -1</clus>
<clus scale="   43.810">  1  5  2 -1</clus>
</clustering>
</event>
<event>
 9    1  0.1435532E-005  0.1141473E+03  0.7546771E-02  0.1253957E+00
          4   -1    0    0  502    0  0.00000000000E+00  0.00000000000E+00  0.15228359072E+03  0.15228359072E+03  0.00000000000E+00 0. -1.
         -4   -1    0    0    0  501 -0.00000000000E+00 -0.00000000000E+00 -0.16435721194E+03  0.16435721194E+03  0.00000000000E+00 0.  1.
         23    2    1    2    0    0 -0.18626838204E+02 -0.63612898014E+02 -0.85481023596E+02  0.14235065565E+03  0.92537256672E+02 0.  0.
         23    2    1    2    0    0  0.48789743768E+02  0.38453892033E+02  0.73200155013E+02  0.13501140715E+03  0.94924583000E+02 0.  0.
        -11    1    4    4    0    0  0.39374576951E+02 -0.14792503070E+02 -0.23241773370E+01  0.42125731536E+02  0.00000000000E+00 0.  1.
         11    1    4    4    0    0  0.94151668170E+01  0.53246395103E+02  0.75524332350E+02  0.92885675615E+02  0.00000000000E+00 0. -1.
        -11    1    3    3    0    0 -0.50525046139E+02 -0.33303266607E+02 -0.20536220569E+02  0.63903240992E+02  0.00000000000E+00 0.  1.
         11    1    3    3    0    0  0.31898207935E+02 -0.30309631407E+02 -0.64944803027E+02  0.78447414653E+02  0.00000000000E+00 0. -1.
         21    1    1    2  502  501 -0.30162905564E+02  0.25159005982E+02  0.20724736235E+00  0.39278739867E+02  0.00000000000E+00 0. -1.
<scales pt_clust_5="13000.00000" pt_clust_6="13000.00000" pt_clust_7="13000.00000" pt_clust_8="13000.00000" pt_clust_9="39.27819"></scales>
<clustering>
<clus scale="   39.278">  1  9  2 -1</clus>
<clus scale="   92.537">  7  8 -1 -1</clus>
<clus scale="   94.925">  5  6 -1 -1</clus>
<clus scale="  112.170">  2  7  1 -1</clus>
<clus scale="   39.278">  1  5  2 -1</clus>
</clustering>
</event>
<event>
 9    1  0.1435532E-005  0.9194745E+02  0.7546771E-02  0.1298504E+00
          1   -1    0    0  502    0  0.00000000000E+00  0.00000000000E+00  0.12143432427E+03  0.12143432427E+03  0.00000000000E+00 0. -1.
         -1   -1    0    0    0  501 -0.00000000000E+00 -0.00000000000E+00 -0.90828973841E+02  0.90828973841E+02  0.00000000000E+00 0.  1.
         23    2    1    2    0    0  0.15447725592E+01  0.10457741879E+02  0.80878818315E+01  0.92066855693E+02  0.91099623475E+02 0.  0.
         23    2    1    2    0    0  0.19784818863E+02 -0.44376289765E+01  0.28745394336E+02  0.97175141659E+02  0.90584650203E+02 0.  0.
        -13    1    3    3    0    0 -0.10889163039E+02  0.29038162456E+02 -0.33002884972E+02  0.45287737491E+02  0.00000000000E+00 0.  1.
         13    1    3    3    0    0  0.12433935598E+02 -0.18580420577E+02  0.41090766804E+02  0.46779118203E+02  0.00000000000E+00 0. -1.
        -13    1    4    4    0    0  0.48854977338E+02 -0.19595591392E+02 -0.13726114780E+01  0.52656244406E+02  0.00000000000E+00 0. -1.
         13    1    4    4    0    0 -0.29070158475E+02  0.15157962416E+02  0.30118005814E+02  0.44518897252E+02  0.00000000000E+00 0.  1.
         21    1    1    2  502  501 -0.21329591422E+02 -0.60201129026E+01 -0.62279257394E+01  0.23021300759E+02  0.00000000000E+00 0. -1.
<scales pt_clust_5="13000.00000" pt_clust_6="13000.00000" pt_clust_7="13000.00000" pt_clust_8="13000.00000" pt_clust_9="22.16288"></scales>
<clustering>
<clus scale="   22.163">  2  9  1 -1</clus>
<clus scale="   90.585">  7  8 -1 -1</clus>
<clus scale="   91.100">  5  6 -1 -1</clus>
<clus scale="   91.437">  1  7  2 -1</clus>
<clus scale="   91.437">  1  5  2 -1</clus>
</clustering>
</event>
<event>
 9    1  0.1435532E-005  0.9722348E+02  0.7546771E-02  0.1288528E+00
         -1   -1    0    0    0  501 -0.00000000000E+00  0.00000000000E+00  0.89447300786E+02  0.89447300786E+02  0.00000000000E+00 0.  1.
          1   -1    0    0  502    0  0.00000000000E+00 -0.00000000000E+00 -0.21994591965E+03  0.21994591965E+03  0.00000000000E+00 0. -1.
         23    2    1    2    0    0 -0.31553399070E+02  0.99702789476E+01  0.11836852726E+02  0.93933706569E+02  0.87111461314E+02 0.  0.
         23    2    1    2    0    0  0.50634227878E+01 -0.53898813208E+02 -0.71892479035E+02  0.12831796140E+03  0.91467209213E+02 0.  0.
        -11    1    3    3    0    0  0.13443732629E+02  0.34502054290E+02 -0.98000781774E+01  0.38303619013E+02  0.00000000000E+00 0. -1.
         11    1    3    3    0    0 -0.44997131699E+02 -0.24531775343E+02  0.21636930903E+02  0.55630087556E+02  0.00000000000E+00 0.  1.
        -11    1    4    4    0    0  0.17838480321E+02  0.19725370917E+02 -0.37713917752E+02  0.46148036039E+02  0.00000000000E+00 0.  1.
         11    1    4    4    0    0 -0.12775057534E+02 -0.73624184125E+02 -0.34178561283E+02  0.82169925364E+02  0.00000000000E+00 0. -1.
         21    1    1    2  502  501  0.26489976282E+02  0.43928534260E+02 -0.70442992556E+02  0.87141552464E+02  0.00000000000E+00 0. -1.
<scales pt_clust_5="13000.00000" pt_clust_6="13000.00000" pt_clust_7="13000.00000" pt_clust_8="13000.00000" pt_clust_9="51.29751"></scales>
<clustering>
<clus scale="   51.298">  2  9  1 -1</clus>
<clus scale="   87.111">  5  6 -1 -1</clus>
<clus scale="   91.467">  7  8 -1 -1</clus>
<clus scale="   93.137">  1  5  2 -1</clus>
<clus scale="   51.298">  2  5  1 -1</clus>
</clustering>
</event>
<event>
 9    1  0.1435532E-005  0.1116828E+03  0.7546771E-02  0.1259324E+00
         -1   -1    0    0    0  501 -0.00000000000E+00  0.00000000000E+00  0.16639562489E+03  0.16639562489E+03  0.00000000000E+00 0.  1.
          1   -1    0    0  502    0  0.00000000000E+00 -0.00000000000E+00 -0.13875672856E+03  0.13875672856E+03  0.00000000000E+00 0. -1.
         23    2    1    2    0    0 -0.33224050904E+02 -0.55015624885E+02  0.78168458848E+02  0.13936205680E+03  0.95817108997E+02 0.  0.
         23    2    1    2    0    0 -0.17340349111E+02  0.51823610886E+02 -0.42643995348E+02  0.11451525718E+03  0.91152945291E+02 0.  0.
        -11    1    3    3    0    0 -0.21103612008E+02  0.25980838916E+02  0.22080503459E+02  0.40098816236E+02  0.00000000000E+00 0.  1.
         11    1    3    3    0    0 -0.12120438895E+02 -0.80996463801E+02  0.56087955389E+02  0.99263240563E+02  0.00000000000E+00 0. -1.
        -13    1    4    4    0    0 -0.19785060054E+01 -0.26064258633E+02 -0.16596784153E+02  0.30963095910E+02  0.00000000000E+00 0. -1.
         13    1    4    4    0    0 -0.15361843106E+02  0.77887869520E+02 -0.26047211195E+02  0.83552161270E+02  0.00000000000E+00 0.  1.
         21    1    1    2  502  501  0.50564400015E+02  0.31920139990E+01 -0.78855671711E+01  0.51275039462E+02  0.00000000000E+00 0. -1.
<scales pt_clust_5="13000.00000" pt_clust_6="13000.00000" pt_clust_7="13000.00000" pt_clust_8="13000.00000" pt_clust_9="50.66505"></scales>
<clustering>
<clus scale="   50.665">  2  9  1 -1</clus>
<clus scale="   91.153">  7  8 -1 -1</clus>
<clus scale="   95.817">  5  6 -1 -1</clus>
<clus scale="  107.708">  2  7  1 -1</clus>
<clus scale="   50.665">  2  5  1 -1</clus>
</clustering>
</event>
<event>
 9    1  0.1435532E-005  0.1306336E+03  0.7546771E-02  0.1226896E+00
         -1   -1    0    0    0  501 -0.00000000000E+00  0.00000000000E+00  0.53179271835E+03  0.53179271835E+03  0.00000000000E+00 0.  1.
          1   -1    0    0  502    0  0.00000000000E+00 -0.00000000000E+00 -0.75871864654E+02  0.75871864654E+02  0.00000000000E+00 0. -1.
         23    2    1    2    0    0 -0.84594458591E+02 -0.17332819021E+02  0.24806002423E+03  0.27798261439E+03  0.91015983457E+02 0.  0.
         23    2    1    2    0    0  0.10315912649E+03  0.22340120223E+01  0.24788991705E+03  0.28304562314E+03  0.89546734248E+02 0.  0.
        -11    1    4    4    0    0  0.87486359025E+02  0.36255609745E+02  0.14160774809E+03  0.17035576471E+03  0.00000000000E+00 0.  1.
         11    1    4    4    0    0  0.15672767463E+02 -0.34021597723E+02  0.10628216897E+03  0.11268985842E+03  0.00000000000E+00 0. -1.
        -13    1    3    3    0    0 -0.92878620875E+02 -0.37185146527E+02  0.22608206788E+03  0.24722919479E+03  0.00000000000E+00 0.  1.
         13    1    3    3    0    0  0.82841622839E+01  0.19852327506E+02  0.21977956344E+02  0.30753419602E+02  0.00000000000E+00 0. -1.
         21    1    1    2  502  501 -0.18564667898E+02  0.15098806999E+02 -0.40029087580E+02  0.46636345477E+02  0.00000000000E+00 0. -1.
<scales pt_clust_5="13000.00000" pt_clust_6="13000.00000" pt_clust_7="13000.00000" pt_clust_8="13000.00000" pt_clust_9="23.92950"></scales>
<clustering>
<clus scale="   23.929">  2  9  1 -1</clus>
<clus scale="   89.547">  5  6 -1 -1</clus>
<clus scale="   91.016">  7  8 -1 -1</clus>
<clus scale="  129.614">  2  5  1 -1</clus>
<clus scale="   23.929">  2  5  1 -1</clus>
</clustering>
</event>
<event>
 9    1  0.1435532E-005  0.2321178E+03  0.7546771E-02  0.1125405E+00
          1   -1    0    0  502    0  0.00000000000E+00  0.00000000000E+00  0.55098284919E+03  0.55098284919E+03  0.00000000000E+00 0. -1.
         -1   -1    0    0    0  501 -0.00000000000E+00 -0.00000000000E+00 -0.30086922826E+03  0.30086922826E+03  0.00000000000E+00 0.  1.
         23    2    1    2    0    0  0.22765423446E+03 -0.42640167508E+02 -0.20004267512E+03  0.31948258807E+03  0.91691972704E+02 0.  0.
         23    2    1    2    0    0 -0.13995099083E+03  0.51653375895E+01  0.18607370621E+03  0.25159228931E+03  0.95196088954E+02 0.  0.
        -13    1    4    4    0    0 -0.21744971957E+02  0.94608096516E+01 -0.73858877717E+01  0.24837513218E+02  0.00000000000E+00 0.  1.
         13    1    4    4    0    0 -0.11820601887E+03 -0.42954720620E+01  0.19345959398E+03  0.22675477609E+03  0.00000000000E+00 0. -1.
        -13    1    3    3    0    0  0.21579898673E+03 -0.22725536430E+02 -0.20168613580E+03  0.29624812245E+03  0.00000000000E+00 0.  1.
         13    1    3    3    0    0  0.11855247728E+02 -0.19914631078E+02  0.16434606813E+01  0.23234465620E+02  0.00000000000E+00 0. -1.
         21    1    1    2  502  501 -0.87703243636E+02  0.37474829918E+02  0.26408258984E+03  0.28077720006E+03  0.00000000000E+00 0. -1.
<scales pt_clust_5="13000.00000" pt_clust_6="13000.00000" pt_clust_7="13000.00000" pt_clust_8="13000.00000" pt_clust_9="95.37412"></scales>
<clustering>
<clus scale="   91.692">  7  8 -1 -1</clus>
<clus scale="   95.196">  5  6 -1 -1</clus>
<clus scale="   95.374">  1  9  2 -1</clus>
<clus scale="  230.703">  2  7  1 -1</clus>
<clus scale="   95.374">  1  5  2 -1</clus>
</clustering>
</event>
<event>
 9    1  0.1435532E-005  0.9883700E+02  0.7546771E-02  0.1284505E+00
          1   -1    0    0  502    0  0.00000000000E+00  0.00000000000E+00  0.12950947500E+03  0.12950947500E+03  0.00000000000E+00 0. -1.
         -1   -1    0    0    0  501 -0.00000000000E+00 -0.00000000000E+00 -0.13107393367E+03  0.13107393367E+03  0.00000000000E+00 0.  1.
         23    2    1    2    0    0 -0.18630018730E+01 -0.18091542835E+02 -0.43510183440E+02  0.10257883606E+03  0.91096140675E+02 0.  0.
         23    2    1    2    0    0  0.52377417819E+01  0.48479649412E+02  0.25306608898E+00  0.10630250612E+03  0.94458712776E+02 0.  0.
        -11    1    4    4    0    0  0.12504752024E+02  0.76172414761E+02 -0.43031615989E+01  0.77311854158E+02  0.00000000000E+00 0.  1.
         11    1    4    4    0    0 -0.72670102421E+01 -0.27692765349E+02  0.45562276879E+01  0.28990651963E+02  0.00000000000E+00 0. -1.
        -11    1    3    3    0    0 -0.18440856502E+02 -0.51046501929E+02 -0.16075817066E+02  0.56606028319E+02  0.00000000000E+00 0. -1.
         11    1    3    3    0    0  0.16577854629E+02  0.32954959094E+02 -0.27434366374E+02  0.45972807739E+02  0.00000000000E+00 0.  1.
         21    1    1    2  502  501 -0.33747399089E+01 -0.30388106577E+02  0.41692658688E+02  0.51702066489E+02  0.00000000000E+00 0. -1.
<scales pt_clust_5="13000.00000" pt_clust_6="13000.00000" pt_clust_7="13000.00000" pt_clust_8="13000.00000" pt_clust_9="30.57492"></scales>
<clustering>
<clus scale="   30.575">  1  9  2 -1</clus>
<clus scale="   91.096">  7  8 -1 -1</clus>
<clus scale="   94.459">  5  6 -1 -1</clus>
<clus scale="   95.629">  2  7  1 -1</clus>
<clus scale="   30.575">  1  5  2 -1</clus>
</clustering>
</event>
<event>
 9    1  0.1435532E-005  0.3282559E+03  0.7546771E-02  0.1072092E+00
          1   -1    0    0  502    0  0.00000000000E+00  0.00000000000E+00  0.56779053203E+03  0.56779053203E+03  0.00000000000E+00 0. -1.
         -1   -1    0    0    0  501 -0.00000000000E+00 -0.00000000000E+00 -0.21249676446E+03  0.21249676446E+03  0.00000000000E+00 0.  1.
         23    2    1    2    0    0  0.11274535379E+03  0.30719402168E+03  0.12126700179E+03  0.36154833786E+03  0.94508375953E+02 0.  0.
         23    2    1    2    0    0 -0.12082606133E+03 -0.27392020916E+03  0.20231131815E+03  0.37206654651E+03  0.88726701152E+02 0.  0.
        -11    1    3    3    0    0  0.10407051250E+03  0.23657630371E+03  0.54837110602E+02  0.26420849295E+03  0.00000000000E+00 0.  1.
         11    1    3    3    0    0  0.86748412905E+01  0.70617717978E+02  0.66429891186E+02  0.97339844908E+02  0.00000000000E+00 0. -1.
        -13    1    4    4    0    0  0.13707131928E+02 -0.28596871530E+02  0.13142848431E+02  0.34327845722E+02  0.00000000000E+00 0.  1.
         13    1    4    4    0    0 -0.13453319326E+03 -0.24532333763E+03  0.18916846972E+03  0.33773870079E+03  0.00000000000E+00 0. -1.
         21    1    1    2  502  501  0.80807075419E+01 -0.33273812522E+02  0.31715447630E+02  0.46672412113E+02  0.00000000000E+00 0.  1.
<scales pt_clust_5="13000.00000" pt_clust_6="13000.00000" pt_clust_7="13000.00000" pt_clust_8="13000.00000" pt_clust_9="34.24098"></scales>
<clustering>
<clus scale="   34.241">  1  9  2 -1</clus>
<clus scale="   88.727">  7  8 -1 -1</clus>
<clus scale="   94.508">  5  6 -1 -1</clus>
<clus scale="  326.638">  1  7  2 -1</clus>
<clus scale="   34.241">  1  5  2 -1</clus>
</clustering>
</event>
<event>
 9    1  0.1435532E-005  0.9678855E+02  0.7546771E-02  0.1291165E+00
          2   -1    0    0  502    0  0.00000000000E+00  0.00000000000E+00  0.26189845532E+03  0.26189845532E+03  0.00000000000E+00 0. -1.
         -2   -1    0    0    0  501 -0.00000000000E+00 -0.00000000000E+00 -0.46313562432E+02  0.46313562432E+02  0.00000000000E+00 0.  1.
         23    2    1    2    0    0 -0.90450244039E+01  0.23076585696E+01  0.52802522636E+02  0.10364242382E+03  0.88693336077E+02 0.  0.
         23    2    1    2    0    0  0.61896739328E+01  0.21143734258E+02  0.14438959802E+03  0.17462940485E+03  0.95716787762E+02 0.  0.
        -11    1    3    3    0    0  0.84493660594E+00  0.43486696178E+02  0.12683058819E+02  0.45306364270E+02  0.00000000000E+00 0. -1.
         11    1    3    3    0    0 -0.98899610098E+01 -0.41179037609E+02  0.40119463817E+02  0.58336059552E+02  0.00000000000E+00 0.  1.
        -13    1    4    4    0    0  0.11398975720E+02 -0.25366972678E+02  0.58783099221E+01  0.28424891870E+02  0.00000000000E+00 0.  1.
         13    1    4    4    0    0 -0.52093017867E+01  0.46510706935E+02  0.13851128810E+03  0.14620451298E+03  0.00000000000E+00 0. -1.
         21    1    1    2  502  501  0.28553504711E+01 -0.23451392827E+02  0.18392772231E+02  0.29940189081E+02  0.00000000000E+00 0.  1.
<scales pt_clust_5="13000.00000" pt_clust_6="13000.00000" pt_clust_7="13000.00000" pt_clust_8="13000.00000" pt_clust_9="23.62458"></scales>
<clustering>
<clus scale="   23.625">  2  9  1 -1</clus>
<clus scale="   88.693">  5  6 -1 -1</clus>
<clus scale="   89.849">  2  5  1 -1</clus>
<clus scale="   95.717">  7  8 -1 -1</clus>
<clus scale="   96.789">  1  5  2 -1</clus>
</clustering>
</event>
<event>
 9    1  0.1435532E-005  0.1009741E+03  0.7546771E-02  0.1280251E+00
          1   -1    0    0  502    0  0.00000000000E+00  0.00000000000E+00  0.31306094329E+03  0.31306094329E+03  0.00000000000E+00 0. -1.
         -1   -1    0    0    0  501 -0.00000000000E+00 -0.00000000000E+00 -0.82513933364E+02  0.82513933364E+02  0.00000000000E+00 0.  1.
         23    2    1    2    0    0  0.19249078554E+02  0.30982124332E+02 -0.29253861596E+02  0.10340906611E+03  0.92234632775E+02 0.  0.
         23    2    1    2    0    0 -0.55658688240E+01  0.36519118251E+01  0.18668066778E+03  0.21010905650E+03  0.96186425978E+02 0.  0.
        -11    1    3    3    0    0 -0.16930993773E+02  0.17932678702E+02 -0.52825582237E+02  0.58299070784E+02  0.00000000000E+00 0.  1.
         11    1    3    3    0    0  0.36180072327E+02  0.13049445630E+02  0.23571720641E+02  0.45109995331E+02  0.00000000000E+00 0. -1.
        -11    1    4    4    0    0 -0.48044254270E+02  0.18531069975E+01  0.13428841752E+03  0.14263612254E+03  0.00000000000E+00 0. -1.
         11    1    4    4    0    0  0.42478385446E+02  0.17988048276E+01  0.52392250268E+02  0.67472933959E+02  0.00000000000E+00 0.  1.
         21    1    1    2  502  501 -0.13683209730E+02 -0.34634036157E+02  0.73120203736E+02  0.82056754039E+02  0.00000000000E+00 0. -1.
<scales pt_clust_5="13000.00000" pt_clust_6="13000.00000" pt_clust_7="13000.00000" pt_clust_8="13000.00000" pt_clust_9="37.23905"></scales>
<clustering>
<clus scale="   37.239">  1  9  2 -1</clus>
<clus scale="   92.235">  5  6 -1 -1</clus>
<clus scale="   96.186">  7  8 -1 -1</clus>
<clus scale="   97.217">  2  5  1 -1</clus>
<clus scale="   37.239">  1  5  2 -1</clus>
</clustering>
</event>
<event>
 9    1  0.1435532E-005  0.1554408E+03  0.7546771E-02  0.1193983E+00
          2   -1    0    0  502    0  0.00000000000E+00  0.00000000000E+00  0.26311025930E+03  0.26311025930E+03  0.00000000000E+00 0. -1.
         -2   -1    0    0    0  501 -0.00000000000E+00 -0.00000000000E+00 -0.29765716960E+03  0.29765716960E+03  0.00000000000E+00 0.  1.
         23    2    1    2    0    0  0.10627892889E+03  0.69526805581E+02 -0.17112570557E+03  0.23183453750E+03  0.91291063374E+02 0.  0.
         23    2    1    2    0    0 -0.30644236896E+02 -0.15625063787E+03  0.95109944485E+02  0.20661651758E+03  0.91055767028E+02 0.  0.
        -11    1    3    3    0    0  0.91655249700E+02  0.91519125166E+02 -0.13502771450E+03  0.18710670418E+03  0.00000000000E+00 0.  1.
         11    1    3    3    0    0  0.14623679188E+02 -0.21992319585E+02 -0.36097991072E+02  0.44727833316E+02  0.00000000000E+00 0. -1.
        -13    1    4    4    0    0 -0.40459022244E+02 -0.18582629058E+02  0.32149998552E+02  0.54916928087E+02  0.00000000000E+00 0.  1.
         13    1    4    4    0    0  0.98147853474E+01 -0.13766800881E+03  0.62959945933E+02  0.15169958950E+03  0.00000000000E+00 0. -1.
         21    1    1    2  502  501 -0.75634691991E+02  0.86723832289E+02  0.41468850777E+02  0.12231637382E+03  0.00000000000E+00 0. -1.
<scales pt_clust_5="13000.00000" pt_clust_6="13000.00000" pt_clust_7="13000.00000" pt_clust_8="13000.00000" pt_clust_9="115.07228"></scales>
<clustering>
<clus scale="   91.056">  7  8 -1 -1</clus>
<clus scale="   91.291">  5  6 -1 -1</clus>
<clus scale="  115.072">  1  9  2 -1</clus>
<clus scale="  155.303">  1  7  2 -1</clus>
<clus scale="  115.072">  1  5  2 -1</clus>
</clustering>
</event>
<event>
 9    1  0.1435532E-005  0.1192906E+03  0.7546771E-02  0.1245047E+00
         -4   -1    0    0    0  501 -0.00000000000E+00  0.00000000000E+00  0.43799514262E+02  0.43799514262E+02  0.00000000000E+00 0.  1.
          4   -1    0    0  502    0  0.00000000000E+00 -0.00000000000E+00 -0.61578386674E+03  0.61578386674E+03  0.00000000000E+00 0. -1.
         23    2    1    2    0    0  0.19797284112E+02 -0.73737299601E+02 -0.72447311900E+02  0.14004513331E+03  0.92384547140E+02 0.  0.
         23    2    1    2    0    0 -0.31456224095E+02  0.53064383141E+02 -0.34133007070E+03  0.35956091907E+03  0.94723358079E+02 0.  0.
        -13    1    4    4    0    0 -0.56798318118E+02  0.63199122995E+02 -0.27521285115E+03  0.28803175438E+03  0.00000000000E+00 0. -1.
         13    1    4    4    0    0  0.25342094023E+02 -0.10134739854E+02 -0.66117219551E+02  0.71529164699E+02  0.00000000000E+00 0.  1.
        -13    1    3    3    0    0  0.97353827772E+01 -0.93475479461E+02 -0.71106378835E+02  0.11784973504E+03  0.00000000000E+00 0.  1.
         13    1    3    3    0    0  0.10061901335E+02  0.19738179860E+02 -0.13409330657E+01  0.22195398265E+02  0.00000000000E+00 0. -1.
         21    1    1    2  502  501  0.11658939983E+02  0.20672916460E+02 -0.15820696987E+03  0.15997732862E+03  0.00000000000E+00 0. -1.
<scales pt_clust_5="13000.00000" pt_clust_6="13000.00000" pt_clust_7="13000.00000" pt_clust_8="13000.00000" pt_clust_9="23.73395"></scales>
<clustering>
<clus scale="   23.734">  2  9  1 -1</clus>
<clus scale="   92.385">  7  8 -1 -1</clus>
<clus scale="   94.723">  5  6 -1 -1</clus>
<clus scale="  117.442">  1  7  2 -1</clus>
<clus scale="   23.734">  2  5  1 -1</clus>
</clustering>
</event>
<event>
 9    1  0.1435532E-005  0.1210594E+03  0.7546771E-02  0.1242351E+00
          1   -1    0    0  502    0  0.00000000000E+00  0.00000000000E+00  0.26046108135E+03  0.26046108135E+03  0.00000000000E+00 0. -1.
         -1   -1    0    0    0  501 -0.00000000000E+00 -0.00000000000E+00 -0.11264195166E+03  0.11264195166E+03  0.00000000000E+00 0.  1.
         23    2    1    2    0    0 -0.24711535843E+02  0.58699011579E+02 -0.52224900124E+02  0.12010458689E+03  0.87415316940E+02 0.  0.
         23    2    1    2    0    0  0.21145241289E+02 -0.81103692539E+02  0.19324006280E+03  0.22931338431E+03  0.90653053891E+02 0.  0.
        -11    1    4    4    0    0  0.54901004802E+02 -0.66469684666E+02  0.12609195249E+03  0.15274658684E+03  0.00000000000E+00 0. -1.
         11    1    4    4    0    0 -0.33755763514E+02 -0.14634007873E+02  0.67148110312E+02  0.76566797473E+02  0.00000000000E+00 0.  1.
        -13    1    3    3    0    0 -0.33981951179E+02 -0.48532122325E+01 -0.43310383035E+02  0.55264056615E+02  0.00000000000E+00 0.  1.
         13    1    3    3    0    0  0.92704153361E+01  0.63552223811E+02 -0.89145170892E+01  0.64840530279E+02  0.00000000000E+00 0. -1.
         21    1    1    2  502  501  0.35662945543E+01  0.22404680960E+02  0.68039670065E+01  0.23685061807E+02  0.00000000000E+00 0.  1.
<scales pt_clust_5="13000.00000" pt_clust_6="13000.00000" pt_clust_7="13000.00000" pt_clust_8="13000.00000" pt_clust_9="22.68674"></scales>
<clustering>
<clus scale="   22.687">  2  9  1 -1</clus>
<clus scale="   87.415">  7  8 -1 -1</clus>
<clus scale="   90.653">  5  6 -1 -1</clus>
<clus scale="  118.654">  2  7  1 -1</clus>
<clus scale="  121.059">  1  5  2 -1</clus>
</clustering>
</event>
<event>
 9    1  0.1435532E-005  0.1147369E+03  0.7546771E-02  0.1254169E+00
          1   -1    0    0  502    0  0.00000000000E+00  0.00000000000E+00  0.51088038070E+02  0.51088038070E+02  0.00000000000E+00 0. -1.
         -1   -1    0    0    0  501 -0.00000000000E+00 -0.00000000000E+00 -0.33496280099E+03  0.33496280099E+03  0.00000000000E+00 0.  1.
         23    2    1    2    0    0  0.66523300459E+02  0.10056434818E+02 -0.18214040825E+03  0.21550900061E+03  0.93501441919E+02 0.  0.
         23    2    1    2    0    0 -0.44312413701E+02  0.57800150966E+01 -0.88904788645E+02  0.14039694832E+03  0.99046671177E+02 0.  0.
        -11    1    3    3    0    0  0.87057649753E+02  0.13698766204E+02 -0.16971671521E+03  0.19123402939E+03  0.00000000000E+00 0.  1.
         11    1    3    3    0    0 -0.20534349294E+02 -0.36423313860E+01 -0.12423693041E+02  0.24274971218E+02  0.00000000000E+00 0. -1.
        -13    1    4    4    0    0 -0.73174994232E+02  0.20754175075E+01 -0.83062231873E+02  0.11071685284E+03  0.00000000000E+00 0. -1.
         13    1    4    4    0    0  0.28862580531E+02  0.37045975891E+01 -0.58425567725E+01  0.29680095483E+02  0.00000000000E+00 0.  1.
         21    1    1    2  502  501 -0.22210886758E+02 -0.15836449914E+02 -0.12829566025E+02  0.30144890129E+02  0.00000000000E+00 0. -1.
<scales pt_clust_5="13000.00000" pt_clust_6="13000.00000" pt_clust_7="13000.00000" pt_clust_8="13000.00000" pt_clust_9="27.27850"></scales>
<clustering>
<clus scale="   27.279">  1  9  2 -1</clus>
<clus scale="   93.501">  5  6 -1 -1</clus>
<clus scale="   99.047">  7  8 -1 -1</clus>
<clus scale="  109.986">  2  5  1 -1</clus>
<clus scale="   27.279">  1  5  2 -1</clus>
</clustering>
</event>
<event>
 9    1  0.1435532E-005  0.1062913E+03  0.7546771E-02  0.1269615E+00
         -1   -1    0    0    0  501 -0.00000000000E+00  0.00000000000E+00  0.10873379997E+03  0.10873379997E+03  0.00000000000E+00 0.  1.
          1   -1    0    0  502    0  0.00000000000E+00 -0.00000000000E+00 -0.28700311352E+03  0.28700311352E+03  0.00000000000E+00 0. -1.
         23    2    1    2    0    0  0.51078834573E+02 -0.73627282906E+01  0.56270267979E+02  0.11795469090E+03  0.89909448545E+02 0.  0.
         23    2    1    2    0    0 -0.37153189312E+02 -0.22822699847E+02 -0.12168495948E+03  0.16013338331E+03  0.94521087497E+02 0.  0.
        -11    1    3    3    0    0 -0.79969164263E+01 -0.27784995484E+02 -0.62140119701E+01  0.29573139690E+02  0.00000000000E+00 0. -1.
         11    1    3    3    0    0  0.59075750999E+02  0.20422267193E+02  0.62484279949E+02  0.88381551209E+02  0.00000000000E+00 0.  1.
        -13    1    4    4    0    0 -0.16725140855E+02 -0.54564589161E+02 -0.38664767376E+02  0.68934671706E+02  0.00000000000E+00 0.  1.
         13    1    4    4    0    0 -0.20428048457E+02  0.31741889314E+02 -0.83020192103E+02  0.91198711602E+02  0.00000000000E+00 0. -1.
         21    1    1    2  502  501 -0.13925645260E+02  0.30185428137E+02 -0.11285462205E+03  0.11764883929E+03  0.00000000000E+00 0. -1.
<scales pt_clust_5="13000.00000" pt_clust_6="13000.00000" pt_clust_7="13000.00000" pt_clust_8="13000.00000" pt_clust_9="33.24280"></scales>
<clustering>
<clus scale="   33.243">  2  9  1 -1</clus>
<clus scale="   89.909">  5  6 -1 -1</clus>
<clus scale="   94.521">  7  8 -1 -1</clus>
<clus scale="  102.212">  1  5  2 -1</clus>
<clus scale="   33.243">  2  5  1 -1</clus>
</clustering>
</event>
<event>
 9    1  0.1435532E-005  0.1002731E+03  0.7546771E-02  0.1281168E+00
          1   -1    0    0  502    0  0.00000000000E+00  0.00000000000E+00  0.37972101510E+03  0.37972101510E+03  0.00000000000E+00 0. -1.
         -1   -1    0    0    0  501 -0.00000000000E+00 -0.00000000000E+00 -0.42065272143E+02  0.42065272143E+02  0.00000000000E+00 0.  1.
         23    2    1    2    0    0 -0.29398393055E+02 -0.23749218387E+02  0.92812455044E+02  0.13624193810E+03  0.92300720458E+02 0.  0.
         23    2    1    2    0    0  0.47952196454E+02 -0.51442000481E+01  0.12585261613E+03  0.16169826233E+03  0.89339639095E+02 0.  0.
        -11    1    4    4    0    0  0.47574993643E+02  0.24906567125E+02  0.30577542211E+02  0.61795656754E+02  0.00000000000E+00 0.  1.
         11    1    4    4    0    0  0.37720281106E+00 -0.30050767173E+02  0.95275073921E+02  0.99902605573E+02  0.00000000000E+00 0. -1.
        -13    1    3    3    0    0 -0.90518585243E+01 -0.55446571844E+02  0.77177651609E+02  0.95460192646E+02  0.00000000000E+00 0. -1.
         13    1    3    3    0    0 -0.20346534531E+02  0.31697353458E+02  0.15634803435E+02  0.40781745452E+02  0.00000000000E+00 0.  1.
         21    1    1    2  502  501 -0.18553803399E+02  0.28893418435E+02  0.11899067178E+03  0.12384608682E+03  0.00000000000E+00 0. -1.
<scales pt_clust_5="13000.00000" pt_clust_6="13000.00000" pt_clust_7="13000.00000" pt_clust_8="13000.00000" pt_clust_9="34.33764"></scales>
<clustering>
<clus scale="   34.338">  1  9  2 -1</clus>
<clus scale="   89.340">  5  6 -1 -1</clus>
<clus scale="   92.301">  7  8 -1 -1</clus>
<clus scale="   97.554">  1  5  2 -1</clus>
<clus scale="   34.338">  1  5  2 -1</clus>
</clustering>
</event>
<event>
 9    1  0.1435532E-005  0.1035393E+03  0.7546771E-02  0.1276984E+00
         -1   -1    0    0    0  501 -0.00000000000E+00  0.00000000000E+00  0.10584521234E+03  0.10584521234E+03  0.00000000000E+00 0.  1.
          1   -1    0    0  502    0  0.00000000000E+00 -0.00000000000E+00 -0.32489490407E+03  0.32489490407E+03  0.00000000000E+00 0. -1.
         23    2    1    2    0    0  0.22771606992E+02 -0.29589605693E+02  0.66631472834E+02  0.12369270983E+03  0.97293588910E+02 0.  0.
         23    2    1    2    0    0 -0.48788334400E+01  0.19394605086E+02 -0.24392854921E+03  0.26049238244E+03  0.89191874453E+02 0.  0.
        -11    1    4    4    0    0  0.52465997653E+01 -0.34928151995E+02 -0.11267266127E+03  0.11807891941E+03  0.00000000000E+00 0.  1.
         11    1    4    4    0    0 -0.10125433205E+02  0.54322757080E+02 -0.13125588794E+03  0.14241346303E+03  0.00000000000E+00 0. -1.
        -13    1    3    3    0    0 -0.11713901460E+02 -0.57814609148E+02  0.44776606605E+02  0.74058686306E+02  0.00000000000E+00 0.  1.
         13    1    3    3    0    0  0.34485508453E+02  0.28225003455E+02  0.21854866228E+02  0.49634023523E+02  0.00000000000E+00 0. -1.
         21    1    1    2  502  501 -0.17892773552E+02  0.10195000607E+02 -0.41752615351E+02  0.46555024127E+02  0.00000000000E+00 0. -1.
<scales pt_clust_5="13000.00000" pt_clust_6="13000.00000" pt_clust_7="13000.00000" pt_clust_8="13000.00000" pt_clust_9="20.59343"></scales>
<clustering>
<clus scale="   20.593">  2  9  1 -1</clus>
<clus scale="   89.192">  5  6 -1 -1</clus>
<clus scale="   95.966">  2  5  1 -1</clus>
<clus scale="   97.294">  7  8 -1 -1</clus>
<clus scale="   20.593">  2  5  1 -1</clus>
</clustering>
</event>
<event>
 9    1  0.1435532E-005  0.2853150E+03  0.7546771E-02  0.1092845E+00
          1   -1    0    0  502    0  0.00000000000E+00  0.00000000000E+00  0.10030133953E+04  0.10030133953E+04  0.00000000000E+00 0. -1.
         -1   -1    0    0    0  501 -0.00000000000E+00 -0.00000000000E+00 -0.21429480124E+03  0.21429480124E+03  0.00000000000E+00 0.  1.
         23    2    1    2    0    0  0.17325651693E+02  0.25938622009E+03 -0.40271695617E+02  0.27822326673E+03  0.90581384977E+02 0.  0.
         23    2    1    2    0    0 -0.86160010487E+02 -0.32320307613E+03  0.63090991238E+03  0.71988959242E+03  0.91158827996E+02 0.  0.
        -11    1    4    4    0    0 -0.32856495728E+02 -0.12575135171E+03  0.15758982145E+03  0.20427311030E+03  0.00000000000E+00 0.  1.
         11    1    4    4    0    0 -0.53303514759E+02 -0.19745172442E+03  0.47332009093E+03  0.51561648212E+03  0.00000000000E+00 0. -1.
        -13    1    3    3    0    0  0.42824308814E+02  0.18073708168E+03 -0.56129485226E+02  0.19403693780E+03  0.00000000000E+00 0.  1.
         13    1    3    3    0    0 -0.25498657121E+02  0.78649138411E+02  0.15857789609E+02  0.84186328932E+02  0.00000000000E+00 0. -1.
         21    1    1    2  502  501  0.68834358795E+02  0.63816856038E+02  0.19808037734E+03  0.21919533744E+03  0.00000000000E+00 0.  1.
<scales pt_clust_5="13000.00000" pt_clust_6="13000.00000" pt_clust_7="13000.00000" pt_clust_8="13000.00000" pt_clust_9="93.86565"></scales>
<clustering>
<clus scale="   90.581">  7  8 -1 -1</clus>
<clus scale="   91.159">  5  6 -1 -1</clus>
<clus scale="   93.866">  1  9  2 -1</clus>
<clus scale="  285.131">  2  7  1 -1</clus>
<clus scale="   93.866">  1  5  2 -1</clus>
</clustering>
</event>
<event>
 9    1  0.1435532E-005  0.9696756E+02  0.7546771E-02  0.1288677E+00
          2   -1    0    0  502    0  0.00000000000E+00  0.00000000000E+00  0.33586339125E+03  0.33586339125E+03  0.00000000000E+00 0.  1.
         -2   -1    0    0    0  501 -0.00000000000E+00 -0.00000000000E+00 -0.51132341449E+02  0.51132341449E+02  0.00000000000E+00 0. -1.
         23    2    1    2    0    0 -0.22301839790E+02 -0.17367963903E+02  0.52222271792E+02  0.10750786157E+03  0.89620066952E+02 0.  0.
         23    2    1    2    0    0  0.22278014066E+02 -0.29673229583E+02  0.19525691846E+03  0.21948307555E+03  0.93116839413E+02 0.  0.
        -11    1    4    4    0    0 -0.27540685047E+02  0.15225895941E+02  0.82373484659E+02  0.88179976270E+02  0.00000000000E+00 0.  1.
         11    1    4    4    0    0  0.49818699113E+02 -0.44899125524E+02  0.11288343380E+03  0.13130309928E+03  0.00000000000E+00 0. -1.
        -11    1    3    3    0    0 -0.41500929675E+02 -0.43230565718E+02  0.23559844830E+02  0.64391577590E+02  0.00000000000E+00 0. -1.
         11    1    3    3    0    0  0.19199089885E+02  0.25862601814E+02  0.28662426962E+02  0.43116283982E+02  0.00000000000E+00 0.  1.
         21    1    1    2  502  501  0.23825723747E-01  0.47041193486E+02  0.37251859549E+02  0.60004795576E+02  0.00000000000E+00 0.  1.
<scales pt_clust_5="13000.00000" pt_clust_6="13000.00000" pt_clust_7="13000.00000" pt_clust_8="13000.00000" pt_clust_9="47.04120"></scales>
<clustering>
<clus scale="   47.041">  2  9  1 -1</clus>
<clus scale="   89.620">  7  8 -1 -1</clus>
<clus scale="   93.117">  5  6 -1 -1</clus>
<clus scale="   93.615">  2  7  1 -1</clus>
<clus scale="   96.968">  1  5  2 -1</clus>
</clustering>
</event>
<event>
 9    1  0.1435532E-005  0.1339716E+03  0.7546771E-02  0.1221816E+00
          2   -1    0    0  502    0  0.00000000000E+00  0.00000000000E+00  0.62957429728E+03  0.62957429728E+03  0.00000000000E+00 0. -1.
         -2   -1    0    0    0  501 -0.00000000000E+00 -0.00000000000E+00 -0.89265296845E+02  0.89265296845E+02  0.00000000000E+00 0.  1.
         23    2    1    2    0    0 -0.24874263120E+02  0.10047825196E+03 -0.17176243774E+02  0.13964827282E+03  0.92152095296E+02 0.  0.
         23    2    1    2    0    0  0.97472362079E+01 -0.61416010354E+02  0.33564572131E+03  0.35343158269E+03  0.91590930043E+02 0.  0.
        -11    1    4    4    0    0  0.47032082447E+02 -0.26678528440E+02  0.11646833671E+03  0.12840807652E+03  0.00000000000E+00 0.  1.
         11    1    4    4    0    0 -0.37284846239E+02 -0.34737481914E+02  0.21917738460E+03  0.22502350617E+03  0.00000000000E+00 0. -1.
        -13    1    3    3    0    0 -0.55485056906E+02  0.90590244554E+02 -0.16244404249E+02  0.10746657442E+03  0.00000000000E+00 0.  1.
         13    1    3    3    0    0  0.30610793786E+02  0.98880074054E+01 -0.93183952463E+00  0.32181698395E+02  0.00000000000E+00 0. -1.
         21    1    1    2  502  501  0.15127026912E+02 -0.39062241606E+02  0.22183952290E+03  0.22575973862E+03  0.00000000000E+00 0. -1.
<scales pt_clust_5="13000.00000" pt_clust_6="13000.00000" pt_clust_7="13000.00000" pt_clust_8="13000.00000" pt_clust_9="41.88897"></scales>
<clustering>
<clus scale="   41.889">  1  9  2 -1</clus>
<clus scale="   91.591">  5  6 -1 -1</clus>
<clus scale="   92.152">  7  8 -1 -1</clus>
<clus scale="  133.586">  1  5  2 -1</clus>
<clus scale="   41.889">  1  5  2 -1</clus>
</clustering>
</event>
<event>
 9    1  0.1435532E-005  0.9309787E+02  0.7546771E-02  0.1296023E+00
          2   -1    0    0  502    0  0.00000000000E+00  0.00000000000E+00  0.21990952089E+03  0.21990952089E+03  0.00000000000E+00 0. -1.
         -2   -1    0    0    0  501 -0.00000000000E+00 -0.00000000000E+00 -0.69511672236E+02  0.69511672236E+02  0.00000000000E+00 0.  1.
         23    2    1    2    0    0 -0.69604650658E+01  0.17939074100E+02  0.51940929280E+02  0.10723929786E+03  0.91826730409E+02 0.  0.
         23    2    1    2    0    0 -0.38488995609E+02  0.10684566053E+02  0.58976664734E+02  0.11552113651E+03  0.90946815575E+02 0.  0.
        -11    1    3    3    0    0 -0.28254964598E+02 -0.14969623512E+02 -0.10378492493E+02  0.33617640592E+02  0.00000000000E+00 0. -1.
         11    1    3    3    0    0  0.21294499532E+02  0.32908697612E+02  0.62319421772E+02  0.73621657268E+02  0.00000000000E+00 0.  1.
        -13    1    4    4    0    0 -0.44068446751E+02 -0.30949426593E+02  0.17844636381E+02  0.56730292199E+02  0.00000000000E+00 0. -1.
         13    1    4    4    0    0  0.55794511413E+01  0.41633992646E+02  0.41132028353E+02  0.58790844313E+02  0.00000000000E+00 0.  1.
         21    1    1    2  502  501  0.45449460675E+02 -0.28623640154E+02  0.39480254644E+02  0.66660758757E+02  0.00000000000E+00 0. -1.
<scales pt_clust_5="13000.00000" pt_clust_6="13000.00000" pt_clust_7="13000.00000" pt_clust_8="13000.00000" pt_clust_9="53.71188"></scales>
<clustering>
<clus scale="   53.712">  1  9  2 -1</clus>
<clus scale="   90.947">  7  8 -1 -1</clus>
<clus scale="   91.827">  5  6 -1 -1</clus>
<clus scale="   92.230">  1  7  2 -1</clus>
<clus scale="   53.712">  1  5  2 -1</clus>
</clustering>
</event>
<event>
 9    1  0.1435532E-005  0.1560357E+03  0.7546771E-02  0.1193271E+00
         -1   -1    0    0    0  501 -0.00000000000E+00  0.00000000000E+00  0.30269637764E+02  0.30269637764E+02  0.00000000000E+00 0.  1.
          1   -1    0    0  502    0  0.00000000000E+00 -0.00000000000E+00 -0.15991360099E+04  0.15991360099E+04  0.00000000000E+00 0. -1.
         23    2    1    2    0    0  0.75034055643E+02 -0.42294300617E+02 -0.33835655744E+03  0.36095957463E+03  0.91584590299E+02 0.  0.
         23    2    1    2    0    0 -0.16954672983E+03 -0.71456051245E+01 -0.92441681088E+03  0.94430123373E+03  0.91439742586E+02 0.  0.
        -11    1    3    3    0    0  0.62481540955E+02 -0.67369716918E+02 -0.20444787841E+03  0.22414628417E+03  0.00000000000E+00 0. -1.
         11    1    3    3    0    0  0.12552514688E+02  0.25075416301E+02 -0.13390867903E+03  0.13681329046E+03  0.00000000000E+00 0.  1.
        -11    1    4    4    0    0 -0.30486674632E+02  0.35636287270E+02 -0.25156462591E+03  0.25589869735E+03  0.00000000000E+00 0.  1.
         11    1    4    4    0    0 -0.13906005520E+03 -0.42781892395E+02 -0.67285218497E+03  0.68840253637E+03  0.00000000000E+00 0. -1.
         21    1    1    2  502  501  0.94512674187E+02  0.49439905742E+02 -0.30609300378E+03  0.32414483927E+03  0.00000000000E+00 0.  1.
<scales pt_clust_5="13000.00000" pt_clust_6="13000.00000" pt_clust_7="13000.00000" pt_clust_8="13000.00000" pt_clust_9="106.66279"></scales>
<clustering>
<clus scale="   91.440">  7  8 -1 -1</clus>
<clus scale="   91.585">  5  6 -1 -1</clus>
<clus scale="  106.663">  1  9  2 -1</clus>
<clus scale="  155.951">  2  7  1 -1</clus>
<clus scale="  155.951">  2  5  1 -1</clus>
</clustering>
</event>
<event>
 9    1  0.1435532E-005  0.9623683E+02  0.7546771E-02  0.1289272E+00
          2   -1    0    0  502    0  0.00000000000E+00  0.00000000000E+00  0.61591548130E+03  0.61591548130E+03  0.00000000000E+00 0. -1.
         -2   -1    0    0    0  501 -0.00000000000E+00 -0.00000000000E+00 -0.15207355982E+03  0.15207355982E+03  0.00000000000E+00 0.  1.
         23    2    1    2    0    0  0.10166782044E+02  0.24701420768E+02 -0.12705735845E+03  0.15923215675E+03  0.92183424550E+02 0.  0.
         23    2    1    2    0    0 -0.45234151776E+02 -0.34947042759E+02  0.38403064100E+03  0.39868706989E+03  0.90578265503E+02 0.  0.
        -11    1    3    3    0    0  0.11600730053E+02  0.56976112745E+02 -0.10528526219E+03  0.12027402378E+03  0.00000000000E+00 0.  1.
         11    1    3    3    0    0 -0.14339480091E+01 -0.32274691978E+02 -0.21772096262E+02  0.38958132973E+02  0.00000000000E+00 0. -1.
        -13    1    4    4    0    0 -0.33679092430E+01  0.28118242341E+02  0.15216795344E+03  0.15478069782E+03  0.00000000000E+00 0.  1.
         13    1    4    4    0    0 -0.41866242533E+02 -0.63065285101E+02  0.23186268756E+03  0.24390637206E+03  0.00000000000E+00 0. -1.
         21    1    1    2  502  501  0.35067369732E+02  0.10245621992E+02  0.20686863892E+03  0.21006981449E+03  0.00000000000E+00 0.  1.
<scales pt_clust_5="13000.00000" pt_clust_6="13000.00000" pt_clust_7="13000.00000" pt_clust_8="13000.00000" pt_clust_9="36.53345"></scales>
<clustering>
<clus scale="   36.533">  1  9  2 -1</clus>
<clus scale="   90.578">  7  8 -1 -1</clus>
<clus scale="   92.183">  5  6 -1 -1</clus>
<clus scale="   94.700">  1  7  2 -1</clus>
<clus scale="   36.533">  1  5  2 -1</clus>
</clustering>
</event>
<event>
 9    1  0.1435532E-005  0.1153297E+03  0.7546771E-02  0.1256709E+00
         -3   -1    0    0    0  501 -0.00000000000E+00  0.00000000000E+00  0.19083558771E+03  0.19083558771E+03  0.00000000000E+00 0.  1.
          3   -1    0    0  502    0  0.00000000000E+00 -0.00000000000E+00 -0.92964039391E+02  0.92964039391E+02  0.00000000000E+00 0. -1.
         23    2    1    2    0    0  0.39066366033E+02  0.45741512039E+02  0.88943580983E+02  0.14063063182E+03  0.90816007014E+02 0.  0.
         23    2    1    2    0    0 -0.16004978517E+02 -0.19343734855E+02  0.30022211666E+01  0.10761924561E+03  0.10460664069E+03 0.  0.
        -11    1    3    3    0    0  0.26228893272E+02 -0.24530169426E+02  0.18884510055E+02  0.40574730737E+02  0.00000000000E+00 0. -1.
         11    1    3    3    0    0  0.12837472760E+02  0.70271681464E+02  0.70059070928E+02  0.10005590109E+03  0.00000000000E+00 0.  1.
        -13    1    4    4    0    0 -0.26670912857E+02  0.46053768787E+01  0.48251304739E+02  0.55323914339E+02  0.00000000000E+00 0.  1.
         13    1    4    4    0    0  0.10665934339E+02 -0.23949111734E+02 -0.45249083572E+02  0.52295331267E+02  0.00000000000E+00 0. -1.
         21    1    1    2  502  501 -0.23061387515E+02 -0.26397777183E+02  0.59257461727E+01  0.35549749676E+02  0.00000000000E+00 0. -1.
<scales pt_clust_5="13000.00000" pt_clust_6="13000.00000" pt_clust_7="13000.00000" pt_clust_8="13000.00000" pt_clust_9="35.05239"></scales>
<clustering>
<clus scale="   35.052">  2  9  1 -1</clus>
<clus scale="   90.816">  5  6 -1 -1</clus>
<clus scale="  102.985">  1  5  2 -1</clus>
<clus scale="  104.607">  7  8 -1 -1</clus>
<clus scale="   35.052">  2  5  1 -1</clus>
</clustering>
</event>
<event>
 9    1  0.1435532E-005  0.2423061E+03  0.7546771E-02  0.1153120E+00
          1   -1    0    0  502    0  0.00000000000E+00  0.00000000000E+00  0.83996833229E+03  0.83996833229E+03  0.00000000000E+00 0. -1.
         -1   -1    0    0    0  501 -0.00000000000E+00 -0.00000000000E+00 -0.13640927052E+03  0.13640927052E+03  0.00000000000E+00 0.  1.
         23    2    1    2    0    0  0.43374924380E+02  0.20658946877E+03  0.66170342761E+02  0.23947387363E+03  0.91698578054E+02 0.  0.
         23    2    1    2    0    0  0.15682938422E+01  0.54156072765E+02  0.20945185687E+03  0.23377542718E+03  0.88574997856E+02 0.  0.
        -13    1    3    3    0    0  0.16447804530E+01  0.16571790829E+03  0.24054840890E+02  0.16746272959E+03  0.00000000000E+00 0. -1.
         13    1    3    3    0    0  0.41730143927E+02  0.40871560485E+02  0.42115501871E+02  0.72011144044E+02  0.00000000000E+00 0.  1.
        -13    1    4    4    0    0  0.41405754801E+02  0.19980254597E+02  0.13552091725E+03  0.14310683463E+03  0.00000000000E+00 0. -1.
         13    1    4    4    0    0 -0.39837460959E+02  0.34175818167E+02  0.73930939619E+02  0.90668592555E+02  0.00000000000E+00 0.  1.
         21    1    1    2  502  501 -0.44943218222E+02 -0.26074554154E+03  0.42793686213E+03  0.50312830199E+03  0.00000000000E+00 0.  1.
<scales pt_clust_5="13000.00000" pt_clust_6="13000.00000" pt_clust_7="13000.00000" pt_clust_8="13000.00000" pt_clust_9="224.28468"></scales>
<clustering>
<clus scale="   88.575">  7  8 -1 -1</clus>
<clus scale="   91.699">  5  6 -1 -1</clus>
<clus scale="  103.831">  1  7  2 -1</clus>
<clus scale="  224.285">  1  9  2 -1</clus>
<clus scale="  103.831">  1  5  2 -1</clus>
</clustering>
</event>
<event>
 9    1  0.1435532E-005  0.2346568E+03  0.7546771E-02  0.1151499E+00
          2   -1    0    0  502    0  0.00000000000E+00  0.00000000000E+00  0.18150017899E+04  0.18150017899E+04  0.00000000000E+00 0. -1.
         -2   -1    0    0    0  501 -0.00000000000E+00 -0.00000000000E+00 -0.49808593469E+02  0.49808593469E+02  0.00000000000E+00 0.  1.
         23    2    1    2    0    0  0.10292903021E+03 -0.16795054029E+03  0.50561547875E+03  0.55010499540E+03  0.90369930685E+02 0.  0.
         23    2    1    2    0    0  0.68750495181E+02 -0.78015710197E+01  0.58107951664E+03  0.59309436193E+03  0.96540263136E+02 0.  0.
        -13    1    4    4    0    0  0.49279040350E+02  0.41183566570E+02  0.26651237738E+03  0.27414112655E+03  0.00000000000E+00 0. -1.
         13    1    4    4    0    0  0.19471454831E+02 -0.48985137590E+02  0.31456713926E+03  0.31895323538E+03  0.00000000000E+00 0.  1.
        -13    1    3    3    0    0  0.77770994959E+02 -0.15604915657E+03  0.48523657325E+03  0.51561051089E+03  0.00000000000E+00 0.  1.
         13    1    3    3    0    0  0.25158035254E+02 -0.11901383719E+02  0.20378905499E+02  0.34494484510E+02  0.00000000000E+00 0. -1.
         21    1    1    2  502  501 -0.17167952539E+03  0.17575211131E+03  0.67849820103E+03  0.72161102602E+03  0.00000000000E+00 0. -1.
<scales pt_clust_5="13000.00000" pt_clust_6="13000.00000" pt_clust_7="13000.00000" pt_clust_8="13000.00000" pt_clust_9="216.55739"></scales>
<clustering>
<clus scale="   90.370">  7  8 -1 -1</clus>
<clus scale="   96.540">  5  6 -1 -1</clus>
<clus scale="  118.775">  1  5  2 -1</clus>
<clus scale="  216.557">  1  9  2 -1</clus>
<clus scale="  118.775">  1  5  2 -1</clus>
</clustering>
</event>
